 vasp.5.4.4.18Apr17-6-g9f103f2a35 (build Aug 13 2019 17:33:20) gamma-only       
  
 executed on             LinuxIFC date 2020.05.10  11:52:55
 running on   12 total cores
 distrk:  each k-point on   12 cores,    1 groups
 distr:  one band on NCORES_PER_BAND=   6 cores,    2 groups


--------------------------------------------------------------------------------------------------------


 INCAR:
 POTCAR:    PAW_PBE Ni_pv 06Sep2000               
 POTCAR:    PAW_PBE S 06Sep2000                   
 POTCAR:    PAW_PBE Ni_pv 06Sep2000               
   VRHFIN =Ni:                                                                  
   LEXCH  = PE                                                                  
   EATOM  =  3501.1230 eV,  257.3253 Ry                                         
                                                                                
   TITEL  = PAW_PBE Ni_pv 06Sep2000                                             
   LULTRA =        F    use ultrasoft PP ?                                      
   IUNSCR =        1    unscreen: 0-lin 1-nonlin 2-no                           
   RPACOR =    1.500    partial core radius                                     
   POMASS =   58.690; ZVAL   =   16.000    mass and valenz                      
   RCORE  =    2.000    outmost cutoff radius                                   
   RWIGS  =    2.000; RWIGS  =    1.058    wigner-seitz radius (au A)           
   ENMAX  =  367.986; ENMIN  =  275.989 eV                                      
   RCLOC  =    1.301    cutoff for local pot                                    
   LCOR   =        T    correct aug charges                                     
   LPAW   =        T    paw PP                                                  
   EAUG   =  703.443                                                            
   DEXC   =    0.000                                                            
   RMAX   =    2.041    core radius for proj-oper                               
   RAUG   =    1.300    factor for augmentation sphere                          
   RDEP   =    2.103    radius for radial grids                                 
   RDEPT  =    1.618    core radius for aug-charge                              
                                                                                
   Atomic configuration                                                         
    8 entries                                                                   
     n  l   j            E        occ.                                          
     1  0  0.50     -8206.4253   2.0000                                         
     2  0  0.50      -976.1748   2.0000                                         
     2  1  1.50      -839.0571   6.0000                                         
     3  0  0.50      -105.9991   2.0000                                         
     3  1  1.50       -66.4603   6.0000                                         
     3  2  2.50        -4.6458   9.0000                                         
     4  0  0.50        -4.4926   1.0000                                         
     4  3  2.50        -1.3606   0.0000                                         
   Description                                                                  
     l       E           TYP  RCUT    TYP  RCUT                                 
     1    -66.4602962     23  1.700                                             
     1     -1.3605826     23  1.700                                             
     2     -4.6457867     23  2.000                                             
     2     -6.0063693     23  2.000                                             
     0     -4.4925576     23  1.900                                             
     0     16.3626226     23  1.900                                             
  local pseudopotential read in
  partial core-charges read in
  partial kinetic energy density read in
  atomic valenz-charges read in
  non local Contribution for L=           1  read in
    real space projection operators read in
  non local Contribution for L=           1  read in
    real space projection operators read in
  non local Contribution for L=           2  read in
    real space projection operators read in
  non local Contribution for L=           2  read in
    real space projection operators read in
  non local Contribution for L=           0  read in
    real space projection operators read in
  non local Contribution for L=           0  read in
    real space projection operators read in
    PAW grid and wavefunctions read in
 
   number of l-projection  operators is LMAX  =           6
   number of lm-projection operators is LMMAX =          18
 
 POTCAR:    PAW_PBE S 06Sep2000                   
   VRHFIN =S : s2p4                                                             
   LEXCH  = PE                                                                  
   EATOM  =   276.8230 eV,   20.3459 Ry                                         
                                                                                
   TITEL  = PAW_PBE S 06Sep2000                                                 
   LULTRA =        F    use ultrasoft PP ?                                      
   IUNSCR =        1    unscreen: 0-lin 1-nonlin 2-no                           
   RPACOR =    1.500    partial core radius                                     
   POMASS =   32.066; ZVAL   =    6.000    mass and valenz                      
   RCORE  =    1.900    outmost cutoff radius                                   
   RWIGS  =    2.200; RWIGS  =    1.164    wigner-seitz radius (au A)           
   ENMAX  =  258.689; ENMIN  =  194.016 eV                                      
   ICORE  =        2    local potential                                         
   LCOR   =        T    correct aug charges                                     
   LPAW   =        T    paw PP                                                  
   EAUG   =  335.092                                                            
   DEXC   =    0.000                                                            
   RMAX   =    1.942    core radius for proj-oper                               
   RAUG   =    1.300    factor for augmentation sphere                          
   RDEP   =    1.954    radius for radial grids                                 
   RDEPT  =    1.744    core radius for aug-charge                              
                                                                                
   Atomic configuration                                                         
    6 entries                                                                   
     n  l   j            E        occ.                                          
     1  0  0.50     -2405.8406   2.0000                                         
     2  0  0.50      -211.7007   2.0000                                         
     2  1  1.50      -156.4958   6.0000                                         
     3  0  0.50       -17.2562   2.0000                                         
     3  1  0.50        -7.0085   4.0000                                         
     3  2  1.50        -6.8029   0.0000                                         
   Description                                                                  
     l       E           TYP  RCUT    TYP  RCUT                                 
     0    -17.2561641     23  1.900                                             
     0    -15.8743224     23  1.900                                             
     1     -7.0085400     23  1.900                                             
     1     -2.7779785     23  1.900                                             
     2     -6.8029130     23  1.900                                             
  local pseudopotential read in
  partial core-charges read in
  partial kinetic energy density read in
  atomic valenz-charges read in
  non local Contribution for L=           0  read in
    real space projection operators read in
  non local Contribution for L=           0  read in
    real space projection operators read in
  non local Contribution for L=           1  read in
    real space projection operators read in
  non local Contribution for L=           1  read in
    real space projection operators read in
    PAW grid and wavefunctions read in
 
   number of l-projection  operators is LMAX  =           4
   number of lm-projection operators is LMMAX =           8
 
 Optimization of the real space projectors (new method)

 maximal supplied QI-value         = 18.90
 optimisation between [QCUT,QGAM] = [ 10.77, 21.73] = [ 32.49,132.25] Ry 
 Optimized for a Real-space Cutoff    1.38 Angstroem

   l    n(q)    QCUT    max X(q) W(low)/X(q) W(high)/X(q)  e(spline) 
   1      8    10.771     2.836    0.40E-04    0.29E-04    0.12E-06
   1      8    10.771     4.023    0.10E-03    0.48E-04    0.29E-06
   2      8    10.771    73.368    0.42E-03    0.97E-04    0.44E-06
   2      8    10.771    69.010    0.42E-03    0.99E-04    0.45E-06
   0      9    10.771    54.797    0.10E-03    0.56E-04    0.74E-07
   0      9    10.771    24.266    0.89E-04    0.49E-04    0.67E-07
 Optimization of the real space projectors (new method)

 maximal supplied QI-value         = 19.84
 optimisation between [QCUT,QGAM] = [ 10.71, 21.63] = [ 32.15,130.99] Ry 
 Optimized for a Real-space Cutoff    1.19 Angstroem

   l    n(q)    QCUT    max X(q) W(low)/X(q) W(high)/X(q)  e(spline) 
   0      8    10.715   187.594    0.41E-03    0.53E-04    0.66E-07
   0      8    10.715   164.243    0.41E-03    0.53E-04    0.65E-07
   1      7    10.715    67.533    0.19E-03    0.59E-03    0.68E-07
   1      7    10.715    50.729    0.19E-03    0.58E-03    0.67E-07
  PAW_PBE Ni_pv 06Sep2000               :
 energy of atom  1       EATOM=-3501.1230
 kinetic energy error for atom=    0.0925 (will be added to EATOM!!)
  PAW_PBE S 06Sep2000                   :
 energy of atom  2       EATOM= -276.8230
 kinetic energy error for atom=    0.0033 (will be added to EATOM!!)
 
 
 POSCAR: Type_026 Type_126                       
  positions in cartesian coordinates
  No initial velocities read in
 exchange correlation table for  LEXCH =        8
   RHO(1)=    0.500       N(1)  =     2000
   RHO(2)=  100.500       N(2)  =     4000
 


--------------------------------------------------------------------------------------------------------


 ion  position               nearest neighbor table
   1  0.439  0.464  0.163-  33 2.09  43 2.11  28 2.25  34 2.36  44 2.36   5 2.53  22 2.53
   2  0.499  0.444  0.331-  45 2.07  40 2.08  44 2.10  34 2.12  23 2.34
   3  0.237  0.827  0.104-  35 2.05  28 2.07  36 2.09  32 2.14
   4  0.208  0.977  0.235-  32 2.06  37 2.07  27 2.10  36 2.13  26 2.39  12 2.48
   5  0.439  0.200  0.163-  38 2.05  33 2.21  32 2.25  34 2.36  39 2.36   1 2.53  22 2.53
   6  0.473  0.178  0.315-  40 2.01  39 2.04  34 2.05
   7  0.215  0.535  0.095-  28 2.06  29 2.08  35 2.09  33 2.13   9 2.45  24 2.45
   8  0.203  0.689  0.233-  36 2.07  37 2.08  28 2.09  30 2.09  26 2.52  12 2.53
   9  0.128  0.331  0.159-  27 2.12  29 2.13  30 2.14  33 2.15   7 2.45  14 2.48
  10  0.185  0.332  0.302-  31 2.04  27 2.11  30 2.11  34 2.14  19 2.53
  11  0.504  0.969  0.100-  50 2.06  32 2.10  51 2.13  38 2.19  16 2.39
  12  0.390  0.834  0.218-  32 2.07  28 2.10  37 2.21  13 2.36  51 2.37   4 2.48   8 2.53
  13  0.552  0.836  0.305-  52 2.00  51 2.21  12 2.36  17 2.39  21 2.43
  14  0.939  0.464  0.163-  29 2.03  41 2.25  49 2.36  30 2.36  24 2.37  48 2.38   9 2.48
  15  0.982  0.474  0.323-  31 2.05  30 2.07  49 2.08  42 2.10
  16  0.684  0.096  0.122-  46 1.99  38 2.07  50 2.22  39 2.27  48 2.29  22 2.36  11 2.39
  17  0.715  0.964  0.253-  52 2.05  39 2.25  51 2.26  46 2.26  13 2.39  25 2.53  21 2.53  47 2.62

  18  0.923  0.172  0.196-  46 2.07  49 2.08  48 2.13  27 2.25  19 2.46  47 2.47
  19  0.992  0.206  0.330-  31 2.04  27 2.11  47 2.11  49 2.12  18 2.46  10 2.53
  20  0.673  0.712  0.096-  51 2.05  41 2.10  43 2.11  50 2.12
  21  0.715  0.700  0.253-  52 2.05  44 2.25  51 2.26  41 2.26  13 2.43  25 2.53  17 2.53
  22  0.631  0.332  0.139-  48 2.09  43 2.11  38 2.16  16 2.36  39 2.36  44 2.36   1 2.53   5 2.53

  23  0.682  0.332  0.319-  45 2.06  40 2.07  49 2.25  39 2.26  44 2.26   2 2.34
  24  0.029  0.667  0.110-  35 2.06  36 2.10  29 2.18  41 2.28  14 2.37   7 2.45
  25  0.907  0.832  0.229-  47 2.09  42 2.10  36 2.25  41 2.26  46 2.26  26 2.39  17 2.53  21 2.53

  26  0.073  0.846  0.314-  42 2.07  37 2.15  47 2.18  36 2.33  25 2.39   4 2.39   8 2.52
  27  0.111  0.164  0.239-   4 2.10  19 2.11  10 2.11   9 2.12  18 2.25  47 2.77
  28  0.336  0.664  0.149-   7 2.06   3 2.07   8 2.09  12 2.10   1 2.25
  29  0.048  0.452  0.069-  14 2.03   7 2.08   9 2.13  24 2.18  35 2.76
  30  0.111  0.500  0.239-  15 2.07   8 2.09  10 2.11   9 2.14  14 2.36
  31  0.076  0.350  0.397-  19 2.04  10 2.04  15 2.05
  32  0.336  1.000  0.149-   4 2.06  12 2.07  11 2.10   3 2.14   5 2.25
  33  0.306  0.342  0.112-   1 2.09   7 2.13   9 2.15   5 2.21  34 2.79
  34  0.368  0.332  0.269-   6 2.05   2 2.12  10 2.14   1 2.36   5 2.36  33 2.79
  35  0.155  0.699  0.025-   3 2.05  24 2.06   7 2.09  29 2.76
  36  0.092  0.832  0.179-   8 2.07   3 2.09  24 2.10   4 2.13  25 2.25  26 2.33
  37  0.264  0.831  0.316-   4 2.07   8 2.08  26 2.15  12 2.21
  38  0.541  0.184  0.064-   5 2.05  16 2.07  22 2.16  11 2.19
  39  0.611  0.164  0.239-   6 2.04  17 2.25  23 2.26  16 2.27  22 2.36   5 2.36
  40  0.556  0.280  0.401-   6 2.01  23 2.07   2 2.08  45 2.53
  41  0.836  0.664  0.149-  20 2.10  14 2.25  25 2.26  21 2.26  24 2.28
  42  0.946  0.690  0.318-  26 2.07  25 2.10  15 2.10
  43  0.579  0.522  0.088-   1 2.11  22 2.11  20 2.11  44 2.63
  44  0.611  0.500  0.239-   2 2.10  21 2.25  23 2.26  22 2.36   1 2.36  45 2.47  43 2.63
  45  0.656  0.514  0.380-  23 2.06   2 2.07  44 2.47  40 2.53
  46  0.836  1.000  0.149-  16 1.99  18 2.07  25 2.26  17 2.26  48 2.79
  47  0.933  0.002  0.304-  25 2.09  19 2.11  26 2.18  18 2.47  17 2.62  27 2.77
  48  0.809  0.285  0.119-  22 2.09  18 2.13  16 2.29  14 2.38  49 2.71  46 2.79
  49  0.868  0.332  0.269-  18 2.08  15 2.08  19 2.12  23 2.25  14 2.36  48 2.71
  50  0.659  0.912  0.045-  11 2.06  20 2.12  16 2.22  51 2.56
  51  0.592  0.832  0.179-  20 2.05  11 2.13  13 2.21  17 2.26  21 2.26  12 2.37  50 2.56
  52  0.717  0.832  0.346-  13 2.00  21 2.05  17 2.05
 
  LATTYP: Found a simple orthorhombic cell.
 ALAT       =     9.5784100000
 B/A-ratio  =     1.1751911892
 C/A-ratio  =     1.7949213288
  
  Lattice vectors:
  
 A1 = (   0.0000000000,  -9.5784100000,   0.0000000000)
 A2 = ( -11.2564630382,   0.0000000000,   0.0000000000)
 A3 = (   0.0000000000,   0.0000000000, -17.1924924047)


Analysis of symmetry for initial positions (statically):
=====================================================================
 Subroutine PRICEL returns:
 Original cell was already a primitive cell.
 

 Routine SETGRP: Setting up the symmetry group for a 
 simple orthorhombic supercell.


 Subroutine GETGRP returns: Found  1 space group operations
 (whereof  1 operations were pure point group operations)
 out of a pool of  8 trial point group operations.


The static configuration has the point symmetry C_1 .


Analysis of symmetry for dynamics (positions and initial velocities):
=====================================================================
 Subroutine PRICEL returns:
 Original cell was already a primitive cell.
 

 Routine SETGRP: Setting up the symmetry group for a 
 simple orthorhombic supercell.


 Subroutine GETGRP returns: Found  1 space group operations
 (whereof  1 operations were pure point group operations)
 out of a pool of  8 trial point group operations.


The dynamic configuration has the point symmetry C_1 .


 Subroutine INISYM returns: Found  1 space group operations
 (whereof  1 operations are pure point group operations),
 and found     1 'primitive' translations

 
 
 KPOINTS: gamma-point-only calculation. no periodi

Automatic generation of k-mesh.
Space group operators:
 irot       det(A)        alpha          n_x          n_y          n_z        tau_x        tau_y        tau_z
    1     1.000000     0.000000     1.000000     0.000000     0.000000     0.000000     0.000000     0.000000
 
 Subroutine IBZKPT returns following result:
 ===========================================
 
 Found      1 irreducible k-points:
 
 Following reciprocal coordinates:
            Coordinates               Weight
  0.000000  0.000000  0.000000      1.000000
 
 Following cartesian coordinates:
            Coordinates               Weight
  0.000000  0.000000  0.000000      1.000000
 


--------------------------------------------------------------------------------------------------------




 Dimension of arrays:
   k-points           NKPTS =      1   k-points in BZ     NKDIM =      1   number of bands    NBANDS=    344
   number of dos      NEDOS =    301   number of ions     NIONS =     52
   non local maximal  LDIM  =      6   non local SUM 2l+1 LMDIM =     18
   total plane-waves  NPLWV = 270000
   max r-space proj   IRMAX =   1656   max aug-charges    IRDMAX=   4788
   dimension x,y,z NGX =    60 NGY =   50 NGZ =   90
   dimension x,y,z NGXF=   120 NGYF=  100 NGZF=  180
   support grid    NGXF=   120 NGYF=  100 NGZF=  180
   ions per type =              26  26
   NGX,Y,Z   is equivalent  to a cutoff of   8.86,  8.68,  8.70 a.u.
   NGXF,Y,Z  is equivalent  to a cutoff of  17.72, 17.36, 17.41 a.u.

 SYSTEM =  "Millerite NiS"                         
 POSCAR =  Type_026 Type_126                       

 Startparameter for this run:
   NWRITE =      2    write-flag & timer
   PREC   = normal    normal or accurate (medium, high low for compatibility)
   ISTART =      0    job   : 0-new  1-cont  2-samecut
   ICHARG =      2    charge: 1-file 2-atom 10-const
   ISPIN  =      1    spin polarized calculation?
   LNONCOLLINEAR =      F non collinear calculations
   LSORBIT =      F    spin-orbit coupling
   INIWAV =      1    electr: 0-lowe 1-rand  2-diag
   LASPH  =      F    aspherical Exc in radial PAW
   METAGGA=      F    non-selfconsistent MetaGGA calc.

 Electronic Relaxation 1
   ENCUT  =  450.0 eV  33.07 Ry    5.75 a.u.  19.47 16.57 29.74*2*pi/ulx,y,z
   ENINI  =  450.0     initial cutoff
   ENAUG  =  703.4 eV  augmentation charge cutoff
   NELM   =    100;   NELMIN=  2; NELMDL= -5     # of ELM steps 
   EDIFF  = 0.1E-03   stopping-criterion for ELM
   LREAL  =      T    real-space projection
   NLSPLINE    = F    spline interpolate recip. space projectors
   LCOMPAT=      F    compatible to vasp.4.4
   GGA_COMPAT  = T    GGA compatible to vasp.4.4-vasp.4.6
   LMAXPAW     = -100 max onsite density
   LMAXMIX     =    2 max onsite mixed and CHGCAR
   VOSKOWN=      0    Vosko Wilk Nusair interpolation
   ROPT   =   -0.00050  -0.00050
 Ionic relaxation
   EDIFFG = 0.1E-02   stopping-criterion for IOM
   NSW    =      0    number of steps for IOM
   NBLOCK =      1;   KBLOCK =      1    inner block; outer block 
   IBRION =     -1    ionic relax: 0-MD 1-quasi-New 2-CG
   NFREE  =      0    steps in history (QN), initial steepest desc. (CG)
   ISIF   =      2    stress and relaxation
   IWAVPR =     10    prediction:  0-non 1-charg 2-wave 3-comb
   ISYM   =      2    0-nonsym 1-usesym 2-fastsym
   LCORR  =      T    Harris-Foulkes like correction to forces

   POTIM  = 0.5000    time-step for ionic-motion
   TEIN   =    0.0    initial temperature
   TEBEG  =    0.0;   TEEND  =   0.0 temperature during run
   SMASS  =  -3.00    Nose mass-parameter (am)
   estimated Nose-frequenzy (Omega)   =  0.10E-29 period in steps =****** mass=  -0.290E-26a.u.
   SCALEE = 1.0000    scale energy and forces
   NPACO  =    256;   APACO  = 16.0  distance and # of slots for P.C.
   PSTRESS=    0.0 pullay stress

  Mass of Ions in am
   POMASS =  58.69 32.07
  Ionic Valenz
   ZVAL   =  16.00  6.00
  Atomic Wigner-Seitz radii
   RWIGS  =  -1.00 -1.00
  virtual crystal weights 
   VCA    =   1.00  1.00
   NELECT =     572.0000    total number of electrons
   NUPDOWN=      -1.0000    fix difference up-down

 DOS related values:
   EMIN   =  10.00;   EMAX   =-10.00  energy-range for DOS
   EFERMI =   0.00
   ISMEAR =     0;   SIGMA  =   0.20  broadening in eV -4-tet -1-fermi 0-gaus

 Electronic relaxation 2 (details)
   IALGO  =     38    algorithm
   LDIAG  =      T    sub-space diagonalisation (order eigenvalues)
   LSUBROT=      F    optimize rotation matrix (better conditioning)
   TURBO    =      0    0=normal 1=particle mesh
   IRESTART =      0    0=no restart 2=restart with 2 vectors
   NREBOOT  =      0    no. of reboots
   NMIN     =      0    reboot dimension
   EREF     =   0.00    reference energy to select bands
   IMIX   =      4    mixing-type and parameters
     AMIX     =   0.40;   BMIX     =  1.00
     AMIX_MAG =   1.60;   BMIX_MAG =  1.00
     AMIN     =   0.10
     WC   =   100.;   INIMIX=   1;  MIXPRE=   1;  MAXMIX= -45

 Intra band minimization:
   WEIMIN = 0.0000     energy-eigenvalue tresh-hold
   EBREAK =  0.73E-07  absolut break condition
   DEPER  =   0.30     relativ break condition  

   TIME   =   0.40     timestep for ELM

  volume/ion in A,a.u.               =      35.65       240.56
  Fermi-wavevector in a.u.,A,eV,Ry     =   1.106272  2.090552 16.651337  1.223839
  Thomas-Fermi vector in A             =   2.242771
 
 Write flags
   LWAVE        =      F    write WAVECAR
   LDOWNSAMPLE  =      F    k-point downsampling of WAVECAR
   LCHARG       =      F    write CHGCAR
   LVTOT        =      F    write LOCPOT, total local potential
   LVHAR        =      F    write LOCPOT, Hartree potential only
   LELF         =      F    write electronic localiz. function (ELF)
   LORBIT       =      0    0 simple, 1 ext, 2 COOP (PROOUT), +10 PAW based schemes


 Dipole corrections
   LMONO  =      F    monopole corrections only (constant potential shift)
   LDIPOL =      F    correct potential (dipole corrections)
   IDIPOL =      0    1-x, 2-y, 3-z, 4-all directions 
   EPSILON=  1.0000000 bulk dielectric constant

 Exchange correlation treatment:
   GGA     =    --    GGA type
   LEXCH   =     8    internal setting for exchange type
   VOSKOWN=      0    Vosko Wilk Nusair interpolation
   LHFCALC =     F    Hartree Fock is set to
   LHFONE  =     F    Hartree Fock one center treatment
   AEXX    =    0.0000 exact exchange contribution

 Linear response parameters
   LEPSILON=     F    determine dielectric tensor
   LRPA    =     F    only Hartree local field effects (RPA)
   LNABLA  =     F    use nabla operator in PAW spheres
   LVEL    =     F    velocity operator in full k-point grid
   LINTERFAST=   F  fast interpolation
   KINTER  =     0    interpolate to denser k-point grid
   CSHIFT  =0.1000    complex shift for real part using Kramers Kronig
   OMEGAMAX=  -1.0    maximum frequency
   DEG_THRESHOLD= 0.2000000E-02 threshold for treating states as degnerate
   RTIME   =   -0.100 relaxation time in fs
  (WPLASMAI=    0.000 imaginary part of plasma frequency in eV, 0.658/RTIME)
   DFIELD  = 0.0000000 0.0000000 0.0000000 field for delta impulse in time
 
 Orbital magnetization related:
   ORBITALMAG=     F  switch on orbital magnetization
   LCHIMAG   =     F  perturbation theory with respect to B field
   DQ        =  0.001000  dq finite difference perturbation B field
   LLRAUG    =     F  two centre corrections for induced B field



--------------------------------------------------------------------------------------------------------


 Static calculation
 charge density and potential will be updated during run
 non-spin polarized calculation
 Variant of blocked Davidson
 Davidson routine will perform the subspace rotation
 perform sub-space diagonalisation
    after iterative eigenvector-optimisation
 modified Broyden-mixing scheme, WC =      100.0
 initial mixing is a Kerker type mixing with AMIX =  0.4000 and BMIX =      1.0000
 Hartree-type preconditioning will be used
 using additional bands           58
 real space projection scheme for non local part
 use partial core corrections
 calculate Harris-corrections to forces 
   (improved forces if not selfconsistent)
 use gradient corrections 
 use of overlap-Matrix (Vanderbilt PP)
 Gauss-broadening in eV      SIGMA  =   0.20


--------------------------------------------------------------------------------------------------------


  energy-cutoff  :      450.00
  volume of cell :     1853.68
      direct lattice vectors                 reciprocal lattice vectors
    11.256463038  0.000000000  0.000000000     0.088837852  0.000000000  0.000000000
     0.000000000  9.578410000  0.000000000     0.000000000  0.104401461  0.000000000
     0.000000000  0.000000000 17.192492405     0.000000000  0.000000000  0.058164923

  length of vectors
    11.256463038  9.578410000 17.192492405     0.088837852  0.104401461  0.058164923


 
 k-points in units of 2pi/SCALE and weight: gamma-point-only calculation. no periodi
   0.00000000  0.00000000  0.00000000       1.000
 
 k-points in reciprocal lattice and weights: gamma-point-only calculation. no periodi
   0.00000000  0.00000000  0.00000000       1.000
 
 position of ions in fractional coordinates (direct lattice) 
   0.43933499  0.46388800  0.16283377
   0.49862086  0.44442702  0.33147275
   0.23732446  0.82665373  0.10372560
   0.20831417  0.97682347  0.23459011
   0.43933499  0.19968200  0.16283377
   0.47269013  0.17769995  0.31501999
   0.21469599  0.53493486  0.09456999
   0.20325214  0.68931717  0.23306606
   0.12833546  0.33059140  0.15863545
   0.18467069  0.33174608  0.30243081
   0.50444843  0.96868253  0.10020057
   0.38961253  0.83359770  0.21774666
   0.55167183  0.83577152  0.30505382
   0.93933499  0.46388800  0.16283377
   0.98158647  0.47401011  0.32271709
   0.68401339  0.09551992  0.12172468
   0.71526096  0.96388800  0.25253989
   0.92279474  0.17181194  0.19551156
   0.99172357  0.20581167  0.33007666
   0.67261540  0.71195714  0.09628317
   0.71526096  0.69968200  0.25253989
   0.63063970  0.33178500  0.13913288
   0.68249164  0.33178500  0.31854512
   0.02930496  0.66661119  0.10997908
   0.90656566  0.83178500  0.22883899
   0.07341953  0.84621347  0.31397206
   0.11148904  0.16357000  0.23893853
   0.33556306  0.66357000  0.14923241
   0.04821929  0.45224293  0.06890949
   0.11148904  0.50000000  0.23893853
   0.07633633  0.35017648  0.39736019
   0.33556306  1.00000000  0.14923241
   0.30566961  0.34225906  0.11203795
   0.36788880  0.33178500  0.26911836
   0.15497144  0.69918004  0.02474542
   0.09196284  0.83178500  0.17941224
   0.26356391  0.83132465  0.31601768
   0.54119742  0.18366435  0.06445234
   0.61148904  0.16357000  0.23893853
   0.55619513  0.28022831  0.40103313
   0.83556306  0.66357000  0.14923241
   0.94645869  0.68965449  0.31836484
   0.57877536  0.52189770  0.08786254
   0.61148904  0.50000000  0.23893853
   0.65644178  0.51399444  0.37951658
   0.83556306  1.00000000  0.14923241
   0.93256660  0.00185363  0.30353525
   0.80886532  0.28453361  0.11872383
   0.86788880  0.33178500  0.26911836
   0.65896232  0.91193858  0.04457085
   0.59196284  0.83178500  0.17941224
   0.71746299  0.83150242  0.34639860
 
 position of ions in cartesian coordinates  (Angst):
   4.94535808  4.44330943  2.79951837
   5.61270730  4.25690421  5.69884276
   2.67143401  7.91802837  1.78330153
   2.34488071  9.35641568  4.03318875
   4.94535808  1.91263604  2.79951837
   5.32081900  1.70208301  5.41597873
   2.41671745  5.12382542  1.62589377
   2.28790019  6.60256252  4.00698640
   1.44460333  3.16653998  2.72733884
   2.07873880  3.17759993  5.19953936
   5.67830513  9.27843844  1.72269753
   4.38565900  7.98454058  3.74360772
   6.20987362  8.00536231  5.24463549
  10.57358960  4.44330943  2.79951837
  11.04919179  4.54026314  5.54831120
   7.69957143  0.91492898  2.09275072
   8.05130860  9.23251443  4.34179014
  10.38740487  1.64568516  3.36133093
  11.16329967  1.97134860  5.67484040
   7.57127035  6.81941741  1.65534763
   8.05130860  6.70184104  4.34179014
   7.09877251  3.17797273  2.39204091
   7.68244189  3.17797273  5.47658447
   0.32987025  6.38507528  1.89081445
  10.20472287  7.96717773  3.93431268
   0.82644428  8.10537959  5.39796218
   1.25497224  1.56674049  4.10794885
   3.77725322  6.35594549  2.56567706
   0.54277870  4.33176819  1.18472591
   1.25497224  4.78920497  4.10794885
   0.85927706  3.35413385  6.83161198
   3.77725322  9.57840997  2.56567706
   3.44075867  3.27829759  1.92621163
   4.14112671  3.17797273  4.62681534
   1.74443024  6.69703306  0.42543544
   1.03517635  7.96717773  3.08454356
   2.96679742  7.96276830  5.43313158
   6.09196871  1.75921246  1.10809639
   6.88320375  1.56674049  4.10794885
   6.26078995  2.68414166  6.89475910
   9.40548473  6.35594549  2.56567706
  10.65377731  6.60579346  5.47348514
   6.51496350  4.99895020  1.51057602
   6.88320375  4.78920497  4.10794885
   7.38921263  4.92324950  6.52483589
   9.40548473  9.57840997  2.56567706
  10.49740146  0.01775479  5.21852748
   9.10496258  2.72537962  2.04115859
   9.76935823  3.17797273  4.62681534
   7.41758501  8.73492160  0.76628394
   6.66340787  7.96717773  3.08454356
   8.07609567  7.96447105  5.95545525
 


--------------------------------------------------------------------------------------------------------


 use parallel FFT for orbitals z direction half grid
 k-point  1 :   0.0000 0.0000 0.0000  plane waves:   20117

 maximum and minimum number of plane-waves per node :      3359     3348

 maximum number of plane-waves:     20117
 maximum index in each direction: 
   IXMAX=   19   IYMAX=   16   IZMAX=   29
   IXMIN=  -19   IYMIN=  -16   IZMIN=    0


 real space projection operators:
  total allocation   :       7327.05 KBytes
  max/ min on nodes  :       1228.16       1213.95


 parallel 3D FFT for wavefunctions:
    minimum data exchange during FFTs selected (reduces bandwidth)
 parallel 3D FFT for charge:
    minimum data exchange during FFTs selected (reduces bandwidth)


 total amount of memory used by VASP MPI-rank0    60038. kBytes
=======================================================================

   base      :      30000. kBytes
   nonlr-proj:       1503. kBytes
   fftplans  :       7078. kBytes
   grid      :      11974. kBytes
   one-center:         69. kBytes
   wavefun   :       9414. kBytes
 
     INWAV:  cpu time    0.0000: real time    0.0000
 Broyden mixing: mesh for mixing (old mesh)
   NGX = 39   NGY = 33   NGZ = 59
  (NGX  =120   NGY  =100   NGZ  =180)
  gives a total of  75933 points

 initial charge density was supplied:
 charge density of overlapping atoms calculated
 number of electron     572.0000000 magnetization 
 keeping initial charge density in first step


--------------------------------------------------------------------------------------------------------


 Maximum index for non-local projection operator          267
 Maximum index for augmentation-charges          428 (set IRDMAX)


--------------------------------------------------------------------------------------------------------


 First call to EWALD:  gamma=   0.144
 Maximum number of real-space cells 3x 3x 2
 Maximum number of reciprocal cells 3x 2x 4

    FEWALD:  cpu time    0.0061: real time    0.0061


--------------------------------------- Iteration      1(   1)  ---------------------------------------


    POTLOK:  cpu time    0.2197: real time    0.2197
    SETDIJ:  cpu time    0.0148: real time    0.0148
     EDDAV:  cpu time    4.1327: real time    4.1336
       DOS:  cpu time    0.0012: real time    0.0012
    --------------------------------------------
      LOOP:  cpu time    4.3683: real time    4.3693

 eigenvalue-minimisations  :   848
 total energy-change (2. order) : 0.6494852E+04  (-0.3664424E+05)
 number of electron     572.0000000 magnetization 
 augmentation part      572.0000000 magnetization 

 Free energy of the ion-electron system (eV)
  ---------------------------------------------------
  alpha Z        PSCENC =      1046.73971423
  Ewald energy   TEWEN  =    128586.95830650
  -Hartree energ DENC   =   -215510.43498130
  -exchange      EXHF   =         0.00000000
  -V(xc)+E(xc)   XCENC  =      2661.70909031
  PAW double counting   =     81415.77407466   -84963.31414086
  entropy T*S    EENTRO =        -0.33760261
  eigenvalues    EBANDS =     -4966.34619705
  atomic energy  EATOM  =     98224.10364994
  Solvation  Ediel_sol  =         0.00000000
  ---------------------------------------------------
  free energy    TOTEN  =      6494.85191381 eV

  energy without entropy =     6495.18951643  energy(sigma->0) =     6495.02071512


--------------------------------------------------------------------------------------------------------




--------------------------------------- Iteration      1(   2)  ---------------------------------------


     EDDAV:  cpu time    3.7045: real time    3.7056
       DOS:  cpu time    0.0011: real time    0.0011
    --------------------------------------------
      LOOP:  cpu time    3.7056: real time    3.7067

 eigenvalue-minimisations  :   736
 total energy-change (2. order) :-0.6142187E+04  (-0.5928991E+04)
 number of electron     572.0000000 magnetization 
 augmentation part      572.0000000 magnetization 

 Free energy of the ion-electron system (eV)
  ---------------------------------------------------
  alpha Z        PSCENC =      1046.73971423
  Ewald energy   TEWEN  =    128586.95830650
  -Hartree energ DENC   =   -215510.43498130
  -exchange      EXHF   =         0.00000000
  -V(xc)+E(xc)   XCENC  =      2661.70909031
  PAW double counting   =     81415.77407466   -84963.31414086
  entropy T*S    EENTRO =        -0.60663094
  eigenvalues    EBANDS =    -11108.26439554
  atomic energy  EATOM  =     98224.10364994
  Solvation  Ediel_sol  =         0.00000000
  ---------------------------------------------------
  free energy    TOTEN  =       352.66468700 eV

  energy without entropy =      353.27131794  energy(sigma->0) =      352.96800247


--------------------------------------------------------------------------------------------------------




--------------------------------------- Iteration      1(   3)  ---------------------------------------


     EDDAV:  cpu time    3.7098: real time    3.7106
       DOS:  cpu time    0.0009: real time    0.0009
    --------------------------------------------
      LOOP:  cpu time    3.7107: real time    3.7115

 eigenvalue-minimisations  :   792
 total energy-change (2. order) :-0.6012186E+03  (-0.5790558E+03)
 number of electron     572.0000000 magnetization 
 augmentation part      572.0000000 magnetization 

 Free energy of the ion-electron system (eV)
  ---------------------------------------------------
  alpha Z        PSCENC =      1046.73971423
  Ewald energy   TEWEN  =    128586.95830650
  -Hartree energ DENC   =   -215510.43498130
  -exchange      EXHF   =         0.00000000
  -V(xc)+E(xc)   XCENC  =      2661.70909031
  PAW double counting   =     81415.77407466   -84963.31414086
  entropy T*S    EENTRO =        -0.88344886
  eigenvalues    EBANDS =    -11709.20620270
  atomic energy  EATOM  =     98224.10364994
  Solvation  Ediel_sol  =         0.00000000
  ---------------------------------------------------
  free energy    TOTEN  =      -248.55393808 eV

  energy without entropy =     -247.67048923  energy(sigma->0) =     -248.11221366


--------------------------------------------------------------------------------------------------------




--------------------------------------- Iteration      1(   4)  ---------------------------------------


     EDDAV:  cpu time    3.8223: real time    3.8228
       DOS:  cpu time    0.0010: real time    0.0010
    --------------------------------------------
      LOOP:  cpu time    3.8233: real time    3.8237

 eigenvalue-minimisations  :   792
 total energy-change (2. order) :-0.3106964E+02  (-0.3076065E+02)
 number of electron     572.0000000 magnetization 
 augmentation part      572.0000000 magnetization 

 Free energy of the ion-electron system (eV)
  ---------------------------------------------------
  alpha Z        PSCENC =      1046.73971423
  Ewald energy   TEWEN  =    128586.95830650
  -Hartree energ DENC   =   -215510.43498130
  -exchange      EXHF   =         0.00000000
  -V(xc)+E(xc)   XCENC  =      2661.70909031
  PAW double counting   =     81415.77407466   -84963.31414086
  entropy T*S    EENTRO =        -0.90071629
  eigenvalues    EBANDS =    -11740.25857951
  atomic energy  EATOM  =     98224.10364994
  Solvation  Ediel_sol  =         0.00000000
  ---------------------------------------------------
  free energy    TOTEN  =      -279.62358232 eV

  energy without entropy =     -278.72286603  energy(sigma->0) =     -279.17322418


--------------------------------------------------------------------------------------------------------




--------------------------------------- Iteration      1(   5)  ---------------------------------------


     EDDAV:  cpu time    4.1687: real time    4.1700
       DOS:  cpu time    0.0011: real time    0.0010
    CHARGE:  cpu time    0.1506: real time    0.1506
    MIXING:  cpu time    0.0104: real time    0.0104
    --------------------------------------------
      LOOP:  cpu time    4.3307: real time    4.3321

 eigenvalue-minimisations  :   880
 total energy-change (2. order) :-0.1214553E+01  (-0.1212975E+01)
 number of electron     572.0000347 magnetization 
 augmentation part      207.3472690 magnetization 

 Broyden mixing:
  rms(total) = 0.86220E+01    rms(broyden)= 0.86164E+01
  rms(prec ) = 0.90014E+01
  weight for this iteration     100.00

 Free energy of the ion-electron system (eV)
  ---------------------------------------------------
  alpha Z        PSCENC =      1046.73971423
  Ewald energy   TEWEN  =    128586.95830650
  -Hartree energ DENC   =   -215510.43498130
  -exchange      EXHF   =         0.00000000
  -V(xc)+E(xc)   XCENC  =      2661.70909031
  PAW double counting   =     81415.77407466   -84963.31414086
  entropy T*S    EENTRO =        -0.90123848
  eigenvalues    EBANDS =    -11741.47261055
  atomic energy  EATOM  =     98224.10364994
  Solvation  Ediel_sol  =         0.00000000
  ---------------------------------------------------
  free energy    TOTEN  =      -280.83813555 eV

  energy without entropy =     -279.93689707  energy(sigma->0) =     -280.38751631


--------------------------------------------------------------------------------------------------------




--------------------------------------- Iteration      1(   6)  ---------------------------------------


    POTLOK:  cpu time    0.2046: real time    0.2046
    SETDIJ:  cpu time    0.0159: real time    0.0159
     EDDAV:  cpu time    4.1868: real time    4.1873
       DOS:  cpu time    0.0011: real time    0.0011
    CHARGE:  cpu time    0.1415: real time    0.1415
    MIXING:  cpu time    0.0079: real time    0.0079
    --------------------------------------------
      LOOP:  cpu time    4.5577: real time    4.5583

 eigenvalue-minimisations  :   880
 total energy-change (2. order) :-0.3989150E+02  (-0.6639739E+02)
 number of electron     572.0000390 magnetization 
 augmentation part      249.3994740 magnetization 

 Broyden mixing:
  rms(total) = 0.12692E+02    rms(broyden)= 0.12690E+02
  rms(prec ) = 0.13235E+02
  weight for this iteration     100.00

 eigenvalues of (default mixing * dielectric matrix)
  average eigenvalue GAMMA=   0.2713
  0.2713

 Free energy of the ion-electron system (eV)
  ---------------------------------------------------
  alpha Z        PSCENC =      1046.73971423
  Ewald energy   TEWEN  =    128586.95830650
  -Hartree energ DENC   =   -213648.43968917
  -exchange      EXHF   =         0.00000000
  -V(xc)+E(xc)   XCENC  =      2610.07912077
  PAW double counting   =     85611.32150961   -88997.48046288
  entropy T*S    EENTRO =        -0.68414690
  eigenvalues    EBANDS =    -13753.32763871
  atomic energy  EATOM  =     98224.10364994
  Solvation  Ediel_sol  =         0.00000000
  ---------------------------------------------------
  free energy    TOTEN  =      -320.72963662 eV

  energy without entropy =     -320.04548972  energy(sigma->0) =     -320.38756317


--------------------------------------------------------------------------------------------------------




--------------------------------------- Iteration      1(   7)  ---------------------------------------


    POTLOK:  cpu time    0.2008: real time    0.2009
    SETDIJ:  cpu time    0.0163: real time    0.0163
     EDDAV:  cpu time    3.8359: real time    3.8365
       DOS:  cpu time    0.0012: real time    0.0012
    CHARGE:  cpu time    0.1383: real time    0.1383
    MIXING:  cpu time    0.0080: real time    0.0080
    --------------------------------------------
      LOOP:  cpu time    4.2005: real time    4.2011

 eigenvalue-minimisations  :   776
 total energy-change (2. order) : 0.6688711E+02  (-0.1454170E+02)
 number of electron     572.0000380 magnetization 
 augmentation part      236.6456304 magnetization 

 Broyden mixing:
  rms(total) = 0.51478E+01    rms(broyden)= 0.51469E+01
  rms(prec ) = 0.53734E+01
  weight for this iteration     100.00

 eigenvalues of (default mixing * dielectric matrix)
  average eigenvalue GAMMA=   0.6227
  0.8059  0.4395

 Free energy of the ion-electron system (eV)
  ---------------------------------------------------
  alpha Z        PSCENC =      1046.73971423
  Ewald energy   TEWEN  =    128586.95830650
  -Hartree energ DENC   =   -214467.73084775
  -exchange      EXHF   =         0.00000000
  -V(xc)+E(xc)   XCENC  =      2630.61535139
  PAW double counting   =     89289.15701346   -92786.81231578
  entropy T*S    EENTRO =        -0.68854917
  eigenvalues    EBANDS =    -12776.18484468
  atomic energy  EATOM  =     98224.10364994
  Solvation  Ediel_sol  =         0.00000000
  ---------------------------------------------------
  free energy    TOTEN  =      -253.84252186 eV

  energy without entropy =     -253.15397269  energy(sigma->0) =     -253.49824728


--------------------------------------------------------------------------------------------------------




--------------------------------------- Iteration      1(   8)  ---------------------------------------


    POTLOK:  cpu time    0.2016: real time    0.2016
    SETDIJ:  cpu time    0.0166: real time    0.0166
     EDDAV:  cpu time    4.2137: real time    4.2145
       DOS:  cpu time    0.0009: real time    0.0009
    CHARGE:  cpu time    0.1453: real time    0.1454
    MIXING:  cpu time    0.0079: real time    0.0079
    --------------------------------------------
      LOOP:  cpu time    4.5860: real time    4.5869

 eigenvalue-minimisations  :   952
 total energy-change (2. order) :-0.4703000E+02  (-0.1756668E+02)
 number of electron     572.0000393 magnetization 
 augmentation part      218.4756117 magnetization 

 Broyden mixing:
  rms(total) = 0.10918E+02    rms(broyden)= 0.10917E+02
  rms(prec ) = 0.12781E+02
  weight for this iteration     100.00

 eigenvalues of (default mixing * dielectric matrix)
  average eigenvalue GAMMA=   0.5572
  1.0697  0.4194  0.1825

 Free energy of the ion-electron system (eV)
  ---------------------------------------------------
  alpha Z        PSCENC =      1046.73971423
  Ewald energy   TEWEN  =    128586.95830650
  -Hartree energ DENC   =   -215161.56955034
  -exchange      EXHF   =         0.00000000
  -V(xc)+E(xc)   XCENC  =      2648.44444730
  PAW double counting   =     96003.63309890   -99602.77044681
  entropy T*S    EENTRO =        -0.73105627
  eigenvalues    EBANDS =    -12045.68068131
  atomic energy  EATOM  =     98224.10364994
  Solvation  Ediel_sol  =         0.00000000
  ---------------------------------------------------
  free energy    TOTEN  =      -300.87251787 eV

  energy without entropy =     -300.14146160  energy(sigma->0) =     -300.50698973


--------------------------------------------------------------------------------------------------------




--------------------------------------- Iteration      1(   9)  ---------------------------------------


    POTLOK:  cpu time    0.2410: real time    0.2410
    SETDIJ:  cpu time    0.0312: real time    0.0312
     EDDAV:  cpu time    4.1027: real time    4.1034
       DOS:  cpu time    0.0012: real time    0.0012
    CHARGE:  cpu time    0.1417: real time    0.1417
    MIXING:  cpu time    0.0080: real time    0.0080
    --------------------------------------------
      LOOP:  cpu time    4.5257: real time    4.5264

 eigenvalue-minimisations  :   880
 total energy-change (2. order) : 0.4201908E+02  (-0.8060989E+01)
 number of electron     572.0000359 magnetization 
 augmentation part      219.5287750 magnetization 

 Broyden mixing:
  rms(total) = 0.40695E+01    rms(broyden)= 0.40659E+01
  rms(prec ) = 0.45230E+01
  weight for this iteration     100.00

 eigenvalues of (default mixing * dielectric matrix)
  average eigenvalue GAMMA=   0.8071
  2.1655  0.4631  0.4631  0.1368

 Free energy of the ion-electron system (eV)
  ---------------------------------------------------
  alpha Z        PSCENC =      1046.73971423
  Ewald energy   TEWEN  =    128586.95830650
  -Hartree energ DENC   =   -215110.63969371
  -exchange      EXHF   =         0.00000000
  -V(xc)+E(xc)   XCENC  =      2646.80575065
  PAW double counting   =     98163.19251305  -101769.86742523
  entropy T*S    EENTRO =        -0.75192912
  eigenvalues    EBANDS =    -12045.39432587
  atomic energy  EATOM  =     98224.10364994
  Solvation  Ediel_sol  =         0.00000000
  ---------------------------------------------------
  free energy    TOTEN  =      -258.85343955 eV

  energy without entropy =     -258.10151044  energy(sigma->0) =     -258.47747500


--------------------------------------------------------------------------------------------------------




--------------------------------------- Iteration      1(  10)  ---------------------------------------


    POTLOK:  cpu time    0.2010: real time    0.2010
    SETDIJ:  cpu time    0.0161: real time    0.0161
     EDDAV:  cpu time    4.4540: real time    4.4550
       DOS:  cpu time    0.0010: real time    0.0010
    CHARGE:  cpu time    0.1415: real time    0.1415
    MIXING:  cpu time    0.0090: real time    0.0090
    --------------------------------------------
      LOOP:  cpu time    4.8226: real time    4.8236

 eigenvalue-minimisations  :   952
 total energy-change (2. order) :-0.9382757E+01  (-0.4687678E+01)
 number of electron     572.0000313 magnetization 
 augmentation part      221.5401000 magnetization 

 Broyden mixing:
  rms(total) = 0.69117E+01    rms(broyden)= 0.69097E+01
  rms(prec ) = 0.81774E+01
  weight for this iteration     100.00

 eigenvalues of (default mixing * dielectric matrix)
  average eigenvalue GAMMA=   0.7222
  2.3953  0.4668  0.4668  0.1410  0.1410

 Free energy of the ion-electron system (eV)
  ---------------------------------------------------
  alpha Z        PSCENC =      1046.73971423
  Ewald energy   TEWEN  =    128586.95830650
  -Hartree energ DENC   =   -214926.07684161
  -exchange      EXHF   =         0.00000000
  -V(xc)+E(xc)   XCENC  =      2641.91219313
  PAW double counting   =    104011.63573142  -107640.04448139
  entropy T*S    EENTRO =        -0.73657254
  eigenvalues    EBANDS =    -12212.72789611
  atomic energy  EATOM  =     98224.10364994
  Solvation  Ediel_sol  =         0.00000000
  ---------------------------------------------------
  free energy    TOTEN  =      -268.23619643 eV

  energy without entropy =     -267.49962390  energy(sigma->0) =     -267.86791017


--------------------------------------------------------------------------------------------------------




--------------------------------------- Iteration      1(  11)  ---------------------------------------


    POTLOK:  cpu time    0.2025: real time    0.2032
    SETDIJ:  cpu time    0.0158: real time    0.0158
     EDDAV:  cpu time    4.3806: real time    4.4861
       DOS:  cpu time    0.0010: real time    0.0010
    CHARGE:  cpu time    0.1471: real time    0.1472
    MIXING:  cpu time    0.0097: real time    0.0097
    --------------------------------------------
      LOOP:  cpu time    4.7568: real time    4.8630

 eigenvalue-minimisations  :   928
 total energy-change (2. order) : 0.1425923E+02  (-0.3169582E+01)
 number of electron     572.0000371 magnetization 
 augmentation part      225.0947876 magnetization 

 Broyden mixing:
  rms(total) = 0.28269E+01    rms(broyden)= 0.28241E+01
  rms(prec ) = 0.32639E+01
  weight for this iteration     100.00

 eigenvalues of (default mixing * dielectric matrix)
  average eigenvalue GAMMA=   0.6563
  2.4011  0.4678  0.4678  0.3408  0.1456  0.1149

 Free energy of the ion-electron system (eV)
  ---------------------------------------------------
  alpha Z        PSCENC =      1046.73971423
  Ewald energy   TEWEN  =    128586.95830650
  -Hartree energ DENC   =   -214870.91739669
  -exchange      EXHF   =         0.00000000
  -V(xc)+E(xc)   XCENC  =      2640.41044655
  PAW double counting   =    105341.34388888  -108973.21663181
  entropy T*S    EENTRO =        -0.65278569
  eigenvalues    EBANDS =    -12248.74615536
  atomic energy  EATOM  =     98224.10364994
  Solvation  Ediel_sol  =         0.00000000
  ---------------------------------------------------
  free energy    TOTEN  =      -253.97696346 eV

  energy without entropy =     -253.32417777  energy(sigma->0) =     -253.65057062


--------------------------------------------------------------------------------------------------------




--------------------------------------- Iteration      1(  12)  ---------------------------------------


    POTLOK:  cpu time    0.2044: real time    0.2047
    SETDIJ:  cpu time    0.0172: real time    0.0172
     EDDAV:  cpu time    4.3376: real time    4.3383
       DOS:  cpu time    0.0009: real time    0.0009
    CHARGE:  cpu time    0.1368: real time    0.1368
    MIXING:  cpu time    0.0093: real time    0.0093
    --------------------------------------------
      LOOP:  cpu time    4.7062: real time    4.7072

 eigenvalue-minimisations  :   928
 total energy-change (2. order) : 0.2451744E+01  (-0.1168530E+01)
 number of electron     572.0000367 magnetization 
 augmentation part      225.4919029 magnetization 

 Broyden mixing:
  rms(total) = 0.24096E+01    rms(broyden)= 0.24081E+01
  rms(prec ) = 0.28231E+01
  weight for this iteration     100.00

 eigenvalues of (default mixing * dielectric matrix)
  average eigenvalue GAMMA=   0.6256
  2.2825  0.6625  0.4972  0.4972  0.1776  0.1312  0.1312

 Free energy of the ion-electron system (eV)
  ---------------------------------------------------
  alpha Z        PSCENC =      1046.73971423
  Ewald energy   TEWEN  =    128586.95830650
  -Hartree energ DENC   =   -214876.38246861
  -exchange      EXHF   =         0.00000000
  -V(xc)+E(xc)   XCENC  =      2640.34965095
  PAW double counting   =    105216.48024005  -108848.04477845
  entropy T*S    EENTRO =        -0.71754901
  eigenvalues    EBANDS =    -12241.01198461
  atomic energy  EATOM  =     98224.10364994
  Solvation  Ediel_sol  =         0.00000000
  ---------------------------------------------------
  free energy    TOTEN  =      -251.52521902 eV

  energy without entropy =     -250.80767001  energy(sigma->0) =     -251.16644452


--------------------------------------------------------------------------------------------------------




--------------------------------------- Iteration      1(  13)  ---------------------------------------


    POTLOK:  cpu time    0.2037: real time    0.2037
    SETDIJ:  cpu time    0.0168: real time    0.0168
     EDDAV:  cpu time    4.3281: real time    4.3289
       DOS:  cpu time    0.0009: real time    0.0009
    CHARGE:  cpu time    0.1356: real time    0.1357
    MIXING:  cpu time    0.0100: real time    0.0100
    --------------------------------------------
      LOOP:  cpu time    4.6951: real time    4.6959

 eigenvalue-minimisations  :   920
 total energy-change (2. order) : 0.2509546E+01  (-0.6828559E+00)
 number of electron     572.0000369 magnetization 
 augmentation part      225.6322712 magnetization 

 Broyden mixing:
  rms(total) = 0.18056E+01    rms(broyden)= 0.18045E+01
  rms(prec ) = 0.21180E+01
  weight for this iteration     100.00

 eigenvalues of (default mixing * dielectric matrix)
  average eigenvalue GAMMA=   0.5795
  2.2581  0.5417  0.5417  0.4426  0.4426  0.1398  0.1398  0.1297

 Free energy of the ion-electron system (eV)
  ---------------------------------------------------
  alpha Z        PSCENC =      1046.73971423
  Ewald energy   TEWEN  =    128586.95830650
  -Hartree energ DENC   =   -214896.32490366
  -exchange      EXHF   =         0.00000000
  -V(xc)+E(xc)   XCENC  =      2640.45875844
  PAW double counting   =    104547.53144539  -108175.06489634
  entropy T*S    EENTRO =        -0.71377693
  eigenvalues    EBANDS =    -12222.70397076
  atomic energy  EATOM  =     98224.10364994
  Solvation  Ediel_sol  =         0.00000000
  ---------------------------------------------------
  free energy    TOTEN  =      -249.01567319 eV

  energy without entropy =     -248.30189626  energy(sigma->0) =     -248.65878473


--------------------------------------------------------------------------------------------------------




--------------------------------------- Iteration      1(  14)  ---------------------------------------


    POTLOK:  cpu time    0.2022: real time    0.2022
    SETDIJ:  cpu time    0.0164: real time    0.0164
     EDDAV:  cpu time    4.4779: real time    4.5394
       DOS:  cpu time    0.0010: real time    0.0010
    CHARGE:  cpu time    0.1412: real time    0.1412
    MIXING:  cpu time    0.0096: real time    0.0097
    --------------------------------------------
      LOOP:  cpu time    4.8483: real time    4.9099

 eigenvalue-minimisations  :   952
 total energy-change (2. order) : 0.1044982E+01  (-0.2505407E+00)
 number of electron     572.0000370 magnetization 
 augmentation part      225.5590870 magnetization 

 Broyden mixing:
  rms(total) = 0.13889E+01    rms(broyden)= 0.13884E+01
  rms(prec ) = 0.16032E+01
  weight for this iteration     100.00

 eigenvalues of (default mixing * dielectric matrix)
  average eigenvalue GAMMA=   0.5736
  2.2537  0.6863  0.6863  0.4630  0.4630  0.1961  0.1281  0.1281  0.1580

 Free energy of the ion-electron system (eV)
  ---------------------------------------------------
  alpha Z        PSCENC =      1046.73971423
  Ewald energy   TEWEN  =    128586.95830650
  -Hartree energ DENC   =   -214913.38780957
  -exchange      EXHF   =         0.00000000
  -V(xc)+E(xc)   XCENC  =      2640.66683053
  PAW double counting   =    104334.07248600  -107960.39281574
  entropy T*S    EENTRO =        -0.75754458
  eigenvalues    EBANDS =    -12205.97350844
  atomic energy  EATOM  =     98224.10364994
  Solvation  Ediel_sol  =         0.00000000
  ---------------------------------------------------
  free energy    TOTEN  =      -247.97069114 eV

  energy without entropy =     -247.21314656  energy(sigma->0) =     -247.59191885


--------------------------------------------------------------------------------------------------------




--------------------------------------- Iteration      1(  15)  ---------------------------------------


    POTLOK:  cpu time    0.2025: real time    0.2025
    SETDIJ:  cpu time    0.0164: real time    0.0164
     EDDAV:  cpu time    4.3916: real time    4.3923
       DOS:  cpu time    0.0012: real time    0.0012
    CHARGE:  cpu time    0.1884: real time    0.1884
    MIXING:  cpu time    0.0107: real time    0.0107
    --------------------------------------------
      LOOP:  cpu time    4.8109: real time    4.8116

 eigenvalue-minimisations  :   952
 total energy-change (2. order) : 0.3068738E+00  (-0.1145253E+00)
 number of electron     572.0000368 magnetization 
 augmentation part      225.5007298 magnetization 

 Broyden mixing:
  rms(total) = 0.12137E+01    rms(broyden)= 0.12134E+01
  rms(prec ) = 0.14254E+01
  weight for this iteration     100.00

 eigenvalues of (default mixing * dielectric matrix)
  average eigenvalue GAMMA=   0.5764
  2.2478  0.8739  0.8739  0.4676  0.4676  0.2753  0.1681  0.1328  0.1328  0.1240

 Free energy of the ion-electron system (eV)
  ---------------------------------------------------
  alpha Z        PSCENC =      1046.73971423
  Ewald energy   TEWEN  =    128586.95830650
  -Hartree energ DENC   =   -214920.10360040
  -exchange      EXHF   =         0.00000000
  -V(xc)+E(xc)   XCENC  =      2640.76504558
  PAW double counting   =    104212.07028160  -107836.80343652
  entropy T*S    EENTRO =        -0.77240886
  eigenvalues    EBANDS =    -12200.62136943
  atomic energy  EATOM  =     98224.10364994
  Solvation  Ediel_sol  =         0.00000000
  ---------------------------------------------------
  free energy    TOTEN  =      -247.66381737 eV

  energy without entropy =     -246.89140851  energy(sigma->0) =     -247.27761294


--------------------------------------------------------------------------------------------------------




--------------------------------------- Iteration      1(  16)  ---------------------------------------


    POTLOK:  cpu time    0.2039: real time    0.2039
    SETDIJ:  cpu time    0.0158: real time    0.0158
     EDDAV:  cpu time    4.1596: real time    4.1606
       DOS:  cpu time    0.0010: real time    0.0010
    CHARGE:  cpu time    0.1401: real time    0.1401
    MIXING:  cpu time    0.0109: real time    0.0109
    --------------------------------------------
      LOOP:  cpu time    4.5312: real time    4.5324

 eigenvalue-minimisations  :   936
 total energy-change (2. order) : 0.3609006E+00  (-0.4803630E-01)
 number of electron     572.0000365 magnetization 
 augmentation part      225.3666120 magnetization 

 Broyden mixing:
  rms(total) = 0.10472E+01    rms(broyden)= 0.10471E+01
  rms(prec ) = 0.12200E+01
  weight for this iteration     100.00

 eigenvalues of (default mixing * dielectric matrix)
  average eigenvalue GAMMA=   0.5755
  2.2341  1.0268  1.0268  0.4672  0.4672  0.3449  0.1981  0.1278  0.1278  0.1549
  0.1549

 Free energy of the ion-electron system (eV)
  ---------------------------------------------------
  alpha Z        PSCENC =      1046.73971423
  Ewald energy   TEWEN  =    128586.95830650
  -Hartree energ DENC   =   -214932.28586149
  -exchange      EXHF   =         0.00000000
  -V(xc)+E(xc)   XCENC  =      2640.88192431
  PAW double counting   =    104057.46469615  -107680.25722059
  entropy T*S    EENTRO =        -0.77973583
  eigenvalues    EBANDS =    -12190.12838998
  atomic energy  EATOM  =     98224.10364994
  Solvation  Ediel_sol  =         0.00000000
  ---------------------------------------------------
  free energy    TOTEN  =      -247.30291677 eV

  energy without entropy =     -246.52318095  energy(sigma->0) =     -246.91304886


--------------------------------------------------------------------------------------------------------




--------------------------------------- Iteration      1(  17)  ---------------------------------------


    POTLOK:  cpu time    0.2006: real time    0.2009
    SETDIJ:  cpu time    0.0159: real time    0.0159
     EDDAV:  cpu time    4.4250: real time    4.4259
       DOS:  cpu time    0.0009: real time    0.0009
    CHARGE:  cpu time    0.1380: real time    0.1380
    MIXING:  cpu time    0.0114: real time    0.0114
    --------------------------------------------
      LOOP:  cpu time    4.7918: real time    4.7930

 eigenvalue-minimisations  :   944
 total energy-change (2. order) : 0.2316091E+00  (-0.2648844E-01)
 number of electron     572.0000367 magnetization 
 augmentation part      225.2970658 magnetization 

 Broyden mixing:
  rms(total) = 0.95996E+00    rms(broyden)= 0.95987E+00
  rms(prec ) = 0.11252E+01
  weight for this iteration     100.00

 eigenvalues of (default mixing * dielectric matrix)
  average eigenvalue GAMMA=   0.6265
  2.2226  1.3943  1.3943  0.5228  0.4896  0.4896  0.2760  0.1825  0.1584  0.1308
  0.1308  0.1268

 Free energy of the ion-electron system (eV)
  ---------------------------------------------------
  alpha Z        PSCENC =      1046.73971423
  Ewald energy   TEWEN  =    128586.95830650
  -Hartree energ DENC   =   -214941.85270137
  -exchange      EXHF   =         0.00000000
  -V(xc)+E(xc)   XCENC  =      2640.95949566
  PAW double counting   =    103905.59501737  -107526.52541179
  entropy T*S    EENTRO =        -0.78820430
  eigenvalues    EBANDS =    -12182.26117390
  atomic energy  EATOM  =     98224.10364994
  Solvation  Ediel_sol  =         0.00000000
  ---------------------------------------------------
  free energy    TOTEN  =      -247.07130767 eV

  energy without entropy =     -246.28310337  energy(sigma->0) =     -246.67720552


--------------------------------------------------------------------------------------------------------




--------------------------------------- Iteration      1(  18)  ---------------------------------------


    POTLOK:  cpu time    0.2029: real time    0.2031
    SETDIJ:  cpu time    0.0157: real time    0.0157
     EDDAV:  cpu time    4.4270: real time    4.4275
       DOS:  cpu time    0.0009: real time    0.0009
    CHARGE:  cpu time    0.1375: real time    0.1376
    MIXING:  cpu time    0.0113: real time    0.0113
    --------------------------------------------
      LOOP:  cpu time    4.7952: real time    4.7960

 eigenvalue-minimisations  :   944
 total energy-change (2. order) : 0.3607395E+00  (-0.2583129E-01)
 number of electron     572.0000370 magnetization 
 augmentation part      225.1904722 magnetization 

 Broyden mixing:
  rms(total) = 0.74733E+00    rms(broyden)= 0.74720E+00
  rms(prec ) = 0.87065E+00
  weight for this iteration     100.00

 eigenvalues of (default mixing * dielectric matrix)
  average eigenvalue GAMMA=   0.6359
  2.2125  1.6403  1.6403  0.5554  0.4966  0.4966  0.3179  0.2021  0.1713  0.1308
  0.1308  0.1362  0.1362

 Free energy of the ion-electron system (eV)
  ---------------------------------------------------
  alpha Z        PSCENC =      1046.73971423
  Ewald energy   TEWEN  =    128586.95830650
  -Hartree energ DENC   =   -214963.96197204
  -exchange      EXHF   =         0.00000000
  -V(xc)+E(xc)   XCENC  =      2641.08201997
  PAW double counting   =    103560.20316707  -107176.57169548
  entropy T*S    EENTRO =        -0.81483268
  eigenvalues    EBANDS =    -12164.44892564
  atomic energy  EATOM  =     98224.10364994
  Solvation  Ediel_sol  =         0.00000000
  ---------------------------------------------------
  free energy    TOTEN  =      -246.71056812 eV

  energy without entropy =     -245.89573545  energy(sigma->0) =     -246.30315178


--------------------------------------------------------------------------------------------------------




--------------------------------------- Iteration      1(  19)  ---------------------------------------


    POTLOK:  cpu time    0.2043: real time    0.2044
    SETDIJ:  cpu time    0.0156: real time    0.0157
     EDDAV:  cpu time    4.4051: real time    4.4582
       DOS:  cpu time    0.0011: real time    0.0011
    CHARGE:  cpu time    0.1448: real time    0.1448
    MIXING:  cpu time    0.0121: real time    0.0121
    --------------------------------------------
      LOOP:  cpu time    4.7830: real time    4.8362

 eigenvalue-minimisations  :   944
 total energy-change (2. order) : 0.2766520E+00  (-0.3129655E-01)
 number of electron     572.0000363 magnetization 
 augmentation part      225.1285093 magnetization 

 Broyden mixing:
  rms(total) = 0.45088E+00    rms(broyden)= 0.45063E+00
  rms(prec ) = 0.51835E+00
  weight for this iteration     100.00

 eigenvalues of (default mixing * dielectric matrix)
  average eigenvalue GAMMA=   0.6659
  2.1838  1.8799  1.8799  0.6346  0.6346  0.4740  0.4740  0.2720  0.1932  0.1600
  0.1471  0.1307  0.1307  0.1284

 Free energy of the ion-electron system (eV)
  ---------------------------------------------------
  alpha Z        PSCENC =      1046.73971423
  Ewald energy   TEWEN  =    128586.95830650
  -Hartree energ DENC   =   -214982.88057372
  -exchange      EXHF   =         0.00000000
  -V(xc)+E(xc)   XCENC  =      2641.16938415
  PAW double counting   =    103266.63051046  -106879.13551115
  entropy T*S    EENTRO =        -0.82164262
  eigenvalues    EBANDS =    -12149.19775387
  atomic energy  EATOM  =     98224.10364994
  Solvation  Ediel_sol  =         0.00000000
  ---------------------------------------------------
  free energy    TOTEN  =      -246.43391609 eV

  energy without entropy =     -245.61227347  energy(sigma->0) =     -246.02309478


--------------------------------------------------------------------------------------------------------




--------------------------------------- Iteration      1(  20)  ---------------------------------------


    POTLOK:  cpu time    0.2083: real time    0.2083
    SETDIJ:  cpu time    0.0159: real time    0.0159
     EDDAV:  cpu time    4.4473: real time    4.4478
       DOS:  cpu time    0.0009: real time    0.0009
    CHARGE:  cpu time    0.1376: real time    0.1376
    MIXING:  cpu time    0.0120: real time    0.0120
    --------------------------------------------
      LOOP:  cpu time    4.8220: real time    4.8225

 eigenvalue-minimisations  :   952
 total energy-change (2. order) : 0.9079207E-01  (-0.1965725E-01)
 number of electron     572.0000367 magnetization 
 augmentation part      225.1617183 magnetization 

 Broyden mixing:
  rms(total) = 0.30548E+00    rms(broyden)= 0.30527E+00
  rms(prec ) = 0.34271E+00
  weight for this iteration     100.00

 eigenvalues of (default mixing * dielectric matrix)
  average eigenvalue GAMMA=   0.6551
  2.1873  1.9458  1.9458  0.7168  0.7168  0.4752  0.4752  0.2830  0.2137  0.1675
  0.1675  0.1310  0.1310  0.1409  0.1291

 Free energy of the ion-electron system (eV)
  ---------------------------------------------------
  alpha Z        PSCENC =      1046.73971423
  Ewald energy   TEWEN  =    128586.95830650
  -Hartree energ DENC   =   -214997.67075079
  -exchange      EXHF   =         0.00000000
  -V(xc)+E(xc)   XCENC  =      2641.16403221
  PAW double counting   =    102959.15899084  -106567.69932947
  entropy T*S    EENTRO =        -0.84101223
  eigenvalues    EBANDS =    -12138.25672523
  atomic energy  EATOM  =     98224.10364994
  Solvation  Ediel_sol  =         0.00000000
  ---------------------------------------------------
  free energy    TOTEN  =      -246.34312402 eV

  energy without entropy =     -245.50211179  energy(sigma->0) =     -245.92261790


--------------------------------------------------------------------------------------------------------




--------------------------------------- Iteration      1(  21)  ---------------------------------------


    POTLOK:  cpu time    0.2096: real time    0.2096
    SETDIJ:  cpu time    0.0145: real time    0.0145
     EDDAV:  cpu time    4.2124: real time    4.2130
       DOS:  cpu time    0.0010: real time    0.0009
    CHARGE:  cpu time    0.1406: real time    0.1406
    MIXING:  cpu time    0.0130: real time    0.0130
    --------------------------------------------
      LOOP:  cpu time    4.5910: real time    4.5916

 eigenvalue-minimisations  :   888
 total energy-change (2. order) : 0.2329545E-01  (-0.1017465E-01)
 number of electron     572.0000365 magnetization 
 augmentation part      225.1856256 magnetization 

 Broyden mixing:
  rms(total) = 0.19875E+00    rms(broyden)= 0.19854E+00
  rms(prec ) = 0.21995E+00
  weight for this iteration     100.00

 eigenvalues of (default mixing * dielectric matrix)
  average eigenvalue GAMMA=   0.6441
  2.1724  1.9752  1.9752  0.7743  0.7743  0.4745  0.4745  0.3804  0.2665  0.1793
  0.1793  0.1308  0.1308  0.1494  0.1410  0.1275

 Free energy of the ion-electron system (eV)
  ---------------------------------------------------
  alpha Z        PSCENC =      1046.73971423
  Ewald energy   TEWEN  =    128586.95830650
  -Hartree energ DENC   =   -215004.71150841
  -exchange      EXHF   =         0.00000000
  -V(xc)+E(xc)   XCENC  =      2641.16934348
  PAW double counting   =    102836.75015123  -106443.76634436
  entropy T*S    EENTRO =        -0.83873453
  eigenvalues    EBANDS =    -12132.72440665
  atomic energy  EATOM  =     98224.10364994
  Solvation  Ediel_sol  =         0.00000000
  ---------------------------------------------------
  free energy    TOTEN  =      -246.31982857 eV

  energy without entropy =     -245.48109404  energy(sigma->0) =     -245.90046130


--------------------------------------------------------------------------------------------------------




--------------------------------------- Iteration      1(  22)  ---------------------------------------


    POTLOK:  cpu time    0.2069: real time    0.2069
    SETDIJ:  cpu time    0.0144: real time    0.0144
     EDDAV:  cpu time    3.5135: real time    3.5139
       DOS:  cpu time    0.0010: real time    0.0010
    CHARGE:  cpu time    0.2121: real time    0.2121
    MIXING:  cpu time    0.0270: real time    0.0270
    --------------------------------------------
      LOOP:  cpu time    3.9749: real time    3.9753

 eigenvalue-minimisations  :   760
 total energy-change (2. order) : 0.5822237E-02  (-0.3973628E-02)
 number of electron     572.0000366 magnetization 
 augmentation part      225.2576696 magnetization 

 Broyden mixing:
  rms(total) = 0.17251E+00    rms(broyden)= 0.17249E+00
  rms(prec ) = 0.18841E+00
  weight for this iteration     100.00

 eigenvalues of (default mixing * dielectric matrix)
  average eigenvalue GAMMA=   0.6498
  2.1437  1.9856  1.9856  0.9303  0.9303  0.4814  0.4814  0.4007  0.4007  0.2624
  0.1926  0.1644  0.1581  0.1308  0.1308  0.1394  0.1284

 Free energy of the ion-electron system (eV)
  ---------------------------------------------------
  alpha Z        PSCENC =      1046.73971423
  Ewald energy   TEWEN  =    128586.95830650
  -Hartree energ DENC   =   -215007.86308196
  -exchange      EXHF   =         0.00000000
  -V(xc)+E(xc)   XCENC  =      2641.14803893
  PAW double counting   =    102766.59826247  -106373.02897705
  entropy T*S    EENTRO =        -0.83788140
  eigenvalues    EBANDS =    -12130.13203798
  atomic energy  EATOM  =     98224.10364994
  Solvation  Ediel_sol  =         0.00000000
  ---------------------------------------------------
  free energy    TOTEN  =      -246.31400633 eV

  energy without entropy =     -245.47612493  energy(sigma->0) =     -245.89506563


--------------------------------------------------------------------------------------------------------




--------------------------------------- Iteration      1(  23)  ---------------------------------------


    POTLOK:  cpu time    0.2821: real time    0.2821
    SETDIJ:  cpu time    0.0143: real time    0.0143
     EDDAV:  cpu time    3.8768: real time    3.8772
       DOS:  cpu time    0.0010: real time    0.0010
    CHARGE:  cpu time    0.1424: real time    0.1426
    MIXING:  cpu time    0.0137: real time    0.0137
    --------------------------------------------
      LOOP:  cpu time    4.3304: real time    4.3310

 eigenvalue-minimisations  :   848
 total energy-change (2. order) : 0.1900959E-02  (-0.3126076E-02)
 number of electron     572.0000364 magnetization 
 augmentation part      225.3168949 magnetization 

 Broyden mixing:
  rms(total) = 0.15578E+00    rms(broyden)= 0.15572E+00
  rms(prec ) = 0.17598E+00
  weight for this iteration     100.00

 eigenvalues of (default mixing * dielectric matrix)
  average eigenvalue GAMMA=   0.6871
  2.0812  1.6107  1.6107  1.7721  1.4328  0.7019  0.7019  0.4824  0.4824  0.2721
  0.1966  0.1789  0.1647  0.1516  0.1308  0.1308  0.1380  0.1281

 Free energy of the ion-electron system (eV)
  ---------------------------------------------------
  alpha Z        PSCENC =      1046.73971423
  Ewald energy   TEWEN  =    128586.95830650
  -Hartree energ DENC   =   -215012.91014555
  -exchange      EXHF   =         0.00000000
  -V(xc)+E(xc)   XCENC  =      2641.13858841
  PAW double counting   =    102678.84354878  -106284.62327593
  entropy T*S    EENTRO =        -0.83831177
  eigenvalues    EBANDS =    -12125.72417998
  atomic energy  EATOM  =     98224.10364994
  Solvation  Ediel_sol  =         0.00000000
  ---------------------------------------------------
  free energy    TOTEN  =      -246.31210537 eV

  energy without entropy =     -245.47379361  energy(sigma->0) =     -245.89294949


--------------------------------------------------------------------------------------------------------




--------------------------------------- Iteration      1(  24)  ---------------------------------------


    POTLOK:  cpu time    0.2059: real time    0.2058
    SETDIJ:  cpu time    0.0143: real time    0.0143
     EDDAV:  cpu time    4.4438: real time    4.4444
       DOS:  cpu time    0.0010: real time    0.0010
    CHARGE:  cpu time    0.1400: real time    0.1400
    MIXING:  cpu time    0.0146: real time    0.0146
    --------------------------------------------
      LOOP:  cpu time    4.8196: real time    4.8202

 eigenvalue-minimisations  :   952
 total energy-change (2. order) : 0.1826362E-02  (-0.3752085E-02)
 number of electron     572.0000366 magnetization 
 augmentation part      225.4189456 magnetization 

 Broyden mixing:
  rms(total) = 0.14707E+00    rms(broyden)= 0.14701E+00
  rms(prec ) = 0.16807E+00
  weight for this iteration     100.00

 eigenvalues of (default mixing * dielectric matrix)
  average eigenvalue GAMMA=   0.6888
  2.4425  1.7440  1.7440  1.5064  1.4516  0.7546  0.7546  0.4819  0.4819  0.2802
  0.2285  0.1949  0.1794  0.1640  0.1308  0.1308  0.1508  0.1281  0.1386

 Free energy of the ion-electron system (eV)
  ---------------------------------------------------
  alpha Z        PSCENC =      1046.73971423
  Ewald energy   TEWEN  =    128586.95830650
  -Hartree energ DENC   =   -215021.40449070
  -exchange      EXHF   =         0.00000000
  -V(xc)+E(xc)   XCENC  =      2641.12560460
  PAW double counting   =    102618.57197940  -106224.23739760
  entropy T*S    EENTRO =        -0.83567356
  eigenvalues    EBANDS =    -12117.33197180
  atomic energy  EATOM  =     98224.10364994
  Solvation  Ediel_sol  =         0.00000000
  ---------------------------------------------------
  free energy    TOTEN  =      -246.31027901 eV

  energy without entropy =     -245.47460544  energy(sigma->0) =     -245.89244223


--------------------------------------------------------------------------------------------------------




--------------------------------------- Iteration      1(  25)  ---------------------------------------


    POTLOK:  cpu time    0.2065: real time    0.2064
    SETDIJ:  cpu time    0.0144: real time    0.0144
     EDDAV:  cpu time    4.4709: real time    4.4716
       DOS:  cpu time    0.0010: real time    0.0009
    CHARGE:  cpu time    0.1397: real time    0.1397
    MIXING:  cpu time    0.0162: real time    0.0162
    --------------------------------------------
      LOOP:  cpu time    4.8486: real time    4.8494

 eigenvalue-minimisations  :   952
 total energy-change (2. order) : 0.7682153E-02  (-0.2495847E-02)
 number of electron     572.0000366 magnetization 
 augmentation part      225.4546313 magnetization 

 Broyden mixing:
  rms(total) = 0.10388E+00    rms(broyden)= 0.10381E+00
  rms(prec ) = 0.12156E+00
  weight for this iteration     100.00

 eigenvalues of (default mixing * dielectric matrix)
  average eigenvalue GAMMA=   0.7025
  2.5997  1.8901  1.8901  1.8134  1.0806  0.8233  0.8233  0.4816  0.4816  0.4947
  0.2688  0.2023  0.1891  0.1726  0.1308  0.1308  0.1615  0.1498  0.1281  0.1379

 Free energy of the ion-electron system (eV)
  ---------------------------------------------------
  alpha Z        PSCENC =      1046.73971423
  Ewald energy   TEWEN  =    128586.95830650
  -Hartree energ DENC   =   -215022.50527178
  -exchange      EXHF   =         0.00000000
  -V(xc)+E(xc)   XCENC  =      2641.11907149
  PAW double counting   =    102646.68267053  -106252.80912134
  entropy T*S    EENTRO =        -0.83518091
  eigenvalues    EBANDS =    -12115.75643551
  atomic energy  EATOM  =     98224.10364994
  Solvation  Ediel_sol  =         0.00000000
  ---------------------------------------------------
  free energy    TOTEN  =      -246.30259686 eV

  energy without entropy =     -245.46741595  energy(sigma->0) =     -245.88500640


--------------------------------------------------------------------------------------------------------




--------------------------------------- Iteration      1(  26)  ---------------------------------------


    POTLOK:  cpu time    0.2059: real time    0.3264
    SETDIJ:  cpu time    0.0141: real time    0.0141
     EDDAV:  cpu time    4.3862: real time    4.3868
       DOS:  cpu time    0.0010: real time    0.0010
    CHARGE:  cpu time    0.1323: real time    0.1323
    MIXING:  cpu time    0.0151: real time    0.0151
    --------------------------------------------
      LOOP:  cpu time    4.7547: real time    4.8758

 eigenvalue-minimisations  :   944
 total energy-change (2. order) : 0.3698523E-02  (-0.1065768E-02)
 number of electron     572.0000366 magnetization 
 augmentation part      225.5007501 magnetization 

 Broyden mixing:
  rms(total) = 0.56763E-01    rms(broyden)= 0.56691E-01
  rms(prec ) = 0.65097E-01
  weight for this iteration     100.00

 eigenvalues of (default mixing * dielectric matrix)
  average eigenvalue GAMMA=   0.6934
  2.6658  1.9549  1.9549  1.7871  0.9468  0.9059  0.9059  0.5646  0.4818  0.4818
  0.2731  0.2514  0.1999  0.1738  0.1738  0.1308  0.1308  0.1281  0.1602  0.1515
  0.1381

 Free energy of the ion-electron system (eV)
  ---------------------------------------------------
  alpha Z        PSCENC =      1046.73971423
  Ewald energy   TEWEN  =    128586.95830650
  -Hartree energ DENC   =   -215024.21109878
  -exchange      EXHF   =         0.00000000
  -V(xc)+E(xc)   XCENC  =      2641.10443920
  PAW double counting   =    102660.94745211  -106267.41208782
  entropy T*S    EENTRO =        -0.83420400
  eigenvalues    EBANDS =    -12113.69506971
  atomic energy  EATOM  =     98224.10364994
  Solvation  Ediel_sol  =         0.00000000
  ---------------------------------------------------
  free energy    TOTEN  =      -246.29889833 eV

  energy without entropy =     -245.46469433  energy(sigma->0) =     -245.88179633


--------------------------------------------------------------------------------------------------------




--------------------------------------- Iteration      1(  27)  ---------------------------------------


    POTLOK:  cpu time    0.2048: real time    0.2048
    SETDIJ:  cpu time    0.0141: real time    0.0141
     EDDAV:  cpu time    4.4404: real time    4.4582
       DOS:  cpu time    0.0010: real time    0.0010
    CHARGE:  cpu time    0.1527: real time    0.1527
    MIXING:  cpu time    0.0173: real time    0.0173
    --------------------------------------------
      LOOP:  cpu time    4.8302: real time    4.8481

 eigenvalue-minimisations  :   952
 total energy-change (2. order) : 0.1130721E-02  (-0.4548804E-03)
 number of electron     572.0000366 magnetization 
 augmentation part      225.5228623 magnetization 

 Broyden mixing:
  rms(total) = 0.28680E-01    rms(broyden)= 0.28619E-01
  rms(prec ) = 0.31873E-01
  weight for this iteration     100.00

 eigenvalues of (default mixing * dielectric matrix)
  average eigenvalue GAMMA=   0.6999
  2.6705  1.9612  1.9612  1.4641  1.3241  0.9608  0.9608  0.6358  0.6358  0.4824
[...]
    344       5.7865      0.00000


--------------------------------------------------------------------------------------------------------


 soft charge-density along one line, spin component           1
         0         1         2         3         4         5         6         7         8         9
 total charge-density along one line
 
 pseudopotential strength for first ion, spin component:           1
-65.933   0.025  -0.107  12.306  -0.012   0.046   0.011  -0.015
  0.025 -65.916  -0.024  -0.012  12.298   0.009   0.011   0.006
 -0.107  -0.024 -66.026   0.046   0.009  12.347   0.011   0.011
 12.306  -0.012   0.046   4.856   0.002  -0.012  -0.002   0.003
 -0.012  12.298   0.009   0.002   4.857  -0.003  -0.003  -0.001
  0.046   0.009  12.347  -0.012  -0.003   4.847  -0.003  -0.003
  0.011   0.011   0.011  -0.002  -0.003  -0.003 -11.192  -0.027
 -0.015   0.006   0.011   0.003  -0.001  -0.003  -0.027 -11.095
 -0.004  -0.013  -0.008   0.001   0.002   0.002   0.051   0.028
  0.011   0.006  -0.007  -0.003  -0.002   0.002   0.005  -0.106
 -0.002   0.004   0.009   0.000  -0.001  -0.003  -0.033  -0.021
  0.011   0.011   0.010  -0.003  -0.003  -0.003 -11.734  -0.027
 -0.015   0.006   0.011   0.003  -0.001  -0.003  -0.027 -11.638
 -0.004  -0.013  -0.008   0.001   0.002   0.002   0.051   0.027
  0.011   0.006  -0.007  -0.003  -0.002   0.002   0.005  -0.105
 -0.002   0.004   0.009   0.000  -0.001  -0.003  -0.032  -0.021
 -0.003   0.003  -0.003  -0.001   0.000   0.001   0.023  -0.007
 -0.006   0.006  -0.006  -0.002   0.001   0.001   0.048  -0.014
 total augmentation occupancy for first ion, spin component:           1
  1.995   0.000  -0.000  -0.017   0.000  -0.000   0.010   0.006  -0.003   0.006  -0.005  -0.010  -0.006   0.003  -0.006   0.005
  0.000   1.995  -0.000   0.000  -0.017  -0.000   0.006   0.006  -0.003  -0.006   0.005  -0.005  -0.006   0.004   0.006  -0.005
 -0.000  -0.000   1.995  -0.000  -0.000  -0.016   0.006   0.006  -0.004   0.017  -0.010  -0.006  -0.006   0.004  -0.016   0.010
 -0.017   0.000  -0.000   0.139  -0.007   0.026   0.233   0.124  -0.005   0.054  -0.028  -0.220  -0.123   0.007  -0.076   0.021
  0.000  -0.017  -0.000  -0.007   0.118  -0.005   0.081   0.093  -0.098  -0.115   0.090  -0.101  -0.089   0.076   0.112  -0.090
 -0.000  -0.000  -0.016   0.026  -0.005   0.164   0.033   0.040  -0.057   0.249  -0.173  -0.045  -0.067   0.066  -0.259   0.164
  0.010   0.006   0.006   0.233   0.081   0.033   4.141  -0.131  -0.273  -0.185  -0.279  -2.762  -0.022   0.097   0.083  -0.105
  0.006   0.006   0.006   0.124   0.093   0.040  -0.131   3.508   0.069   0.056   0.044  -0.020  -1.734   0.132  -0.571  -0.110
 -0.003  -0.003  -0.004  -0.005  -0.098  -0.057  -0.273   0.069   4.230   0.212  -0.146   0.123   0.133  -2.192   0.051   0.085
  0.006  -0.006   0.017   0.054  -0.115   0.249  -0.185   0.056   0.212   4.175   0.080   0.087  -0.570   0.058  -2.855  -0.063
 -0.005   0.005  -0.010  -0.028   0.090  -0.173  -0.279   0.044  -0.146   0.080   4.561  -0.106  -0.117   0.075  -0.073  -2.674
 -0.010  -0.005  -0.006  -0.220  -0.101  -0.045  -2.762  -0.020   0.123   0.087  -0.106   3.054   0.121  -0.010  -0.016   0.369
 -0.006  -0.006  -0.006  -0.123  -0.089  -0.067  -0.022  -1.734   0.133  -0.570  -0.117   0.121   1.742  -0.260   0.906   0.157
  0.003   0.004   0.004   0.007   0.076   0.066   0.097   0.132  -2.192   0.058   0.075  -0.010  -0.260   2.017  -0.231  -0.040
 -0.006   0.006  -0.016  -0.076   0.112  -0.259   0.083  -0.571   0.051  -2.855  -0.073  -0.016   0.906  -0.231   3.171   0.043
  0.005  -0.005   0.010   0.021  -0.090   0.164  -0.105  -0.110   0.085  -0.063  -2.674   0.369   0.157  -0.040   0.043   2.619
  0.008  -0.014   0.006  -0.025  -0.084   0.009  -0.761   0.340   0.576   0.150  -0.448   0.576  -0.221  -0.458  -0.146   0.343
 -0.004   0.007  -0.003   0.003   0.003  -0.000   0.069  -0.040  -0.062   0.011   0.048  -0.017   0.018   0.031  -0.001  -0.020


------------------------ aborting loop because EDIFF is reached ----------------------------------------


    CHARGE:  cpu time    0.1421: real time    0.1422
    FORLOC:  cpu time    0.0675: real time    0.0675
    FORNL :  cpu time    0.7147: real time    0.7147
    STRESS:  cpu time    2.1706: real time    2.1710
    FORCOR:  cpu time    0.2634: real time    0.2635
    FORHAR:  cpu time    0.1062: real time    0.1062
    MIXING:  cpu time    0.0183: real time    0.0183
    OFIELD:  cpu time    0.0001: real time    0.0001

  FORCE on cell =-STRESS in cart. coord.  units (eV):
  Direction    XX          YY          ZZ          XY          YZ          ZX
  --------------------------------------------------------------------------------------
  Alpha Z  1046.73971  1046.73971  1046.73971
  Ewald  165125.14380164481.44782************   921.90308   167.08613  -353.00341
  Hartree189508.45105189009.64414************   771.46662   109.05518  -369.88863
  E(xc)   -3652.99206 -3652.86510 -3657.97340     0.47883    -0.00593     0.42520
  Local  ************************355354.32634 -1693.25209  -279.47054   733.41808
  n-local  -417.59052  -421.36996  -434.25875    -0.33596     4.29462     4.11220
  augment  4171.33099  4175.73455  4192.66046     0.16759     0.31346    -5.41319
  Kinetic  8026.29939  8016.33524  8086.57810    -0.98025     1.94647    -7.94384
  Fock        0.00000     0.00000     0.00000     0.00000     0.00000     0.00000
  -------------------------------------------------------------------------------------
  Total     102.76537    98.04698    98.65476    -0.55218     3.21937     1.70640
  in kB      88.82253    84.74432    85.26964    -0.47726     2.78258     1.47488
  external pressure =       86.28 kB  Pullay stress =        0.00 kB


 VOLUME and BASIS-vectors are now :
 -----------------------------------------------------------------------------
  energy-cutoff  :      450.00
  volume of cell :     1853.68
      direct lattice vectors                 reciprocal lattice vectors
    11.256463038  0.000000000  0.000000000     0.088837852  0.000000000  0.000000000
     0.000000000  9.578410000  0.000000000     0.000000000  0.104401461  0.000000000
     0.000000000  0.000000000 17.192492405     0.000000000  0.000000000  0.058164923

  length of vectors
    11.256463038  9.578410000 17.192492405     0.088837852  0.104401461  0.058164923


 FORCES acting on ions
    electron-ion (+dipol)            ewald-force                    non-local-force                 convergence-correction
 -----------------------------------------------------------------------------------------------
   0.641E+02 -.424E+03 0.134E+04   -.634E+02 0.425E+03 -.134E+04   -.998E+00 -.121E+01 0.372E+01   -.250E-02 -.482E-01 -.733E-01
   0.684E+03 -.772E+03 -.319E+04   -.689E+03 0.774E+03 0.320E+04   0.363E+01 -.717E+00 -.146E+01   0.522E-01 -.576E-01 0.598E-01
   0.947E+01 -.722E+03 0.351E+04   -.979E+01 0.725E+03 -.352E+04   0.101E+01 -.118E+01 0.106E+02   0.489E-02 0.254E-01 -.151E+00
   -.360E+01 -.805E+03 -.761E+03   0.221E+01 0.813E+03 0.766E+03   0.717E+00 -.651E+01 -.435E+01   0.450E-01 0.252E-01 -.979E-01
   0.659E+03 0.111E+03 0.138E+04   -.662E+03 -.110E+03 -.138E+04   0.129E+01 -.138E+00 0.165E+01   0.117E-01 -.230E-01 -.453E-01
   0.505E+03 0.716E+03 -.304E+04   -.505E+03 -.719E+03 0.304E+04   -.973E+00 0.112E+01 -.375E+01   0.269E-01 0.324E-02 0.144E-01
   -.462E+03 0.356E+03 0.339E+04   0.463E+03 -.358E+03 -.340E+04   -.877E-01 0.830E+00 0.551E+01   0.497E-03 0.331E-01 -.128E+00
   -.250E+03 0.477E+03 -.132E+04   0.250E+03 -.483E+03 0.132E+04   -.887E+00 0.478E+01 -.434E+01   0.152E-01 0.161E-01 -.103E+00
   -.144E+03 0.855E+03 0.194E+04   0.146E+03 -.858E+03 -.194E+04   -.191E+01 0.260E+01 0.160E+01   -.256E-02 0.144E-02 -.125E+00
   -.742E+03 0.541E+02 -.272E+04   0.749E+03 -.532E+02 0.272E+04   -.506E+01 -.800E+00 -.424E+01   0.297E-01 -.579E-02 0.616E-02
   0.413E+03 0.272E+03 0.329E+04   -.413E+03 -.271E+03 -.329E+04   -.486E+00 -.450E+00 0.358E+01   -.339E-01 0.392E-01 -.865E-01
   -.347E+03 0.145E+03 -.591E+03   0.353E+03 -.146E+03 0.597E+03   -.451E+01 -.932E-01 -.565E+01   -.429E-01 0.396E-01 -.121E+00
   0.608E+03 0.959E+02 -.322E+04   -.608E+03 -.953E+02 0.322E+04   -.167E+01 -.503E+00 0.174E+01   0.589E-01 0.152E-01 0.306E-01
   0.727E+03 0.129E+03 0.155E+04   -.731E+03 -.128E+03 -.155E+04   0.235E+01 -.184E+01 0.218E+01   -.242E-01 0.190E-02 -.727E-01
   0.303E+03 -.507E+03 -.321E+04   -.304E+03 0.512E+03 0.321E+04   0.516E+00 -.341E+01 -.430E+01   -.650E-01 0.318E-01 0.258E-01
   -.633E+03 -.354E+01 0.275E+04   0.634E+03 0.349E+01 -.276E+04   -.132E+01 0.169E+00 0.342E+01   -.200E-01 0.141E-01 -.625E-01
   -.165E+03 -.422E+03 -.148E+04   0.164E+03 0.424E+03 0.148E+04   0.167E+01 -.953E+00 -.206E+01   0.282E-01 0.273E-01 -.117E-01
   -.125E+03 0.312E+03 0.108E+04   0.125E+03 -.315E+03 -.108E+04   0.108E+01 0.362E+01 0.520E+01   -.383E-01 0.430E-03 -.753E-01
   0.171E+03 0.542E+03 -.347E+04   -.172E+03 -.543E+03 0.347E+04   -.304E-01 -.221E+00 -.593E+01   -.548E-01 -.266E-02 0.240E-01
   -.150E+03 0.331E+03 0.335E+04   0.150E+03 -.334E+03 -.336E+04   -.555E+00 0.230E+01 0.364E+01   0.246E-01 0.143E-02 -.990E-01
   -.686E+02 0.642E+03 -.127E+04   0.683E+02 -.646E+03 0.127E+04   0.945E+00 0.319E+01 -.255E+01   0.538E-01 -.183E-01 -.750E-02
   -.452E+03 -.522E+03 0.222E+04   0.455E+03 0.526E+03 -.222E+04   -.290E+01 -.379E+01 0.305E+01   -.112E-01 -.432E-01 -.475E-01
   -.658E+03 0.161E+03 -.276E+04   0.666E+03 -.165E+03 0.276E+04   -.560E+01 0.320E+01 -.579E+00   -.195E-01 -.115E-01 0.381E-01
   0.701E+03 -.478E+03 0.304E+04   -.705E+03 0.479E+03 -.304E+04   0.263E+01 -.622E+00 0.435E+01   0.195E-01 0.805E-02 -.123E+00
   -.177E+02 -.937E+02 -.178E+03   0.147E+02 0.910E+02 0.173E+03   0.183E+01 0.197E+01 0.240E+01   -.503E-01 -.124E-01 -.456E-01
   -.537E+02 -.112E+03 -.351E+04   0.542E+02 0.111E+03 0.352E+04   0.182E+00 0.106E+01 -.483E+01   -.246E-01 0.452E-02 0.265E-01
   -.136E+03 0.221E+03 -.125E+03   0.139E+03 -.222E+03 0.123E+03   -.230E+01 0.164E+00 0.521E+00   0.143E-02 -.178E-01 -.320E-01
   -.363E+03 0.115E+03 0.685E+03   0.367E+03 -.115E+03 -.686E+03   -.464E+00 -.154E+01 0.147E+01   -.125E-01 0.128E-01 -.540E-01
   0.201E+03 0.293E+03 0.172E+04   -.203E+03 -.296E+03 -.173E+04   0.147E+01 0.196E+01 0.352E+01   0.845E-05 0.282E-02 -.490E-01
   -.108E+03 -.112E+03 -.398E+03   0.109E+03 0.113E+03 0.398E+03   -.168E+01 -.103E+01 -.255E+00   -.177E-01 0.573E-02 -.249E-01
   -.147E+03 -.468E+02 -.186E+04   0.148E+03 0.472E+02 0.186E+04   -.267E+00 -.101E+00 -.980E+00   -.563E-02 0.892E-02 0.639E-01
   0.173E+03 -.295E+03 0.809E+03   -.175E+03 0.296E+03 -.813E+03   0.183E+01 0.133E+01 0.139E+01   0.113E-03 0.525E-02 -.402E-01
   0.299E+02 0.253E+03 0.122E+04   -.310E+02 -.256E+03 -.123E+04   0.661E+00 0.931E+00 0.427E+01   0.102E-01 -.124E-01 -.400E-01
   0.218E+03 -.611E+02 -.624E+03   -.221E+03 0.614E+02 0.626E+03   0.172E+01 0.328E+00 -.193E+01   0.321E-01 -.303E-01 -.122E-01
   0.503E+02 -.155E+03 0.189E+04   -.504E+02 0.156E+03 -.189E+04   0.161E+00 -.296E+00 0.251E+01   0.811E-02 0.138E-01 -.420E-01
   0.253E+03 -.309E+03 0.520E+03   -.255E+03 0.312E+03 -.523E+03   -.288E+00 -.115E+01 0.282E+01   0.880E-02 0.849E-02 -.568E-01
   -.247E+03 0.180E+02 -.154E+04   0.249E+03 -.186E+02 0.155E+04   0.680E+00 0.486E+00 -.262E+01   0.125E-01 0.131E-01 0.231E-01
   0.115E+03 -.148E+03 0.177E+04   -.116E+03 0.150E+03 -.178E+04   0.157E+00 -.127E+01 0.312E+01   -.866E-02 -.430E-02 -.236E-01
   -.101E+03 0.697E+02 -.394E+03   0.102E+03 -.710E+02 0.397E+03   -.297E+00 0.828E+00 -.271E+01   -.132E-01 0.686E-02 -.584E-02
   0.129E+02 0.164E+03 -.185E+04   -.134E+02 -.167E+03 0.185E+04   0.391E+00 0.212E+01 -.268E+01   0.376E-02 -.155E-01 0.371E-01
   0.368E+02 0.675E+02 0.809E+03   -.379E+02 -.680E+02 -.811E+03   0.264E+01 -.345E+00 0.193E+01   -.750E-02 -.763E-03 -.247E-01
   0.122E+03 0.679E+02 -.129E+04   -.123E+03 -.689E+02 0.129E+04   0.527E+00 -.852E-01 -.124E+01   -.272E-01 -.109E-01 0.151E-01
   -.309E+02 -.742E+02 0.141E+04   0.304E+02 0.749E+02 -.142E+04   0.588E+00 0.156E+00 0.279E+01   0.939E-02 0.153E-04 -.394E-01
   -.801E+02 -.182E+03 -.181E+03   0.818E+02 0.184E+03 0.178E+03   -.120E+01 -.168E+01 0.213E+01   0.188E-01 -.114E-01 -.470E-02
   -.154E+03 -.303E+03 -.159E+04   0.156E+03 0.307E+03 0.160E+04   -.105E+01 -.167E+01 -.125E+01   0.120E-01 -.430E-02 0.414E-01
   -.299E+03 0.935E+02 0.972E+03   0.302E+03 -.951E+02 -.978E+03   -.207E+00 -.481E+00 0.530E+01   -.577E-02 0.638E-02 -.247E-01
   0.889E+02 -.375E+02 -.112E+04   -.911E+02 0.378E+02 0.112E+04   0.128E+01 0.215E+00 -.220E+01   -.273E-01 -.230E-02 0.293E-02
   -.162E+03 -.862E+02 0.121E+04   0.164E+03 0.874E+02 -.122E+04   -.112E+01 -.217E+00 0.568E+01   -.141E-02 -.378E-02 -.306E-01
   0.257E+03 -.600E+02 -.570E+03   -.259E+03 0.608E+02 0.570E+03   0.159E+00 0.128E+00 0.265E+00   -.201E-01 0.602E-02 -.102E-01
   -.226E+03 0.538E+02 0.171E+04   0.228E+03 -.543E+02 -.172E+04   -.533E+00 0.135E+00 0.405E+01   0.207E-02 0.753E-03 -.471E-01
   0.860E+02 0.121E+03 0.375E+03   -.865E+02 -.121E+03 -.374E+03   -.148E+01 -.822E-01 0.213E+01   0.153E-01 0.540E-02 -.462E-01
   -.155E+03 -.622E+01 -.171E+04   0.155E+03 0.663E+01 0.172E+04   0.777E+00 -.258E+00 -.211E+01   0.305E-01 0.124E-02 0.360E-01
 -----------------------------------------------------------------------------------------------
   0.724E+01 -.937E+00 -.328E+02   0.125E-11 -.904E-12 -.909E-12   -.702E+01 0.964E+00 0.345E+02   -.472E-03 0.493E-01 -.164E+01
 
 
 POSITION                                       TOTAL-FORCE (eV/Angst)
 -----------------------------------------------------------------------------------
      4.94536      4.44331      2.79952        -0.276887      0.517307      1.309016
      5.61271      4.25690      5.69884        -2.031248      1.564151     -0.293405
      2.67143      7.91803      1.78330         0.691836      1.521458     -1.119088
      2.34488      9.35642      4.03319        -0.630640      1.302752      0.251949
      4.94536      1.91264      2.79952        -0.926949      0.294038      2.029882
      5.32082      1.70208      5.41598        -1.081586     -2.016459     -0.292646
      2.41672      5.12383      1.62589         0.656818     -0.979673     -0.211854
      2.28790      6.60256      4.00699        -0.473582     -1.299695      0.587589
      1.44460      3.16654      2.72734        -0.095604     -0.657951     -0.172096
      2.07874      3.17760      5.19954         1.381531      0.069915      0.056818
      5.67831      9.27844      1.72270        -1.192408      0.266018     -0.105301
      4.38566      7.98454      3.74361         1.332363     -0.276899      0.584961
      6.20987      8.00536      5.24464        -2.016764      0.014260      0.207548
     10.57359      4.44331      2.79952        -2.007678     -0.844877      1.947969
     11.04919      4.54026      5.54831        -0.802496      1.362686      0.379135
      7.69957      0.91493      2.09275        -0.426721      0.138304     -0.806294
      8.05131      9.23251      4.34179         0.880600      1.228275     -1.212081
     10.38740      1.64569      3.36133         0.912877      0.419679     -0.022446
     11.16330      1.97135      5.67484        -0.741557     -0.749796      0.252927
      7.57127      6.81942      1.65535         0.068350     -0.832133     -0.878958
      8.05131      6.70184      4.34179         0.685655     -1.130598     -0.908583
      7.09877      3.17797      2.39204        -0.204796      0.211639      1.166664
      7.68244      3.17797      5.47658         2.421078     -1.398096     -1.671977
      0.32987      6.38508      1.89081        -1.932847     -0.100318      0.383892
     10.20472      7.96718      3.93431        -1.264681     -0.699875     -2.195529
      0.82644      8.10538      5.39796         0.664172      0.430314      0.163676
      1.25497      1.56674      4.10795         1.051386     -0.877901     -1.550995
      3.77725      6.35595      2.56568         3.455539     -1.469298      0.092602
      0.54278      4.33177      1.18473        -0.786699     -0.941141     -3.103425
      1.25497      4.78920      4.10795         0.251621      0.622797     -0.411590
      0.85928      3.35413      6.83161         0.826251      0.293174      4.304209
      3.77725      9.57841      2.56568         0.027815      2.743041     -1.725770
      3.44076      3.27830      1.92621        -0.357605     -1.729546     -2.304784
      4.14113      3.17797      4.62682        -1.367000      0.615589      0.040917
      1.74443      6.69703      0.42544        -0.026483      0.966720     -4.050744
      1.03518      7.96718      3.08454        -2.665881      1.466217     -0.517020
      2.96680      7.96277      5.43313         2.213161     -0.136766      3.531543
      6.09197      1.75921      1.10810        -0.603642      0.397391     -3.285013
      6.88320      1.56674      4.10795         1.328516     -0.476430      0.360868
      6.26079      2.68414      6.89476        -0.073243     -1.319999      3.777315
      9.40548      6.35595      2.56568         1.459087     -0.868173     -0.526714
     10.65378      6.60579      5.47349        -0.790326     -1.118490      2.583733
      6.51496      4.99895      1.51058         0.091844      0.772528     -1.974141
      6.88320      4.78920      4.10795         0.494333      0.565803     -0.714404
      7.38921      4.92325      6.52484         1.191080      2.223666      1.978155
      9.40548      9.57841      2.56568         3.112453     -2.167655     -0.416862
     10.49740      0.01775      5.21853        -0.899073      0.530809      2.320761
      9.10496      2.72538      2.04116         0.964886      0.984527     -1.939861
      9.76936      3.17797      4.62682        -2.256557      0.918431      0.590354
      7.41759      8.73492      0.76628         1.097776     -0.451666     -3.019620
      6.66341      7.96718      3.08454        -1.968963     -0.048722      2.770151
      8.07610      7.96447      5.95546         0.640884      0.150669      3.758568
 -----------------------------------------------------------------------------------
    total drift:                                0.224973      0.075748      0.049745


--------------------------------------------------------------------------------------------------------



  FREE ENERGIE OF THE ION-ELECTRON SYSTEM (eV)
  ---------------------------------------------------
  free  energy   TOTEN  =      -246.29839058 eV

  energy  without entropy=     -245.46630622  energy(sigma->0) =     -245.88234840
 


--------------------------------------------------------------------------------------------------------


    POTLOK:  cpu time    0.2196: real time    0.2200


--------------------------------------------------------------------------------------------------------


     LOOP+:  cpu time  141.9577: real time  142.3390
    4ORBIT:  cpu time    0.0000: real time    0.0000

 total amount of memory used by VASP MPI-rank0    60038. kBytes
=======================================================================

   base      :      30000. kBytes
   nonlr-proj:       1503. kBytes
   fftplans  :       7078. kBytes
   grid      :      11974. kBytes
   one-center:         69. kBytes
   wavefun   :       9414. kBytes
 
  
  
 General timing and accounting informations for this job:
 ========================================================
  
                  Total CPU time used (sec):      143.895
                            User time (sec):      143.596
                          System time (sec):        0.299
                         Elapsed time (sec):      144.529
  
                   Maximum memory used (kb):      164564.
                   Average memory used (kb):           0.
  
                          Minor page faults:        95369
                          Major page faults:            0
                 Voluntary context switches:          297
