       N       E                     dE             d eps       ncg     rms          rms(c)
DAV:   1     0.645949531063E+04    0.64595E+04   -0.36621E+05   848   0.154E+03
DAV:   2     0.348470020240E+03   -0.61110E+04   -0.59034E+04   736   0.491E+02
DAV:   3    -0.253662560035E+03   -0.60213E+03   -0.58009E+03   808   0.164E+02
DAV:   4    -0.284483550253E+03   -0.30821E+02   -0.30426E+02   808   0.348E+01
DAV:   5    -0.285640419818E+03   -0.11569E+01   -0.11549E+01   840   0.697E+00    0.841E+01
DAV:   6    -0.329866754202E+03   -0.44226E+02   -0.72151E+02   840   0.122E+02    0.128E+02
DAV:   7    -0.259971725748E+03    0.69895E+02   -0.17192E+02   792   0.758E+01    0.546E+01
DAV:   8    -0.309302984124E+03   -0.49331E+02   -0.17066E+02   896   0.956E+01    0.904E+01
DAV:   9    -0.264333850636E+03    0.44969E+02   -0.10674E+02   952   0.521E+01    0.445E+01
DAV:  10    -0.270760670200E+03   -0.64268E+01   -0.58618E+01   944   0.613E+01    0.577E+01
DAV:  11    -0.257366658189E+03    0.13394E+02   -0.41107E+01   920   0.456E+01    0.288E+01
DAV:  12    -0.254033726876E+03    0.33329E+01   -0.21296E+01   944   0.324E+01    0.228E+01
DAV:  13    -0.252099055988E+03    0.19347E+01   -0.55260E+00   952   0.168E+01    0.157E+01
DAV:  14    -0.251047420787E+03    0.10516E+01   -0.14322E+00   920   0.794E+00    0.120E+01
DAV:  15    -0.250824537660E+03    0.22288E+00   -0.50613E-01   952   0.460E+00    0.115E+01
DAV:  16    -0.250557106491E+03    0.26743E+00   -0.26512E-01   928   0.404E+00    0.103E+01
DAV:  17    -0.250280753682E+03    0.27635E+00   -0.25324E-01   944   0.407E+00    0.935E+00
DAV:  18    -0.249715258472E+03    0.56550E+00   -0.58717E-01  1048   0.600E+00    0.495E+00
DAV:  19    -0.249698540337E+03    0.16718E-01   -0.40840E-01   944   0.364E+00    0.437E+00
DAV:  20    -0.249660593217E+03    0.37947E-01   -0.17118E-01   816   0.294E+00    0.319E+00
DAV:  21    -0.249698168599E+03   -0.37575E-01   -0.17426E-01   920   0.326E+00    0.381E+00
DAV:  22    -0.249681669739E+03    0.16499E-01   -0.12110E-01   848   0.264E+00    0.324E+00
DAV:  23    -0.249648451779E+03    0.33218E-01   -0.10959E-01   944   0.219E+00    0.230E+00
DAV:  24    -0.249625340419E+03    0.23111E-01   -0.56905E-02   952   0.179E+00    0.117E+00
DAV:  25    -0.249625880142E+03   -0.53972E-03   -0.27577E-02   944   0.100E+00    0.119E+00
DAV:  26    -0.249622836521E+03    0.30436E-02   -0.18257E-02   776   0.864E-01    0.742E-01
DAV:  27    -0.249623566075E+03   -0.72955E-03   -0.75680E-03   920   0.648E-01    0.737E-01
DAV:  28    -0.249623085204E+03    0.48087E-03   -0.42345E-03   928   0.527E-01    0.533E-01
DAV:  29    -0.249623399636E+03   -0.31443E-03   -0.30217E-03   928   0.425E-01    0.507E-01
DAV:  30    -0.249622754689E+03    0.64495E-03   -0.42426E-03   864   0.435E-01    0.226E-01
DAV:  31    -0.249622890104E+03   -0.13541E-03   -0.64551E-04   712   0.165E-01    0.203E-01
DAV:  32    -0.249623143308E+03   -0.25320E-03   -0.46103E-04   592   0.152E-01    0.181E-01
DAV:  33    -0.249623129546E+03    0.13762E-04   -0.25285E-04   472   0.130E-01
   1 F= -.24962313E+03 E0= -.24928937E+03  d E =-.667511E+00
