       N       E                     dE             d eps       ncg     rms          rms(c)
DAV:   1     0.149378798197E+05    0.14938E+05   -0.74254E+05  1660   0.170E+03
DAV:   2     0.101550769033E+04   -0.13922E+05   -0.13448E+05  1436   0.550E+02
DAV:   3    -0.471763105845E+03   -0.14873E+04   -0.14044E+04  1560   0.196E+02
DAV:   4    -0.570039233866E+03   -0.98276E+02   -0.96890E+02  1600   0.446E+01
DAV:   5    -0.573729523729E+03   -0.36903E+01   -0.36842E+01  1792   0.916E+00    0.117E+02
DAV:   6    -0.685341475988E+03   -0.11161E+03   -0.13127E+03  1744   0.128E+02    0.195E+02
DAV:   7    -0.545186770971E+03    0.14015E+03   -0.29713E+02  1552   0.858E+01    0.912E+01
DAV:   8    -0.688600793472E+03   -0.14341E+03   -0.29788E+02  1864   0.113E+02    0.194E+02
DAV:   9    -0.629548247928E+03    0.59053E+02   -0.23191E+02  1888   0.850E+01    0.157E+02
DAV:  10    -0.590917297162E+03    0.38631E+02   -0.23766E+02  1904   0.766E+01    0.118E+02
DAV:  11    -0.589530365069E+03    0.13869E+01   -0.11764E+02  1888   0.558E+01    0.114E+02
DAV:  12    -0.552985691828E+03    0.36545E+02   -0.86493E+01  1856   0.492E+01    0.686E+01
DAV:  13    -0.549355583554E+03    0.36301E+01   -0.75458E+01  1824   0.521E+01    0.934E+01
DAV:  14    -0.538600074473E+03    0.10756E+02   -0.52894E+01  1880   0.307E+01    0.653E+01
DAV:  15    -0.521962036069E+03    0.16638E+02   -0.29449E+01  1880   0.302E+01    0.417E+01
DAV:  16    -0.518443276255E+03    0.35188E+01   -0.13365E+01  1904   0.175E+01    0.360E+01
DAV:  17    -0.514306895274E+03    0.41364E+01   -0.47058E+00  1856   0.121E+01    0.282E+01
DAV:  18    -0.513036842242E+03    0.12701E+01   -0.18697E+00  1904   0.739E+00    0.272E+01
DAV:  19    -0.511868575282E+03    0.11683E+01   -0.98865E-01  1880   0.550E+00    0.254E+01
DAV:  20    -0.510824695977E+03    0.10439E+01   -0.71130E-01  1888   0.506E+00    0.235E+01
DAV:  21    -0.509447228642E+03    0.13775E+01   -0.50243E-01  1896   0.445E+00    0.212E+01
DAV:  22    -0.507941914944E+03    0.15053E+01   -0.61727E-01  1888   0.486E+00    0.185E+01
DAV:  23    -0.505794860833E+03    0.21471E+01   -0.96386E-01  2064   0.672E+00    0.122E+01
DAV:  24    -0.505339446829E+03    0.45541E+00   -0.87686E-01  1888   0.392E+00    0.937E+00
DAV:  25    -0.505221582197E+03    0.11786E+00   -0.32361E-01  1736   0.289E+00    0.852E+00
DAV:  26    -0.504991981211E+03    0.22960E+00   -0.31467E-01  1904   0.358E+00    0.644E+00
DAV:  27    -0.504781931722E+03    0.21005E+00   -0.32897E-01  1912   0.356E+00    0.306E+00
DAV:  28    -0.504821787839E+03   -0.39856E-01   -0.31519E-01  1856   0.312E+00    0.404E+00
DAV:  29    -0.504776608556E+03    0.45179E-01   -0.18891E-01  1592   0.238E+00    0.248E+00
DAV:  30    -0.504774619122E+03    0.19894E-02   -0.82700E-02  1728   0.166E+00    0.250E+00
DAV:  31    -0.504752389705E+03    0.22229E-01   -0.70515E-02  1936   0.134E+00    0.143E+00
DAV:  32    -0.504757558118E+03   -0.51684E-02   -0.32810E-02  1784   0.111E+00    0.155E+00
DAV:  33    -0.504750841458E+03    0.67167E-02   -0.14097E-02  1776   0.742E-01    0.995E-01
DAV:  34    -0.504750459401E+03    0.38206E-03   -0.90805E-03  1856   0.541E-01    0.884E-01
DAV:  35    -0.504749867101E+03    0.59230E-03   -0.72080E-03  1856   0.453E-01    0.723E-01
DAV:  36    -0.504749624146E+03    0.24295E-03   -0.33481E-03  1744   0.288E-01    0.650E-01
DAV:  37    -0.504748267128E+03    0.13570E-02   -0.18082E-03  1496   0.230E-01    0.407E-01
DAV:  38    -0.504748454673E+03   -0.18754E-03   -0.69730E-04  1432   0.159E-01    0.385E-01
DAV:  39    -0.504748422175E+03    0.32498E-04   -0.33160E-04  1032   0.122E-01
   1 F= -.50474842E+03 E0= -.50411228E+03  d E =-.127229E+01
