LAMMPS (5 Jun 2019)
OMP_NUM_THREADS environment is not set. Defaulting to 1 thread. (../comm.cpp:88)
  using 1 OpenMP thread(s) per MPI task
Reading data file ...
  triclinic box = (0 0 0) to (11.2565 10.0628 22.8836) with tilt (5.04456 0 0)
  1 by 1 by 1 MPI processor grid
  reading atoms ...
  104 atoms
  read_data CPU = 0.000883646 secs
70 atoms in group bulk
WARNING: Using 'neigh_modify every 1 delay 0 check yes' setting during minimization (../min.cpp:168)
Neighbor list info ...
  update every 1 steps, delay 0 steps, check yes
  max neighbors/atom: 2000, page size: 100000
  master list distance cutoff = 8.5
  ghost atom cutoff = 8.5
  binsize = 4.25, bins = 4 3 6
  1 neighbor lists, perpetual/occasional/extra = 1 0 0
  (1) pair eam/alloy, perpetual
      attributes: half, newton on
      pair build: half/bin/newton/tri
      stencil: half/bin/3d/newton/tri
      bin: standard
Setting up cg style minimization ...
  Unit style    : metal
  Current step  : 0
Per MPI rank memory allocation (min/avg/max) = 4.125 | 4.125 | 4.125 Mbytes
Step Temp E_pair E_mol TotEng Press 
       0            0   -438.36497            0   -438.36497   -137951.13 
      66            0   -467.54102            0   -467.54102   -49359.661 
Loop time of 0.0630527 on 1 procs for 66 steps with 104 atoms

99.4% CPU use with 1 MPI tasks x 1 OpenMP threads

Minimization stats:
  Stopping criterion = energy tolerance
  Energy initial, next-to-last, final = 
        -438.364968835     -467.537229129      -467.54101806
  Force two-norm initial, final = 13.6689 0.210801
  Force max component initial, final = 3.08448 0.0545624
  Final line search alpha, max atom move = 0.372833 0.0203426
  Iterations, force evaluations = 66 102

MPI task timing breakdown:
Section |  min time  |  avg time  |  max time  |%varavg| %total
---------------------------------------------------------------
Pair    | 0.058451   | 0.058451   | 0.058451   |   0.0 | 92.70
Neigh   | 0.0025364  | 0.0025364  | 0.0025364  |   0.0 |  4.02
Comm    | 0.0011496  | 0.0011496  | 0.0011496  |   0.0 |  1.82
Output  | 0          | 0          | 0          |   0.0 |  0.00
Modify  | 9.6351e-05 | 9.6351e-05 | 9.6351e-05 |   0.0 |  0.15
Other   |            | 0.0008194  |            |       |  1.30

Nlocal:    104 ave 104 max 104 min
Histogram: 1 0 0 0 0 0 0 0 0 0
Nghost:    1157 ave 1157 max 1157 min
Histogram: 1 0 0 0 0 0 0 0 0 0
Neighs:    7386 ave 7386 max 7386 min
Histogram: 1 0 0 0 0 0 0 0 0 0

Total # of neighbors = 7386
Ave neighs/atom = 71.0192
Neighbor list builds = 3
Dangerous builds = 0
System init for write_data ...
Total wall time: 0:00:00
