LAMMPS (5 Jun 2019)
OMP_NUM_THREADS environment is not set. Defaulting to 1 thread. (../comm.cpp:88)
  using 1 OpenMP thread(s) per MPI task
Reading data file ...
  triclinic box = (0 0 0) to (10.0797 9.4251 20.502) with tilt (3.5733 0 0)
  1 by 1 by 1 MPI processor grid
  reading atoms ...
  72 atoms
  read_data CPU = 0.000807222 secs
46 atoms in group bulk
WARNING: Using 'neigh_modify every 1 delay 0 check yes' setting during minimization (../min.cpp:168)
Neighbor list info ...
  update every 1 steps, delay 0 steps, check yes
  max neighbors/atom: 2000, page size: 100000
  master list distance cutoff = 8.5
  ghost atom cutoff = 8.5
  binsize = 4.25, bins = 4 3 5
  1 neighbor lists, perpetual/occasional/extra = 1 0 0
  (1) pair eam/alloy, perpetual
      attributes: half, newton on
      pair build: half/bin/newton/tri
      stencil: half/bin/3d/newton/tri
      bin: standard
Setting up cg style minimization ...
  Unit style    : metal
  Current step  : 0
Per MPI rank memory allocation (min/avg/max) = 4.114 | 4.114 | 4.114 Mbytes
Step Temp E_pair E_mol TotEng Press 
       0            0   -305.97833            0   -305.97833    -129157.8 
      53            0   -326.47297            0   -326.47297   -44164.813 
Loop time of 0.0337604 on 1 procs for 53 steps with 72 atoms

99.2% CPU use with 1 MPI tasks x 1 OpenMP threads

Minimization stats:
  Stopping criterion = energy tolerance
  Energy initial, next-to-last, final = 
        -305.978330459     -326.470786345     -326.472974588
  Force two-norm initial, final = 10.3972 0.176331
  Force max component initial, final = 3.10145 0.0681457
  Final line search alpha, max atom move = 0.547497 0.0373096
  Iterations, force evaluations = 53 72

MPI task timing breakdown:
Section |  min time  |  avg time  |  max time  |%varavg| %total
---------------------------------------------------------------
Pair    | 0.030851   | 0.030851   | 0.030851   |   0.0 | 91.38
Neigh   | 0.0015713  | 0.0015713  | 0.0015713  |   0.0 |  4.65
Comm    | 0.00072686 | 0.00072686 | 0.00072686 |   0.0 |  2.15
Output  | 0          | 0          | 0          |   0.0 |  0.00
Modify  | 5.8863e-05 | 5.8863e-05 | 5.8863e-05 |   0.0 |  0.17
Other   |            | 0.0005523  |            |       |  1.64

Nlocal:    72 ave 72 max 72 min
Histogram: 1 0 0 0 0 0 0 0 0 0
Nghost:    950 ave 950 max 950 min
Histogram: 1 0 0 0 0 0 0 0 0 0
Neighs:    4842 ave 4842 max 4842 min
Histogram: 1 0 0 0 0 0 0 0 0 0

Total # of neighbors = 4842
Ave neighs/atom = 67.25
Neighbor list builds = 3
Dangerous builds = 0
System init for write_data ...
Total wall time: 0:00:00
