  72  72   0   0
  0.2729146E+02  0.1007973E-08  0.1007973E-08  0.2068350E-08  0.5000000E-15
  1.000000000000000E-004
  CAR 
 "Millerite NiS"                         
     11.10115593    -66.25734981  301      1.44102653      1.00000000
    -66.257  0.0000E+00  0.0000E+00
    -65.999  0.0000E+00  0.0000E+00
    -65.742  0.0000E+00  0.0000E+00
    -65.484  0.0000E+00  0.0000E+00
    -65.226  0.0000E+00  0.0000E+00
    -64.968  0.0000E+00  0.0000E+00
    -64.710  0.0000E+00  0.0000E+00
    -64.452  0.0000E+00  0.0000E+00
    -64.194  0.0000E+00  0.0000E+00
    -63.937  0.0000E+00  0.0000E+00
    -63.679  0.3742E-09  0.9649E-10
    -63.421  0.2472E-04  0.6374E-05
    -63.163  0.7928E-01  0.2045E-01
    -62.905  0.1417E+02  0.3674E+01
    -62.647  0.1839E+03  0.5111E+02
    -62.389  0.2990E+03  0.1282E+03
    -62.132  0.1409E+03  0.1646E+03
    -61.874  0.6515E+02  0.1814E+03
    -61.616  0.5454E+02  0.1954E+03
    -61.358  0.4877E+02  0.2080E+03
    -61.100  0.2822E+02  0.2153E+03
    -60.842  0.2803E+01  0.2160E+03
    -60.584  0.1878E-01  0.2160E+03
    -60.327  0.5881E-05  0.2160E+03
    -60.069  0.7575E-10  0.2160E+03
    -59.811  0.0000E+00  0.2160E+03
    -59.553  0.0000E+00  0.2160E+03
    -59.295  0.0000E+00  0.2160E+03
    -59.037  0.0000E+00  0.2160E+03
    -58.779  0.0000E+00  0.2160E+03
    -58.521  0.0000E+00  0.2160E+03
    -58.264  0.0000E+00  0.2160E+03
    -58.006  0.0000E+00  0.2160E+03
    -57.748  0.0000E+00  0.2160E+03
    -57.490  0.0000E+00  0.2160E+03
    -57.232  0.0000E+00  0.2160E+03
    -56.974  0.0000E+00  0.2160E+03
    -56.716  0.0000E+00  0.2160E+03
    -56.459  0.0000E+00  0.2160E+03
    -56.201  0.0000E+00  0.2160E+03
    -55.943  0.0000E+00  0.2160E+03
    -55.685  0.0000E+00  0.2160E+03
    -55.427  0.0000E+00  0.2160E+03
    -55.169  0.0000E+00  0.2160E+03
    -54.911  0.0000E+00  0.2160E+03
    -54.654  0.0000E+00  0.2160E+03
    -54.396  0.0000E+00  0.2160E+03
    -54.138  0.0000E+00  0.2160E+03
    -53.880  0.0000E+00  0.2160E+03
    -53.622  0.0000E+00  0.2160E+03
    -53.364  0.0000E+00  0.2160E+03
    -53.106  0.0000E+00  0.2160E+03
    -52.849  0.0000E+00  0.2160E+03
    -52.591  0.0000E+00  0.2160E+03
    -52.333  0.0000E+00  0.2160E+03
    -52.075  0.0000E+00  0.2160E+03
    -51.817  0.0000E+00  0.2160E+03
    -51.559  0.0000E+00  0.2160E+03
    -51.301  0.0000E+00  0.2160E+03
    -51.044  0.0000E+00  0.2160E+03
    -50.786  0.0000E+00  0.2160E+03
    -50.528  0.0000E+00  0.2160E+03
    -50.270  0.0000E+00  0.2160E+03
    -50.012  0.0000E+00  0.2160E+03
    -49.754  0.0000E+00  0.2160E+03
    -49.496  0.0000E+00  0.2160E+03
    -49.238  0.0000E+00  0.2160E+03
    -48.981  0.0000E+00  0.2160E+03
    -48.723  0.0000E+00  0.2160E+03
    -48.465  0.0000E+00  0.2160E+03
    -48.207  0.0000E+00  0.2160E+03
    -47.949  0.0000E+00  0.2160E+03
    -47.691  0.0000E+00  0.2160E+03
    -47.433  0.0000E+00  0.2160E+03
    -47.176  0.0000E+00  0.2160E+03
    -46.918  0.0000E+00  0.2160E+03
    -46.660  0.0000E+00  0.2160E+03
    -46.402  0.0000E+00  0.2160E+03
    -46.144  0.0000E+00  0.2160E+03
    -45.886  0.0000E+00  0.2160E+03
    -45.628  0.0000E+00  0.2160E+03
    -45.371  0.0000E+00  0.2160E+03
    -45.113  0.0000E+00  0.2160E+03
    -44.855  0.0000E+00  0.2160E+03
    -44.597  0.0000E+00  0.2160E+03
    -44.339  0.0000E+00  0.2160E+03
    -44.081  0.0000E+00  0.2160E+03
    -43.823  0.0000E+00  0.2160E+03
    -43.566  0.0000E+00  0.2160E+03
    -43.308  0.0000E+00  0.2160E+03
    -43.050  0.0000E+00  0.2160E+03
    -42.792  0.0000E+00  0.2160E+03
    -42.534  0.0000E+00  0.2160E+03
    -42.276  0.0000E+00  0.2160E+03
    -42.018  0.0000E+00  0.2160E+03
    -41.760  0.0000E+00  0.2160E+03
    -41.503  0.0000E+00  0.2160E+03
    -41.245  0.0000E+00  0.2160E+03
    -40.987  0.0000E+00  0.2160E+03
    -40.729  0.0000E+00  0.2160E+03
    -40.471  0.0000E+00  0.2160E+03
    -40.213  0.0000E+00  0.2160E+03
    -39.955  0.0000E+00  0.2160E+03
    -39.698  0.0000E+00  0.2160E+03
    -39.440  0.0000E+00  0.2160E+03
    -39.182  0.0000E+00  0.2160E+03
    -38.924  0.0000E+00  0.2160E+03
    -38.666  0.0000E+00  0.2160E+03
    -38.408  0.0000E+00  0.2160E+03
    -38.150  0.0000E+00  0.2160E+03
    -37.893  0.0000E+00  0.2160E+03
    -37.635  0.0000E+00  0.2160E+03
    -37.377  0.0000E+00  0.2160E+03
    -37.119  0.0000E+00  0.2160E+03
    -36.861  0.0000E+00  0.2160E+03
    -36.603  0.0000E+00  0.2160E+03
    -36.345  0.0000E+00  0.2160E+03
    -36.088  0.0000E+00  0.2160E+03
    -35.830  0.0000E+00  0.2160E+03
    -35.572  0.0000E+00  0.2160E+03
    -35.314  0.0000E+00  0.2160E+03
    -35.056  0.0000E+00  0.2160E+03
    -34.798  0.0000E+00  0.2160E+03
    -34.540  0.0000E+00  0.2160E+03
    -34.283  0.0000E+00  0.2160E+03
    -34.025  0.0000E+00  0.2160E+03
    -33.767  0.0000E+00  0.2160E+03
    -33.509  0.0000E+00  0.2160E+03
    -33.251  0.0000E+00  0.2160E+03
    -32.993  0.0000E+00  0.2160E+03
    -32.735  0.0000E+00  0.2160E+03
    -32.477  0.0000E+00  0.2160E+03
    -32.220  0.0000E+00  0.2160E+03
    -31.962  0.0000E+00  0.2160E+03
    -31.704  0.0000E+00  0.2160E+03
    -31.446  0.0000E+00  0.2160E+03
    -31.188  0.0000E+00  0.2160E+03
    -30.930  0.0000E+00  0.2160E+03
    -30.672  0.0000E+00  0.2160E+03
    -30.415  0.0000E+00  0.2160E+03
    -30.157  0.0000E+00  0.2160E+03
    -29.899  0.0000E+00  0.2160E+03
    -29.641  0.0000E+00  0.2160E+03
    -29.383  0.0000E+00  0.2160E+03
    -29.125  0.0000E+00  0.2160E+03
    -28.867  0.0000E+00  0.2160E+03
    -28.610  0.0000E+00  0.2160E+03
    -28.352  0.0000E+00  0.2160E+03
    -28.094  0.0000E+00  0.2160E+03
    -27.836  0.0000E+00  0.2160E+03
    -27.578  0.0000E+00  0.2160E+03
    -27.320  0.0000E+00  0.2160E+03
    -27.062  0.0000E+00  0.2160E+03
    -26.805  0.0000E+00  0.2160E+03
    -26.547  0.0000E+00  0.2160E+03
    -26.289  0.0000E+00  0.2160E+03
    -26.031  0.0000E+00  0.2160E+03
    -25.773  0.0000E+00  0.2160E+03
    -25.515  0.0000E+00  0.2160E+03
    -25.257  0.0000E+00  0.2160E+03
    -24.999  0.0000E+00  0.2160E+03
    -24.742  0.0000E+00  0.2160E+03
    -24.484  0.0000E+00  0.2160E+03
    -24.226  0.0000E+00  0.2160E+03
    -23.968  0.0000E+00  0.2160E+03
    -23.710  0.0000E+00  0.2160E+03
    -23.452  0.0000E+00  0.2160E+03
    -23.194  0.0000E+00  0.2160E+03
    -22.937  0.0000E+00  0.2160E+03
    -22.679  0.0000E+00  0.2160E+03
    -22.421  0.0000E+00  0.2160E+03
    -22.163  0.0000E+00  0.2160E+03
    -21.905  0.0000E+00  0.2160E+03
    -21.647  0.0000E+00  0.2160E+03
    -21.389  0.0000E+00  0.2160E+03
    -21.132  0.0000E+00  0.2160E+03
    -20.874  0.0000E+00  0.2160E+03
    -20.616  0.0000E+00  0.2160E+03
    -20.358  0.0000E+00  0.2160E+03
    -20.100  0.0000E+00  0.2160E+03
    -19.842  0.0000E+00  0.2160E+03
    -19.584  0.0000E+00  0.2160E+03
    -19.327  0.0000E+00  0.2160E+03
    -19.069  0.0000E+00  0.2160E+03
    -18.811  0.0000E+00  0.2160E+03
    -18.553  0.0000E+00  0.2160E+03
    -18.295  0.0000E+00  0.2160E+03
    -18.037  0.0000E+00  0.2160E+03
    -17.779  0.0000E+00  0.2160E+03
    -17.521  0.0000E+00  0.2160E+03
    -17.264  0.0000E+00  0.2160E+03
    -17.006  0.0000E+00  0.2160E+03
    -16.748  0.0000E+00  0.2160E+03
    -16.490  0.0000E+00  0.2160E+03
    -16.232  0.0000E+00  0.2160E+03
    -15.974  0.0000E+00  0.2160E+03
    -15.716  0.0000E+00  0.2160E+03
    -15.459  0.0000E+00  0.2160E+03
    -15.201  0.4305E-15  0.2160E+03
    -14.943  0.2517E-09  0.2160E+03
    -14.685  0.9671E-05  0.2160E+03
    -14.427  0.1516E-01  0.2160E+03
    -14.169  0.1103E+01  0.2163E+03
    -13.911  0.4908E+01  0.2176E+03
    -13.654  0.1884E+01  0.2180E+03
    -13.396  0.4430E+01  0.2192E+03
    -13.138  0.1603E+02  0.2233E+03
    -12.880  0.2023E+02  0.2285E+03
    -12.622  0.2724E+02  0.2356E+03
    -12.364  0.2788E+02  0.2427E+03
    -12.106  0.3486E+02  0.2517E+03
    -11.849  0.3648E+02  0.2611E+03
    -11.591  0.2997E+02  0.2689E+03
    -11.333  0.2567E+02  0.2755E+03
    -11.075  0.1665E+02  0.2798E+03
    -10.817  0.1368E+02  0.2833E+03
    -10.559  0.2810E+01  0.2840E+03
    -10.301  0.4698E+01  0.2852E+03
    -10.044  0.9081E+01  0.2876E+03
     -9.786  0.1579E+01  0.2880E+03
     -9.528  0.1892E-01  0.2880E+03
     -9.270  0.1160E-04  0.2880E+03
     -9.012  0.3049E-09  0.2880E+03
     -8.754  0.0000E+00  0.2880E+03
     -8.496  0.0000E+00  0.2880E+03
     -8.238  0.0000E+00  0.2880E+03
     -7.981  0.0000E+00  0.2880E+03
     -7.723  0.0000E+00  0.2880E+03
     -7.465  0.0000E+00  0.2880E+03
     -7.207  0.0000E+00  0.2880E+03
     -6.949  0.4305E-15  0.2880E+03
     -6.691  0.3368E-09  0.2880E+03
     -6.433  0.1340E-04  0.2880E+03
     -6.176  0.2318E-01  0.2880E+03
     -5.918  0.2074E+01  0.2885E+03
     -5.660  0.1373E+02  0.2921E+03
     -5.402  0.1689E+02  0.2964E+03
     -5.144  0.2496E+02  0.3029E+03
     -4.886  0.4133E+02  0.3135E+03
     -4.628  0.5157E+02  0.3268E+03
     -4.371  0.4944E+02  0.3396E+03
     -4.113  0.3554E+02  0.3487E+03
     -3.855  0.3568E+02  0.3579E+03
     -3.597  0.4032E+02  0.3683E+03
     -3.339  0.4095E+02  0.3789E+03
     -3.081  0.5949E+02  0.3942E+03
     -2.823  0.7284E+02  0.4130E+03
     -2.566  0.7981E+02  0.4336E+03
     -2.308  0.7737E+02  0.4535E+03
     -2.050  0.5319E+02  0.4673E+03
     -1.792  0.4356E+02  0.4785E+03
     -1.534  0.4194E+02  0.4893E+03
     -1.276  0.5098E+02  0.5025E+03
     -1.018  0.7078E+02  0.5207E+03
     -0.760  0.9688E+02  0.5457E+03
     -0.503  0.1198E+03  0.5766E+03
     -0.245  0.1622E+03  0.6184E+03
      0.013  0.1695E+03  0.6621E+03
      0.271  0.1344E+03  0.6968E+03
      0.529  0.1072E+03  0.7244E+03
      0.787  0.1032E+03  0.7510E+03
      1.045  0.7756E+02  0.7710E+03
      1.302  0.5463E+02  0.7851E+03
      1.560  0.5085E+02  0.7982E+03
      1.818  0.5969E+02  0.8136E+03
      2.076  0.6179E+02  0.8295E+03
      2.334  0.6026E+02  0.8451E+03
      2.592  0.5288E+02  0.8587E+03
      2.850  0.2103E+02  0.8641E+03
      3.107  0.8736E+01  0.8664E+03
      3.365  0.5696E+01  0.8679E+03
      3.623  0.3600E+01  0.8688E+03
      3.881  0.8320E+01  0.8709E+03
      4.139  0.7764E+01  0.8729E+03
      4.397  0.4929E+01  0.8742E+03
      4.655  0.1280E+02  0.8775E+03
      4.912  0.2045E+02  0.8828E+03
      5.170  0.1284E+02  0.8861E+03
      5.428  0.1577E+02  0.8902E+03
      5.686  0.2440E+02  0.8965E+03
      5.944  0.2386E+02  0.9026E+03
      6.202  0.2786E+02  0.9098E+03
      6.460  0.2572E+02  0.9164E+03
      6.718  0.2776E+02  0.9236E+03
      6.975  0.3741E+02  0.9332E+03
      7.233  0.4171E+02  0.9440E+03
      7.491  0.4006E+02  0.9543E+03
      7.749  0.1987E+02  0.9594E+03
      8.007  0.2157E+01  0.9600E+03
      8.265  0.2008E-01  0.9600E+03
      8.523  0.9546E-05  0.9600E+03
      8.780  0.1916E-09  0.9600E+03
      9.038  0.0000E+00  0.9600E+03
      9.296  0.0000E+00  0.9600E+03
      9.554  0.0000E+00  0.9600E+03
      9.812  0.0000E+00  0.9600E+03
     10.070  0.0000E+00  0.9600E+03
     10.328  0.0000E+00  0.9600E+03
     10.585  0.0000E+00  0.9600E+03
     10.843  0.0000E+00  0.9600E+03
     11.101  0.0000E+00  0.9600E+03
