 vasp.6.1.0 28Jan20 (build Mar 31 2020 17:42:31) gamma-only                     
  
 executed on             LinuxIFC date 2020.04.13  04:58:48
 running on   48 total cores
 distrk:  each k-point on   48 cores,    1 groups
 distr:  one band on NCORE=   6 cores,    8 groups


--------------------------------------------------------------------------------------------------------


 INCAR:
 POTCAR:    PAW_PBE Ni_pv 06Sep2000               
 POTCAR:    PAW_PBE S 06Sep2000                   
 POTCAR:    PAW_PBE Ni_pv 06Sep2000               
   VRHFIN =Ni:                                                                                      
   LEXCH  = PE                                                                                      
   EATOM  =  3501.1230 eV,  257.3253 Ry                                                             
                                                                                                    
   TITEL  = PAW_PBE Ni_pv 06Sep2000                                                                 
   LULTRA =        F    use ultrasoft PP ?                                                          
   IUNSCR =        1    unscreen: 0-lin 1-nonlin 2-no                                               
   RPACOR =    1.500    partial core radius                                                         
   POMASS =   58.690; ZVAL   =   16.000    mass and valenz                                          
   RCORE  =    2.000    outmost cutoff radius                                                       
   RWIGS  =    2.000; RWIGS  =    1.058    wigner-seitz radius (au A)                               
   ENMAX  =  367.986; ENMIN  =  275.989 eV                                                          
   RCLOC  =    1.301    cutoff for local pot                                                        
   LCOR   =        T    correct aug charges                                                         
   LPAW   =        T    paw PP                                                                      
   EAUG   =  703.443                                                                                
   DEXC   =    0.000                                                                                
   RMAX   =    2.041    core radius for proj-oper                                                   
   RAUG   =    1.300    factor for augmentation sphere                                              
   RDEP   =    2.103    radius for radial grids                                                     
   RDEPT  =    1.618    core radius for aug-charge                                                  
                                                                                                    
   Atomic configuration                                                                             
    8 entries                                                                                       
     n  l   j            E        occ.                                                              
     1  0  0.50     -8206.4253   2.0000                                                             
     2  0  0.50      -976.1748   2.0000                                                             
     2  1  1.50      -839.0571   6.0000                                                             
     3  0  0.50      -105.9991   2.0000                                                             
     3  1  1.50       -66.4603   6.0000                                                             
     3  2  2.50        -4.6458   9.0000                                                             
     4  0  0.50        -4.4926   1.0000                                                             
     4  3  2.50        -1.3606   0.0000                                                             
   Description                                                                                      
     l       E           TYP  RCUT    TYP  RCUT                                                     
     1    -66.4602962     23  1.700                                                                 
     1     -1.3605826     23  1.700                                                                 
     2     -4.6457867     23  2.000                                                                 
     2     -6.0063693     23  2.000                                                                 
     0     -4.4925576     23  1.900                                                                 
     0     16.3626226     23  1.900                                                                 
  local pseudopotential read in
  partial core-charges read in
  partial kinetic energy density read in
  atomic valenz-charges read in
  non local Contribution for L=           1  read in
    real space projection operators read in
  non local Contribution for L=           1  read in
    real space projection operators read in
  non local Contribution for L=           2  read in
    real space projection operators read in
  non local Contribution for L=           2  read in
    real space projection operators read in
  non local Contribution for L=           0  read in
    real space projection operators read in
  non local Contribution for L=           0  read in
    real space projection operators read in
    PAW grid and wavefunctions read in
 
   number of l-projection  operators is LMAX  =           6
   number of lm-projection operators is LMMAX =          18
 
 POTCAR:    PAW_PBE S 06Sep2000                   
   VRHFIN =S : s2p4                                                                                 
   LEXCH  = PE                                                                                      
   EATOM  =   276.8230 eV,   20.3459 Ry                                                             
                                                                                                    
   TITEL  = PAW_PBE S 06Sep2000                                                                     
   LULTRA =        F    use ultrasoft PP ?                                                          
   IUNSCR =        1    unscreen: 0-lin 1-nonlin 2-no                                               
   RPACOR =    1.500    partial core radius                                                         
   POMASS =   32.066; ZVAL   =    6.000    mass and valenz                                          
   RCORE  =    1.900    outmost cutoff radius                                                       
   RWIGS  =    2.200; RWIGS  =    1.164    wigner-seitz radius (au A)                               
   ENMAX  =  258.689; ENMIN  =  194.016 eV                                                          
   ICORE  =        2    local potential                                                             
   LCOR   =        T    correct aug charges                                                         
   LPAW   =        T    paw PP                                                                      
   EAUG   =  335.092                                                                                
   DEXC   =    0.000                                                                                
   RMAX   =    1.942    core radius for proj-oper                                                   
   RAUG   =    1.300    factor for augmentation sphere                                              
   RDEP   =    1.954    radius for radial grids                                                     
   RDEPT  =    1.744    core radius for aug-charge                                                  
                                                                                                    
   Atomic configuration                                                                             
    6 entries                                                                                       
     n  l   j            E        occ.                                                              
     1  0  0.50     -2405.8406   2.0000                                                             
     2  0  0.50      -211.7007   2.0000                                                             
     2  1  1.50      -156.4958   6.0000                                                             
     3  0  0.50       -17.2562   2.0000                                                             
     3  1  0.50        -7.0085   4.0000                                                             
     3  2  1.50        -6.8029   0.0000                                                             
   Description                                                                                      
     l       E           TYP  RCUT    TYP  RCUT                                                     
     0    -17.2561641     23  1.900                                                                 
     0    -15.8743224     23  1.900                                                                 
     1     -7.0085400     23  1.900                                                                 
     1     -2.7779785     23  1.900                                                                 
     2     -6.8029130     23  1.900                                                                 
  local pseudopotential read in
  partial core-charges read in
  partial kinetic energy density read in
  atomic valenz-charges read in
  non local Contribution for L=           0  read in
    real space projection operators read in
  non local Contribution for L=           0  read in
    real space projection operators read in
  non local Contribution for L=           1  read in
    real space projection operators read in
  non local Contribution for L=           1  read in
    real space projection operators read in
    PAW grid and wavefunctions read in
 
   number of l-projection  operators is LMAX  =           4
   number of lm-projection operators is LMMAX =           8
 
 Optimization of the real space projectors (new method)

 maximal supplied QI-value         = 18.90
 optimisation between [QCUT,QGAM] = [ 10.77, 21.73] = [ 32.49,132.25] Ry 
 Optimized for a Real-space Cutoff    1.38 Angstroem

   l    n(q)    QCUT    max X(q) W(low)/X(q) W(high)/X(q)  e(spline) 
   1      8    10.771     2.836    0.40E-04    0.29E-04    0.12E-06
   1      8    10.771     4.023    0.10E-03    0.48E-04    0.29E-06
   2      8    10.771    73.368    0.42E-03    0.97E-04    0.44E-06
   2      8    10.771    69.010    0.42E-03    0.99E-04    0.45E-06
   0      9    10.771    54.797    0.10E-03    0.56E-04    0.74E-07
   0      9    10.771    24.266    0.89E-04    0.49E-04    0.67E-07
 Optimization of the real space projectors (new method)

 maximal supplied QI-value         = 19.84
 optimisation between [QCUT,QGAM] = [ 10.71, 21.63] = [ 32.15,130.99] Ry 
 Optimized for a Real-space Cutoff    1.19 Angstroem

   l    n(q)    QCUT    max X(q) W(low)/X(q) W(high)/X(q)  e(spline) 
   0      8    10.715   187.594    0.41E-03    0.53E-04    0.66E-07
   0      8    10.715   164.243    0.41E-03    0.53E-04    0.65E-07
   1      7    10.715    67.533    0.19E-03    0.59E-03    0.68E-07
   1      7    10.715    50.729    0.19E-03    0.58E-03    0.67E-07
  PAW_PBE Ni_pv 06Sep2000               :
 energy of atom  1       EATOM=-3501.1230
 kinetic energy error for atom=    0.0925 (will be added to EATOM!!)
  PAW_PBE S 06Sep2000                   :
 energy of atom  2       EATOM= -276.8230
 kinetic energy error for atom=    0.0033 (will be added to EATOM!!)
 
 
 POSCAR: Structure 12 made from 02-1-7.xsd file
  positions in direct lattice
  No initial velocities read in
 exchange correlation table for  LEXCH =        8
   RHO(1)=    0.500       N(1)  =     2000
   RHO(2)=  100.500       N(2)  =     4000
 


--------------------------------------------------------------------------------------------------------


 ion  position               nearest neighbor table
   1  0.580  0.074  0.354-  44 2.25  66 2.26  51 2.26  63 2.36  52 2.36  26 2.53  13 2.53
   2  0.763  0.165  0.233-  45 2.25  52 2.26  63 2.26  53 2.36  64 2.36  14 2.53  27 2.53
   3  0.398  0.983  0.475-  65 2.26  51 2.36  66 2.36  12 2.53  25 2.53
   4  0.035  0.802  0.273-  46 2.25  57 2.26  70 2.26  54 2.36  67 2.36  19 2.53  29 2.53
   5  0.217  0.893  0.152-  47 2.25  67 2.26  54 2.26  68 2.36  55 2.36  30 2.53  16 2.53
   6  0.399  0.984  0.031-  48 2.25  68 2.26  55 2.26  56 2.36  31 2.53
   7  0.671  0.620  0.516-  58 2.36  69 2.36  17 2.53  32 2.53
   8  0.853  0.711  0.394-  49 2.25  69 2.26  58 2.26  57 2.36  70 2.36  33 2.53  18 2.53
   9  0.308  0.438  0.313-  39 2.25  59 2.26  71 2.26  60 2.36  72 2.36  20 2.53  35 2.53
  10  0.490  0.529  0.192-  40 2.25  60 2.26  72 2.26  61 2.36  73 2.36  36 2.53  21 2.53
  11  0.672  0.620  0.071-  41 2.25  73 2.26  61 2.26  62 2.36  22 2.53  37 2.53
  12  0.230  0.031  0.411-  57 2.25  65 2.26  38 2.26  66 2.36  39 2.36   3 2.53  25 2.53
  13  0.412  0.122  0.290-  54 2.25  39 2.26  66 2.26  63 2.36  40 2.36  26 2.53   1 2.53
  14  0.595  0.214  0.169-  55 2.25  63 2.26  40 2.26  64 2.36  41 2.36   2 2.53  27 2.53
  15  0.777  0.305  0.047-  56 2.25  64 2.26  41 2.26  28 2.53
  16  0.049  0.941  0.088-  62 2.25  42 2.26  67 2.26  43 2.36  68 2.36  30 2.53   5 2.53
  17  0.503  0.668  0.451-  59 2.25  44 2.36  69 2.36   7 2.53  32 2.53
  18  0.685  0.759  0.330-  60 2.25  44 2.26  69 2.26  70 2.36  45 2.36  33 2.53   8 2.53
  19  0.867  0.850  0.209-  61 2.25  70 2.26  45 2.26  42 2.36  67 2.36   4 2.53  29 2.53
  20  0.140  0.486  0.249-  53 2.25  46 2.26  71 2.26  72 2.36  47 2.36   9 2.53  35 2.53
  21  0.322  0.577  0.128-  50 2.25  47 2.26  72 2.26  48 2.36  73 2.36  36 2.53  10 2.53
  22  0.504  0.668  0.007-  48 2.26  73 2.26  11 2.53  37 2.53
  23  0.776  0.304  0.492-  51 2.25  74 2.36  49 2.36
  24  0.958  0.395  0.371-  52 2.25  74 2.26  49 2.26  46 2.36  71 2.36  34 2.53
  25  0.398  0.248  0.475-  38 2.26  39 2.36  51 2.36   3 2.53  12 2.53
  26  0.580  0.339  0.354-  69 2.25  39 2.26  51 2.26  52 2.36  40 2.36  13 2.53   1 2.53
  27  0.763  0.430  0.233-  70 2.25  52 2.26  40 2.26  53 2.36  41 2.36   2 2.53  14 2.53
  28  0.945  0.521  0.111-  67 2.25  53 2.26  41 2.26  50 2.36  15 2.53
  29  0.035  0.066  0.273-  71 2.25  45 2.26  57 2.26  42 2.36  54 2.36   4 2.53  19 2.53
  30  0.217  0.157  0.152-  72 2.25  42 2.26  54 2.26  55 2.36  43 2.36  16 2.53   5 2.53
  31  0.399  0.248  0.031-  73 2.25  43 2.26  55 2.26  56 2.36   6 2.53
  32  0.671  0.884  0.516-  58 2.36  44 2.36   7 2.53  17 2.53
  33  0.853  0.975  0.394-  74 2.25  44 2.26  58 2.26  45 2.36  57 2.36  18 2.53   8 2.53
  34  0.126  0.611  0.435-  65 2.25  49 2.26  59 2.36  46 2.36  24 2.53
  35  0.308  0.702  0.313-  66 2.25  59 2.26  46 2.26  60 2.36  47 2.36   9 2.53  20 2.53
  36  0.490  0.793  0.192-  63 2.25  60 2.26  47 2.26  61 2.36  48 2.36  21 2.53  10 2.53
  37  0.672  0.884  0.071-  64 2.25  48 2.26  61 2.26  62 2.36  11 2.53  22 2.53
  38  0.184  0.177  0.484-  25 2.26  12 2.26
  39  0.367  0.268  0.363-   9 2.25  26 2.26  13 2.26  12 2.36  25 2.36
  40  0.549  0.359  0.242-  10 2.25  27 2.26  14 2.26  13 2.36  26 2.36
  41  0.731  0.450  0.121-  11 2.25  15 2.26  28 2.26  14 2.36  27 2.36
  42  0.003  0.086  0.161-  30 2.26  16 2.26  19 2.36  29 2.36
  43  0.185  0.177  0.040-  31 2.26  16 2.36  30 2.36
  44  0.639  0.904  0.403-   1 2.25  33 2.26  18 2.26  17 2.36  32 2.36
  45  0.821  0.995  0.282-   2 2.25  29 2.26  19 2.26  18 2.36  33 2.36
  46  0.094  0.631  0.323-   4 2.25  20 2.26  35 2.26  24 2.36  34 2.36
  47  0.276  0.722  0.201-   5 2.25  21 2.26  36 2.26  20 2.36  35 2.36
  48  0.458  0.814  0.080-   6 2.25  37 2.26  22 2.26  21 2.36  36 2.36
  49  0.912  0.540  0.444-   8 2.25  24 2.26  34 2.26  23 2.36
  50  0.127  0.480  0.081-  21 2.25  28 2.36
  51  0.580  0.206  0.445-  23 2.25   1 2.26  26 2.26   3 2.36  25 2.36
  52  0.763  0.298  0.323-  24 2.25  27 2.26   2 2.26  26 2.36   1 2.36
  53  0.945  0.389  0.202-  20 2.25  28 2.26  27 2.36   2 2.36
  54  0.217  0.025  0.243-  13 2.25   5 2.26  30 2.26   4 2.36  29 2.36
  55  0.399  0.116  0.121-  14 2.25  31 2.26   6 2.26  30 2.36   5 2.36
  56  0.582  0.207  0.000-  15 2.25   6 2.36  31 2.36
  57  0.035  0.934  0.364-  12 2.25   4 2.26  29 2.26   8 2.36  33 2.36
  58  0.853  0.843  0.485-  33 2.26   8 2.26  32 2.36   7 2.36
  59  0.308  0.570  0.404-  17 2.25   9 2.26  35 2.26  34 2.36
  60  0.490  0.661  0.283-  18 2.25  36 2.26  10 2.26   9 2.36  35 2.36
  61  0.672  0.752  0.162-  19 2.25  11 2.26  37 2.26  36 2.36  10 2.36
  62  0.854  0.843  0.040-  16 2.25  11 2.36  37 2.36
  63  0.549  0.022  0.242-  36 2.25  14 2.26   2 2.26  13 2.36   1 2.36
  64  0.731  0.113  0.121-  37 2.25  15 2.26  14 2.36   2 2.36
  65  0.184  0.840  0.484-  34 2.25   3 2.26  12 2.26
  66  0.367  0.931  0.363-  35 2.25   1 2.26  13 2.26  12 2.36   3 2.36
  67  0.003  0.750  0.161-  28 2.25   5 2.26  16 2.26  19 2.36   4 2.36
  68  0.185  0.841  0.040-   6 2.26  16 2.36   5 2.36
  69  0.639  0.568  0.403-  26 2.25   8 2.26  18 2.26  17 2.36   7 2.36
  70  0.821  0.659  0.282-  27 2.25   4 2.26  19 2.26  18 2.36   8 2.36
  71  0.094  0.295  0.323-  29 2.25  20 2.26   9 2.26  24 2.36
  72  0.276  0.386  0.201-  30 2.25  21 2.26  10 2.26  20 2.36   9 2.36
  73  0.458  0.477  0.080-  31 2.25  11 2.26  22 2.26  10 2.36  21 2.36
  74  0.912  0.204  0.444-  33 2.25  24 2.26  23 2.36
 
  Warning from LATTYP: Monoclinic adjustment (A1->A3, A2->A1, A3->A2)!
  LATTYP: Found a base centered orthorhombic cell.
 ALAT       =     9.5784100000
 B/A-ratio  =     2.1722506661
 C/A-ratio  =     2.1551480229
  
  Lattice vectors:
  
 A1 = (  10.4033537511,  -4.7892050000,   0.0000000000)
 A2 = ( -10.4033537511,  -4.7892050000,   0.0000000000)
 A3 = (   0.0000000000,   0.0000000000, -20.6428913744)


Analysis of symmetry for initial positions (statically):
=====================================================================
 Subroutine PRICEL returns:
 Original cell was already a primitive cell.
 

 Routine SETGRP: Setting up the symmetry group for a 
 base centered orthorhombic supercell.


 Subroutine GETGRP returns: Found  1 space group operations
 (whereof  1 operations were pure point group operations)
 out of a pool of  8 trial point group operations.


The static configuration has the point symmetry C_1 .


Analysis of symmetry for dynamics (positions and initial velocities):
=====================================================================
 Subroutine PRICEL returns:
 Original cell was already a primitive cell.
 

 Routine SETGRP: Setting up the symmetry group for a 
 base centered orthorhombic supercell.


 Subroutine GETGRP returns: Found  1 space group operations
 (whereof  1 operations were pure point group operations)
 out of a pool of  8 trial point group operations.


The dynamic configuration has the point symmetry C_1 .


 Subroutine INISYM returns: Found  1 space group operations
 (whereof  1 operations are pure point group operations),
 and found     1 'primitive' translations


----------------------------------------------------------------------------------------

                                     Primitive cell                                     

  volume of cell :    2057.0143

  direct lattice vectors                    reciprocal lattice vectors
    10.403353751 -4.789205000  0.000000000     0.096122849  0.000000000  0.000000000
     0.000000000  9.578410000  0.000000000     0.048061424  0.104401461  0.000000000
     0.000000000  0.000000000 20.642891374     0.000000000  0.000000000  0.048442826

  length of vectors
    11.452783670  9.578410000 20.642891374     0.096122849  0.114932874  0.048442826

  position of ions in fractional coordinates (direct lattice)
     0.580446796  0.074375138  0.353894474
     0.762560812  0.165432146  0.232636526
     0.398332781  0.983318131  0.475152422
     0.035189473  0.801746477  0.273055842
     0.217303488  0.892803484  0.151797894
     0.399417503  0.983860492  0.030539946
     0.670961443  0.619632462  0.515571738
     0.853075458  0.710689469  0.394313790
     0.307818135  0.438060808  0.313475158
     0.489932150  0.529117815  0.192217210
     0.672046165  0.620174823  0.070959262
     0.230358012  0.031433746  0.411078267
     0.412472027  0.122490754  0.289820319
     0.594586043  0.213547761  0.168562371
     0.776700058  0.304604769  0.047304423
     0.049328719  0.940919100  0.087723739
     0.502986674  0.667748077  0.451497583
     0.685100689  0.758805085  0.330239635
     0.867214704  0.849862092  0.208981687
     0.139843366  0.486176423  0.249401003
     0.321957381  0.577233431  0.128143055
     0.504071396  0.668290438  0.006885107
     0.775615336  0.304062408  0.491916899
     0.957729351  0.395119416  0.370658951
     0.398332781  0.247524131  0.475152422
     0.580446796  0.338581138  0.353894474
     0.762560812  0.429638146  0.232636526
     0.944674827  0.520695154  0.111378578
     0.035189473  0.065952477  0.273055842
     0.217303488  0.157009484  0.151797894
     0.399417503  0.248066492  0.030539946
     0.670961443  0.883838462  0.515571738
     0.853075458  0.974895469  0.394313790
     0.125704120  0.611209800  0.434733106
     0.307818135  0.702266808  0.313475158
     0.489932150  0.793323815  0.192217210
     0.672046165  0.884380823  0.070959262
     0.184411117  0.176675299  0.484280801
     0.366525132  0.267732306  0.363022853
     0.548639147  0.358789314  0.241764905
     0.730753162  0.449846321  0.120506957
     0.003381824  0.086160652  0.160926273
     0.185495839  0.177217660  0.039668325
     0.639153794  0.904046637  0.403442169
     0.821267809  0.995103645  0.282184221
     0.093896470  0.631417975  0.322603537
     0.276010485  0.722474983  0.201345589
     0.458124501  0.813531990  0.080087641
     0.911782455  0.540360968  0.443861485
     0.126759941  0.479634711  0.080838632
     0.580417896  0.206463688  0.444612476
     0.762531911  0.297520696  0.323354528
     0.944645926  0.388577703  0.202096580
     0.217274588  0.024892034  0.242515896
     0.399388603  0.115949042  0.121257948
     0.581502618  0.207006049  0.000000000
     0.035160573  0.933835026  0.363773844
     0.853046557  0.842778019  0.485031792
     0.307789234  0.570149357  0.404193160
     0.489903249  0.661206365  0.282935212
     0.672017264  0.752263372  0.161677264
     0.854131279  0.843320380  0.040419316
     0.548639147  0.022359314  0.241764905
     0.730753162  0.113416321  0.120506957
     0.184411117  0.840245299  0.484280801
     0.366525132  0.931302306  0.363022853
     0.003381824  0.749730652  0.160926273
     0.185495839  0.840787660  0.039668325
     0.639153794  0.567616637  0.403442169
     0.821267809  0.658673645  0.282184221
     0.093896470  0.294987975  0.322603537
     0.276010485  0.386044983  0.201345589
     0.458124501  0.477101990  0.080087641
     0.911782455  0.203930968  0.443861485

  ion indices of the primitive-cell ions
   primitive index   ion index
                 1           1
                 2           2
                 3           3
                 4           4
                 5           5
                 6           6
                 7           7
                 8           8
                 9           9
                10          10
                11          11
                12          12
                13          13
                14          14
                15          15
                16          16
                17          17
                18          18
                19          19
                20          20
                21          21
                22          22
                23          23
                24          24
                25          25
                26          26
                27          27
                28          28
                29          29
                30          30
                31          31
                32          32
                33          33
                34          34
                35          35
                36          36
                37          37
                38          38
                39          39
                40          40
                41          41
                42          42
                43          43
                44          44
                45          45
                46          46
                47          47
                48          48
                49          49
                50          50
                51          51
                52          52
                53          53
                54          54
                55          55
                56          56
                57          57
                58          58
                59          59
                60          60
                61          61
                62          62
                63          63
                64          64
                65          65
                66          66
                67          67
                68          68
                69          69
                70          70
                71          71
                72          72
                73          73
                74          74

----------------------------------------------------------------------------------------

 
 
 KPOINTS: gamma-point-only calculation. no periodi

Automatic generation of k-mesh.
Space group operators:
 irot       det(A)        alpha          n_x          n_y          n_z        tau_x        tau_y        tau_z
    1     1.000000     0.000000     1.000000     0.000000     0.000000     0.000000     0.000000     0.000000
 
 Subroutine IBZKPT returns following result:
 ===========================================
 
 Found      1 irreducible k-points:
 
 Following reciprocal coordinates:
            Coordinates               Weight
  0.000000  0.000000  0.000000      1.000000
 
 Following cartesian coordinates:
            Coordinates               Weight
  0.000000  0.000000  0.000000      1.000000
 


--------------------------------------------------------------------------------------------------------




 Dimension of arrays:
   k-points           NKPTS =      1   k-points in BZ     NKDIM =      1   number of bands    NBANDS=    488
   number of dos      NEDOS =    301   number of ions     NIONS =     74
   non local maximal  LDIM  =      6   non local SUM 2l+1 LMDIM =     18
   total plane-waves  NPLWV = 324000
   max r-space proj   IRMAX =   1787   max aug-charges    IRDMAX=   5161
   dimension x,y,z NGX =    60 NGY =   50 NGZ =  108
   dimension x,y,z NGXF=   120 NGYF=  100 NGZF=  216
   support grid    NGXF=   120 NGYF=  100 NGZF=  216
   ions per type =              37  37
   NGX,Y,Z   is equivalent  to a cutoff of   8.71,  8.68,  8.70 a.u.
   NGXF,Y,Z  is equivalent  to a cutoff of  17.42, 17.36, 17.40 a.u.

 SYSTEM =  "Millerite NiS"                         
 POSCAR =  Structure 12 made from 02-1-7.xsd file  

 Startparameter for this run:
   NWRITE =      2    write-flag & timer
   PREC   = normal    normal or accurate (medium, high low for compatibility)
   ISTART =      0    job   : 0-new  1-cont  2-samecut
   ICHARG =      2    charge: 1-file 2-atom 10-const
   ISPIN  =      1    spin polarized calculation?
   LNONCOLLINEAR =      F non collinear calculations
   LSORBIT =      F    spin-orbit coupling
   INIWAV =      1    electr: 0-lowe 1-rand  2-diag
   LASPH  =      F    aspherical Exc in radial PAW
   METAGGA=      F    non-selfconsistent MetaGGA calc.

 Electronic Relaxation 1
   ENCUT  =  450.0 eV  33.07 Ry    5.75 a.u.  19.81 16.57 35.71*2*pi/ulx,y,z
   ENINI  =  450.0     initial cutoff
   ENAUG  =  703.4 eV  augmentation charge cutoff
   NELM   =    100;   NELMIN=  2; NELMDL= -5     # of ELM steps 
   EDIFF  = 0.1E-03   stopping-criterion for ELM
   LREAL  =      T    real-space projection
   NLSPLINE    = F    spline interpolate recip. space projectors
   LCOMPAT=      F    compatible to vasp.4.4
   GGA_COMPAT  = T    GGA compatible to vasp.4.4-vasp.4.6
   LMAXPAW     = -100 max onsite density
   LMAXMIX     =    2 max onsite mixed and CHGCAR
   VOSKOWN=      0    Vosko Wilk Nusair interpolation
   ROPT   =   -0.00050  -0.00050
 Ionic relaxation
   EDIFFG = 0.1E-02   stopping-criterion for IOM
   NSW    =      0    number of steps for IOM
   NBLOCK =      1;   KBLOCK =      1    inner block; outer block 
   IBRION =     -1    ionic relax: 0-MD 1-quasi-New 2-CG
   NFREE  =      0    steps in history (QN), initial steepest desc. (CG)
   ISIF   =      2    stress and relaxation
   IWAVPR =     10    prediction:  0-non 1-charg 2-wave 3-comb
   ISYM   =      2    0-nonsym 1-usesym 2-fastsym
   LCORR  =      T    Harris-Foulkes like correction to forces

   POTIM  = 0.5000    time-step for ionic-motion
   TEIN   =    0.0    initial temperature
   TEBEG  =    0.0;   TEEND  =   0.0 temperature during run
   SMASS  =  -3.00    Nose mass-parameter (am)
   estimated Nose-frequenzy (Omega)   =  0.10E-29 period in steps = 0.13E+47 mass=  -0.300E-26a.u.
   SCALEE = 1.0000    scale energy and forces
   NPACO  =    256;   APACO  = 16.0  distance and # of slots for P.C.
   PSTRESS=    0.0 pullay stress

  Mass of Ions in am
   POMASS =  58.69 32.07
  Ionic Valenz
   ZVAL   =  16.00  6.00
  Atomic Wigner-Seitz radii
   RWIGS  =  -1.00 -1.00
  virtual crystal weights 
   VCA    =   1.00  1.00
   NELECT =     814.0000    total number of electrons
   NUPDOWN=      -1.0000    fix difference up-down

 DOS related values:
   EMIN   =  10.00;   EMAX   =-10.00  energy-range for DOS
   EFERMI =   0.00
   ISMEAR =     0;   SIGMA  =   0.20  broadening in eV -4-tet -1-fermi 0-gaus

 Electronic relaxation 2 (details)
   IALGO  =     38    algorithm
   LDIAG  =      T    sub-space diagonalisation (order eigenvalues)
   LSUBROT=      F    optimize rotation matrix (better conditioning)
   TURBO    =      0    0=normal 1=particle mesh
   IRESTART =      0    0=no restart 2=restart with 2 vectors
   NREBOOT  =      0    no. of reboots
   NMIN     =      0    reboot dimension
   EREF     =   0.00    reference energy to select bands
   IMIX   =      4    mixing-type and parameters
     AMIX     =   0.40;   BMIX     =  1.00
     AMIX_MAG =   1.60;   BMIX_MAG =  1.00
     AMIN     =   0.10
     WC   =   100.;   INIMIX=   1;  MIXPRE=   1;  MAXMIX= -45

 Intra band minimization:
   WEIMIN = 0.0000     energy-eigenvalue tresh-hold
   EBREAK =  0.51E-07  absolut break condition
   DEPER  =   0.30     relativ break condition  

   TIME   =   0.40     timestep for ELM

  volume/ion in A,a.u.               =      27.80       187.59
  Fermi-wavevector in a.u.,A,eV,Ry     =   1.201906  2.271273 19.654680  1.444578
  Thomas-Fermi vector in A             =   2.337702
 
 Write flags
   LWAVE        =      F    write WAVECAR
   LDOWNSAMPLE  =      F    k-point downsampling of WAVECAR
   LCHARG       =      F    write CHGCAR
   LVTOT        =      F    write LOCPOT, total local potential
   LVHAR        =      F    write LOCPOT, Hartree potential only
   LELF         =      F    write electronic localiz. function (ELF)
   LORBIT       =      0    0 simple, 1 ext, 2 COOP (PROOUT), +10 PAW based schemes


 Dipole corrections
   LMONO  =      F    monopole corrections only (constant potential shift)
   LDIPOL =      F    correct potential (dipole corrections)
   IDIPOL =      0    1-x, 2-y, 3-z, 4-all directions 
   EPSILON=  1.0000000 bulk dielectric constant

 Exchange correlation treatment:
   GGA     =    --    GGA type
   LEXCH   =     8    internal setting for exchange type
   VOSKOWN=      0    Vosko Wilk Nusair interpolation
   LHFCALC =     F    Hartree Fock is set to
   LHFONE  =     F    Hartree Fock one center treatment
   AEXX    =    0.0000 exact exchange contribution

 Linear response parameters
   LEPSILON=     F    determine dielectric tensor
   LRPA    =     F    only Hartree local field effects (RPA)
   LNABLA  =     F    use nabla operator in PAW spheres
   LVEL    =     F    velocity operator in full k-point grid
   LINTERFAST=   F  fast interpolation
   KINTER  =     0    interpolate to denser k-point grid
   CSHIFT  =0.1000    complex shift for real part using Kramers Kronig
   OMEGAMAX=  -1.0    maximum frequency
   DEG_THRESHOLD= 0.2000000E-02 threshold for treating states as degnerate
   RTIME   =   -0.100 relaxation time in fs
  (WPLASMAI=    0.000 imaginary part of plasma frequency in eV, 0.658/RTIME)
   DFIELD  = 0.0000000 0.0000000 0.0000000 field for delta impulse in time
 
 Orbital magnetization related:
   ORBITALMAG=     F  switch on orbital magnetization
   LCHIMAG   =     F  perturbation theory with respect to B field
   DQ        =  0.001000  dq finite difference perturbation B field
   LLRAUG    =     F  two centre corrections for induced B field



--------------------------------------------------------------------------------------------------------


 Static calculation
 charge density and potential will be updated during run
 non-spin polarized calculation
 Variant of blocked Davidson
 Davidson routine will perform the subspace rotation
 perform sub-space diagonalisation
    after iterative eigenvector-optimisation
 modified Broyden-mixing scheme, WC =      100.0
 initial mixing is a Kerker type mixing with AMIX =  0.4000 and BMIX =      1.0000
 Hartree-type preconditioning will be used
 using additional bands           81
 real space projection scheme for non local part
 use partial core corrections
 calculate Harris-corrections to forces 
   (improved forces if not selfconsistent)
 use gradient corrections 
 use of overlap-Matrix (Vanderbilt PP)
 Gauss-broadening in eV      SIGMA  =   0.20


--------------------------------------------------------------------------------------------------------


  energy-cutoff  :      450.00
  volume of cell :     2057.01
      direct lattice vectors                 reciprocal lattice vectors
    10.403353751 -4.789205000  0.000000000     0.096122849  0.000000000  0.000000000
     0.000000000  9.578410000  0.000000000     0.048061424  0.104401461  0.000000000
     0.000000000  0.000000000 20.642891374     0.000000000  0.000000000  0.048442826

  length of vectors
    11.452783670  9.578410000 20.642891374     0.096122849  0.114932874  0.048442826


 
 k-points in units of 2pi/SCALE and weight: gamma-point-only calculation. no periodi
   0.00000000  0.00000000  0.00000000       1.000
 
 k-points in reciprocal lattice and weights: gamma-point-only calculation. no periodi
   0.00000000  0.00000000  0.00000000       1.000
 
 position of ions in fractional coordinates (direct lattice) 
   0.58044680  0.07437514  0.35389447
   0.76256081  0.16543215  0.23263653
   0.39833278  0.98331813  0.47515242
   0.03518947  0.80174648  0.27305584
   0.21730349  0.89280348  0.15179789
   0.39941750  0.98386049  0.03053995
   0.67096144  0.61963246  0.51557174
   0.85307546  0.71068947  0.39431379
   0.30781813  0.43806081  0.31347516
   0.48993215  0.52911781  0.19221721
   0.67204616  0.62017482  0.07095926
   0.23035801  0.03143375  0.41107827
   0.41247203  0.12249075  0.28982032
   0.59458604  0.21354776  0.16856237
   0.77670006  0.30460477  0.04730442
   0.04932872  0.94091910  0.08772374
   0.50298667  0.66774808  0.45149758
   0.68510069  0.75880508  0.33023963
   0.86721470  0.84986209  0.20898169
   0.13984337  0.48617642  0.24940100
   0.32195738  0.57723343  0.12814306
   0.50407140  0.66829044  0.00688511
   0.77561534  0.30406241  0.49191690
   0.95772935  0.39511942  0.37065895
   0.39833278  0.24752413  0.47515242
   0.58044680  0.33858114  0.35389447
   0.76256081  0.42963815  0.23263653
   0.94467483  0.52069515  0.11137858
   0.03518947  0.06595248  0.27305584
   0.21730349  0.15700948  0.15179789
   0.39941750  0.24806649  0.03053995
   0.67096144  0.88383846  0.51557174
   0.85307546  0.97489547  0.39431379
   0.12570412  0.61120980  0.43473311
   0.30781813  0.70226681  0.31347516
   0.48993215  0.79332382  0.19221721
   0.67204616  0.88438082  0.07095926
   0.18441112  0.17667530  0.48428080
   0.36652513  0.26773231  0.36302285
   0.54863915  0.35878931  0.24176490
   0.73075316  0.44984632  0.12050696
   0.00338182  0.08616065  0.16092627
   0.18549584  0.17721766  0.03966833
   0.63915379  0.90404664  0.40344217
   0.82126781  0.99510365  0.28218422
   0.09389647  0.63141797  0.32260354
   0.27601049  0.72247498  0.20134559
   0.45812450  0.81353199  0.08008764
   0.91178246  0.54036097  0.44386148
   0.12675994  0.47963471  0.08083863
   0.58041790  0.20646369  0.44461248
   0.76253191  0.29752070  0.32335453
   0.94464593  0.38857770  0.20209658
   0.21727459  0.02489203  0.24251590
   0.39938860  0.11594904  0.12125795
   0.58150262  0.20700605  0.00000000
   0.03516057  0.93383503  0.36377384
   0.85304656  0.84277802  0.48503179
   0.30778923  0.57014936  0.40419316
   0.48990325  0.66120636  0.28293521
   0.67201726  0.75226337  0.16167726
   0.85413128  0.84332038  0.04041932
   0.54863915  0.02235931  0.24176490
   0.73075316  0.11341632  0.12050696
   0.18441112  0.84024530  0.48428080
   0.36652513  0.93130231  0.36302285
   0.00338182  0.74973065  0.16092627
   0.18549584  0.84078766  0.03966833
   0.63915379  0.56761664  0.40344217
   0.82126781  0.65867365  0.28218422
   0.09389647  0.29498797  0.32260354
   0.27601049  0.38604498  0.20134559
   0.45812450  0.47710199  0.08008764
   0.91178246  0.20393097  0.44386148
 
 position of ions in cartesian coordinates  (Angst):
   6.03859335 -2.06748313  7.30540518
   7.93318988 -2.06748313  4.80229054
   4.14399683  7.51092687  9.80851983
   0.36608854  7.51092687  5.63666209
   2.26068506  7.51092687  3.13354744
   4.15528158  7.51092687  0.63043279
   6.98024924  2.72172187 10.64289138
   8.87484577  2.72172187  8.13977673
   3.20234095  2.72172187  6.47103364
   5.09693747  2.72172187  3.96791899
   6.99153399  2.72172187  1.46480434
   2.39649589 -0.80214644  8.48584401
   4.29109241 -0.80214643  5.98272936
   6.18568894 -0.80214644  3.47961471
   8.08028546 -0.80214644  0.97650007
   0.51318411  8.77626357  1.81087162
   5.23274830  3.98705856  9.32021556
   7.12734482  3.98705857  6.81710091
   9.02194134  3.98705856  4.31398626
   1.45484001  3.98705856  5.14835781
   3.34943653  3.98705857  2.64524316
   5.24403305  3.98705856  0.14212852
   8.06900072 -0.80214644 10.15458711
   9.96359724 -0.80214643  7.65147246
   4.14399683  0.46319027  9.80851983
   6.03859335  0.46319026  7.30540518
   7.93318988  0.46319026  4.80229054
   9.82778641  0.46319027  2.29917589
   0.36608854  0.46319027  5.63666209
   2.26068506  0.46319026  3.13354744
   4.15528158  0.46319027  0.63043279
   6.98024924  5.25239527 10.64289138
   8.87484577  5.25239526  8.13977673
   1.30774443  5.25239526  8.97414828
   3.20234095  5.25239527  6.47103364
   5.09693747  5.25239526  3.96791899
   6.99153399  5.25239527  1.46480434
   1.91849409  0.80908581  9.99695597
   3.81309061  0.80908580  7.49384132
   5.70768713  0.80908581  4.99072667
   7.60228365  0.80908580  2.48761202
   0.03518231  0.80908580  3.32198357
   1.92977883  0.80908581  0.81886892
   6.64934302  5.59829080  8.32821287
   8.54393954  5.59829081  5.82509822
   0.97683819  5.59829080  6.65946977
   2.87143471  5.59829081  4.15635512
   4.76603125  5.59829080  1.65324047
   9.48559542  0.80908581  9.16258442
   1.31872851  3.98705857  1.66874310
   6.03829270 -0.80214644  9.17808705
   7.93288922 -0.80214643  6.67497240
   9.82748574 -0.80214644  4.17185775
   2.26038440 -0.80214644  5.00622930
   4.15498092 -0.80214643  2.50311465
   6.04957744 -0.80214644  0.00000000
   0.36578788  8.77626356  7.50934395
   8.87454510  3.98705857 10.01245860
   3.20204028  3.98705856  8.34371550
   5.09663680  3.98705857  5.84060085
   6.99123332  3.98705856  3.33748620
   8.88582985  3.98705857  0.83437155
   5.70768713 -2.41337867  4.99072667
   7.60228365 -2.41337867  2.48761202
   1.91849409  7.16503133  9.99695597
   3.81309061  7.16503133  7.49384132
   0.03518231  7.16503133  3.32198357
   1.92977883  7.16503133  0.81886892
   6.64934302  2.37582633  8.32821287
   8.54393954  2.37582633  5.82509822
   0.97683819  2.37582633  6.65946977
   2.87143471  2.37582633  4.15635512
   4.76603125  2.37582632  1.65324047
   9.48559542 -2.41337867  9.16258442
 


--------------------------------------------------------------------------------------------------------


 use parallel FFT for orbitals z direction half grid
 k-point   1 :   0.0000 0.0000 0.0000  plane waves:   22299

 maximum and minimum number of plane-waves per node :      3721     3709

 maximum number of plane-waves:     22299
 maximum index in each direction: 
   IXMAX=   19   IYMAX=   16   IZMAX=   35
   IXMIN=  -19   IYMIN=  -16   IZMIN=    0


 real space projection operators:
  total allocation   :      11263.11 KBytes
  max/ min on nodes  :       1885.94       1865.70


 parallel 3D FFT for wavefunctions:
    minimum data exchange during FFTs selected (reduces bandwidth)
 parallel 3D FFT for charge:
    minimum data exchange during FFTs selected (reduces bandwidth)


 total amount of memory used by VASP MPI-rank0    45237. kBytes
=======================================================================

   base      :      30000. kBytes
   nonlr-proj:       2310. kBytes
   fftplans  :       3298. kBytes
   grid      :       5820. kBytes
   one-center:        101. kBytes
   wavefun   :       3708. kBytes
 
     INWAV:  cpu time    0.0000: real time    0.0000
 Broyden mixing: mesh for mixing (old mesh)
   NGX = 39   NGY = 33   NGZ = 71
  (NGX  =120   NGY  =100   NGZ  =216)
  gives a total of  91377 points

 initial charge density was supplied:
 charge density of overlapping atoms calculated
 number of electron     814.0000000 magnetization 
 keeping initial charge density in first step


--------------------------------------------------------------------------------------------------------


 Maximum index for non-local projection operator          297
 Maximum index for augmentation-charges          322 (set IRDMAX)


--------------------------------------------------------------------------------------------------------


 First call to EWALD:  gamma=   0.139
 Maximum number of real-space cells 3x 4x 2
 Maximum number of reciprocal cells 3x 2x 4

    FEWALD:  cpu time    0.0032: real time    0.0033


--------------------------------------- Iteration      1(   1)  ---------------------------------------


    POTLOK:  cpu time    0.0494: real time    0.0517
    SETDIJ:  cpu time    0.0050: real time    0.0067
     EDDAV:  cpu time    2.2836: real time    2.2917
       DOS:  cpu time    0.0008: real time    0.0009
    --------------------------------------------
      LOOP:  cpu time    2.3388: real time    2.3510

 eigenvalue-minimisations  :  1184
 total energy-change (2. order) : 0.9921580E+04  (-0.5237037E+05)
 number of electron     814.0000000 magnetization 
 augmentation part      814.0000000 magnetization 

 Free energy of the ion-electron system (eV)
  ---------------------------------------------------
  alpha Z        PSCENC =      1910.25942632
  Ewald energy   TEWEN  =    166659.12714085
  -Hartree energ DENC   =   -292518.85387456
  -exchange      EXHF   =         0.00000000
  -V(xc)+E(xc)   XCENC  =      3751.60309966
  PAW double counting   =    115860.90926010  -120909.33166199
  entropy T*S    EENTRO =        -0.36102604
  eigenvalues    EBANDS =     -4612.22744566
  atomic energy  EATOM  =    139780.45519414
  Solvation  Ediel_sol  =         0.00000000
  ---------------------------------------------------
  free energy    TOTEN  =      9921.58011281 eV

  energy without entropy =     9921.94113886  energy(sigma->0) =     9921.76062583


--------------------------------------------------------------------------------------------------------




--------------------------------------- Iteration      1(   2)  ---------------------------------------


     EDDAV:  cpu time    2.0082: real time    2.0150
       DOS:  cpu time    0.0056: real time    0.0056
    --------------------------------------------
      LOOP:  cpu time    2.0137: real time    2.0206

 eigenvalue-minimisations  :  1024
 total energy-change (2. order) :-0.9298588E+04  (-0.8994157E+04)
 number of electron     814.0000000 magnetization 
 augmentation part      814.0000000 magnetization 

 Free energy of the ion-electron system (eV)
  ---------------------------------------------------
  alpha Z        PSCENC =      1910.25942632
  Ewald energy   TEWEN  =    166659.12714085
  -Hartree energ DENC   =   -292518.85387456
  -exchange      EXHF   =         0.00000000
  -V(xc)+E(xc)   XCENC  =      3751.60309966
  PAW double counting   =    115860.90926010  -120909.33166199
  entropy T*S    EENTRO =        -0.76823336
  eigenvalues    EBANDS =    -13910.40835395
  atomic energy  EATOM  =    139780.45519414
  Solvation  Ediel_sol  =         0.00000000
  ---------------------------------------------------
  free energy    TOTEN  =       622.99199720 eV

  energy without entropy =      623.76023057  energy(sigma->0) =      623.37611388


--------------------------------------------------------------------------------------------------------




--------------------------------------- Iteration      1(   3)  ---------------------------------------


     EDDAV:  cpu time    2.1513: real time    2.1565
       DOS:  cpu time    0.0058: real time    0.0058
    --------------------------------------------
      LOOP:  cpu time    2.1571: real time    2.1623

 eigenvalue-minimisations  :  1128
 total energy-change (2. order) :-0.9713279E+03  (-0.9126206E+03)
 number of electron     814.0000000 magnetization 
 augmentation part      814.0000000 magnetization 

 Free energy of the ion-electron system (eV)
  ---------------------------------------------------
  alpha Z        PSCENC =      1910.25942632
  Ewald energy   TEWEN  =    166659.12714085
  -Hartree energ DENC   =   -292518.85387456
  -exchange      EXHF   =         0.00000000
  -V(xc)+E(xc)   XCENC  =      3751.60309966
  PAW double counting   =    115860.90926010  -120909.33166199
  entropy T*S    EENTRO =        -1.38671321
  eigenvalues    EBANDS =    -14881.11774483
  atomic energy  EATOM  =    139780.45519414
  Solvation  Ediel_sol  =         0.00000000
  ---------------------------------------------------
  free energy    TOTEN  =      -348.33587353 eV

  energy without entropy =     -346.94916032  energy(sigma->0) =     -347.64251692


--------------------------------------------------------------------------------------------------------




--------------------------------------- Iteration      1(   4)  ---------------------------------------


     EDDAV:  cpu time    2.2340: real time    2.2415
       DOS:  cpu time    0.0058: real time    0.0058
    --------------------------------------------
      LOOP:  cpu time    2.2398: real time    2.2474

 eigenvalue-minimisations  :  1160
 total energy-change (2. order) :-0.6479538E+02  (-0.6386551E+02)
 number of electron     814.0000000 magnetization 
 augmentation part      814.0000000 magnetization 

 Free energy of the ion-electron system (eV)
  ---------------------------------------------------
  alpha Z        PSCENC =      1910.25942632
  Ewald energy   TEWEN  =    166659.12714085
  -Hartree energ DENC   =   -292518.85387456
  -exchange      EXHF   =         0.00000000
  -V(xc)+E(xc)   XCENC  =      3751.60309966
  PAW double counting   =    115860.90926010  -120909.33166199
  entropy T*S    EENTRO =        -1.48146193
  eigenvalues    EBANDS =    -14945.81837684
  atomic energy  EATOM  =    139780.45519414
  Solvation  Ediel_sol  =         0.00000000
  ---------------------------------------------------
  free energy    TOTEN  =      -413.13125426 eV

  energy without entropy =     -411.64979232  energy(sigma->0) =     -412.39052329


--------------------------------------------------------------------------------------------------------




--------------------------------------- Iteration      1(   5)  ---------------------------------------


     EDDAV:  cpu time    2.4108: real time    2.4180
       DOS:  cpu time    0.0058: real time    0.0058
    CHARGE:  cpu time    0.0409: real time    0.0410
    MIXING:  cpu time    0.0026: real time    0.0029
    --------------------------------------------
      LOOP:  cpu time    2.4601: real time    2.4677

 eigenvalue-minimisations  :  1288
 total energy-change (2. order) :-0.2280580E+01  (-0.2276963E+01)
 number of electron     814.0000111 magnetization 
 augmentation part      293.9019448 magnetization 

 Broyden mixing:
  rms(total) = 0.83541E+01    rms(broyden)= 0.83374E+01
  rms(prec ) = 0.87869E+01
  weight for this iteration     100.00

 Free energy of the ion-electron system (eV)
  ---------------------------------------------------
  alpha Z        PSCENC =      1910.25942632
  Ewald energy   TEWEN  =    166659.12714085
  -Hartree energ DENC   =   -292518.85387456
  -exchange      EXHF   =         0.00000000
  -V(xc)+E(xc)   XCENC  =      3751.60309966
  PAW double counting   =    115860.90926010  -120909.33166199
  entropy T*S    EENTRO =        -1.48425700
  eigenvalues    EBANDS =    -14948.09616167
  atomic energy  EATOM  =    139780.45519414
  Solvation  Ediel_sol  =         0.00000000
  ---------------------------------------------------
  free energy    TOTEN  =      -415.41183415 eV

  energy without entropy =     -413.92757715  energy(sigma->0) =     -414.66970565


--------------------------------------------------------------------------------------------------------




--------------------------------------- Iteration      1(   6)  ---------------------------------------


    POTLOK:  cpu time    0.0488: real time    0.0489
    SETDIJ:  cpu time    0.0047: real time    0.0064
     EDDAV:  cpu time    2.2051: real time    2.2107
       DOS:  cpu time    0.0018: real time    0.0018
    CHARGE:  cpu time    0.0387: real time    0.0388
    MIXING:  cpu time    0.0026: real time    0.0027
    --------------------------------------------
      LOOP:  cpu time    2.3017: real time    2.3094

 eigenvalue-minimisations  :  1160
 total energy-change (2. order) :-0.9200324E+02  (-0.1038457E+03)
 number of electron     814.0000107 magnetization 
 augmentation part      363.7423855 magnetization 

 Broyden mixing:
  rms(total) = 0.16311E+02    rms(broyden)= 0.16307E+02
  rms(prec ) = 0.16958E+02
  weight for this iteration     100.00

 eigenvalues of (default mixing * dielectric matrix)
  average eigenvalue GAMMA=   0.2222
  0.2222

 Free energy of the ion-electron system (eV)
  ---------------------------------------------------
  alpha Z        PSCENC =      1910.25942632
  Ewald energy   TEWEN  =    166659.12714085
  -Hartree energ DENC   =   -289687.82745960
  -exchange      EXHF   =         0.00000000
  -V(xc)+E(xc)   XCENC  =      3671.91889407
  PAW double counting   =    117578.91422065  -122378.50294815
  entropy T*S    EENTRO =        -1.04990329
  eigenvalues    EBANDS =    -18040.70963645
  atomic energy  EATOM  =    139780.45519414
  Solvation  Ediel_sol  =         0.00000000
  ---------------------------------------------------
  free energy    TOTEN  =      -507.41507145 eV

  energy without entropy =     -506.36516817  energy(sigma->0) =     -506.89011981


--------------------------------------------------------------------------------------------------------




--------------------------------------- Iteration      1(   7)  ---------------------------------------


    POTLOK:  cpu time    0.0476: real time    0.0478
    SETDIJ:  cpu time    0.0050: real time    0.0050
     EDDAV:  cpu time    2.2200: real time    2.2279
       DOS:  cpu time    0.0018: real time    0.0018
    CHARGE:  cpu time    0.0400: real time    0.0401
    MIXING:  cpu time    0.0022: real time    0.0022
    --------------------------------------------
      LOOP:  cpu time    2.3167: real time    2.3249

 eigenvalue-minimisations  :  1136
 total energy-change (2. order) : 0.1228117E+03  (-0.1837373E+02)
 number of electron     814.0000115 magnetization 
 augmentation part      342.0441777 magnetization 

 Broyden mixing:
  rms(total) = 0.64407E+01    rms(broyden)= 0.64395E+01
  rms(prec ) = 0.67415E+01
  weight for this iteration     100.00

 eigenvalues of (default mixing * dielectric matrix)
  average eigenvalue GAMMA=   0.5199
  0.5199  0.5199

 Free energy of the ion-electron system (eV)
  ---------------------------------------------------
  alpha Z        PSCENC =      1910.25942632
  Ewald energy   TEWEN  =    166659.12714085
  -Hartree energ DENC   =   -290945.74217764
  -exchange      EXHF   =         0.00000000
  -V(xc)+E(xc)   XCENC  =      3702.20484671
  PAW double counting   =    121805.71517505  -126755.09223715
  entropy T*S    EENTRO =        -0.96241933
  eigenvalues    EBANDS =    -16540.56834222
  atomic energy  EATOM  =    139780.45519414
  Solvation  Ediel_sol  =         0.00000000
  ---------------------------------------------------
  free energy    TOTEN  =      -384.60339328 eV

  energy without entropy =     -383.64097395  energy(sigma->0) =     -384.12218361


--------------------------------------------------------------------------------------------------------




--------------------------------------- Iteration      1(   8)  ---------------------------------------


    POTLOK:  cpu time    0.0489: real time    0.0512
    SETDIJ:  cpu time    0.0048: real time    0.0077
     EDDAV:  cpu time    2.5311: real time    2.5373
       DOS:  cpu time    0.0018: real time    0.0018
    CHARGE:  cpu time    0.0394: real time    0.0394
    MIXING:  cpu time    0.0023: real time    0.0023
    --------------------------------------------
      LOOP:  cpu time    2.6283: real time    2.6398

 eigenvalue-minimisations  :  1360
 total energy-change (2. order) :-0.1359603E+02  (-0.1667244E+02)
 number of electron     814.0000107 magnetization 
 augmentation part      313.3201082 magnetization 

 Broyden mixing:
  rms(total) = 0.12119E+02    rms(broyden)= 0.12116E+02
  rms(prec ) = 0.14053E+02
  weight for this iteration     100.00

 eigenvalues of (default mixing * dielectric matrix)
  average eigenvalue GAMMA=   0.4197
  0.6982  0.4441  0.1167

 Free energy of the ion-electron system (eV)
  ---------------------------------------------------
  alpha Z        PSCENC =      1910.25942632
  Ewald energy   TEWEN  =    166659.12714085
  -Hartree energ DENC   =   -291587.67652937
  -exchange      EXHF   =         0.00000000
  -V(xc)+E(xc)   XCENC  =      3726.16922760
  PAW double counting   =    127682.71660652  -132749.22541265
  entropy T*S    EENTRO =        -1.44130245
  eigenvalues    EBANDS =    -15818.58377294
  atomic energy  EATOM  =    139780.45519414
  Solvation  Ediel_sol  =         0.00000000
  ---------------------------------------------------
  free energy    TOTEN  =      -398.19942199 eV

  energy without entropy =     -396.75811954  energy(sigma->0) =     -397.47877077


--------------------------------------------------------------------------------------------------------




--------------------------------------- Iteration      1(   9)  ---------------------------------------


    POTLOK:  cpu time    0.0476: real time    0.0477
    SETDIJ:  cpu time    0.0051: real time    0.0051
     EDDAV:  cpu time    2.3551: real time    2.3608
       DOS:  cpu time    0.0017: real time    0.0017
    CHARGE:  cpu time    0.0394: real time    0.0395
    MIXING:  cpu time    0.0023: real time    0.0023
    --------------------------------------------
      LOOP:  cpu time    2.4513: real time    2.4572

 eigenvalue-minimisations  :  1256
 total energy-change (2. order) : 0.1964205E+02  (-0.1067304E+02)
 number of electron     814.0000100 magnetization 
 augmentation part      315.4485903 magnetization 

 Broyden mixing:
  rms(total) = 0.52793E+01    rms(broyden)= 0.52696E+01
  rms(prec ) = 0.59201E+01
  weight for this iteration     100.00

 eigenvalues of (default mixing * dielectric matrix)
  average eigenvalue GAMMA=   0.5041
  1.1897  0.3698  0.3698  0.0871

 Free energy of the ion-electron system (eV)
  ---------------------------------------------------
  alpha Z        PSCENC =      1910.25942632
  Ewald energy   TEWEN  =    166659.12714085
  -Hartree energ DENC   =   -291723.14753875
  -exchange      EXHF   =         0.00000000
  -V(xc)+E(xc)   XCENC  =      3725.64815910
  PAW double counting   =    128891.86708269  -133967.19360446
  entropy T*S    EENTRO =        -1.32848649
  eigenvalues    EBANDS =    -15654.24474785
  atomic energy  EATOM  =    139780.45519414
  Solvation  Ediel_sol  =         0.00000000
  ---------------------------------------------------
  free energy    TOTEN  =      -378.55737445 eV

  energy without entropy =     -377.22888797  energy(sigma->0) =     -377.89313121


--------------------------------------------------------------------------------------------------------




--------------------------------------- Iteration      1(  10)  ---------------------------------------


    POTLOK:  cpu time    0.0469: real time    0.0470
    SETDIJ:  cpu time    0.0049: real time    0.0049
     EDDAV:  cpu time    2.5276: real time    2.5340
       DOS:  cpu time    0.0017: real time    0.0017
    CHARGE:  cpu time    0.0394: real time    0.0395
    MIXING:  cpu time    0.0025: real time    0.0025
    --------------------------------------------
      LOOP:  cpu time    2.6230: real time    2.6297

 eigenvalue-minimisations  :  1368
 total energy-change (2. order) :-0.1495742E+02  (-0.7257467E+01)
 number of electron     814.0000084 magnetization 
 augmentation part      314.0908954 magnetization 

 Broyden mixing:
  rms(total) = 0.81530E+01    rms(broyden)= 0.81481E+01
  rms(prec ) = 0.91623E+01
  weight for this iteration     100.00

 eigenvalues of (default mixing * dielectric matrix)
  average eigenvalue GAMMA=   0.5661
  1.8101  0.4068  0.4068  0.1034  0.1034

 Free energy of the ion-electron system (eV)
  ---------------------------------------------------
  alpha Z        PSCENC =      1910.25942632
  Ewald energy   TEWEN  =    166659.12714085
  -Hartree energ DENC   =   -291745.74029899
  -exchange      EXHF   =         0.00000000
  -V(xc)+E(xc)   XCENC  =      3723.44644058
  PAW double counting   =    131465.41529319  -136558.50714171
  entropy T*S    EENTRO =        -1.28636358
  eigenvalues    EBANDS =    -15626.68448877
  atomic energy  EATOM  =    139780.45519414
  Solvation  Ediel_sol  =         0.00000000
  ---------------------------------------------------
  free energy    TOTEN  =      -393.51479797 eV

  energy without entropy =     -392.22843440  energy(sigma->0) =     -392.87161618


--------------------------------------------------------------------------------------------------------




--------------------------------------- Iteration      1(  11)  ---------------------------------------


    POTLOK:  cpu time    0.0470: real time    0.0471
    SETDIJ:  cpu time    0.0051: real time    0.0051
     EDDAV:  cpu time    2.5629: real time    2.5691
       DOS:  cpu time    0.0006: real time    0.0006
    CHARGE:  cpu time    0.0451: real time    0.0452
    MIXING:  cpu time    0.0021: real time    0.0021
    --------------------------------------------
      LOOP:  cpu time    2.6627: real time    2.6692

 eigenvalue-minimisations  :  1392
 total energy-change (2. order) : 0.1050404E+02  (-0.5382753E+01)
 number of electron     814.0000125 magnetization 
 augmentation part      319.0773052 magnetization 

 Broyden mixing:
  rms(total) = 0.56950E+01    rms(broyden)= 0.56911E+01
  rms(prec ) = 0.64091E+01
  weight for this iteration     100.00

 eigenvalues of (default mixing * dielectric matrix)
  average eigenvalue GAMMA=   0.5253
  1.9778  0.4104  0.4104  0.1339  0.1339  0.0854

 Free energy of the ion-electron system (eV)
  ---------------------------------------------------
  alpha Z        PSCENC =      1910.25942632
  Ewald energy   TEWEN  =    166659.12714085
  -Hartree energ DENC   =   -291667.15358739
  -exchange      EXHF   =         0.00000000
  -V(xc)+E(xc)   XCENC  =      3720.12543912
  PAW double counting   =    134307.71089214  -139416.98203896
  entropy T*S    EENTRO =        -1.28674798
  eigenvalues    EBANDS =    -15675.26647262
  atomic energy  EATOM  =    139780.45519414
  Solvation  Ediel_sol  =         0.00000000
  ---------------------------------------------------
  free energy    TOTEN  =      -383.01075439 eV

  energy without entropy =     -381.72400641  energy(sigma->0) =     -382.36738040


--------------------------------------------------------------------------------------------------------




--------------------------------------- Iteration      1(  12)  ---------------------------------------


    POTLOK:  cpu time    0.0475: real time    0.0476
    SETDIJ:  cpu time    0.0051: real time    0.0051
     EDDAV:  cpu time    2.4147: real time    2.4206
       DOS:  cpu time    0.0016: real time    0.0016
    CHARGE:  cpu time    0.0461: real time    0.0465
    MIXING:  cpu time    0.0035: real time    0.0035
    --------------------------------------------
      LOOP:  cpu time    2.5185: real time    2.5248

 eigenvalue-minimisations  :  1296
 total energy-change (2. order) : 0.1067383E+02  (-0.2722554E+01)
 number of electron     814.0000114 magnetization 
 augmentation part      321.8943595 magnetization 

 Broyden mixing:
  rms(total) = 0.35993E+01    rms(broyden)= 0.35964E+01
  rms(prec ) = 0.40869E+01
  weight for this iteration     100.00

 eigenvalues of (default mixing * dielectric matrix)
  average eigenvalue GAMMA=   0.4842
  2.0088  0.4096  0.4096  0.1787  0.1787  0.1021  0.1021

 Free energy of the ion-electron system (eV)
  ---------------------------------------------------
  alpha Z        PSCENC =      1910.25942632
  Ewald energy   TEWEN  =    166659.12714085
  -Hartree energ DENC   =   -291636.81368260
  -exchange      EXHF   =         0.00000000
  -V(xc)+E(xc)   XCENC  =      3719.61271778
  PAW double counting   =    135230.76327392  -140348.10571015
  entropy T*S    EENTRO =        -1.08937142
  eigenvalues    EBANDS =    -15686.54591517
  atomic energy  EATOM  =    139780.45519414
  Solvation  Ediel_sol  =         0.00000000
  ---------------------------------------------------
  free energy    TOTEN  =      -372.33692633 eV

  energy without entropy =     -371.24755492  energy(sigma->0) =     -371.79224063


--------------------------------------------------------------------------------------------------------




--------------------------------------- Iteration      1(  13)  ---------------------------------------


    POTLOK:  cpu time    0.0502: real time    0.0535
    SETDIJ:  cpu time    0.0044: real time    0.0068
     EDDAV:  cpu time    2.4569: real time    2.4646
       DOS:  cpu time    0.0006: real time    0.0006
    CHARGE:  cpu time    0.0454: real time    0.0455
    MIXING:  cpu time    0.0024: real time    0.0025
    --------------------------------------------
      LOOP:  cpu time    2.5599: real time    2.5734

 eigenvalue-minimisations  :  1320
 total energy-change (2. order) : 0.4980595E+01  (-0.1386548E+01)
 number of electron     814.0000115 magnetization 
 augmentation part      322.0340171 magnetization 

 Broyden mixing:
  rms(total) = 0.27511E+01    rms(broyden)= 0.27483E+01
  rms(prec ) = 0.32761E+01
  weight for this iteration     100.00

 eigenvalues of (default mixing * dielectric matrix)
  average eigenvalue GAMMA=   0.4951
  2.0370  0.5422  0.4125  0.4125  0.2160  0.1251  0.1251  0.0907

 Free energy of the ion-electron system (eV)
  ---------------------------------------------------
  alpha Z        PSCENC =      1910.25942632
  Ewald energy   TEWEN  =    166659.12714085
  -Hartree energ DENC   =   -291629.10940663
  -exchange      EXHF   =         0.00000000
  -V(xc)+E(xc)   XCENC  =      3720.14803744
  PAW double counting   =    135380.81133352  -140501.43890112
  entropy T*S    EENTRO =        -1.17734096
  eigenvalues    EBANDS =    -15686.43181482
  atomic energy  EATOM  =    139780.45519414
  Solvation  Ediel_sol  =         0.00000000
  ---------------------------------------------------
  free energy    TOTEN  =      -367.35633126 eV

  energy without entropy =     -366.17899029  energy(sigma->0) =     -366.76766078


--------------------------------------------------------------------------------------------------------




--------------------------------------- Iteration      1(  14)  ---------------------------------------


    POTLOK:  cpu time    0.0482: real time    0.0500
    SETDIJ:  cpu time    0.0045: real time    0.0062
     EDDAV:  cpu time    2.3646: real time    2.3706
       DOS:  cpu time    0.0006: real time    0.0006
    CHARGE:  cpu time    0.0453: real time    0.0454
    MIXING:  cpu time    0.0025: real time    0.0025
    --------------------------------------------
      LOOP:  cpu time    2.4656: real time    2.4753

 eigenvalue-minimisations  :  1264
 total energy-change (2. order) :-0.2135153E+00  (-0.9977178E+00)
 number of electron     814.0000101 magnetization 
 augmentation part      320.4701149 magnetization 

 Broyden mixing:
  rms(total) = 0.35576E+01    rms(broyden)= 0.35547E+01
  rms(prec ) = 0.40143E+01
  weight for this iteration     100.00

 eigenvalues of (default mixing * dielectric matrix)
  average eigenvalue GAMMA=   0.4564
  2.0426  0.5552  0.4247  0.4247  0.1988  0.1516  0.1312  0.0894  0.0894

 Free energy of the ion-electron system (eV)
  ---------------------------------------------------
  alpha Z        PSCENC =      1910.25942632
  Ewald energy   TEWEN  =    166659.12714085
  -Hartree energ DENC   =   -291664.31379341
  -exchange      EXHF   =         0.00000000
  -V(xc)+E(xc)   XCENC  =      3721.17829004
  PAW double counting   =    135437.60178407  -140561.88875570
  entropy T*S    EENTRO =        -1.25495458
  eigenvalues    EBANDS =    -15648.73417825
  atomic energy  EATOM  =    139780.45519414
  Solvation  Ediel_sol  =         0.00000000
  ---------------------------------------------------
  free energy    TOTEN  =      -367.56984652 eV

  energy without entropy =     -366.31489194  energy(sigma->0) =     -366.94236923


--------------------------------------------------------------------------------------------------------




--------------------------------------- Iteration      1(  15)  ---------------------------------------


    POTLOK:  cpu time    0.0479: real time    0.0480
    SETDIJ:  cpu time    0.0051: real time    0.0051
     EDDAV:  cpu time    2.3499: real time    2.3556
       DOS:  cpu time    0.0005: real time    0.0005
    CHARGE:  cpu time    0.0451: real time    0.0452
    MIXING:  cpu time    0.0026: real time    0.0026
    --------------------------------------------
      LOOP:  cpu time    2.4511: real time    2.4570

 eigenvalue-minimisations  :  1256
 total energy-change (2. order) : 0.2202500E+01  (-0.1097817E+01)
 number of electron     814.0000110 magnetization 
 augmentation part      321.4395593 magnetization 

 Broyden mixing:
  rms(total) = 0.18656E+01    rms(broyden)= 0.18626E+01
  rms(prec ) = 0.21835E+01
  weight for this iteration     100.00

 eigenvalues of (default mixing * dielectric matrix)
  average eigenvalue GAMMA=   0.4214
  2.0346  0.4925  0.4417  0.4417  0.2222  0.1575  0.1575  0.0953  0.0953  0.0761

 Free energy of the ion-electron system (eV)
  ---------------------------------------------------
  alpha Z        PSCENC =      1910.25942632
  Ewald energy   TEWEN  =    166659.12714085
  -Hartree energ DENC   =   -291681.39098651
  -exchange      EXHF   =         0.00000000
  -V(xc)+E(xc)   XCENC  =      3721.11877073
  PAW double counting   =    135409.77372886  -140533.85419604
  entropy T*S    EENTRO =        -1.06117878
  eigenvalues    EBANDS =    -15629.79524593
  atomic energy  EATOM  =    139780.45519414
  Solvation  Ediel_sol  =         0.00000000
  ---------------------------------------------------
  free energy    TOTEN  =      -365.36734636 eV

  energy without entropy =     -364.30616758  energy(sigma->0) =     -364.83675697


--------------------------------------------------------------------------------------------------------




--------------------------------------- Iteration      1(  16)  ---------------------------------------


    POTLOK:  cpu time    0.0480: real time    0.0481
    SETDIJ:  cpu time    0.0050: real time    0.0050
     EDDAV:  cpu time    2.4123: real time    2.4188
       DOS:  cpu time    0.0006: real time    0.0006
    CHARGE:  cpu time    0.0397: real time    0.0398
    MIXING:  cpu time    0.0030: real time    0.0030
    --------------------------------------------
      LOOP:  cpu time    2.5086: real time    2.5153

 eigenvalue-minimisations  :  1296
 total energy-change (2. order) : 0.9973918E+00  (-0.1330298E+00)
 number of electron     814.0000111 magnetization 
 augmentation part      321.2492159 magnetization 

 Broyden mixing:
  rms(total) = 0.14265E+01    rms(broyden)= 0.14258E+01
  rms(prec ) = 0.16541E+01
  weight for this iteration     100.00

 eigenvalues of (default mixing * dielectric matrix)
  average eigenvalue GAMMA=   0.4389
  2.0220  0.6360  0.6360  0.3900  0.3900  0.1738  0.1738  0.1094  0.1094  0.0938
  0.0938

 Free energy of the ion-electron system (eV)
  ---------------------------------------------------
  alpha Z        PSCENC =      1910.25942632
  Ewald energy   TEWEN  =    166659.12714085
  -Hartree energ DENC   =   -291679.44404649
  -exchange      EXHF   =         0.00000000
  -V(xc)+E(xc)   XCENC  =      3721.27900851
  PAW double counting   =    135351.02745730  -140475.04629986
  entropy T*S    EENTRO =        -1.16338037
  eigenvalues    EBANDS =    -15630.86445493
  atomic energy  EATOM  =    139780.45519414
  Solvation  Ediel_sol  =         0.00000000
  ---------------------------------------------------
  free energy    TOTEN  =      -364.36995454 eV

  energy without entropy =     -363.20657417  energy(sigma->0) =     -363.78826436


--------------------------------------------------------------------------------------------------------




--------------------------------------- Iteration      1(  17)  ---------------------------------------


    POTLOK:  cpu time    0.0480: real time    0.0481
    SETDIJ:  cpu time    0.0050: real time    0.0050
     EDDAV:  cpu time    2.4418: real time    2.4478
       DOS:  cpu time    0.0006: real time    0.0006
    CHARGE:  cpu time    0.0398: real time    0.0398
    MIXING:  cpu time    0.0030: real time    0.0030
    --------------------------------------------
      LOOP:  cpu time    2.5383: real time    2.5445

 eigenvalue-minimisations  :  1312
 total energy-change (2. order) : 0.2819128E+00  (-0.1151603E+00)
 number of electron     814.0000113 magnetization 
 augmentation part      321.2354999 magnetization 

 Broyden mixing:
  rms(total) = 0.12624E+01    rms(broyden)= 0.12618E+01
  rms(prec ) = 0.14445E+01
  weight for this iteration     100.00

 eigenvalues of (default mixing * dielectric matrix)
  average eigenvalue GAMMA=   0.4310
  2.0136  0.7158  0.7158  0.3922  0.3922  0.2052  0.2052  0.1263  0.1263  0.0912
  0.0939  0.0939

 Free energy of the ion-electron system (eV)
  ---------------------------------------------------
  alpha Z        PSCENC =      1910.25942632
  Ewald energy   TEWEN  =    166659.12714085
  -Hartree energ DENC   =   -291677.64362646
  -exchange      EXHF   =         0.00000000
  -V(xc)+E(xc)   XCENC  =      3721.31747645
  PAW double counting   =    135179.40141133  -140301.26507523
  entropy T*S    EENTRO =        -1.17422403
  eigenvalues    EBANDS =    -15634.56576514
  atomic energy  EATOM  =    139780.45519414
  Solvation  Ediel_sol  =         0.00000000
  ---------------------------------------------------
  free energy    TOTEN  =      -364.08804177 eV

  energy without entropy =     -362.91381774  energy(sigma->0) =     -363.50092975


--------------------------------------------------------------------------------------------------------




--------------------------------------- Iteration      1(  18)  ---------------------------------------


    POTLOK:  cpu time    0.0484: real time    0.0485
    SETDIJ:  cpu time    0.0049: real time    0.0049
     EDDAV:  cpu time    2.3898: real time    2.3964
       DOS:  cpu time    0.0006: real time    0.0006
    CHARGE:  cpu time    0.0396: real time    0.0397
    MIXING:  cpu time    0.0031: real time    0.0031
    --------------------------------------------
      LOOP:  cpu time    2.4862: real time    2.4931

 eigenvalue-minimisations  :  1280
 total energy-change (2. order) : 0.2698675E+00  (-0.4251728E-01)
 number of electron     814.0000116 magnetization 
 augmentation part      321.2041396 magnetization 

 Broyden mixing:
  rms(total) = 0.10820E+01    rms(broyden)= 0.10817E+01
  rms(prec ) = 0.12401E+01
  weight for this iteration     100.00

 eigenvalues of (default mixing * dielectric matrix)
  average eigenvalue GAMMA=   0.4434
  1.9948  0.8638  0.8638  0.3880  0.3880  0.2960  0.2960  0.1400  0.1400  0.1016
  0.1016  0.0951  0.0951

 Free energy of the ion-electron system (eV)
  ---------------------------------------------------
  alpha Z        PSCENC =      1910.25942632
  Ewald energy   TEWEN  =    166659.12714085
  -Hartree energ DENC   =   -291683.00609055
  -exchange      EXHF   =         0.00000000
  -V(xc)+E(xc)   XCENC  =      3721.36717710
  PAW double counting   =    135075.08573617  -140195.65150518
  entropy T*S    EENTRO =        -1.18286608
  eigenvalues    EBANDS =    -15630.27238700
  atomic energy  EATOM  =    139780.45519414
  Solvation  Ediel_sol  =         0.00000000
  ---------------------------------------------------
  free energy    TOTEN  =      -363.81817423 eV

  energy without entropy =     -362.63530816  energy(sigma->0) =     -363.22674120


--------------------------------------------------------------------------------------------------------




--------------------------------------- Iteration      1(  19)  ---------------------------------------


    POTLOK:  cpu time    0.0486: real time    0.0487
    SETDIJ:  cpu time    0.0048: real time    0.0048
     EDDAV:  cpu time    2.4626: real time    2.4688
       DOS:  cpu time    0.0006: real time    0.0006
    CHARGE:  cpu time    0.0399: real time    0.0400
    MIXING:  cpu time    0.0029: real time    0.0029
    --------------------------------------------
      LOOP:  cpu time    2.5593: real time    2.5658

 eigenvalue-minimisations  :  1328
 total energy-change (2. order) : 0.1995863E+00  (-0.1419796E-01)
 number of electron     814.0000114 magnetization 
 augmentation part      320.9398990 magnetization 

 Broyden mixing:
  rms(total) = 0.94106E+00    rms(broyden)= 0.94090E+00
  rms(prec ) = 0.10692E+01
  weight for this iteration     100.00

 eigenvalues of (default mixing * dielectric matrix)
  average eigenvalue GAMMA=   0.4625
  1.9853  1.0596  1.0596  0.3974  0.3974  0.3504  0.3504  0.1748  0.1748  0.1217
  0.1217  0.0941  0.0939  0.0939

 Free energy of the ion-electron system (eV)
  ---------------------------------------------------
  alpha Z        PSCENC =      1910.25942632
  Ewald energy   TEWEN  =    166659.12714085
  -Hartree energ DENC   =   -291693.21643477
  -exchange      EXHF   =         0.00000000
  -V(xc)+E(xc)   XCENC  =      3721.53205911
  PAW double counting   =    134895.08663993  -140013.54484800
  entropy T*S    EENTRO =        -1.21283225
  eigenvalues    EBANDS =    -15622.10493329
  atomic energy  EATOM  =    139780.45519414
  Solvation  Ediel_sol  =         0.00000000
  ---------------------------------------------------
  free energy    TOTEN  =      -363.61858795 eV

  energy without entropy =     -362.40575570  energy(sigma->0) =     -363.01217183


--------------------------------------------------------------------------------------------------------




--------------------------------------- Iteration      1(  20)  ---------------------------------------


    POTLOK:  cpu time    0.0484: real time    0.0485
    SETDIJ:  cpu time    0.0049: real time    0.0049
     EDDAV:  cpu time    2.4932: real time    2.4997
       DOS:  cpu time    0.0006: real time    0.0006
    CHARGE:  cpu time    0.0398: real time    0.0399
    MIXING:  cpu time    0.0033: real time    0.0033
    --------------------------------------------
      LOOP:  cpu time    2.5901: real time    2.5969

 eigenvalue-minimisations  :  1344
 total energy-change (2. order) : 0.8995255E-01  (-0.2470300E-01)
 number of electron     814.0000116 magnetization 
 augmentation part      320.8442959 magnetization 

 Broyden mixing:
  rms(total) = 0.86900E+00    rms(broyden)= 0.86861E+00
  rms(prec ) = 0.98353E+00
  weight for this iteration     100.00

 eigenvalues of (default mixing * dielectric matrix)
  average eigenvalue GAMMA=   0.5209
  1.9999  1.4804  1.4804  0.5137  0.5137  0.3917  0.3917  0.2293  0.1487  0.1487
  0.1236  0.0943  0.0943  0.0950  0.1074

 Free energy of the ion-electron system (eV)
  ---------------------------------------------------
  alpha Z        PSCENC =      1910.25942632
  Ewald energy   TEWEN  =    166659.12714085
  -Hartree energ DENC   =   -291703.49859698
  -exchange      EXHF   =         0.00000000
  -V(xc)+E(xc)   XCENC  =      3721.60926350
  PAW double counting   =    134731.81589063  -139848.08126755
  entropy T*S    EENTRO =        -1.20868725
  eigenvalues    EBANDS =    -15614.00699906
  atomic energy  EATOM  =    139780.45519414
  Solvation  Ediel_sol  =         0.00000000
  ---------------------------------------------------
  free energy    TOTEN  =      -363.52863540 eV

  energy without entropy =     -362.31994815  energy(sigma->0) =     -362.92429177


--------------------------------------------------------------------------------------------------------




--------------------------------------- Iteration      1(  21)  ---------------------------------------


    POTLOK:  cpu time    0.0481: real time    0.0482
    SETDIJ:  cpu time    0.0049: real time    0.0049
     EDDAV:  cpu time    2.6868: real time    2.6958
       DOS:  cpu time    0.0006: real time    0.0006
    CHARGE:  cpu time    0.0403: real time    0.0404
    MIXING:  cpu time    0.0035: real time    0.0035
    --------------------------------------------
      LOOP:  cpu time    2.7841: real time    2.7934

 eigenvalue-minimisations  :  1440
 total energy-change (2. order) : 0.1854377E+00  (-0.3587486E-01)
 number of electron     814.0000113 magnetization 
 augmentation part      320.7156637 magnetization 

 Broyden mixing:
  rms(total) = 0.67798E+00    rms(broyden)= 0.67712E+00
  rms(prec ) = 0.75930E+00
  weight for this iteration     100.00

 eigenvalues of (default mixing * dielectric matrix)
  average eigenvalue GAMMA=   0.5243
  1.9970  1.6279  1.6279  0.5691  0.5691  0.3893  0.3893  0.2294  0.1922  0.1443
  0.1443  0.0943  0.0943  0.0946  0.1133  0.1133

 Free energy of the ion-electron system (eV)
  ---------------------------------------------------
  alpha Z        PSCENC =      1910.25942632
  Ewald energy   TEWEN  =    166659.12714085
  -Hartree energ DENC   =   -291719.40221705
  -exchange      EXHF   =         0.00000000
  -V(xc)+E(xc)   XCENC  =      3721.64341974
  PAW double counting   =    134342.78103744  -139453.31192919
  entropy T*S    EENTRO =        -1.26394346
  eigenvalues    EBANDS =    -15603.63132644
  atomic energy  EATOM  =    139780.45519414
  Solvation  Ediel_sol  =         0.00000000
  ---------------------------------------------------
[...]
  Alpha Z  1910.25943  1910.25943  1910.25943
  Ewald  213963.46444216309.49238************   834.66706   617.60017  -564.38631
  Hartree251955.75616254665.43987************   727.88178   450.22234  -374.11162
  E(xc)   -5163.90611 -5166.08434 -5169.16161    -0.04845     0.45528    -0.82194
  Local  ************************465138.25741 -1565.67012 -1061.56184   900.84629
  n-local  -697.84819  -714.90450  -716.15743    -0.51396     1.81068    -2.44950
  augment  5935.91404  5965.59858  5963.11781     2.03789    -3.29993    15.34846
  Kinetic 11241.03277 11289.47646 11302.30811     5.66697    -7.10362    39.78836
  Fock        0.00000     0.00000     0.00000     0.00000     0.00000     0.00000
  -------------------------------------------------------------------------------------
  Total     -43.63760   -27.70886   -24.23887     4.02117    -1.87692    14.21373
  in kB     -33.98867   -21.58201   -18.87929     3.13203    -1.46190    11.07086
  external pressure =      -24.82 kB  Pullay stress =        0.00 kB


 VOLUME and BASIS-vectors are now :
 -----------------------------------------------------------------------------
  energy-cutoff  :      450.00
  volume of cell :     2057.01
      direct lattice vectors                 reciprocal lattice vectors
    10.403353751 -4.789205000  0.000000000     0.096122849  0.000000000  0.000000000
     0.000000000  9.578410000  0.000000000     0.048061424  0.104401461  0.000000000
     0.000000000  0.000000000 20.642891374     0.000000000  0.000000000  0.048442826

  length of vectors
    11.452783670  9.578410000 20.642891374     0.096122849  0.114932874  0.048442826


 FORCES acting on ions
    electron-ion (+dipol)            ewald-force                    non-local-force                 convergence-correction
 -----------------------------------------------------------------------------------------------
   -.268E+03 0.449E+03 -.210E+04   0.268E+03 -.450E+03 0.210E+04   0.110E-01 0.108E+01 -.747E+00   -.116E-01 -.510E-02 -.659E-02
   -.546E+03 0.441E+03 0.758E+03   0.547E+03 -.442E+03 -.759E+03   -.995E+00 0.760E+00 0.530E+00   0.130E-02 -.955E-02 -.137E-01
   0.214E+02 0.515E+03 -.461E+04   -.287E+02 -.512E+03 0.460E+04   0.689E+01 -.324E+01 0.229E+01   -.171E-01 0.160E-01 0.409E-02
   -.242E+03 0.457E+03 -.364E+03   0.242E+03 -.458E+03 0.365E+03   0.664E+00 0.647E+00 -.879E+00   -.228E-02 -.883E-03 0.972E-02
   -.570E+02 0.490E+03 0.236E+04   0.565E+02 -.491E+03 -.236E+04   0.502E+00 0.141E+01 0.129E+01   0.142E-01 -.195E-01 0.525E-02
   0.103E+03 0.353E+03 0.455E+04   -.103E+03 -.351E+03 -.454E+04   0.573E+00 -.153E+01 -.236E+01   0.183E-01 0.741E-02 -.103E-01
   -.716E+02 0.582E+03 -.479E+04   0.716E+02 -.571E+03 0.478E+04   0.702E+00 -.101E+02 0.799E+01   0.249E-01 0.151E-02 0.269E-01
   -.451E+03 0.469E+03 -.302E+04   0.451E+03 -.470E+03 0.302E+04   -.231E+00 0.129E+01 -.185E+01   0.606E-02 0.131E-01 0.697E-02
   0.725E+02 0.434E+03 -.150E+04   -.744E+02 -.435E+03 0.150E+04   0.152E+01 0.806E+00 -.206E+01   0.543E-03 -.900E-02 -.230E-01
   -.154E+03 0.438E+03 0.137E+04   0.154E+03 -.439E+03 -.137E+04   0.171E+00 0.596E+00 -.136E+01   -.317E-02 0.201E-01 -.222E-01
   -.552E+03 0.446E+03 0.400E+04   0.554E+03 -.444E+03 -.400E+04   -.142E+01 -.204E+01 -.294E+00   -.112E-01 -.551E-02 0.624E-02
   0.646E+03 -.168E+03 -.309E+04   -.650E+03 0.169E+03 0.309E+04   0.329E+01 -.630E+00 -.374E+01   -.222E-02 -.239E-02 0.388E-02
   0.466E+03 -.301E+02 -.294E+03   -.468E+03 0.300E+02 0.294E+03   0.171E+01 0.777E-01 -.149E+00   -.148E-01 0.165E-03 -.237E-02
   0.185E+03 0.467E+02 0.238E+04   -.186E+03 -.480E+02 -.238E+04   0.100E+01 0.985E+00 0.778E+00   -.451E-02 0.221E-02 -.243E-01
   -.562E+03 0.264E+03 0.454E+04   0.554E+03 -.264E+03 -.454E+04   0.619E+01 -.322E-01 -.671E+01   -.478E-02 0.480E-02 -.810E-02
   0.478E+03 -.168E+03 0.421E+04   -.479E+03 0.169E+03 -.422E+04   0.132E+01 -.614E+00 0.262E+01   -.613E-02 -.649E-03 -.732E-02
   0.845E+03 0.423E+02 -.383E+04   -.845E+03 -.418E+02 0.383E+04   0.245E+00 -.435E+00 0.133E+01   0.282E-01 -.507E-02 0.158E-01
   0.337E+03 -.221E+02 -.112E+04   -.338E+03 0.221E+02 0.112E+04   0.120E+01 0.466E-01 0.312E+00   0.139E-01 -.306E-02 -.149E-01
   0.271E+03 -.119E+03 0.161E+04   -.272E+03 0.119E+03 -.161E+04   0.646E+00 -.698E+00 0.670E+00   -.171E-01 -.600E-02 0.273E-02
   0.546E+03 0.123E+03 0.665E+03   -.549E+03 -.124E+03 -.665E+03   0.293E+01 0.713E+00 -.316E+00   0.405E-02 0.137E-02 -.209E-01
   0.802E+03 0.482E+02 0.334E+04   -.806E+03 -.478E+02 -.334E+04   0.407E+01 -.355E+00 0.157E+01   0.123E-01 -.694E-03 0.188E-02
   0.382E+03 -.834E+01 0.503E+04   -.378E+03 0.828E+01 -.502E+04   -.444E+01 0.537E-01 -.140E+02   0.358E-02 -.382E-02 0.220E-01
   -.283E+03 0.491E+02 -.457E+04   0.283E+03 -.507E+02 0.456E+04   0.445E-01 0.144E+01 0.869E+01   -.171E-02 0.141E-02 0.510E-02
   -.610E+02 0.277E+03 -.239E+04   0.601E+02 -.279E+03 0.239E+04   0.127E+01 0.150E+01 -.230E+01   0.452E-02 -.134E-02 -.106E-01
   0.135E+03 -.635E+03 -.457E+04   -.143E+03 0.632E+03 0.457E+04   0.779E+01 0.314E+01 0.174E+01   -.140E-01 -.169E-01 0.367E-02
   -.216E+03 -.454E+03 -.212E+04   0.216E+03 0.455E+03 0.212E+04   -.136E+00 -.115E+01 -.873E+00   -.939E-02 0.808E-02 -.674E-02
   -.413E+03 -.331E+03 0.623E+03   0.414E+03 0.331E+03 -.622E+03   -.965E+00 -.214E+00 -.875E+00   0.431E-02 0.149E-01 -.143E-01
   -.443E+03 0.128E+03 0.353E+04   0.445E+03 -.133E+03 -.353E+04   -.141E+01 0.324E+01 -.167E+01   -.825E-02 -.150E-01 -.150E-01
   -.242E+03 -.619E+03 -.365E+03   0.242E+03 0.621E+03 0.365E+03   0.264E+00 -.195E+01 -.219E+00   0.130E-03 -.596E-02 0.108E-01
   0.576E+02 -.622E+03 0.237E+04   -.589E+02 0.623E+03 -.238E+04   0.120E+01 -.153E+01 0.114E+01   0.190E-01 0.211E-01 0.907E-03
   0.146E+03 -.367E+03 0.454E+04   -.147E+03 0.365E+03 -.454E+04   0.548E+00 0.151E+01 -.239E+01   0.184E-01 0.103E-02 -.871E-02
   -.115E+03 -.595E+03 -.478E+04   0.115E+03 0.585E+03 0.477E+04   0.604E+00 0.102E+02 0.791E+01   0.259E-01 -.125E-01 0.268E-01
   -.566E+03 -.600E+03 -.304E+04   0.567E+03 0.602E+03 0.304E+04   -.504E+00 -.215E+01 -.214E+01   0.932E-02 -.134E-01 0.879E-02
   -.131E+03 0.205E+03 -.412E+04   0.132E+03 -.200E+03 0.412E+04   -.116E+01 -.467E+01 -.524E+00   -.625E-02 0.165E-01 -.239E-02
   -.586E+02 -.323E+03 -.136E+04   0.582E+02 0.323E+03 0.137E+04   0.456E+00 -.524E+00 -.191E+01   -.619E-05 0.892E-02 -.247E-01
   -.207E+03 -.443E+03 0.138E+04   0.206E+03 0.444E+03 -.138E+04   0.244E+00 -.626E+00 -.127E+01   -.348E-02 -.193E-01 -.208E-01
   -.666E+03 -.565E+03 0.397E+04   0.668E+03 0.564E+03 -.397E+04   -.157E+01 0.137E+01 -.734E+00   -.118E-01 0.171E-03 0.754E-02
   0.278E+03 -.257E+03 -.172E+04   -.280E+03 0.258E+03 0.172E+04   0.371E+01 -.190E+01 -.204E+01   -.412E-03 -.804E-02 -.540E-03
   0.195E+03 -.203E+03 -.856E+03   -.197E+03 0.205E+03 0.855E+03   0.147E+01 -.163E+01 0.107E+01   -.587E-02 -.737E-02 0.633E-03
   0.869E+02 -.142E+03 0.180E+03   -.884E+02 0.144E+03 -.182E+03   0.150E+01 -.211E+01 0.837E+00   -.493E-02 0.732E-02 -.603E-02
   -.450E+02 -.882E+02 0.118E+04   0.440E+02 0.896E+02 -.118E+04   0.179E+01 -.175E+01 0.137E+00   0.228E-03 0.195E-02 -.126E-01
   0.147E+03 -.384E+03 0.100E+04   -.150E+03 0.390E+03 -.100E+04   0.279E+01 -.618E+01 0.252E+01   -.331E-02 0.706E-02 0.877E-03
   0.267E+03 -.271E+03 0.178E+04   -.269E+03 0.274E+03 -.179E+04   0.224E+01 -.384E+01 0.376E+01   0.106E-01 0.661E-02 -.632E-02
   0.864E+02 -.154E+03 -.111E+04   -.875E+02 0.156E+03 0.111E+04   0.665E+00 -.224E+01 0.157E+01   0.113E-01 0.203E-02 0.589E-03
   0.244E+02 -.185E+03 -.119E+03   -.260E+02 0.188E+03 0.119E+03   0.164E+01 -.228E+01 0.277E+00   0.890E-04 -.525E-02 0.119E-02
   0.938E+02 -.711E+02 -.532E+03   -.954E+02 0.729E+02 0.531E+03   0.161E+01 -.223E+01 0.583E+00   -.306E-02 0.503E-02 -.380E-02
   0.159E+03 -.109E+03 0.533E+03   -.161E+03 0.111E+03 -.534E+03   0.153E+01 -.206E+01 0.112E+01   0.754E-02 -.882E-02 -.799E-02
   0.133E+03 -.134E+03 0.142E+04   -.134E+03 0.137E+03 -.142E+04   0.204E+01 -.248E+01 -.723E+00   0.154E-02 -.301E-02 0.609E-02
   -.500E+02 -.273E+02 -.158E+04   0.500E+02 0.281E+02 0.158E+04   0.137E+00 -.182E+01 -.661E+00   0.152E-02 0.115E-01 -.157E-02
   0.149E+03 0.123E+03 0.159E+04   -.149E+03 -.124E+03 -.159E+04   0.136E+00 0.243E+01 0.299E+01   0.322E-02 0.398E-03 0.205E-02
   -.121E+03 -.281E+01 -.157E+04   0.123E+03 0.279E+01 0.158E+04   -.187E+01 -.279E-01 0.340E+00   -.119E-01 0.736E-03 0.324E-02
   -.185E+03 0.194E+02 -.630E+03   0.187E+03 -.193E+02 0.632E+03   -.195E+01 -.190E+00 -.223E+01   0.453E-02 0.131E-02 -.459E-03
   -.147E+03 0.147E+03 0.589E+03   0.149E+03 -.149E+03 -.591E+03   -.152E+01 0.226E+01 0.128E+01   0.433E-02 0.233E-02 -.911E-02
   -.662E+02 -.251E+02 0.247E+02   0.677E+02 0.251E+02 -.232E+02   -.132E+01 0.221E-01 -.181E+01   0.228E-02 -.611E-03 0.648E-02
   -.572E+02 -.459E+01 0.995E+03   0.585E+02 0.472E+01 -.992E+03   -.150E+01 -.113E+00 -.264E+01   0.599E-02 0.295E-02 -.106E-01
   -.164E+03 0.104E+02 0.181E+04   0.164E+03 -.105E+02 -.181E+04   -.156E+01 0.233E-01 0.316E+01   0.820E-03 0.226E-02 0.100E-02
   -.142E+03 -.548E+02 -.104E+04   0.143E+03 0.548E+02 0.104E+04   -.116E+01 -.505E-01 -.634E+00   0.161E-02 -.126E-02 0.397E-02
   -.397E+03 -.245E+02 -.181E+04   0.403E+03 0.245E+02 0.182E+04   -.702E+01 -.101E+00 -.242E+01   -.273E-02 -.219E-02 0.461E-02
   0.120E+03 0.123E+03 -.142E+04   -.121E+03 -.124E+03 0.142E+04   0.103E+01 0.178E+01 -.126E+01   -.101E-01 -.118E-02 -.489E-02
   -.718E+02 0.559E+01 -.319E+03   0.731E+02 -.546E+01 0.321E+03   -.145E+01 -.174E+00 -.191E+01   0.231E-02 0.960E-04 -.168E-01
   -.169E+03 -.241E+02 0.695E+03   0.170E+03 0.241E+02 -.693E+03   -.146E+01 -.404E-01 -.234E+01   -.988E-02 -.627E-03 -.642E-02
   -.185E+03 -.500E+02 0.177E+04   0.185E+03 0.501E+02 -.177E+04   -.170E+01 -.778E-02 0.402E+01   -.131E-01 -.116E-02 -.177E-02
   0.630E+02 0.144E+03 0.191E+03   -.647E+02 -.146E+03 -.192E+03   0.169E+01 0.218E+01 0.680E+00   -.648E-02 -.803E-02 -.675E-02
   -.244E+03 0.110E+03 0.120E+04   0.246E+03 -.111E+03 -.120E+04   -.165E+01 0.153E+01 0.612E+00   -.146E-02 -.756E-03 -.125E-01
   0.216E+03 0.580E+02 -.182E+04   -.218E+03 -.574E+02 0.182E+04   0.357E+01 -.105E+01 -.409E+01   0.103E-02 0.101E-01 0.349E-03
   0.141E+03 0.159E+03 -.829E+03   -.143E+03 -.161E+03 0.828E+03   0.167E+01 0.225E+01 0.664E+00   -.653E-02 0.824E-02 0.138E-02
   0.886E+02 0.183E+03 0.905E+03   -.900E+02 -.185E+03 -.906E+03   0.139E+01 0.278E+01 0.103E+01   -.545E-02 -.911E-02 0.235E-02
   0.216E+03 0.228E+03 0.181E+04   -.218E+03 -.231E+03 -.182E+04   0.232E+01 0.376E+01 0.359E+01   0.655E-02 -.674E-02 -.671E-02
   0.111E+03 0.151E+03 -.111E+04   -.113E+03 -.153E+03 0.111E+04   0.696E+00 0.211E+01 0.154E+01   0.116E-01 -.273E-02 0.372E-02
   0.509E+02 0.154E+03 -.136E+03   -.524E+02 -.157E+03 0.136E+03   0.146E+01 0.227E+01 0.372E+00   0.180E-02 0.381E-02 0.378E-04
   0.766E+02 0.101E+03 -.685E+03   -.773E+02 -.104E+03 0.688E+03   0.839E+00 0.248E+01 -.277E+01   -.122E-02 -.273E-02 -.731E-03
   0.199E+03 0.127E+03 0.537E+03   -.201E+03 -.128E+03 -.538E+03   0.182E+01 0.193E+01 0.119E+01   0.716E-02 0.801E-02 -.867E-02
   0.157E+03 0.133E+03 0.142E+04   -.158E+03 -.135E+03 -.142E+04   0.183E+01 0.250E+01 -.585E+00   0.116E-02 -.522E-03 0.342E-02
   -.248E+03 0.503E+02 -.155E+04   0.250E+03 -.508E+02 0.156E+04   -.332E+01 0.142E+01 -.151E+01   0.424E-02 -.111E-01 -.212E-02
 -----------------------------------------------------------------------------------------------
   -.455E+02 0.216E+01 0.512E+01   -.105E-11 0.611E-12 -.705E-11   0.453E+02 -.218E+01 -.479E+01   0.641E-01 -.163E-01 -.172E+00
 
 
 POSITION                                       TOTAL-FORCE (eV/Angst)
 -----------------------------------------------------------------------------------
      6.03859     -2.06748      7.30541        -0.171816      0.077621     -0.034649
      7.93319     -2.06748      4.80229         0.260113      0.138125     -0.148168
      4.14400      7.51093      9.80852        -0.381725      0.085474     -1.014932
      0.36609      7.51093      5.63666        -0.015865      0.007958      0.133170
      2.26069      7.51093      3.13355        -0.008736      0.049802     -0.226285
      4.15528      7.51093      0.63043         0.057794      0.536856      0.816073
      6.98025      2.72172     10.64289         0.677656      0.788088     -1.758623
      8.87485      2.72172      8.13978        -0.147041      0.015336      0.303575
      3.20234      2.72172      6.47103        -0.303645      0.022537      0.300009
      5.09694      2.72172      3.96792         0.037570      0.133481      0.007232
      6.99153      2.72172      1.46480         0.578008      0.367907      0.738202
      2.39650     -0.80215      8.48584        -0.406626      0.118110      0.488867
      4.29109     -0.80215      5.98273         0.143459     -0.058802      0.038878
      6.18569     -0.80215      3.47961         0.171406     -0.302031     -0.065244
      8.08029     -0.80215      0.97650        -1.505923     -0.113452      1.064741
      0.51318      8.77626      1.81087         0.300037      0.128385     -0.531700
      5.23275      3.98706      9.32022         0.338927      0.036699     -0.841877
      7.12734      3.98706      6.81710        -0.087094     -0.026095      0.134820
      9.02194      3.98706      4.31399         0.410885      0.059264      0.155822
      1.45484      3.98706      5.14836        -0.041727     -0.124001      0.180711
      3.34944      3.98706      2.64524        -0.328305      0.095953     -0.552115
      5.24403      3.98706      0.14213        -0.342377     -0.011117      1.745608
      8.06900     -0.80215     10.15459         0.309462     -0.169211     -1.764297
      9.96360     -0.80215      7.65147         0.377851     -0.324445      0.501299
      4.14400      0.46319      9.80852        -0.637752      0.113551     -0.963530
      6.03859      0.46319      7.30541        -0.223340     -0.024187      0.010463
      7.93319      0.46319      4.80229         0.269255     -0.100023      0.041167
      9.82779      0.46319      2.29918         0.582796     -0.980067      0.848648
      0.36609      0.46319      5.63666        -0.039868      0.045369     -0.128108
      2.26069      0.46319      3.13355        -0.126623     -0.025930     -0.197474
      4.15528      0.46319      0.63043         0.052970     -0.571931      0.886033
      6.98025      5.25240     10.64289         0.717495     -0.735811     -1.777804
      8.87485      5.25240      8.13978        -0.129054      0.254565      0.405684
      1.30774      5.25240      8.97415        -0.028269      0.598505     -0.578505
      3.20234      5.25240      6.47103         0.043542     -0.026094      0.231841
      5.09694      5.25240      3.96792         0.072560     -0.129634      0.009321
      6.99153      5.25240      1.46480         0.558531     -0.170413      0.828074
      1.91849      0.80909      9.99696         1.450552     -0.499502     -0.112674
      3.81309      0.80909      7.49384        -0.098999     -0.176172      0.152916
      5.70769      0.80909      4.99073         0.041618     -0.046749     -0.222883
      7.60228      0.80909      2.48761         0.762353     -0.269986     -0.964735
      0.03518      0.80909      3.32198        -0.188664     -0.335912      0.232851
      1.92978      0.80909      0.81887         0.170645     -0.255960      0.699471
      6.64934      5.59829      8.32821        -0.424567     -0.186590      0.909589
      8.54394      5.59829      5.82510        -0.026767     -0.040229     -0.127611
      0.97684      5.59829      6.65947        -0.033958     -0.468363      0.000209
      2.87143      5.59829      4.15636        -0.066696     -0.123377     -0.011663
      4.76603      5.59829      1.65324         0.489843     -0.320418     -1.313945
      9.48560      0.80909      9.16258         0.154464     -0.971402      0.496020
      1.31873      3.98706      1.66874        -0.518793      0.920246     -0.612697
      6.03829     -0.80215      9.17809         0.080016     -0.045920      1.895829
      7.93289     -0.80215      6.67497        -0.156497     -0.115433      0.046319
      9.82749     -0.80215      4.17186        -0.321942      0.221389     -0.308193
      2.26038     -0.80215      5.00623         0.173879      0.027830     -0.233622
      4.15498     -0.80215      2.50311        -0.230039      0.024492     -0.287267
      6.04958     -0.80215      0.00000        -0.884687     -0.045946     -0.235111
      0.36579      8.77626      7.50934         0.097045     -0.012828      0.164624
      8.87455      3.98706     10.01246        -1.195044     -0.014294      1.178482
      3.20204      3.98706      8.34372         0.350969      0.477654      1.071095
      5.09664      3.98706      5.84060        -0.080466     -0.034579     -0.099684
      6.99123      3.98706      3.33749        -0.034650      0.010784     -0.243013
      8.88583      3.98706      0.83437        -1.571376      0.024205     -0.349194
      5.70769     -2.41338      4.99073        -0.024614      0.097356     -0.110796
      7.60228     -2.41338      2.48761         0.268450      0.520549     -0.713576
      1.91849      7.16503      9.99696         1.037363     -0.430985      0.091423
      3.81309      7.16503      7.49384         0.051233      0.224650      0.019840
      0.03518      7.16503      3.32198        -0.008939      0.062985     -0.253716
      1.92978      7.16503      0.81887         0.269271      0.207659      0.582474
      6.64934      2.37583      8.32821        -0.396186      0.115340      0.875826
      8.54394      2.37583      5.82510        -0.115674      0.096838     -0.103691
      0.97684      2.37583      6.65947         0.051621      0.316598     -0.573205
      2.87143      2.37583      4.15636        -0.047624      0.050077      0.048475
      4.76603      2.37583      1.65324         0.434884      0.339393     -1.334404
      9.48560     -2.41338      9.16258        -0.492555      0.876259      0.459308
 -----------------------------------------------------------------------------------
    total drift:                               -0.128651     -0.045017      0.154399


--------------------------------------------------------------------------------------------------------



  FREE ENERGIE OF THE ION-ELECTRON SYSTEM (eV)
  ---------------------------------------------------
  free  energy   TOTEN  =      -363.15521637 eV

  energy  without entropy=     -361.91242627  energy(sigma->0) =     -362.53382132
 


--------------------------------------------------------------------------------------------------------


    POTLOK:  cpu time    0.0530: real time    0.0531


--------------------------------------------------------------------------------------------------------


     LOOP+:  cpu time  102.5284: real time  102.8685
    4ORBIT:  cpu time    0.0000: real time    0.0000

 total amount of memory used by VASP MPI-rank0    45237. kBytes
=======================================================================

   base      :      30000. kBytes
   nonlr-proj:       2310. kBytes
   fftplans  :       3298. kBytes
   grid      :       5820. kBytes
   one-center:        101. kBytes
   wavefun   :       3708. kBytes
 
  
  
 General timing and accounting informations for this job:
 ========================================================
  
                  Total CPU time used (sec):      104.595
                            User time (sec):      104.015
                          System time (sec):        0.580
                         Elapsed time (sec):      105.484
  
                   Maximum memory used (kb):      225424.
                   Average memory used (kb):           0.
  
                          Minor page faults:        75768
                          Major page faults:            0
                 Voluntary context switches:          952
