  72  72   0   0
  0.2729146E+02  0.1007973E-08  0.1007973E-08  0.2068350E-08  0.5000000E-15
  1.000000000000000E-004
  CAR 
 "Millerite NiS"                         
     11.13890175    -66.82937956  301      1.50696228      1.00000000
    -66.829  0.0000E+00  0.0000E+00
    -66.569  0.0000E+00  0.0000E+00
    -66.310  0.0000E+00  0.0000E+00
    -66.050  0.0000E+00  0.0000E+00
    -65.790  0.0000E+00  0.0000E+00
    -65.530  0.0000E+00  0.0000E+00
    -65.270  0.0000E+00  0.0000E+00
    -65.010  0.0000E+00  0.0000E+00
    -64.750  0.0000E+00  0.0000E+00
    -64.490  0.0000E+00  0.0000E+00
    -64.230  0.9866E-10  0.2564E-10
    -63.971  0.5835E-05  0.1516E-05
    -63.711  0.1455E-01  0.3784E-02
    -63.451  0.1949E+01  0.5102E+00
    -63.191  0.2852E+02  0.7923E+01
    -62.931  0.1347E+03  0.4292E+02
    -62.671  0.2815E+03  0.1161E+03
    -62.411  0.2479E+03  0.1805E+03
    -62.151  0.8731E+02  0.2032E+03
    -61.891  0.2497E+02  0.2097E+03
    -61.631  0.1672E+02  0.2140E+03
    -61.372  0.7246E+01  0.2159E+03
    -61.112  0.3004E+00  0.2160E+03
    -60.852  0.7030E-03  0.2160E+03
    -60.592  0.7302E-07  0.2160E+03
    -60.332  0.2990E-12  0.2160E+03
    -60.072  0.0000E+00  0.2160E+03
    -59.812  0.0000E+00  0.2160E+03
    -59.552  0.0000E+00  0.2160E+03
    -59.292  0.0000E+00  0.2160E+03
    -59.033  0.0000E+00  0.2160E+03
    -58.773  0.0000E+00  0.2160E+03
    -58.513  0.0000E+00  0.2160E+03
    -58.253  0.0000E+00  0.2160E+03
    -57.993  0.0000E+00  0.2160E+03
    -57.733  0.0000E+00  0.2160E+03
    -57.473  0.0000E+00  0.2160E+03
    -57.213  0.0000E+00  0.2160E+03
    -56.953  0.0000E+00  0.2160E+03
    -56.694  0.0000E+00  0.2160E+03
    -56.434  0.0000E+00  0.2160E+03
    -56.174  0.0000E+00  0.2160E+03
    -55.914  0.0000E+00  0.2160E+03
    -55.654  0.0000E+00  0.2160E+03
    -55.394  0.0000E+00  0.2160E+03
    -55.134  0.0000E+00  0.2160E+03
    -54.874  0.0000E+00  0.2160E+03
    -54.614  0.0000E+00  0.2160E+03
    -54.354  0.0000E+00  0.2160E+03
    -54.095  0.0000E+00  0.2160E+03
    -53.835  0.0000E+00  0.2160E+03
    -53.575  0.0000E+00  0.2160E+03
    -53.315  0.0000E+00  0.2160E+03
    -53.055  0.0000E+00  0.2160E+03
    -52.795  0.0000E+00  0.2160E+03
    -52.535  0.0000E+00  0.2160E+03
    -52.275  0.0000E+00  0.2160E+03
    -52.015  0.0000E+00  0.2160E+03
    -51.756  0.0000E+00  0.2160E+03
    -51.496  0.0000E+00  0.2160E+03
    -51.236  0.0000E+00  0.2160E+03
    -50.976  0.0000E+00  0.2160E+03
    -50.716  0.0000E+00  0.2160E+03
    -50.456  0.0000E+00  0.2160E+03
    -50.196  0.0000E+00  0.2160E+03
    -49.936  0.0000E+00  0.2160E+03
    -49.676  0.0000E+00  0.2160E+03
    -49.416  0.0000E+00  0.2160E+03
    -49.157  0.0000E+00  0.2160E+03
    -48.897  0.0000E+00  0.2160E+03
    -48.637  0.0000E+00  0.2160E+03
    -48.377  0.0000E+00  0.2160E+03
    -48.117  0.0000E+00  0.2160E+03
    -47.857  0.0000E+00  0.2160E+03
    -47.597  0.0000E+00  0.2160E+03
    -47.337  0.0000E+00  0.2160E+03
    -47.077  0.0000E+00  0.2160E+03
    -46.818  0.0000E+00  0.2160E+03
    -46.558  0.0000E+00  0.2160E+03
    -46.298  0.0000E+00  0.2160E+03
    -46.038  0.0000E+00  0.2160E+03
    -45.778  0.0000E+00  0.2160E+03
    -45.518  0.0000E+00  0.2160E+03
    -45.258  0.0000E+00  0.2160E+03
    -44.998  0.0000E+00  0.2160E+03
    -44.738  0.0000E+00  0.2160E+03
    -44.478  0.0000E+00  0.2160E+03
    -44.219  0.0000E+00  0.2160E+03
    -43.959  0.0000E+00  0.2160E+03
    -43.699  0.0000E+00  0.2160E+03
    -43.439  0.0000E+00  0.2160E+03
    -43.179  0.0000E+00  0.2160E+03
    -42.919  0.0000E+00  0.2160E+03
    -42.659  0.0000E+00  0.2160E+03
    -42.399  0.0000E+00  0.2160E+03
    -42.139  0.0000E+00  0.2160E+03
    -41.880  0.0000E+00  0.2160E+03
    -41.620  0.0000E+00  0.2160E+03
    -41.360  0.0000E+00  0.2160E+03
    -41.100  0.0000E+00  0.2160E+03
    -40.840  0.0000E+00  0.2160E+03
    -40.580  0.0000E+00  0.2160E+03
    -40.320  0.0000E+00  0.2160E+03
    -40.060  0.0000E+00  0.2160E+03
    -39.800  0.0000E+00  0.2160E+03
    -39.540  0.0000E+00  0.2160E+03
    -39.281  0.0000E+00  0.2160E+03
    -39.021  0.0000E+00  0.2160E+03
    -38.761  0.0000E+00  0.2160E+03
    -38.501  0.0000E+00  0.2160E+03
    -38.241  0.0000E+00  0.2160E+03
    -37.981  0.0000E+00  0.2160E+03
    -37.721  0.0000E+00  0.2160E+03
    -37.461  0.0000E+00  0.2160E+03
    -37.201  0.0000E+00  0.2160E+03
    -36.942  0.0000E+00  0.2160E+03
    -36.682  0.0000E+00  0.2160E+03
    -36.422  0.0000E+00  0.2160E+03
    -36.162  0.0000E+00  0.2160E+03
    -35.902  0.0000E+00  0.2160E+03
    -35.642  0.0000E+00  0.2160E+03
    -35.382  0.0000E+00  0.2160E+03
    -35.122  0.0000E+00  0.2160E+03
    -34.862  0.0000E+00  0.2160E+03
    -34.602  0.0000E+00  0.2160E+03
    -34.343  0.0000E+00  0.2160E+03
    -34.083  0.0000E+00  0.2160E+03
    -33.823  0.0000E+00  0.2160E+03
    -33.563  0.0000E+00  0.2160E+03
    -33.303  0.0000E+00  0.2160E+03
    -33.043  0.0000E+00  0.2160E+03
    -32.783  0.0000E+00  0.2160E+03
    -32.523  0.0000E+00  0.2160E+03
    -32.263  0.0000E+00  0.2160E+03
    -32.004  0.0000E+00  0.2160E+03
    -31.744  0.0000E+00  0.2160E+03
    -31.484  0.0000E+00  0.2160E+03
    -31.224  0.0000E+00  0.2160E+03
    -30.964  0.0000E+00  0.2160E+03
    -30.704  0.0000E+00  0.2160E+03
    -30.444  0.0000E+00  0.2160E+03
    -30.184  0.0000E+00  0.2160E+03
    -29.924  0.0000E+00  0.2160E+03
    -29.664  0.0000E+00  0.2160E+03
    -29.405  0.0000E+00  0.2160E+03
    -29.145  0.0000E+00  0.2160E+03
    -28.885  0.0000E+00  0.2160E+03
    -28.625  0.0000E+00  0.2160E+03
    -28.365  0.0000E+00  0.2160E+03
    -28.105  0.0000E+00  0.2160E+03
    -27.845  0.0000E+00  0.2160E+03
    -27.585  0.0000E+00  0.2160E+03
    -27.325  0.0000E+00  0.2160E+03
    -27.066  0.0000E+00  0.2160E+03
    -26.806  0.0000E+00  0.2160E+03
    -26.546  0.0000E+00  0.2160E+03
    -26.286  0.0000E+00  0.2160E+03
    -26.026  0.0000E+00  0.2160E+03
    -25.766  0.0000E+00  0.2160E+03
    -25.506  0.0000E+00  0.2160E+03
    -25.246  0.0000E+00  0.2160E+03
    -24.986  0.0000E+00  0.2160E+03
    -24.727  0.0000E+00  0.2160E+03
    -24.467  0.0000E+00  0.2160E+03
    -24.207  0.0000E+00  0.2160E+03
    -23.947  0.0000E+00  0.2160E+03
    -23.687  0.0000E+00  0.2160E+03
    -23.427  0.0000E+00  0.2160E+03
    -23.167  0.0000E+00  0.2160E+03
    -22.907  0.0000E+00  0.2160E+03
    -22.647  0.0000E+00  0.2160E+03
    -22.387  0.0000E+00  0.2160E+03
    -22.128  0.0000E+00  0.2160E+03
    -21.868  0.0000E+00  0.2160E+03
    -21.608  0.0000E+00  0.2160E+03
    -21.348  0.0000E+00  0.2160E+03
    -21.088  0.0000E+00  0.2160E+03
    -20.828  0.0000E+00  0.2160E+03
    -20.568  0.0000E+00  0.2160E+03
    -20.308  0.0000E+00  0.2160E+03
    -20.048  0.0000E+00  0.2160E+03
    -19.789  0.0000E+00  0.2160E+03
    -19.529  0.0000E+00  0.2160E+03
    -19.269  0.0000E+00  0.2160E+03
    -19.009  0.0000E+00  0.2160E+03
    -18.749  0.0000E+00  0.2160E+03
    -18.489  0.0000E+00  0.2160E+03
    -18.229  0.0000E+00  0.2160E+03
    -17.969  0.0000E+00  0.2160E+03
    -17.709  0.0000E+00  0.2160E+03
    -17.449  0.0000E+00  0.2160E+03
    -17.190  0.0000E+00  0.2160E+03
    -16.930  0.0000E+00  0.2160E+03
    -16.670  0.0000E+00  0.2160E+03
    -16.410  0.0000E+00  0.2160E+03
    -16.150  0.3285E-12  0.2160E+03
    -15.890  0.7179E-07  0.2160E+03
    -15.630  0.5883E-03  0.2160E+03
    -15.370  0.1970E+00  0.2161E+03
    -15.110  0.3317E+01  0.2169E+03
    -14.851  0.4607E+01  0.2181E+03
    -14.591  0.6150E+01  0.2197E+03
    -14.331  0.8609E+01  0.2219E+03
    -14.071  0.1412E+02  0.2256E+03
    -13.811  0.1503E+02  0.2295E+03
    -13.551  0.1172E+02  0.2326E+03
    -13.291  0.1826E+02  0.2373E+03
    -13.031  0.2227E+02  0.2431E+03
    -12.771  0.2894E+02  0.2506E+03
    -12.511  0.3070E+02  0.2586E+03
    -12.252  0.3012E+02  0.2664E+03
    -11.992  0.3248E+02  0.2749E+03
    -11.732  0.2350E+02  0.2810E+03
    -11.472  0.1677E+02  0.2853E+03
    -11.212  0.6747E+01  0.2871E+03
    -10.952  0.3304E+01  0.2880E+03
    -10.692  0.1894E+00  0.2880E+03
    -10.432  0.5494E-03  0.2880E+03
    -10.172  0.6506E-07  0.2880E+03
     -9.913  0.2888E-12  0.2880E+03
     -9.653  0.0000E+00  0.2880E+03
     -9.393  0.0000E+00  0.2880E+03
     -9.133  0.0000E+00  0.2880E+03
     -8.873  0.0000E+00  0.2880E+03
     -8.613  0.0000E+00  0.2880E+03
     -8.353  0.0000E+00  0.2880E+03
     -8.093  0.0000E+00  0.2880E+03
     -7.833  0.5981E-14  0.2880E+03
     -7.573  0.3194E-08  0.2880E+03
     -7.314  0.6563E-04  0.2880E+03
     -7.054  0.5496E-01  0.2880E+03
     -6.794  0.2558E+01  0.2887E+03
     -6.534  0.1385E+02  0.2923E+03
     -6.274  0.1899E+02  0.2972E+03
     -6.014  0.2240E+02  0.3030E+03
     -5.754  0.3832E+02  0.3130E+03
     -5.494  0.4367E+02  0.3243E+03
     -5.234  0.4226E+02  0.3353E+03
     -4.975  0.3792E+02  0.3452E+03
     -4.715  0.3853E+02  0.3552E+03
     -4.455  0.4084E+02  0.3658E+03
     -4.195  0.4464E+02  0.3774E+03
     -3.935  0.4901E+02  0.3901E+03
     -3.675  0.5452E+02  0.4043E+03
     -3.415  0.6184E+02  0.4204E+03
     -3.155  0.6679E+02  0.4377E+03
     -2.895  0.6772E+02  0.4553E+03
     -2.635  0.5633E+02  0.4700E+03
     -2.376  0.4508E+02  0.4817E+03
     -2.116  0.3870E+02  0.4918E+03
     -1.856  0.4390E+02  0.5032E+03
     -1.596  0.6346E+02  0.5197E+03
     -1.336  0.7458E+02  0.5390E+03
     -1.076  0.9310E+02  0.5632E+03
     -0.816  0.1076E+03  0.5912E+03
     -0.556  0.1256E+03  0.6238E+03
     -0.296  0.1315E+03  0.6580E+03
     -0.037  0.1227E+03  0.6899E+03
      0.223  0.9979E+02  0.7158E+03
      0.483  0.7978E+02  0.7366E+03
      0.743  0.6426E+02  0.7533E+03
      1.003  0.5263E+02  0.7670E+03
      1.263  0.5014E+02  0.7800E+03
      1.523  0.4917E+02  0.7928E+03
      1.783  0.5042E+02  0.8059E+03
      2.043  0.4908E+02  0.8186E+03
      2.302  0.4845E+02  0.8312E+03
      2.562  0.4673E+02  0.8434E+03
      2.822  0.4059E+02  0.8539E+03
      3.082  0.2700E+02  0.8609E+03
      3.342  0.9815E+01  0.8635E+03
      3.602  0.2000E+01  0.8640E+03
      3.862  0.2027E+01  0.8645E+03
      4.122  0.4929E+01  0.8658E+03
      4.382  0.4687E+01  0.8670E+03
      4.642  0.9570E+01  0.8695E+03
      4.901  0.7976E+01  0.8716E+03
      5.161  0.1023E+02  0.8742E+03
      5.421  0.1773E+02  0.8789E+03
      5.681  0.2428E+02  0.8852E+03
      5.941  0.2635E+02  0.8920E+03
      6.201  0.2851E+02  0.8994E+03
      6.461  0.3119E+02  0.9075E+03
      6.721  0.3430E+02  0.9164E+03
      6.981  0.3726E+02  0.9261E+03
      7.240  0.4494E+02  0.9378E+03
      7.500  0.3792E+02  0.9477E+03
      7.760  0.1531E+02  0.9516E+03
      8.020  0.1369E+01  0.9520E+03
      8.280  0.1156E-01  0.9520E+03
      8.540  0.5094E-05  0.9520E+03
      8.800  0.9166E-10  0.9520E+03
      9.060  0.0000E+00  0.9520E+03
      9.320  0.0000E+00  0.9520E+03
      9.580  0.0000E+00  0.9520E+03
      9.839  0.0000E+00  0.9520E+03
     10.099  0.0000E+00  0.9520E+03
     10.359  0.0000E+00  0.9520E+03
     10.619  0.0000E+00  0.9520E+03
     10.879  0.0000E+00  0.9520E+03
     11.139  0.0000E+00  0.9520E+03
