 vasp.6.1.0 28Jan20 (build Mar 31 2020 17:42:31) gamma-only                     
  
 executed on             LinuxIFC date 2020.04.12  14:58:15
 running on   48 total cores
 distrk:  each k-point on   48 cores,    1 groups
 distr:  one band on NCORE=   6 cores,    8 groups


--------------------------------------------------------------------------------------------------------


 INCAR:
 POTCAR:    PAW_PBE Ni_pv 06Sep2000               
 POTCAR:    PAW_PBE S 06Sep2000                   
 POTCAR:    PAW_PBE Ni_pv 06Sep2000               
   VRHFIN =Ni:                                                                                      
   LEXCH  = PE                                                                                      
   EATOM  =  3501.1230 eV,  257.3253 Ry                                                             
                                                                                                    
   TITEL  = PAW_PBE Ni_pv 06Sep2000                                                                 
   LULTRA =        F    use ultrasoft PP ?                                                          
   IUNSCR =        1    unscreen: 0-lin 1-nonlin 2-no                                               
   RPACOR =    1.500    partial core radius                                                         
   POMASS =   58.690; ZVAL   =   16.000    mass and valenz                                          
   RCORE  =    2.000    outmost cutoff radius                                                       
   RWIGS  =    2.000; RWIGS  =    1.058    wigner-seitz radius (au A)                               
   ENMAX  =  367.986; ENMIN  =  275.989 eV                                                          
   RCLOC  =    1.301    cutoff for local pot                                                        
   LCOR   =        T    correct aug charges                                                         
   LPAW   =        T    paw PP                                                                      
   EAUG   =  703.443                                                                                
   DEXC   =    0.000                                                                                
   RMAX   =    2.041    core radius for proj-oper                                                   
   RAUG   =    1.300    factor for augmentation sphere                                              
   RDEP   =    2.103    radius for radial grids                                                     
   RDEPT  =    1.618    core radius for aug-charge                                                  
                                                                                                    
   Atomic configuration                                                                             
    8 entries                                                                                       
     n  l   j            E        occ.                                                              
     1  0  0.50     -8206.4253   2.0000                                                             
     2  0  0.50      -976.1748   2.0000                                                             
     2  1  1.50      -839.0571   6.0000                                                             
     3  0  0.50      -105.9991   2.0000                                                             
     3  1  1.50       -66.4603   6.0000                                                             
     3  2  2.50        -4.6458   9.0000                                                             
     4  0  0.50        -4.4926   1.0000                                                             
     4  3  2.50        -1.3606   0.0000                                                             
   Description                                                                                      
     l       E           TYP  RCUT    TYP  RCUT                                                     
     1    -66.4602962     23  1.700                                                                 
     1     -1.3605826     23  1.700                                                                 
     2     -4.6457867     23  2.000                                                                 
     2     -6.0063693     23  2.000                                                                 
     0     -4.4925576     23  1.900                                                                 
     0     16.3626226     23  1.900                                                                 
  local pseudopotential read in
  partial core-charges read in
  partial kinetic energy density read in
  atomic valenz-charges read in
  non local Contribution for L=           1  read in
    real space projection operators read in
  non local Contribution for L=           1  read in
    real space projection operators read in
  non local Contribution for L=           2  read in
    real space projection operators read in
  non local Contribution for L=           2  read in
    real space projection operators read in
  non local Contribution for L=           0  read in
    real space projection operators read in
  non local Contribution for L=           0  read in
    real space projection operators read in
    PAW grid and wavefunctions read in
 
   number of l-projection  operators is LMAX  =           6
   number of lm-projection operators is LMMAX =          18
 
 POTCAR:    PAW_PBE S 06Sep2000                   
   VRHFIN =S : s2p4                                                                                 
   LEXCH  = PE                                                                                      
   EATOM  =   276.8230 eV,   20.3459 Ry                                                             
                                                                                                    
   TITEL  = PAW_PBE S 06Sep2000                                                                     
   LULTRA =        F    use ultrasoft PP ?                                                          
   IUNSCR =        1    unscreen: 0-lin 1-nonlin 2-no                                               
   RPACOR =    1.500    partial core radius                                                         
   POMASS =   32.066; ZVAL   =    6.000    mass and valenz                                          
   RCORE  =    1.900    outmost cutoff radius                                                       
   RWIGS  =    2.200; RWIGS  =    1.164    wigner-seitz radius (au A)                               
   ENMAX  =  258.689; ENMIN  =  194.016 eV                                                          
   ICORE  =        2    local potential                                                             
   LCOR   =        T    correct aug charges                                                         
   LPAW   =        T    paw PP                                                                      
   EAUG   =  335.092                                                                                
   DEXC   =    0.000                                                                                
   RMAX   =    1.942    core radius for proj-oper                                                   
   RAUG   =    1.300    factor for augmentation sphere                                              
   RDEP   =    1.954    radius for radial grids                                                     
   RDEPT  =    1.744    core radius for aug-charge                                                  
                                                                                                    
   Atomic configuration                                                                             
    6 entries                                                                                       
     n  l   j            E        occ.                                                              
     1  0  0.50     -2405.8406   2.0000                                                             
     2  0  0.50      -211.7007   2.0000                                                             
     2  1  1.50      -156.4958   6.0000                                                             
     3  0  0.50       -17.2562   2.0000                                                             
     3  1  0.50        -7.0085   4.0000                                                             
     3  2  1.50        -6.8029   0.0000                                                             
   Description                                                                                      
     l       E           TYP  RCUT    TYP  RCUT                                                     
     0    -17.2561641     23  1.900                                                                 
     0    -15.8743224     23  1.900                                                                 
     1     -7.0085400     23  1.900                                                                 
     1     -2.7779785     23  1.900                                                                 
     2     -6.8029130     23  1.900                                                                 
  local pseudopotential read in
  partial core-charges read in
  partial kinetic energy density read in
  atomic valenz-charges read in
  non local Contribution for L=           0  read in
    real space projection operators read in
  non local Contribution for L=           0  read in
    real space projection operators read in
  non local Contribution for L=           1  read in
    real space projection operators read in
  non local Contribution for L=           1  read in
    real space projection operators read in
    PAW grid and wavefunctions read in
 
   number of l-projection  operators is LMAX  =           4
   number of lm-projection operators is LMMAX =           8
 
 Optimization of the real space projectors (new method)

 maximal supplied QI-value         = 18.90
 optimisation between [QCUT,QGAM] = [ 10.77, 21.73] = [ 32.49,132.25] Ry 
 Optimized for a Real-space Cutoff    1.38 Angstroem

   l    n(q)    QCUT    max X(q) W(low)/X(q) W(high)/X(q)  e(spline) 
   1      8    10.771     2.836    0.40E-04    0.29E-04    0.12E-06
   1      8    10.771     4.023    0.10E-03    0.48E-04    0.29E-06
   2      8    10.771    73.368    0.42E-03    0.97E-04    0.44E-06
   2      8    10.771    69.010    0.42E-03    0.99E-04    0.45E-06
   0      9    10.771    54.797    0.10E-03    0.56E-04    0.74E-07
   0      9    10.771    24.266    0.89E-04    0.49E-04    0.67E-07
 Optimization of the real space projectors (new method)

 maximal supplied QI-value         = 19.84
 optimisation between [QCUT,QGAM] = [ 10.71, 21.63] = [ 32.15,130.99] Ry 
 Optimized for a Real-space Cutoff    1.19 Angstroem

   l    n(q)    QCUT    max X(q) W(low)/X(q) W(high)/X(q)  e(spline) 
   0      8    10.715   187.594    0.41E-03    0.53E-04    0.66E-07
   0      8    10.715   164.243    0.41E-03    0.53E-04    0.65E-07
   1      7    10.715    67.533    0.19E-03    0.59E-03    0.68E-07
   1      7    10.715    50.729    0.19E-03    0.58E-03    0.67E-07
  PAW_PBE Ni_pv 06Sep2000               :
 energy of atom  1       EATOM=-3501.1230
 kinetic energy error for atom=    0.0925 (will be added to EATOM!!)
  PAW_PBE S 06Sep2000                   :
 energy of atom  2       EATOM= -276.8230
 kinetic energy error for atom=    0.0033 (will be added to EATOM!!)
 
 
 POSCAR: Structure 31 made from -120-5.xsd file
  positions in direct lattice
  No initial velocities read in
 exchange correlation table for  LEXCH =        8
   RHO(1)=    0.500       N(1)  =     2000
   RHO(2)=  100.500       N(2)  =     4000
 


--------------------------------------------------------------------------------------------------------


 ion  position               nearest neighbor table
   1  0.256  0.016  0.152-  73 2.25  64 2.26  80 2.26  52 2.36  93 2.36   5 2.53   9 2.53
   2  0.256  0.016  0.481-  74 2.25  65 2.26  81 2.26  53 2.36  94 2.36  10 2.53   6 2.53
   3  0.006  0.266  0.317-  61 2.25  66 2.26  70 2.26  55 2.36  59 2.36   7 2.53  23 2.53
   4  0.006  0.266  0.645-  67 2.26  71 2.26  56 2.36  60 2.36   8 2.53  24 2.53
   5  0.256  0.016  0.066-  77 2.25  80 2.26  93 2.36   9 2.53   1 2.53
   6  0.256  0.016  0.394-  78 2.25  61 2.26  81 2.26  49 2.36  94 2.36   2 2.53  10 2.53
   7  0.006  0.266  0.230-  64 2.25  70 2.26  62 2.26  59 2.36  50 2.36   3 2.53  23 2.53
   8  0.006  0.266  0.558-  65 2.25  71 2.26  63 2.26  60 2.36  51 2.36   4 2.53  24 2.53
   9  0.190  0.215  0.109-  57 2.25  64 2.26  52 2.36   5 2.53   1 2.53
  10  0.190  0.215  0.438-  58 2.25  65 2.26  61 2.26  53 2.36  49 2.36   2 2.53   6 2.53
  11  0.440  0.465  0.273-  82 2.25  50 2.26  55 2.26  62 2.36  66 2.36  19 2.53  15 2.53
  12  0.440  0.465  0.602-  83 2.25  56 2.26  51 2.26  67 2.36  63 2.36  20 2.53  16 2.53
  13  0.756  0.016  0.152-  86 2.25  52 2.26  93 2.26  64 2.36  80 2.36  17 2.53  21 2.53
  14  0.756  0.016  0.481-  87 2.25  53 2.26  94 2.26  65 2.36  81 2.36  22 2.53  18 2.53
  15  0.506  0.266  0.317-  49 2.25  55 2.26  59 2.26  66 2.36  70 2.36  19 2.53  11 2.53
  16  0.506  0.266  0.645-  56 2.26  60 2.26  67 2.36  71 2.36  20 2.53  12 2.53
  17  0.756  0.016  0.066-  90 2.25  93 2.26  80 2.36  21 2.53  13 2.53
  18  0.756  0.016  0.394-  91 2.25  49 2.26  94 2.26  61 2.36  81 2.36  14 2.53  22 2.53
  19  0.506  0.266  0.230-  52 2.25  59 2.26  50 2.26  70 2.36  62 2.36  15 2.53  11 2.53
  20  0.506  0.266  0.558-  53 2.25  60 2.26  51 2.26  71 2.36  63 2.36  16 2.53  12 2.53
  21  0.690  0.215  0.109-  68 2.25  52 2.26  64 2.36  17 2.53  13 2.53
  22  0.690  0.215  0.438-  69 2.25  53 2.26  49 2.26  65 2.36  61 2.36  14 2.53  18 2.53
  23  0.940  0.465  0.273-  95 2.25  62 2.26  66 2.26  50 2.36  55 2.36   7 2.53   3 2.53
  24  0.940  0.465  0.602-  96 2.25  67 2.26  63 2.26  56 2.36  51 2.36   8 2.53   4 2.53
  25  0.256  0.516  0.152-  50 2.25  88 2.26  57 2.26  75 2.36  68 2.36  29 2.53  33 2.53
  26  0.256  0.516  0.481-  51 2.25  89 2.26  58 2.26  76 2.36  69 2.36  34 2.53  30 2.53
  27  0.006  0.766  0.317-  85 2.25  91 2.26  95 2.26  78 2.36  82 2.36  31 2.53  47 2.53
  28  0.006  0.766  0.645-  92 2.26  96 2.26  79 2.36  83 2.36  32 2.53  48 2.53
  29  0.256  0.516  0.066-  54 2.25  84 2.26  57 2.26  68 2.36  33 2.53  25 2.53
  30  0.256  0.516  0.394-  55 2.25  85 2.26  58 2.26  72 2.36  69 2.36  26 2.53  34 2.53
  31  0.006  0.766  0.230-  88 2.25  95 2.26  86 2.26  82 2.36  73 2.36  27 2.53  47 2.53
  32  0.006  0.766  0.558-  89 2.25  96 2.26  87 2.26  83 2.36  74 2.36  28 2.53  48 2.53
  33  0.190  0.715  0.109-  80 2.25  84 2.26  88 2.26  75 2.36  29 2.53  25 2.53
  34  0.190  0.715  0.438-  81 2.25  89 2.26  85 2.26  76 2.36  72 2.36  26 2.53  30 2.53
  35  0.440  0.965  0.273-  59 2.25  73 2.26  78 2.26  86 2.36  91 2.36  43 2.53  39 2.53
  36  0.440  0.965  0.602-  60 2.25  74 2.26  79 2.26  87 2.36  92 2.36  44 2.53  40 2.53
  37  0.756  0.516  0.152-  62 2.25  75 2.26  68 2.26  88 2.36  57 2.36  41 2.53  45 2.53
  38  0.756  0.516  0.481-  63 2.25  76 2.26  69 2.26  89 2.36  58 2.36  46 2.53  42 2.53
  39  0.506  0.766  0.317-  72 2.25  78 2.26  82 2.26  91 2.36  95 2.36  43 2.53  35 2.53
  40  0.506  0.766  0.645-  79 2.26  83 2.26  92 2.36  96 2.36  44 2.53  36 2.53
  41  0.756  0.516  0.066-  68 2.26  84 2.36  57 2.36  45 2.53  37 2.53
  42  0.756  0.516  0.394-  66 2.25  72 2.26  69 2.26  85 2.36  58 2.36  38 2.53  46 2.53
  43  0.506  0.766  0.230-  75 2.25  82 2.26  73 2.26  95 2.36  86 2.36  39 2.53  35 2.53
  44  0.506  0.766  0.558-  76 2.25  83 2.26  74 2.26  96 2.36  87 2.36  40 2.53  36 2.53
  45  0.690  0.715  0.109-  93 2.25  75 2.26  84 2.36  88 2.36  41 2.53  37 2.53
  46  0.690  0.715  0.438-  94 2.25  76 2.26  72 2.26  89 2.36  85 2.36  38 2.53  42 2.53
  47  0.940  0.965  0.273-  70 2.25  86 2.26  91 2.26  73 2.36  78 2.36  31 2.53  27 2.53
  48  0.940  0.965  0.602-  71 2.25  87 2.26  92 2.26  74 2.36  79 2.36  32 2.53  28 2.53
  49  0.468  0.167  0.382-  15 2.25  18 2.26  22 2.26   6 2.36  10 2.36
  50  0.218  0.417  0.218-  25 2.25  11 2.26  19 2.26  23 2.36   7 2.36
  51  0.218  0.417  0.547-  26 2.25  12 2.26  20 2.26  24 2.36   8 2.36
  52  0.468  0.167  0.164-  19 2.25  13 2.26  21 2.26   1 2.36   9 2.36
  53  0.468  0.167  0.493-  20 2.25  22 2.26  14 2.26  10 2.36   2 2.36
  54  0.218  0.417  0.000-  29 2.25
  55  0.218  0.417  0.329-  30 2.25  15 2.26  11 2.26   3 2.36  23 2.36
  56  0.218  0.417  0.657-  12 2.26  16 2.26  24 2.36   4 2.36
  57  0.053  0.414  0.109-   9 2.25  29 2.26  25 2.26  41 2.36  37 2.36
  58  0.053  0.414  0.438-  10 2.25  26 2.26  30 2.26  38 2.36  42 2.36
  59  0.303  0.164  0.273-  35 2.25  19 2.26  15 2.26   7 2.36   3 2.36
  60  0.303  0.164  0.602-  36 2.25  20 2.26  16 2.26   8 2.36   4 2.36
  61  0.968  0.167  0.382-   3 2.25   6 2.26  10 2.26  18 2.36  22 2.36
  62  0.718  0.417  0.218-  37 2.25  23 2.26   7 2.26  11 2.36  19 2.36
  63  0.718  0.417  0.547-  38 2.25  24 2.26   8 2.26  12 2.36  20 2.36
  64  0.968  0.167  0.164-   7 2.25   1 2.26   9 2.26  13 2.36  21 2.36
  65  0.968  0.167  0.493-   8 2.25  10 2.26   2 2.26  22 2.36  14 2.36
  66  0.718  0.417  0.329-  42 2.25   3 2.26  23 2.26  15 2.36  11 2.36
  67  0.718  0.417  0.657-  24 2.26   4 2.26  12 2.36  16 2.36
  68  0.553  0.414  0.109-  21 2.25  41 2.26  37 2.26  29 2.36  25 2.36
  69  0.553  0.414  0.438-  22 2.25  38 2.26  42 2.26  26 2.36  30 2.36
  70  0.803  0.164  0.273-  47 2.25   7 2.26   3 2.26  19 2.36  15 2.36
  71  0.803  0.164  0.602-  48 2.25   8 2.26   4 2.26  20 2.36  16 2.36
  72  0.468  0.667  0.382-  39 2.25  42 2.26  46 2.26  30 2.36  34 2.36
  73  0.218  0.917  0.218-   1 2.25  35 2.26  43 2.26  47 2.36  31 2.36
  74  0.218  0.917  0.547-   2 2.25  36 2.26  44 2.26  48 2.36  32 2.36
  75  0.468  0.667  0.164-  43 2.25  37 2.26  45 2.26  25 2.36  33 2.36
  76  0.468  0.667  0.493-  44 2.25  46 2.26  38 2.26  34 2.36  26 2.36
  77  0.218  0.917  0.000-   5 2.25
  78  0.218  0.917  0.329-   6 2.25  39 2.26  35 2.26  27 2.36  47 2.36
  79  0.218  0.917  0.657-  36 2.26  40 2.26  48 2.36  28 2.36
  80  0.053  0.914  0.109-  33 2.25   5 2.26   1 2.26  17 2.36  13 2.36
  81  0.053  0.914  0.438-  34 2.25   2 2.26   6 2.26  14 2.36  18 2.36
  82  0.303  0.664  0.273-  11 2.25  43 2.26  39 2.26  31 2.36  27 2.36
  83  0.303  0.664  0.602-  12 2.25  44 2.26  40 2.26  32 2.36  28 2.36
  84  0.968  0.667  0.054-  33 2.26  29 2.26  45 2.36  41 2.36
  85  0.968  0.667  0.382-  27 2.25  30 2.26  34 2.26  42 2.36  46 2.36
  86  0.718  0.917  0.218-  13 2.25  47 2.26  31 2.26  35 2.36  43 2.36
  87  0.718  0.917  0.547-  14 2.25  48 2.26  32 2.26  36 2.36  44 2.36
  88  0.968  0.667  0.164-  31 2.25  25 2.26  33 2.26  37 2.36  45 2.36
  89  0.968  0.667  0.493-  32 2.25  34 2.26  26 2.26  46 2.36  38 2.36
  90  0.718  0.917  0.000-  17 2.25
  91  0.718  0.917  0.329-  18 2.25  27 2.26  47 2.26  39 2.36  35 2.36
  92  0.718  0.917  0.657-  48 2.26  28 2.26  36 2.36  40 2.36
  93  0.553  0.914  0.109-  45 2.25  17 2.26  13 2.26   5 2.36   1 2.36
  94  0.553  0.914  0.438-  46 2.25  14 2.26  18 2.26   2 2.36   6 2.36
  95  0.803  0.664  0.273-  23 2.25  31 2.26  27 2.26  43 2.36  39 2.36
  96  0.803  0.664  0.602-  24 2.25  32 2.26  28 2.26  44 2.36  40 2.36
 
  LATTYP: Found a simple monoclinic cell.
 ALAT       =    13.8711386352
 B/A-ratio  =     2.1019774055
 C/A-ratio  =     1.3233367991
 COS(beta)  =    -0.9620914447
  
  Lattice vectors:
  
 A1 = (  -6.1690871197, -12.4238017992,   0.0000000000)
 A2 = (   0.0000000000,   0.0000000000, -29.1568200000)
 A3 = (  12.3381742394,  13.5911405602,   0.0000000000)


Analysis of symmetry for initial positions (statically):
=====================================================================
 Subroutine PRICEL returns:
 Original cell was already a primitive cell.
 

 Routine SETGRP: Setting up the symmetry group for a 
 simple monoclinic supercell.


 Subroutine GETGRP returns: Found  1 space group operations
 (whereof  1 operations were pure point group operations)
 out of a pool of  4 trial point group operations.


The static configuration has the point symmetry C_1 .


Analysis of symmetry for dynamics (positions and initial velocities):
=====================================================================
 Subroutine PRICEL returns:
 Original cell was already a primitive cell.
 

 Routine SETGRP: Setting up the symmetry group for a 
 simple monoclinic supercell.


 Subroutine GETGRP returns: Found  1 space group operations
 (whereof  1 operations were pure point group operations)
 out of a pool of  4 trial point group operations.


The dynamic configuration has the point symmetry C_1 .


 Subroutine INISYM returns: Found  1 space group operations
 (whereof  1 operations are pure point group operations),
 and found     1 'primitive' translations


----------------------------------------------------------------------------------------

                                     Primitive cell                                     

  volume of cell :    2024.7108

  direct lattice vectors                    reciprocal lattice vectors
     6.169087120  1.167338761  0.000000000     0.162098538  0.000000000  0.000000000
     0.000000000 11.256463038  0.000000000    -0.016810245  0.088837852  0.000000000
     0.000000000  0.000000000 29.156820000     0.000000000  0.000000000  0.034297293

  length of vectors
     6.278560000 11.256463038 29.156820000     0.162098538  0.090414315  0.034297293

  position of ions in fractional coordinates (direct lattice)
     0.256309438  0.016458591  0.152393487
     0.256309438  0.016458591  0.480907021
     0.006309438  0.266458583  0.316650254
     0.006309438  0.266458583  0.645163789
     0.256309438  0.016458591  0.065598240
     0.256309438  0.016458591  0.394111774
     0.006309438  0.266458583  0.229855007
     0.006309438  0.266458583  0.558368542
     0.190257938  0.214613085  0.108995863
     0.190257938  0.214613085  0.437509398
     0.440257938  0.464613078  0.273252630
     0.440257938  0.464613078  0.601766165
     0.756309438  0.016458591  0.152393487
     0.756309438  0.016458591  0.480907021
     0.506309438  0.266458583  0.316650254
     0.506309438  0.266458583  0.645163789
     0.756309438  0.016458591  0.065598240
     0.756309438  0.016458591  0.394111774
     0.506309438  0.266458583  0.229855007
     0.506309438  0.266458583  0.558368542
     0.690257938  0.214613085  0.108995863
     0.690257938  0.214613085  0.437509398
     0.940257938  0.464613078  0.273252630
     0.940257938  0.464613078  0.601766165
     0.256309438  0.516458591  0.152393487
     0.256309438  0.516458591  0.480907021
     0.006309438  0.766458583  0.316650254
     0.006309438  0.766458583  0.645163789
     0.256309438  0.516458591  0.065598240
     0.256309438  0.516458591  0.394111774
     0.006309438  0.766458583  0.229855007
     0.006309438  0.766458583  0.558368542
     0.190257938  0.714613085  0.108995863
     0.190257938  0.714613085  0.437509398
     0.440257938  0.964613078  0.273252630
     0.440257938  0.964613078  0.601766165
     0.756309438  0.516458591  0.152393487
     0.756309438  0.516458591  0.480907021
     0.506309438  0.766458583  0.316650254
     0.506309438  0.766458583  0.645163789
     0.756309438  0.516458591  0.065598240
     0.756309438  0.516458591  0.394111774
     0.506309438  0.766458583  0.229855007
     0.506309438  0.766458583  0.558368542
     0.690257938  0.714613085  0.108995863
     0.690257938  0.714613085  0.437509398
     0.940257938  0.964613078  0.273252630
     0.940257938  0.964613078  0.601766165
     0.468404105  0.166617586  0.382248494
     0.218404105  0.416617579  0.217991726
     0.218404105  0.416617579  0.546505261
     0.468404105  0.166617586  0.164256767
     0.468404105  0.166617586  0.492770302
     0.218404105  0.416617579  0.000000000
     0.218404105  0.416617579  0.328513535
     0.218404105  0.416617579  0.657027069
     0.052511605  0.414295079  0.108995863
     0.052511605  0.414295079  0.437509398
     0.302511605  0.164295086  0.273252630
     0.302511605  0.164295086  0.601766165
     0.968404105  0.166617586  0.382248494
     0.718404105  0.416617579  0.217991726
     0.718404105  0.416617579  0.546505261
     0.968404105  0.166617586  0.164256767
     0.968404105  0.166617586  0.492770302
     0.718404105  0.416617579  0.328513535
     0.718404105  0.416617579  0.657027069
     0.552511605  0.414295079  0.108995863
     0.552511605  0.414295079  0.437509398
     0.802511605  0.164295086  0.273252630
     0.802511605  0.164295086  0.601766165
     0.468404105  0.666617586  0.382248494
     0.218404105  0.916617579  0.217991726
     0.218404105  0.916617579  0.546505261
     0.468404105  0.666617586  0.164256767
     0.468404105  0.666617586  0.492770302
     0.218404105  0.916617579  0.000000000
     0.218404105  0.916617579  0.328513535
     0.218404105  0.916617579  0.657027069
     0.052511605  0.914295079  0.108995863
     0.052511605  0.914295079  0.437509398
     0.302511605  0.664295086  0.273252630
     0.302511605  0.664295086  0.601766165
     0.968404105  0.666617586  0.053734959
     0.968404105  0.666617586  0.382248494
     0.718404105  0.916617579  0.217991726
     0.718404105  0.916617579  0.546505261
     0.968404105  0.666617586  0.164256767
     0.968404105  0.666617586  0.492770302
     0.718404105  0.916617579  0.000000000
     0.718404105  0.916617579  0.328513535
     0.718404105  0.916617579  0.657027069
     0.552511605  0.914295079  0.108995863
     0.552511605  0.914295079  0.437509398
     0.802511605  0.664295086  0.273252630
     0.802511605  0.664295086  0.601766165

  ion indices of the primitive-cell ions
   primitive index   ion index
                 1           1
                 2           2
                 3           3
                 4           4
                 5           5
                 6           6
                 7           7
                 8           8
                 9           9
                10          10
                11          11
                12          12
                13          13
                14          14
                15          15
                16          16
                17          17
                18          18
                19          19
                20          20
                21          21
                22          22
                23          23
                24          24
                25          25
                26          26
                27          27
                28          28
                29          29
                30          30
                31          31
                32          32
                33          33
                34          34
                35          35
                36          36
                37          37
                38          38
                39          39
                40          40
                41          41
                42          42
                43          43
                44          44
                45          45
                46          46
                47          47
                48          48
                49          49
                50          50
                51          51
                52          52
                53          53
                54          54
                55          55
                56          56
                57          57
                58          58
                59          59
                60          60
                61          61
                62          62
                63          63
                64          64
                65          65
                66          66
                67          67
                68          68
                69          69
                70          70
                71          71
                72          72
                73          73
                74          74
                75          75
                76          76
                77          77
                78          78
                79          79
                80          80
                81          81
                82          82
                83          83
                84          84
                85          85
                86          86
                87          87
                88          88
                89          89
                90          90
                91          91
                92          92
                93          93
                94          94
                95          95
                96          96

----------------------------------------------------------------------------------------

 
 
 KPOINTS: gamma-point-only calculation. no periodi

Automatic generation of k-mesh.
Space group operators:
 irot       det(A)        alpha          n_x          n_y          n_z        tau_x        tau_y        tau_z
    1     1.000000     0.000000     1.000000     0.000000     0.000000     0.000000     0.000000     0.000000
 
 Subroutine IBZKPT returns following result:
 ===========================================
 
 Found      1 irreducible k-points:
 
 Following reciprocal coordinates:
            Coordinates               Weight
  0.000000  0.000000  0.000000      1.000000
 
 Following cartesian coordinates:
            Coordinates               Weight
  0.000000  0.000000  0.000000      1.000000
 


--------------------------------------------------------------------------------------------------------




 Dimension of arrays:
   k-points           NKPTS =      1   k-points in BZ     NKDIM =      1   number of bands    NBANDS=    640
   number of dos      NEDOS =    301   number of ions     NIONS =     96
   non local maximal  LDIM  =      6   non local SUM 2l+1 LMDIM =     18
   total plane-waves  NPLWV = 345600
   max r-space proj   IRMAX =   1932   max aug-charges    IRDMAX=   5576
   dimension x,y,z NGX =    36 NGY =   60 NGZ =  160
   dimension x,y,z NGXF=    72 NGYF=  120 NGZF=  320
   support grid    NGXF=    72 NGYF=  120 NGZF=  320
   ions per type =              48  48
   NGX,Y,Z   is equivalent  to a cutoff of   9.53,  8.86,  9.12 a.u.
   NGXF,Y,Z  is equivalent  to a cutoff of  19.06, 17.72, 18.25 a.u.

 SYSTEM =  "Millerite NiS"                         
 POSCAR =  Structure 31 made from -120-5.xsd file  

 Startparameter for this run:
   NWRITE =      2    write-flag & timer
   PREC   = normal    normal or accurate (medium, high low for compatibility)
   ISTART =      0    job   : 0-new  1-cont  2-samecut
   ICHARG =      2    charge: 1-file 2-atom 10-const
   ISPIN  =      1    spin polarized calculation?
   LNONCOLLINEAR =      F non collinear calculations
   LSORBIT =      F    spin-orbit coupling
   INIWAV =      1    electr: 0-lowe 1-rand  2-diag
   LASPH  =      F    aspherical Exc in radial PAW
   METAGGA=      F    non-selfconsistent MetaGGA calc.

 Electronic Relaxation 1
   ENCUT  =  450.0 eV  33.07 Ry    5.75 a.u.  10.86 19.47 50.43*2*pi/ulx,y,z
   ENINI  =  450.0     initial cutoff
   ENAUG  =  703.4 eV  augmentation charge cutoff
   NELM   =    100;   NELMIN=  2; NELMDL= -5     # of ELM steps 
   EDIFF  = 0.1E-03   stopping-criterion for ELM
   LREAL  =      T    real-space projection
   NLSPLINE    = F    spline interpolate recip. space projectors
   LCOMPAT=      F    compatible to vasp.4.4
   GGA_COMPAT  = T    GGA compatible to vasp.4.4-vasp.4.6
   LMAXPAW     = -100 max onsite density
   LMAXMIX     =    2 max onsite mixed and CHGCAR
   VOSKOWN=      0    Vosko Wilk Nusair interpolation
   ROPT   =   -0.00050  -0.00050
 Ionic relaxation
   EDIFFG = 0.1E-02   stopping-criterion for IOM
   NSW    =      0    number of steps for IOM
   NBLOCK =      1;   KBLOCK =      1    inner block; outer block 
   IBRION =     -1    ionic relax: 0-MD 1-quasi-New 2-CG
   NFREE  =      0    steps in history (QN), initial steepest desc. (CG)
   ISIF   =      2    stress and relaxation
   IWAVPR =     10    prediction:  0-non 1-charg 2-wave 3-comb
   ISYM   =      2    0-nonsym 1-usesym 2-fastsym
   LCORR  =      T    Harris-Foulkes like correction to forces

   POTIM  = 0.5000    time-step for ionic-motion
   TEIN   =    0.0    initial temperature
   TEBEG  =    0.0;   TEEND  =   0.0 temperature during run
   SMASS  =  -3.00    Nose mass-parameter (am)
   estimated Nose-frequenzy (Omega)   =  0.10E-29 period in steps = 0.13E+47 mass=  -0.901E-27a.u.
   SCALEE = 1.0000    scale energy and forces
   NPACO  =    256;   APACO  = 16.0  distance and # of slots for P.C.
   PSTRESS=    0.0 pullay stress

  Mass of Ions in am
   POMASS =  58.69 32.07
  Ionic Valenz
   ZVAL   =  16.00  6.00
  Atomic Wigner-Seitz radii
   RWIGS  =  -1.00 -1.00
  virtual crystal weights 
   VCA    =   1.00  1.00
   NELECT =    1056.0000    total number of electrons
   NUPDOWN=      -1.0000    fix difference up-down

 DOS related values:
   EMIN   =  10.00;   EMAX   =-10.00  energy-range for DOS
   EFERMI =   0.00
   ISMEAR =     0;   SIGMA  =   0.20  broadening in eV -4-tet -1-fermi 0-gaus

 Electronic relaxation 2 (details)
   IALGO  =     38    algorithm
   LDIAG  =      T    sub-space diagonalisation (order eigenvalues)
   LSUBROT=      F    optimize rotation matrix (better conditioning)
   TURBO    =      0    0=normal 1=particle mesh
   IRESTART =      0    0=no restart 2=restart with 2 vectors
   NREBOOT  =      0    no. of reboots
   NMIN     =      0    reboot dimension
   EREF     =   0.00    reference energy to select bands
   IMIX   =      4    mixing-type and parameters
     AMIX     =   0.40;   BMIX     =  1.00
     AMIX_MAG =   1.60;   BMIX_MAG =  1.00
     AMIN     =   0.10
     WC   =   100.;   INIMIX=   1;  MIXPRE=   1;  MAXMIX= -45

 Intra band minimization:
   WEIMIN = 0.0000     energy-eigenvalue tresh-hold
   EBREAK =  0.39E-07  absolut break condition
   DEPER  =   0.30     relativ break condition  

   TIME   =   0.40     timestep for ELM

  volume/ion in A,a.u.               =      21.09       142.33
  Fermi-wavevector in a.u.,A,eV,Ry     =   1.317777  2.490237 23.626996  1.736535
  Thomas-Fermi vector in A             =   2.447794
 
 Write flags
   LWAVE        =      F    write WAVECAR
   LDOWNSAMPLE  =      F    k-point downsampling of WAVECAR
   LCHARG       =      F    write CHGCAR
   LVTOT        =      F    write LOCPOT, total local potential
   LVHAR        =      F    write LOCPOT, Hartree potential only
   LELF         =      F    write electronic localiz. function (ELF)
   LORBIT       =      0    0 simple, 1 ext, 2 COOP (PROOUT), +10 PAW based schemes


 Dipole corrections
   LMONO  =      F    monopole corrections only (constant potential shift)
   LDIPOL =      F    correct potential (dipole corrections)
   IDIPOL =      0    1-x, 2-y, 3-z, 4-all directions 
   EPSILON=  1.0000000 bulk dielectric constant

 Exchange correlation treatment:
   GGA     =    --    GGA type
   LEXCH   =     8    internal setting for exchange type
   VOSKOWN=      0    Vosko Wilk Nusair interpolation
   LHFCALC =     F    Hartree Fock is set to
   LHFONE  =     F    Hartree Fock one center treatment
   AEXX    =    0.0000 exact exchange contribution

 Linear response parameters
   LEPSILON=     F    determine dielectric tensor
   LRPA    =     F    only Hartree local field effects (RPA)
   LNABLA  =     F    use nabla operator in PAW spheres
   LVEL    =     F    velocity operator in full k-point grid
   LINTERFAST=   F  fast interpolation
   KINTER  =     0    interpolate to denser k-point grid
   CSHIFT  =0.1000    complex shift for real part using Kramers Kronig
   OMEGAMAX=  -1.0    maximum frequency
   DEG_THRESHOLD= 0.2000000E-02 threshold for treating states as degnerate
   RTIME   =   -0.100 relaxation time in fs
  (WPLASMAI=    0.000 imaginary part of plasma frequency in eV, 0.658/RTIME)
   DFIELD  = 0.0000000 0.0000000 0.0000000 field for delta impulse in time
 
 Orbital magnetization related:
   ORBITALMAG=     F  switch on orbital magnetization
   LCHIMAG   =     F  perturbation theory with respect to B field
   DQ        =  0.001000  dq finite difference perturbation B field
   LLRAUG    =     F  two centre corrections for induced B field



--------------------------------------------------------------------------------------------------------


 Static calculation
 charge density and potential will be updated during run
 non-spin polarized calculation
 Variant of blocked Davidson
 Davidson routine will perform the subspace rotation
 perform sub-space diagonalisation
    after iterative eigenvector-optimisation
 modified Broyden-mixing scheme, WC =      100.0
 initial mixing is a Kerker type mixing with AMIX =  0.4000 and BMIX =      1.0000
 Hartree-type preconditioning will be used
 using additional bands          112
 real space projection scheme for non local part
 use partial core corrections
 calculate Harris-corrections to forces 
   (improved forces if not selfconsistent)
 use gradient corrections 
 use of overlap-Matrix (Vanderbilt PP)
 Gauss-broadening in eV      SIGMA  =   0.20


--------------------------------------------------------------------------------------------------------


  energy-cutoff  :      450.00
  volume of cell :     2024.71
      direct lattice vectors                 reciprocal lattice vectors
     6.169087120  1.167338761  0.000000000     0.162098538  0.000000000  0.000000000
     0.000000000 11.256463038  0.000000000    -0.016810245  0.088837852  0.000000000
     0.000000000  0.000000000 29.156820000     0.000000000  0.000000000  0.034297293

  length of vectors
     6.278560000 11.256463038 29.156820000     0.162098538  0.090414315  0.034297293


 
 k-points in units of 2pi/SCALE and weight: gamma-point-only calculation. no periodi
   0.00000000  0.00000000  0.00000000       1.000
 
 k-points in reciprocal lattice and weights: gamma-point-only calculation. no periodi
   0.00000000  0.00000000  0.00000000       1.000
 
 position of ions in fractional coordinates (direct lattice) 
   0.25630944  0.01645859  0.15239349
   0.25630944  0.01645859  0.48090702
   0.00630944  0.26645858  0.31665025
   0.00630944  0.26645858  0.64516379
   0.25630944  0.01645859  0.06559824
   0.25630944  0.01645859  0.39411177
   0.00630944  0.26645858  0.22985501
   0.00630944  0.26645858  0.55836854
   0.19025794  0.21461309  0.10899586
   0.19025794  0.21461309  0.43750940
   0.44025794  0.46461308  0.27325263
   0.44025794  0.46461308  0.60176617
   0.75630944  0.01645859  0.15239349
   0.75630944  0.01645859  0.48090702
   0.50630944  0.26645858  0.31665025
   0.50630944  0.26645858  0.64516379
   0.75630944  0.01645859  0.06559824
   0.75630944  0.01645859  0.39411177
   0.50630944  0.26645858  0.22985501
   0.50630944  0.26645858  0.55836854
   0.69025794  0.21461309  0.10899586
   0.69025794  0.21461309  0.43750940
   0.94025794  0.46461308  0.27325263
   0.94025794  0.46461308  0.60176617
   0.25630944  0.51645859  0.15239349
   0.25630944  0.51645859  0.48090702
   0.00630944  0.76645858  0.31665025
   0.00630944  0.76645858  0.64516379
   0.25630944  0.51645859  0.06559824
   0.25630944  0.51645859  0.39411177
   0.00630944  0.76645858  0.22985501
   0.00630944  0.76645858  0.55836854
   0.19025794  0.71461309  0.10899586
   0.19025794  0.71461309  0.43750940
   0.44025794  0.96461308  0.27325263
   0.44025794  0.96461308  0.60176617
   0.75630944  0.51645859  0.15239349
   0.75630944  0.51645859  0.48090702
   0.50630944  0.76645858  0.31665025
   0.50630944  0.76645858  0.64516379
   0.75630944  0.51645859  0.06559824
   0.75630944  0.51645859  0.39411177
   0.50630944  0.76645858  0.22985501
   0.50630944  0.76645858  0.55836854
   0.69025794  0.71461309  0.10899586
   0.69025794  0.71461309  0.43750940
   0.94025794  0.96461308  0.27325263
   0.94025794  0.96461308  0.60176617
   0.46840410  0.16661759  0.38224849
   0.21840410  0.41661758  0.21799173
   0.21840410  0.41661758  0.54650526
   0.46840410  0.16661759  0.16425677
   0.46840410  0.16661759  0.49277030
   0.21840410  0.41661758  0.00000000
   0.21840410  0.41661758  0.32851353
   0.21840410  0.41661758  0.65702707
   0.05251160  0.41429508  0.10899586
   0.05251160  0.41429508  0.43750940
   0.30251160  0.16429509  0.27325263
   0.30251160  0.16429509  0.60176617
   0.96840410  0.16661759  0.38224849
   0.71840410  0.41661758  0.21799173
   0.71840410  0.41661758  0.54650526
   0.96840410  0.16661759  0.16425677
   0.96840410  0.16661759  0.49277030
   0.71840410  0.41661758  0.32851353
   0.71840410  0.41661758  0.65702707
   0.55251160  0.41429508  0.10899586
   0.55251160  0.41429508  0.43750940
   0.80251160  0.16429509  0.27325263
   0.80251160  0.16429509  0.60176617
   0.46840410  0.66661759  0.38224849
   0.21840410  0.91661758  0.21799173
   0.21840410  0.91661758  0.54650526
   0.46840410  0.66661759  0.16425677
   0.46840410  0.66661759  0.49277030
   0.21840410  0.91661758  0.00000000
   0.21840410  0.91661758  0.32851353
   0.21840410  0.91661758  0.65702707
   0.05251160  0.91429508  0.10899586
   0.05251160  0.91429508  0.43750940
   0.30251160  0.66429509  0.27325263
   0.30251160  0.66429509  0.60176617
   0.96840410  0.66661759  0.05373496
   0.96840410  0.66661759  0.38224849
   0.71840410  0.91661758  0.21799173
   0.71840410  0.91661758  0.54650526
   0.96840410  0.66661759  0.16425677
   0.96840410  0.66661759  0.49277030
   0.71840410  0.91661758  0.00000000
   0.71840410  0.91661758  0.32851353
   0.71840410  0.91661758  0.65702707
   0.55251160  0.91429508  0.10899586
   0.55251160  0.91429508  0.43750940
   0.80251160  0.66429509  0.27325263
   0.80251160  0.66429509  0.60176617
 
 position of ions in cartesian coordinates  (Angst):
   1.58119525  0.48446546  4.44330947
   1.58119525  0.48446546 14.02171945
   0.03892347  3.00674644  9.23251446
   0.03892347  3.00674644 18.81092447
   1.58119525  0.48446546  1.91263608
   1.58119525  0.48446546 11.49104605
   0.03892347  3.00674644  6.70184107
   0.03892347  3.00674644 16.28025107
   1.17371779  2.63787972  3.17797276
   1.17371779  2.63787972 12.75638277
   2.71598957  5.74383010  7.96717775
   2.71598957  5.74383010 17.54558775
   4.66573881  1.06813484  4.44330947
   4.66573881  1.06813484 14.02171945
   3.12346703  3.59041582  9.23251446
   3.12346703  3.59041582 18.81092447
   4.66573881  1.06813484  1.91263608
   4.66573881  1.06813484 11.49104605
   3.12346703  3.59041582  6.70184107
   3.12346703  3.59041582 16.28025107
   4.25826135  3.22154910  3.17797276
   4.25826135  3.22154910 12.75638277
   5.80053313  6.32749948  7.96717775
   5.80053313  6.32749948 17.54558775
   1.58119525  6.11269698  4.44330947
   1.58119525  6.11269698 14.02171945
   0.03892347  8.63497796  9.23251446
   0.03892347  8.63497796 18.81092447
   1.58119525  6.11269698  1.91263608
   1.58119525  6.11269698 11.49104605
   0.03892347  8.63497796  6.70184107
   0.03892347  8.63497796 16.28025107
   1.17371779  8.26611124  3.17797276
   1.17371779  8.26611124 12.75638277
   2.71598957 11.37206161  7.96717775
   2.71598957 11.37206161 17.54558775
   4.66573881  6.69636636  4.44330947
   4.66573881  6.69636636 14.02171945
   3.12346703  9.21864734  9.23251446
   3.12346703  9.21864734 18.81092447
   4.66573881  6.69636636  1.91263608
   4.66573881  6.69636636 11.49104605
   3.12346703  9.21864734  6.70184107
   3.12346703  9.21864734 16.28025107
   4.25826135  8.84978062  3.17797276
   4.25826135  8.84978062 12.75638277
   5.80053313 11.95573100  7.96717775
   5.80053313 11.95573100 17.54558775
   2.88962573  2.42231097 11.14515053
   1.34735395  4.94459196  6.35594552
   1.34735395  4.94459196 15.93435552
   2.88962573  2.42231097  4.78920499
   2.88962573  2.42231097 14.36761500
   1.34735395  4.94459196  0.00000000
   1.34735395  4.94459196  9.57841001
   1.34735395  4.94459196 19.15681999
   0.32394867  4.72479608  3.17797276
   0.32394867  4.72479608 12.75638277
   1.86622045  2.20251509  7.96717775
   1.86622045  2.20251509 17.54558775
   5.97416929  3.00598035 11.14515053
   4.43189751  5.52826134  6.35594552
   4.43189751  5.52826134 15.93435552
   5.97416929  3.00598035  4.78920499
   5.97416929  3.00598035 14.36761500
   4.43189751  5.52826134  9.57841001
   4.43189751  5.52826134 19.15681999
   3.40849223  5.30846546  3.17797276
   3.40849223  5.30846546 12.75638277
   4.95076401  2.78618447  7.96717775
   4.95076401  2.78618447 17.54558775
   2.88962573  8.05054249 11.14515053
   1.34735395 10.57282348  6.35594552
   1.34735395 10.57282348 15.93435552
   2.88962573  8.05054249  4.78920499
   2.88962573  8.05054249 14.36761500
   1.34735395 10.57282348  0.00000000
   1.34735395 10.57282348  9.57841001
   1.34735395 10.57282348 19.15681999
   0.32394867 10.35302759  3.17797276
   0.32394867 10.35302759 12.75638277
   1.86622045  7.83074660  7.96717775
   1.86622045  7.83074660 17.54558775
   5.97416929  8.63421187  1.56674053
   5.97416929  8.63421187 11.14515053
   4.43189751 11.15649286  6.35594552
   4.43189751 11.15649286 15.93435552
   5.97416929  8.63421187  4.78920499
   5.97416929  8.63421187 14.36761500
   4.43189751 11.15649286  0.00000000
   4.43189751 11.15649286  9.57841001
   4.43189751 11.15649286 19.15681999
   3.40849223 10.93669698  3.17797276
   3.40849223 10.93669698 12.75638277
   4.95076401  8.41441598  7.96717775
   4.95076401  8.41441598 17.54558775
 


--------------------------------------------------------------------------------------------------------


 use parallel FFT for orbitals z direction half grid
 k-point   1 :   0.0000 0.0000 0.0000  plane waves:   21935

 maximum and minimum number of plane-waves per node :      3657     3654

 maximum number of plane-waves:     21935
 maximum index in each direction: 
   IXMAX=   10   IYMAX=   19   IZMAX=   50
   IXMIN=  -10   IYMIN=  -19   IZMIN=    0


 real space projection operators:
  total allocation   :      15862.75 KBytes
  max/ min on nodes  :       2664.38       2625.88


 parallel 3D FFT for wavefunctions:
    minimum data exchange during FFTs selected (reduces bandwidth)
 parallel 3D FFT for charge:
    minimum data exchange during FFTs selected (reduces bandwidth)


 total amount of memory used by VASP MPI-rank0    48492. kBytes
=======================================================================

   base      :      30000. kBytes
   nonlr-proj:       3251. kBytes
   fftplans  :       3676. kBytes
   grid      :       6629. kBytes
   one-center:        124. kBytes
   wavefun   :       4812. kBytes
 
     INWAV:  cpu time    0.0000: real time    0.0000
 Broyden mixing: mesh for mixing (old mesh)
   NGX = 21   NGY = 39   NGZ =101
  (NGX  = 72   NGY  =120   NGZ  =320)
  gives a total of  82719 points

 initial charge density was supplied:
 charge density of overlapping atoms calculated
 number of electron    1056.0000000 magnetization 
 keeping initial charge density in first step


--------------------------------------------------------------------------------------------------------


 Maximum index for non-local projection operator          319
 Maximum index for augmentation-charges          334 (set IRDMAX)


--------------------------------------------------------------------------------------------------------


 First call to EWALD:  gamma=   0.140
 Maximum number of real-space cells 5x 3x 1
 Maximum number of reciprocal cells 2x 2x 6

    FEWALD:  cpu time    0.0037: real time    0.0037


--------------------------------------- Iteration      1(   1)  ---------------------------------------


    POTLOK:  cpu time    0.0556: real time    0.0561
    SETDIJ:  cpu time    0.0061: real time    0.0081
     EDDAV:  cpu time    3.1913: real time    3.2000
       DOS:  cpu time    0.0014: real time    0.0014
    --------------------------------------------
      LOOP:  cpu time    3.2545: real time    3.2656

 eigenvalue-minimisations  :  1528
 total energy-change (2. order) : 0.1457064E+05  (-0.6774659E+05)
 number of electron    1056.0000000 magnetization 
 augmentation part     1056.0000000 magnetization 

 Free energy of the ion-electron system (eV)
  ---------------------------------------------------
  alpha Z        PSCENC =      3266.22189492
  Ewald energy   TEWEN  =    315768.82435971
  -Hartree energ DENC   =   -481952.40935609
  -exchange      EXHF   =         0.00000000
  -V(xc)+E(xc)   XCENC  =      4880.85944155
  PAW double counting   =    150306.04444553  -156855.34918313
  entropy T*S    EENTRO =        -0.50226938
  eigenvalues    EBANDS =     -2179.85990158
  atomic energy  EATOM  =    181336.80673834
  Solvation  Ediel_sol  =         0.00000000
  ---------------------------------------------------
  free energy    TOTEN  =     14570.63616986 eV

  energy without entropy =    14571.13843925  energy(sigma->0) =    14570.88730456


--------------------------------------------------------------------------------------------------------




--------------------------------------- Iteration      1(   2)  ---------------------------------------


     EDDAV:  cpu time    2.8518: real time    2.8625
       DOS:  cpu time    0.0031: real time    0.0031
    --------------------------------------------
      LOOP:  cpu time    2.8549: real time    2.8655

 eigenvalue-minimisations  :  1296
 total energy-change (2. order) :-0.1339294E+05  (-0.1292767E+05)
 number of electron    1056.0000000 magnetization 
 augmentation part     1056.0000000 magnetization 

 Free energy of the ion-electron system (eV)
  ---------------------------------------------------
  alpha Z        PSCENC =      3266.22189492
  Ewald energy   TEWEN  =    315768.82435971
  -Hartree energ DENC   =   -481952.40935609
  -exchange      EXHF   =         0.00000000
  -V(xc)+E(xc)   XCENC  =      4880.85944155
  PAW double counting   =    150306.04444553  -156855.34918313
  entropy T*S    EENTRO =        -0.83955611
  eigenvalues    EBANDS =    -15572.46498400
  atomic energy  EATOM  =    181336.80673834
  Solvation  Ediel_sol  =         0.00000000
  ---------------------------------------------------
  free energy    TOTEN  =      1177.69380072 eV

  energy without entropy =     1178.53335683  energy(sigma->0) =     1178.11357878


--------------------------------------------------------------------------------------------------------




--------------------------------------- Iteration      1(   3)  ---------------------------------------


     EDDAV:  cpu time    3.1277: real time    3.1360
       DOS:  cpu time    0.0014: real time    0.0014
    --------------------------------------------
      LOOP:  cpu time    3.1291: real time    3.1374

 eigenvalue-minimisations  :  1448
 total energy-change (2. order) :-0.1585433E+04  (-0.1459704E+04)
 number of electron    1056.0000000 magnetization 
 augmentation part     1056.0000000 magnetization 

 Free energy of the ion-electron system (eV)
  ---------------------------------------------------
  alpha Z        PSCENC =      3266.22189492
  Ewald energy   TEWEN  =    315768.82435971
  -Hartree energ DENC   =   -481952.40935609
  -exchange      EXHF   =         0.00000000
  -V(xc)+E(xc)   XCENC  =      4880.85944155
  PAW double counting   =    150306.04444553  -156855.34918313
  entropy T*S    EENTRO =        -0.54154863
  eigenvalues    EBANDS =    -17158.19551354
  atomic energy  EATOM  =    181336.80673834
  Solvation  Ediel_sol  =         0.00000000
  ---------------------------------------------------
  free energy    TOTEN  =      -407.73872134 eV

  energy without entropy =     -407.19717271  energy(sigma->0) =     -407.46794703


--------------------------------------------------------------------------------------------------------




--------------------------------------- Iteration      1(   4)  ---------------------------------------


     EDDAV:  cpu time    3.1609: real time    3.1708
       DOS:  cpu time    0.0012: real time    0.0012
    --------------------------------------------
      LOOP:  cpu time    3.1621: real time    3.1720

 eigenvalue-minimisations  :  1480
 total energy-change (2. order) :-0.1340023E+03  (-0.1309125E+03)
 number of electron    1056.0000000 magnetization 
 augmentation part     1056.0000000 magnetization 

 Free energy of the ion-electron system (eV)
  ---------------------------------------------------
  alpha Z        PSCENC =      3266.22189492
  Ewald energy   TEWEN  =    315768.82435971
  -Hartree energ DENC   =   -481952.40935609
  -exchange      EXHF   =         0.00000000
  -V(xc)+E(xc)   XCENC  =      4880.85944155
  PAW double counting   =    150306.04444553  -156855.34918313
  entropy T*S    EENTRO =        -0.58622244
  eigenvalues    EBANDS =    -17292.15316952
  atomic energy  EATOM  =    181336.80673834
  Solvation  Ediel_sol  =         0.00000000
  ---------------------------------------------------
  free energy    TOTEN  =      -541.74105113 eV

  energy without entropy =     -541.15482869  energy(sigma->0) =     -541.44793991


--------------------------------------------------------------------------------------------------------




--------------------------------------- Iteration      1(   5)  ---------------------------------------


     EDDAV:  cpu time    3.3515: real time    3.3604
       DOS:  cpu time    0.0015: real time    0.0015
    CHARGE:  cpu time    0.0503: real time    0.0505
    MIXING:  cpu time    0.0029: real time    0.0032
    --------------------------------------------
      LOOP:  cpu time    3.4062: real time    3.4155

 eigenvalue-minimisations  :  1592
 total energy-change (2. order) :-0.4972720E+01  (-0.4955354E+01)
 number of electron    1056.0001277 magnetization 
 augmentation part      381.9358933 magnetization 

 Broyden mixing:
  rms(total) = 0.95589E+01    rms(broyden)= 0.95364E+01
  rms(prec ) = 0.99348E+01
  weight for this iteration     100.00

 Free energy of the ion-electron system (eV)
  ---------------------------------------------------
  alpha Z        PSCENC =      3266.22189492
  Ewald energy   TEWEN  =    315768.82435971
  -Hartree energ DENC   =   -481952.40935609
  -exchange      EXHF   =         0.00000000
  -V(xc)+E(xc)   XCENC  =      4880.85944155
  PAW double counting   =    150306.04444553  -156855.34918313
  entropy T*S    EENTRO =        -0.58931824
  eigenvalues    EBANDS =    -17297.12279332
  atomic energy  EATOM  =    181336.80673834
  Solvation  Ediel_sol  =         0.00000000
  ---------------------------------------------------
  free energy    TOTEN  =      -546.71377073 eV

  energy without entropy =     -546.12445249  energy(sigma->0) =     -546.41911161


--------------------------------------------------------------------------------------------------------




--------------------------------------- Iteration      1(   6)  ---------------------------------------


    POTLOK:  cpu time    0.0549: real time    0.0573
    SETDIJ:  cpu time    0.0057: real time    0.0086
     EDDAV:  cpu time    3.4533: real time    3.4616
       DOS:  cpu time    0.0012: real time    0.0012
    CHARGE:  cpu time    0.0476: real time    0.0477
    MIXING:  cpu time    0.0020: real time    0.0022
    --------------------------------------------
      LOOP:  cpu time    3.5647: real time    3.5786

 eigenvalue-minimisations  :  1696
 total energy-change (2. order) :-0.5091144E+03  (-0.1248156E+03)
 number of electron    1056.0000889 magnetization 
 augmentation part      432.7550409 magnetization 

 Broyden mixing:
  rms(total) = 0.28625E+02    rms(broyden)= 0.28618E+02
  rms(prec ) = 0.34761E+02
  weight for this iteration     100.00

 eigenvalues of (default mixing * dielectric matrix)
  average eigenvalue GAMMA=   0.0867
  0.0867

 Free energy of the ion-electron system (eV)
  ---------------------------------------------------
  alpha Z        PSCENC =      3266.22189492
  Ewald energy   TEWEN  =    315768.82435971
  -Hartree energ DENC   =   -476995.51120972
  -exchange      EXHF   =         0.00000000
  -V(xc)+E(xc)   XCENC  =      4777.91298596
  PAW double counting   =    152805.68367218  -159032.67496219
  entropy T*S    EENTRO =        -0.77753238
  eigenvalues    EBANDS =    -22982.31416099
  atomic energy  EATOM  =    181336.80673834
  Solvation  Ediel_sol  =         0.00000000
  ---------------------------------------------------
  free energy    TOTEN  =     -1055.82821418 eV

  energy without entropy =    -1055.05068180  energy(sigma->0) =    -1055.43944799


--------------------------------------------------------------------------------------------------------




--------------------------------------- Iteration      1(   7)  ---------------------------------------


    POTLOK:  cpu time    0.0543: real time    0.0545
    SETDIJ:  cpu time    0.0057: real time    0.0057
     EDDAV:  cpu time    3.6302: real time    3.6388
       DOS:  cpu time    0.0021: real time    0.0021
    CHARGE:  cpu time    0.0478: real time    0.0479
    MIXING:  cpu time    0.0019: real time    0.0019
    --------------------------------------------
      LOOP:  cpu time    3.7420: real time    3.7509

 eigenvalue-minimisations  :  1680
 total energy-change (2. order) : 0.3876033E+03  (-0.3077622E+02)
 number of electron    1056.0001407 magnetization 
 augmentation part      463.8855499 magnetization 

 Broyden mixing:
  rms(total) = 0.17086E+02    rms(broyden)= 0.17084E+02
  rms(prec ) = 0.18689E+02
  weight for this iteration     100.00

 eigenvalues of (default mixing * dielectric matrix)
  average eigenvalue GAMMA=   0.1519
  0.1519  0.1519

 Free energy of the ion-electron system (eV)
  ---------------------------------------------------
  alpha Z        PSCENC =      3266.22189492
  Ewald energy   TEWEN  =    315768.82435971
  -Hartree energ DENC   =   -478116.28493962
  -exchange      EXHF   =         0.00000000
  -V(xc)+E(xc)   XCENC  =      4783.09178050
  PAW double counting   =    154470.16432874  -160738.49498744
  entropy T*S    EENTRO =        -1.47427332
  eigenvalues    EBANDS =    -21437.07982855
  atomic energy  EATOM  =    181336.80673834
  Solvation  Ediel_sol  =         0.00000000
  ---------------------------------------------------
  free energy    TOTEN  =      -668.22492674 eV

  energy without entropy =     -666.75065341  energy(sigma->0) =     -667.48779008


--------------------------------------------------------------------------------------------------------




--------------------------------------- Iteration      1(   8)  ---------------------------------------


    POTLOK:  cpu time    0.0540: real time    0.0541
    SETDIJ:  cpu time    0.0055: real time    0.0055
     EDDAV:  cpu time    3.5163: real time    3.5246
       DOS:  cpu time    0.0019: real time    0.0019
    CHARGE:  cpu time    0.0485: real time    0.0486
    MIXING:  cpu time    0.0019: real time    0.0019
    --------------------------------------------
      LOOP:  cpu time    3.6281: real time    3.6367

 eigenvalue-minimisations  :  1608
 total energy-change (2. order) :-0.6482169E+02  (-0.2370447E+02)
 number of electron    1056.0001078 magnetization 
 augmentation part      430.1283960 magnetization 

 Broyden mixing:
  rms(total) = 0.18914E+02    rms(broyden)= 0.18911E+02
  rms(prec ) = 0.24671E+02
  weight for this iteration     100.00

 eigenvalues of (default mixing * dielectric matrix)
  average eigenvalue GAMMA=   0.2514
  0.3398  0.3398  0.0746

 Free energy of the ion-electron system (eV)
  ---------------------------------------------------
  alpha Z        PSCENC =      3266.22189492
  Ewald energy   TEWEN  =    315768.82435971
  -Hartree energ DENC   =   -479684.79655109
  -exchange      EXHF   =         0.00000000
  -V(xc)+E(xc)   XCENC  =      4810.49740440
  PAW double counting   =    158544.78488656  -164950.86570077
  entropy T*S    EENTRO =        -1.13126309
  eigenvalues    EBANDS =    -19823.38838324
  atomic energy  EATOM  =    181336.80673834
  Solvation  Ediel_sol  =         0.00000000
  ---------------------------------------------------
  free energy    TOTEN  =      -733.04661427 eV

  energy without entropy =     -731.91535117  energy(sigma->0) =     -732.48098272


--------------------------------------------------------------------------------------------------------




--------------------------------------- Iteration      1(   9)  ---------------------------------------


    POTLOK:  cpu time    0.0547: real time    0.0548
    SETDIJ:  cpu time    0.0055: real time    0.0056
     EDDAV:  cpu time    3.9011: real time    3.9112
       DOS:  cpu time    0.0019: real time    0.0020
    CHARGE:  cpu time    0.0497: real time    0.0498
    MIXING:  cpu time    0.0021: real time    0.0021
    --------------------------------------------
      LOOP:  cpu time    4.0150: real time    4.0254

 eigenvalue-minimisations  :  1808
 total energy-change (2. order) : 0.1250128E+03  (-0.2265669E+02)
 number of electron    1056.0000971 magnetization 
 augmentation part      426.2537946 magnetization 

 Broyden mixing:
  rms(total) = 0.15081E+02    rms(broyden)= 0.15074E+02
  rms(prec ) = 0.16764E+02
  weight for this iteration     100.00

 eigenvalues of (default mixing * dielectric matrix)
  average eigenvalue GAMMA=   0.2780
  0.4499  0.4499  0.1364  0.0758

 Free energy of the ion-electron system (eV)
  ---------------------------------------------------
  alpha Z        PSCENC =      3266.22189492
  Ewald energy   TEWEN  =    315768.82435971
  -Hartree energ DENC   =   -479703.80985581
  -exchange      EXHF   =         0.00000000
  -V(xc)+E(xc)   XCENC  =      4829.40557532
  PAW double counting   =    162358.11172724  -168869.15692143
  entropy T*S    EENTRO =        -0.95659346
  eigenvalues    EBANDS =    -19593.48070422
  atomic energy  EATOM  =    181336.80673834
  Solvation  Ediel_sol  =         0.00000000
  ---------------------------------------------------
  free energy    TOTEN  =      -608.03377940 eV

  energy without entropy =     -607.07718595  energy(sigma->0) =     -607.55548267


--------------------------------------------------------------------------------------------------------




--------------------------------------- Iteration      1(  10)  ---------------------------------------


    POTLOK:  cpu time    0.0552: real time    0.0573
    SETDIJ:  cpu time    0.0076: real time    0.0076
     EDDAV:  cpu time    3.8054: real time    3.8146
       DOS:  cpu time    0.0013: real time    0.0013
    CHARGE:  cpu time    0.0482: real time    0.0483
    MIXING:  cpu time    0.0021: real time    0.0021
    --------------------------------------------
      LOOP:  cpu time    3.9198: real time    3.9312

 eigenvalue-minimisations  :  1784
 total energy-change (2. order) : 0.7120851E+02  (-0.2415630E+02)
 number of electron    1056.0001180 magnetization 
 augmentation part      414.0197987 magnetization 

 Broyden mixing:
  rms(total) = 0.13334E+02    rms(broyden)= 0.13332E+02
  rms(prec ) = 0.14821E+02
  weight for this iteration     100.00

 eigenvalues of (default mixing * dielectric matrix)
  average eigenvalue GAMMA=   0.2874
  0.5223  0.5223  0.0746  0.1588  0.1588

 Free energy of the ion-electron system (eV)
  ---------------------------------------------------
  alpha Z        PSCENC =      3266.22189492
  Ewald energy   TEWEN  =    315768.82435971
  -Hartree energ DENC   =   -480220.78191698
  -exchange      EXHF   =         0.00000000
  -V(xc)+E(xc)   XCENC  =      4839.01066780
  PAW double counting   =    165496.02195900  -172066.82557309
  entropy T*S    EENTRO =        -1.78918489
  eigenvalues    EBANDS =    -18954.31421533
  atomic energy  EATOM  =    181336.80673834
  Solvation  Ediel_sol  =         0.00000000
  ---------------------------------------------------
  free energy    TOTEN  =      -536.82527053 eV

  energy without entropy =     -535.03608564  energy(sigma->0) =     -535.93067808


--------------------------------------------------------------------------------------------------------




--------------------------------------- Iteration      1(  11)  ---------------------------------------


    POTLOK:  cpu time    0.0544: real time    0.0545
    SETDIJ:  cpu time    0.0055: real time    0.0055
     EDDAV:  cpu time    3.7954: real time    3.8045
       DOS:  cpu time    0.0015: real time    0.0015
    CHARGE:  cpu time    0.0493: real time    0.0494
    MIXING:  cpu time    0.0021: real time    0.0021
    --------------------------------------------
      LOOP:  cpu time    3.9081: real time    3.9175

 eigenvalue-minimisations  :  1776
 total energy-change (2. order) : 0.2203357E+02  (-0.1314748E+02)
 number of electron    1056.0001328 magnetization 
 augmentation part      411.4787905 magnetization 

 Broyden mixing:
  rms(total) = 0.87544E+01    rms(broyden)= 0.87463E+01
  rms(prec ) = 0.96576E+01
  weight for this iteration     100.00

 eigenvalues of (default mixing * dielectric matrix)
  average eigenvalue GAMMA=   0.3264
  0.8055  0.4051  0.4051  0.0747  0.1339  0.1339

 Free energy of the ion-electron system (eV)
  ---------------------------------------------------
  alpha Z        PSCENC =      3266.22189492
  Ewald energy   TEWEN  =    315768.82435971
  -Hartree energ DENC   =   -480519.76712318
  -exchange      EXHF   =         0.00000000
  -V(xc)+E(xc)   XCENC  =      4842.34813460
  PAW double counting   =    167771.36021835  -174369.60836007
  entropy T*S    EENTRO =        -1.27460934
  eigenvalues    EBANDS =    -18609.70295775
  atomic energy  EATOM  =    181336.80673834
  Solvation  Ediel_sol  =         0.00000000
  ---------------------------------------------------
  free energy    TOTEN  =      -514.79170442 eV

  energy without entropy =     -513.51709508  energy(sigma->0) =     -514.15439975


--------------------------------------------------------------------------------------------------------




--------------------------------------- Iteration      1(  12)  ---------------------------------------


    POTLOK:  cpu time    0.0545: real time    0.0546
    SETDIJ:  cpu time    0.0055: real time    0.0055
     EDDAV:  cpu time    4.1441: real time    4.1541
       DOS:  cpu time    0.0012: real time    0.0012
    CHARGE:  cpu time    0.0493: real time    0.0494
    MIXING:  cpu time    0.0022: real time    0.0022
    --------------------------------------------
      LOOP:  cpu time    4.2568: real time    4.2671

 eigenvalue-minimisations  :  1952
 total energy-change (2. order) :-0.1381233E+02  (-0.1711770E+02)
 number of electron    1056.0001352 magnetization 
 augmentation part      407.9293525 magnetization 

 Broyden mixing:
  rms(total) = 0.88796E+01    rms(broyden)= 0.88758E+01
  rms(prec ) = 0.98085E+01
  weight for this iteration     100.00

 eigenvalues of (default mixing * dielectric matrix)
  average eigenvalue GAMMA=   0.3916
  1.4442  0.3857  0.3857  0.1838  0.0750  0.1334  0.1334

 Free energy of the ion-electron system (eV)
  ---------------------------------------------------
  alpha Z        PSCENC =      3266.22189492
  Ewald energy   TEWEN  =    315768.82435971
  -Hartree energ DENC   =   -480636.71405175
  -exchange      EXHF   =         0.00000000
  -V(xc)+E(xc)   XCENC  =      4843.83729301
  PAW double counting   =    171086.37984755  -177717.10965993
  entropy T*S    EENTRO =        -1.58152385
  eigenvalues    EBANDS =    -18475.26893316
  atomic energy  EATOM  =    181336.80673834
  Solvation  Ediel_sol  =         0.00000000
  ---------------------------------------------------
  free energy    TOTEN  =      -528.60403515 eV

  energy without entropy =     -527.02251130  energy(sigma->0) =     -527.81327323


--------------------------------------------------------------------------------------------------------




--------------------------------------- Iteration      1(  13)  ---------------------------------------


    POTLOK:  cpu time    0.0547: real time    0.0548
    SETDIJ:  cpu time    0.0055: real time    0.0055
     EDDAV:  cpu time    3.8382: real time    3.8474
       DOS:  cpu time    0.0014: real time    0.0014
    CHARGE:  cpu time    0.0494: real time    0.0495
    MIXING:  cpu time    0.0022: real time    0.0022
    --------------------------------------------
      LOOP:  cpu time    3.9513: real time    3.9608

 eigenvalue-minimisations  :  1784
 total energy-change (2. order) :-0.2812137E+01  (-0.6907638E+01)
 number of electron    1056.0001349 magnetization 
 augmentation part      409.2776551 magnetization 

 Broyden mixing:
  rms(total) = 0.72803E+01    rms(broyden)= 0.72775E+01
  rms(prec ) = 0.84511E+01
  weight for this iteration     100.00

 eigenvalues of (default mixing * dielectric matrix)
  average eigenvalue GAMMA=   0.3942
  1.5987  0.3645  0.3645  0.2461  0.2461  0.0749  0.1294  0.1294

 Free energy of the ion-electron system (eV)
  ---------------------------------------------------
  alpha Z        PSCENC =      3266.22189492
  Ewald energy   TEWEN  =    315768.82435971
  -Hartree energ DENC   =   -480577.76025844
  -exchange      EXHF   =         0.00000000
  -V(xc)+E(xc)   XCENC  =      4841.01636455
  PAW double counting   =    174803.77349467  -181459.09808784
  entropy T*S    EENTRO =        -1.31159854
  eigenvalues    EBANDS =    -18509.88907962
  atomic energy  EATOM  =    181336.80673834
  Solvation  Ediel_sol  =         0.00000000
  ---------------------------------------------------
  free energy    TOTEN  =      -531.41617225 eV

  energy without entropy =     -530.10457371  energy(sigma->0) =     -530.76037298


--------------------------------------------------------------------------------------------------------




--------------------------------------- Iteration      1(  14)  ---------------------------------------


    POTLOK:  cpu time    0.0548: real time    0.0550
    SETDIJ:  cpu time    0.0054: real time    0.0054
     EDDAV:  cpu time    3.8242: real time    3.8351
       DOS:  cpu time    0.0020: real time    0.0020
    CHARGE:  cpu time    0.0492: real time    0.0493
    MIXING:  cpu time    0.0028: real time    0.0028
    --------------------------------------------
      LOOP:  cpu time    3.9385: real time    3.9496

 eigenvalue-minimisations  :  1760
 total energy-change (2. order) : 0.8049630E+01  (-0.5686302E+01)
 number of electron    1056.0001372 magnetization 
 augmentation part      411.8139128 magnetization 

 Broyden mixing:
  rms(total) = 0.66992E+01    rms(broyden)= 0.66959E+01
  rms(prec ) = 0.79094E+01
  weight for this iteration     100.00

 eigenvalues of (default mixing * dielectric matrix)
  average eigenvalue GAMMA=   0.4328
  1.8824  0.4303  0.4303  0.3385  0.3385  0.0749  0.1298  0.1298  0.1408

 Free energy of the ion-electron system (eV)
  ---------------------------------------------------
  alpha Z        PSCENC =      3266.22189492
  Ewald energy   TEWEN  =    315768.82435971
  -Hartree energ DENC   =   -480442.16764446
  -exchange      EXHF   =         0.00000000
  -V(xc)+E(xc)   XCENC  =      4839.29522211
  PAW double counting   =    175865.02972075  -182527.02140830
  entropy T*S    EENTRO =        -1.02417783
  eigenvalues    EBANDS =    -18629.33124791
  atomic energy  EATOM  =    181336.80673834
  Solvation  Ediel_sol  =         0.00000000
  ---------------------------------------------------
  free energy    TOTEN  =      -523.36654266 eV

  energy without entropy =     -522.34236484  energy(sigma->0) =     -522.85445375


--------------------------------------------------------------------------------------------------------




--------------------------------------- Iteration      1(  15)  ---------------------------------------


    POTLOK:  cpu time    0.0549: real time    0.0560
    SETDIJ:  cpu time    0.0057: real time    0.0088
     EDDAV:  cpu time    3.6939: real time    3.7040
       DOS:  cpu time    0.0010: real time    0.0010
    CHARGE:  cpu time    0.0485: real time    0.0486
    MIXING:  cpu time    0.0028: real time    0.0028
    --------------------------------------------
      LOOP:  cpu time    3.8068: real time    3.8213

 eigenvalue-minimisations  :  1704
 total energy-change (2. order) : 0.2654825E+02  (-0.3928622E+01)
 number of electron    1056.0001355 magnetization 
 augmentation part      418.1990595 magnetization 

 Broyden mixing:
  rms(total) = 0.42155E+01    rms(broyden)= 0.42124E+01
  rms(prec ) = 0.45282E+01
  weight for this iteration     100.00

 eigenvalues of (default mixing * dielectric matrix)
  average eigenvalue GAMMA=   0.4106
  1.7814  0.4520  0.4520  0.3513  0.3513  0.2302  0.0749  0.1300  0.1300  0.1526

 Free energy of the ion-electron system (eV)
  ---------------------------------------------------
  alpha Z        PSCENC =      3266.22189492
  Ewald energy   TEWEN  =    315768.82435971
  -Hartree energ DENC   =   -480253.20519637
  -exchange      EXHF   =         0.00000000
  -V(xc)+E(xc)   XCENC  =      4838.00866387
  PAW double counting   =    177245.62743627  -183922.09725955
  entropy T*S    EENTRO =        -0.92162361
  eigenvalues    EBANDS =    -18776.08330197
  atomic energy  EATOM  =    181336.80673834
  Solvation  Ediel_sol  =         0.00000000
  ---------------------------------------------------
  free energy    TOTEN  =      -496.81828839 eV

  energy without entropy =     -495.89666478  energy(sigma->0) =     -496.35747658


--------------------------------------------------------------------------------------------------------




--------------------------------------- Iteration      1(  16)  ---------------------------------------


    POTLOK:  cpu time    0.0563: real time    0.0564
    SETDIJ:  cpu time    0.0054: real time    0.0054
     EDDAV:  cpu time    3.6454: real time    3.6542
       DOS:  cpu time    0.0021: real time    0.0021
    CHARGE:  cpu time    0.0490: real time    0.0492
    MIXING:  cpu time    0.0026: real time    0.0026
    --------------------------------------------
      LOOP:  cpu time    3.7607: real time    3.7697

 eigenvalue-minimisations  :  1712
 total energy-change (2. order) : 0.2864831E+00  (-0.2210753E+01)
 number of electron    1056.0001364 magnetization 
 augmentation part      414.9718247 magnetization 

 Broyden mixing:
  rms(total) = 0.38227E+01    rms(broyden)= 0.38211E+01
  rms(prec ) = 0.48001E+01
  weight for this iteration     100.00

 eigenvalues of (default mixing * dielectric matrix)
  average eigenvalue GAMMA=   0.4045
  1.7446  0.5131  0.5131  0.3674  0.3674  0.2354  0.2354  0.0749  0.1298  0.1298
  0.1393

 Free energy of the ion-electron system (eV)
  ---------------------------------------------------
  alpha Z        PSCENC =      3266.22189492
  Ewald energy   TEWEN  =    315768.82435971
  -Hartree energ DENC   =   -480485.15452262
  -exchange      EXHF   =         0.00000000
  -V(xc)+E(xc)   XCENC  =      4840.06407068
  PAW double counting   =    176841.83856367  -183517.40749444
  entropy T*S    EENTRO =        -0.50076085
  eigenvalues    EBANDS =    -18547.22465471
  atomic energy  EATOM  =    181336.80673834
  Solvation  Ediel_sol  =         0.00000000
  ---------------------------------------------------
  free energy    TOTEN  =      -496.53180531 eV

  energy without entropy =     -496.03104446  energy(sigma->0) =     -496.28142488


--------------------------------------------------------------------------------------------------------




--------------------------------------- Iteration      1(  17)  ---------------------------------------


    POTLOK:  cpu time    0.0547: real time    0.0548
    SETDIJ:  cpu time    0.0055: real time    0.0055
     EDDAV:  cpu time    3.7035: real time    3.7124
       DOS:  cpu time    0.0015: real time    0.0015
    CHARGE:  cpu time    0.0490: real time    0.0491
    MIXING:  cpu time    0.0027: real time    0.0027
    --------------------------------------------
      LOOP:  cpu time    3.8169: real time    3.8261

 eigenvalue-minimisations  :  1720
 total energy-change (2. order) : 0.6126139E+01  (-0.1013089E+01)
 number of electron    1056.0001355 magnetization 
 augmentation part      415.0643045 magnetization 

 Broyden mixing:
  rms(total) = 0.32137E+01    rms(broyden)= 0.32131E+01
  rms(prec ) = 0.38471E+01
  weight for this iteration     100.00

 eigenvalues of (default mixing * dielectric matrix)
  average eigenvalue GAMMA=   0.4119
  1.7033  0.6272  0.6272  0.3881  0.3881  0.2761  0.2761  0.0749  0.1302  0.1302
  0.1736  0.1477

 Free energy of the ion-electron system (eV)
  ---------------------------------------------------
  alpha Z        PSCENC =      3266.22189492
  Ewald energy   TEWEN  =    315768.82435971
  -Hartree energ DENC   =   -480437.54218499
  -exchange      EXHF   =         0.00000000
  -V(xc)+E(xc)   XCENC  =      4840.52764226
  PAW double counting   =    176662.87814745  -183336.58671530
  entropy T*S    EENTRO =        -0.70751614
  eigenvalues    EBANDS =    -18590.82803227
  atomic energy  EATOM  =    181336.80673834
  Solvation  Ediel_sol  =         0.00000000
  ---------------------------------------------------
  free energy    TOTEN  =      -490.40566602 eV

  energy without entropy =     -489.69814988  energy(sigma->0) =     -490.05190795


--------------------------------------------------------------------------------------------------------




--------------------------------------- Iteration      1(  18)  ---------------------------------------


    POTLOK:  cpu time    0.0551: real time    0.0552
    SETDIJ:  cpu time    0.0054: real time    0.0054
     EDDAV:  cpu time    3.7791: real time    3.7880
       DOS:  cpu time    0.0015: real time    0.0015
    CHARGE:  cpu time    0.0491: real time    0.0493
    MIXING:  cpu time    0.0028: real time    0.0028
    --------------------------------------------
      LOOP:  cpu time    3.8930: real time    3.9022

 eigenvalue-minimisations  :  1752
 total energy-change (2. order) : 0.4144692E+01  (-0.3878999E+00)
 number of electron    1056.0001340 magnetization 
 augmentation part      415.6130508 magnetization 

 Broyden mixing:
  rms(total) = 0.26948E+01    rms(broyden)= 0.26944E+01
  rms(prec ) = 0.30625E+01
  weight for this iteration     100.00

 eigenvalues of (default mixing * dielectric matrix)
  average eigenvalue GAMMA=   0.3953
  1.6750  0.6636  0.6636  0.3868  0.3868  0.2657  0.2657  0.0749  0.1786  0.1786
  0.1300  0.1300  0.1398

 Free energy of the ion-electron system (eV)
  ---------------------------------------------------
  alpha Z        PSCENC =      3266.22189492
  Ewald energy   TEWEN  =    315768.82435971
  -Hartree energ DENC   =   -480403.47873301
  -exchange      EXHF   =         0.00000000
  -V(xc)+E(xc)   XCENC  =      4841.00898900
  PAW double counting   =    176434.55828018  -183105.72444290
  entropy T*S    EENTRO =        -0.90385413
  eigenvalues    EBANDS =    -18623.57420579
  atomic energy  EATOM  =    181336.80673834
  Solvation  Ediel_sol  =         0.00000000
  ---------------------------------------------------
  free energy    TOTEN  =      -486.26097368 eV

  energy without entropy =     -485.35711956  energy(sigma->0) =     -485.80904662


--------------------------------------------------------------------------------------------------------




--------------------------------------- Iteration      1(  19)  ---------------------------------------


    POTLOK:  cpu time    0.0545: real time    0.0547
    SETDIJ:  cpu time    0.0055: real time    0.0055
     EDDAV:  cpu time    3.7108: real time    3.7197
       DOS:  cpu time    0.0009: real time    0.0009
    CHARGE:  cpu time    0.0493: real time    0.0494
[...]
   0.545E+02 -.507E+03 0.193E+04   -.553E+02 0.508E+03 -.193E+04   0.109E+01 -.771E+00 0.317E+00   -.124E-02 0.467E-01 -.795E+00
   0.661E+02 -.557E+03 -.563E+04   -.668E+02 0.557E+03 0.563E+04   0.105E+01 -.512E+00 -.112E+01   0.170E-01 -.814E-01 0.484E+00
   -.117E+03 0.270E+03 0.422E+04   0.116E+03 -.269E+03 -.422E+04   0.151E+01 -.236E+00 0.320E+00   0.546E-01 -.166E+00 -.104E+01
   -.885E+02 0.245E+03 -.329E+04   0.876E+02 -.246E+03 0.329E+04   0.896E+00 0.814E+00 -.129E+01   0.136E-01 -.494E-01 0.299E+00
   -.885E+02 0.245E+03 0.481E+03   0.876E+02 -.245E+03 -.480E+03   0.820E+00 0.738E+00 -.822E+00   0.482E-01 -.194E+00 -.323E+00
   -.991E+02 0.389E+03 -.694E+04   0.977E+02 -.385E+03 0.693E+04   0.171E+01 -.263E+01 0.232E+01   -.949E-02 0.508E-01 0.496E+00
   -.250E+03 0.223E+03 0.668E+04   0.248E+03 -.225E+03 -.668E+04   0.135E+01 0.790E+00 0.670E+01   0.156E-01 -.257E+00 -.369E+00
   -.887E+02 0.246E+03 -.404E+03   0.879E+02 -.247E+03 0.403E+03   0.867E+00 0.741E+00 0.104E+01   0.240E-01 -.316E-01 -.246E-01
   -.889E+02 0.243E+03 0.336E+04   0.882E+02 -.244E+03 -.336E+04   0.760E+00 0.129E+01 0.207E+01   0.262E-01 -.126E+00 -.114E+01
   -.901E+02 0.253E+03 -.417E+04   0.889E+02 -.253E+03 0.417E+04   0.119E+01 0.351E+00 0.295E+00   -.433E-02 0.253E-01 0.441E+00
   -.804E+02 -.512E+03 0.566E+04   0.783E+02 0.510E+03 -.566E+04   0.176E+01 0.167E+01 0.210E+01   0.649E-02 0.608E-01 -.761E+00
   0.554E+02 -.514E+03 -.185E+04   -.562E+02 0.514E+03 0.185E+04   0.108E+01 -.992E+00 -.413E-01   0.674E-02 -.433E-01 0.182E+00
   0.568E+02 -.521E+03 0.193E+04   -.577E+02 0.522E+03 -.193E+04   0.117E+01 -.953E+00 0.157E+00   -.483E-02 0.139E+00 -.823E+00
   0.662E+02 -.558E+03 -.563E+04   -.669E+02 0.558E+03 0.563E+04   0.105E+01 -.517E+00 -.112E+01   -.148E-01 0.945E-01 0.493E+00
   -.713E+02 0.279E+03 0.423E+04   0.701E+02 -.279E+03 -.423E+04   0.134E+01 0.277E+00 0.552E+00   0.174E-01 -.188E+00 -.123E+01
   -.884E+02 0.245E+03 -.329E+04   0.876E+02 -.246E+03 0.329E+04   0.896E+00 0.817E+00 -.130E+01   0.800E-02 -.600E-01 0.317E+00
   -.883E+02 0.245E+03 0.481E+03   0.875E+02 -.245E+03 -.480E+03   0.834E+00 0.795E+00 -.870E+00   0.300E-01 -.193E+00 -.326E+00
   -.991E+02 0.389E+03 -.694E+04   0.977E+02 -.385E+03 0.693E+04   0.171E+01 -.263E+01 0.232E+01   -.106E-01 0.381E-01 0.516E+00
   0.799E+02 0.356E+03 0.684E+04   -.800E+02 -.349E+03 -.683E+04   0.819E+00 -.601E+01 -.701E+01   0.147E-01 -.198E+00 -.341E+00
   -.886E+02 0.246E+03 -.404E+03   0.878E+02 -.247E+03 0.403E+03   0.868E+00 0.729E+00 0.101E+01   -.565E-02 -.349E-01 -.166E-01
   -.874E+02 0.245E+03 0.336E+04   0.866E+02 -.245E+03 -.336E+04   0.931E+00 0.815E+00 0.161E+01   0.263E-01 -.130E+00 -.112E+01
   -.901E+02 0.253E+03 -.417E+04   0.889E+02 -.253E+03 0.417E+04   0.119E+01 0.347E+00 0.289E+00   -.412E-02 0.139E-01 0.442E+00
   0.193E+03 -.444E+03 0.569E+04   -.194E+03 0.444E+03 -.569E+04   0.209E+00 0.715E+00 0.378E+01   -.885E-02 -.880E-01 -.859E+00
   0.554E+02 -.514E+03 -.185E+04   -.562E+02 0.514E+03 0.185E+04   0.107E+01 -.993E+00 -.415E-01   0.520E-02 -.181E-01 0.185E+00
   0.567E+02 -.522E+03 0.193E+04   -.576E+02 0.522E+03 -.193E+04   0.113E+01 -.879E+00 0.236E+00   -.387E-01 0.116E+00 -.838E+00
   0.662E+02 -.558E+03 -.563E+04   -.669E+02 0.558E+03 0.563E+04   0.105E+01 -.515E+00 -.112E+01   -.195E-01 0.856E-01 0.484E+00
   0.546E+02 -.748E+02 -.721E+02   -.554E+02 0.756E+02 0.697E+02   0.823E+00 -.116E+01 0.278E+01   0.367E-03 0.766E-01 -.168E-01
   0.526E+02 -.680E+02 0.134E+04   -.536E+02 0.690E+02 -.135E+04   0.773E+00 -.124E+01 0.294E+01   0.432E-01 -.321E-02 -.459E+00
   0.548E+02 -.771E+02 -.149E+04   -.558E+02 0.779E+02 0.148E+04   0.921E+00 -.124E+01 0.221E+01   0.137E-01 -.444E-01 0.176E+00
   0.546E+02 -.822E+02 0.154E+04   -.564E+02 0.839E+02 -.154E+04   0.193E+01 -.183E+01 -.153E+01   0.593E-01 0.732E-01 -.606E+00
   0.545E+02 -.742E+02 -.131E+04   -.553E+02 0.751E+02 0.132E+04   0.705E+00 -.116E+01 -.281E+01   0.610E-02 0.428E-01 0.181E+00
   -.183E+02 0.149E+03 0.228E+04   0.187E+02 -.151E+03 -.228E+04   -.316E+00 0.238E+01 0.394E+01   0.787E-03 -.561E-01 0.700E-01
   0.541E+02 -.735E+02 0.103E+03   -.552E+02 0.745E+02 -.101E+03   0.966E+00 -.130E+01 -.260E+01   0.372E-01 0.364E-01 -.105E+00
   0.579E+02 -.187E+03 -.270E+04   -.587E+02 0.191E+03 0.270E+04   0.395E+00 -.444E+01 -.601E+01   0.716E-02 -.237E-01 0.195E+00
   0.593E+01 0.228E+03 0.210E+04   -.679E+01 -.231E+03 -.210E+04   0.936E+00 0.261E+01 0.563E+00   -.512E-01 -.113E+00 -.314E+00
   0.774E+01 0.171E+03 -.693E+03   -.827E+01 -.174E+03 0.693E+03   0.275E+00 0.286E+01 0.175E-01   0.934E-02 -.110E-01 0.544E-01
   0.801E+01 0.170E+03 0.726E+03   -.846E+01 -.172E+03 -.726E+03   0.113E+00 0.295E+01 -.211E+00   0.304E-01 0.528E-01 -.321E+00
   0.500E+01 0.186E+03 -.211E+04   -.515E+01 -.189E+03 0.211E+04   -.155E-01 0.310E+01 0.421E+00   -.421E-03 0.164E-01 0.168E+00
   0.546E+02 -.748E+02 -.721E+02   -.554E+02 0.756E+02 0.697E+02   0.810E+00 -.116E+01 0.279E+01   -.349E-01 0.548E-01 0.701E-02
   0.540E+02 -.682E+02 0.135E+04   -.548E+02 0.691E+02 -.135E+04   0.831E+00 -.115E+01 0.277E+01   -.419E-01 -.190E-01 -.478E+00
   0.549E+02 -.770E+02 -.149E+04   -.558E+02 0.779E+02 0.148E+04   0.920E+00 -.124E+01 0.221E+01   -.110E-02 -.506E-01 0.177E+00
   0.560E+02 -.821E+02 0.154E+04   -.576E+02 0.841E+02 -.154E+04   0.195E+01 -.197E+01 -.142E+01   -.803E-01 0.390E-01 -.621E+00
   0.546E+02 -.742E+02 -.131E+04   -.553E+02 0.751E+02 0.132E+04   0.700E+00 -.117E+01 -.279E+01   -.224E-01 0.339E-01 0.181E+00
   0.542E+02 -.736E+02 0.103E+03   -.552E+02 0.745E+02 -.101E+03   0.101E+01 -.122E+01 -.275E+01   -.549E-01 0.177E-01 -.108E+00
   0.579E+02 -.187E+03 -.270E+04   -.587E+02 0.191E+03 0.270E+04   0.394E+00 -.444E+01 -.601E+01   0.142E-02 -.255E-01 0.196E+00
   -.624E+01 0.208E+03 0.213E+04   0.573E+01 -.210E+03 -.213E+04   0.638E+00 0.311E+01 -.916E+00   0.118E+00 -.143E+00 -.306E+00
   0.775E+01 0.171E+03 -.693E+03   -.827E+01 -.174E+03 0.693E+03   0.275E+00 0.285E+01 0.344E-01   -.775E-02 -.274E-01 0.514E-01
   0.815E+01 0.170E+03 0.726E+03   -.853E+01 -.172E+03 -.726E+03   0.164E+00 0.296E+01 -.369E+00   -.586E-01 0.348E-01 -.326E+00
   0.500E+01 0.186E+03 -.211E+04   -.515E+01 -.189E+03 0.211E+04   -.161E-01 0.310E+01 0.416E+00   -.292E-02 0.965E-02 0.167E+00
   0.545E+02 -.744E+02 -.728E+02   -.554E+02 0.753E+02 0.705E+02   0.825E+00 -.113E+01 0.267E+01   -.632E-02 -.450E-01 -.351E-02
   0.550E+02 -.800E+02 0.134E+04   -.559E+02 0.810E+02 -.134E+04   0.786E+00 -.129E+01 0.263E+01   -.123E-01 0.325E-01 -.482E+00
   0.549E+02 -.772E+02 -.149E+04   -.559E+02 0.780E+02 0.148E+04   0.919E+00 -.124E+01 0.223E+01   -.169E-01 0.221E-01 0.185E+00
   0.527E+02 -.709E+02 0.152E+04   -.541E+02 0.719E+02 -.152E+04   0.127E+01 -.975E+00 -.321E+01   0.165E-01 -.599E-01 -.450E+00
   0.546E+02 -.741E+02 -.131E+04   -.553E+02 0.750E+02 0.132E+04   0.689E+00 -.116E+01 -.280E+01   -.130E-01 0.832E-02 0.131E+00
   -.513E+01 0.850E+02 0.227E+04   0.556E+01 -.865E+02 -.227E+04   -.152E+00 0.217E+01 0.314E+01   -.618E-02 0.121E+00 0.192E+00
   0.545E+02 -.755E+02 0.102E+03   -.556E+02 0.765E+02 -.999E+02   0.994E+00 -.124E+01 -.268E+01   0.174E-02 -.478E-02 -.952E-01
   0.579E+02 -.187E+03 -.270E+04   -.587E+02 0.191E+03 0.270E+04   0.395E+00 -.444E+01 -.601E+01   -.881E-02 0.237E-01 0.196E+00
   0.505E+01 0.149E+03 0.208E+04   -.576E+01 -.151E+03 -.208E+04   0.849E+00 0.285E+01 0.102E+01   -.303E-01 0.174E+00 -.419E+00
   0.781E+01 0.171E+03 -.693E+03   -.833E+01 -.173E+03 0.693E+03   0.275E+00 0.285E+01 0.559E-01   -.675E-02 -.464E-01 0.114E+00
   0.737E+01 0.172E+03 0.721E+03   -.785E+01 -.174E+03 -.721E+03   0.176E+00 0.291E+01 -.196E+00   0.194E-01 -.944E-01 -.280E+00
   0.495E+01 0.186E+03 -.211E+04   -.510E+01 -.189E+03 0.211E+04   -.165E-01 0.310E+01 0.419E+00   -.208E-02 -.140E-01 0.184E+00
   0.608E+02 -.158E+03 0.263E+04   -.610E+02 0.162E+03 -.263E+04   -.280E+00 -.381E+01 0.605E+01   -.536E-01 -.488E-01 -.829E-01
   0.545E+02 -.744E+02 -.729E+02   -.554E+02 0.753E+02 0.705E+02   0.817E+00 -.115E+01 0.273E+01   0.152E-01 -.407E-01 0.477E-02
   0.564E+02 -.801E+02 0.134E+04   -.571E+02 0.812E+02 -.134E+04   0.715E+00 -.131E+01 0.254E+01   -.129E-01 0.493E-01 -.502E+00
   0.549E+02 -.772E+02 -.149E+04   -.559E+02 0.780E+02 0.148E+04   0.918E+00 -.124E+01 0.223E+01   0.207E-02 0.303E-01 0.180E+00
   0.532E+02 -.700E+02 0.150E+04   -.553E+02 0.720E+02 -.150E+04   0.224E+01 -.219E+01 -.995E+00   0.139E-02 -.514E-01 -.447E+00
   0.545E+02 -.741E+02 -.131E+04   -.553E+02 0.750E+02 0.132E+04   0.698E+00 -.117E+01 -.278E+01   0.239E-02 0.156E-01 0.135E+00
   0.125E+02 0.791E+02 0.228E+04   -.121E+02 -.803E+02 -.228E+04   -.119E+00 0.191E+01 0.332E+01   -.160E-01 0.104E+00 0.170E+00
   0.546E+02 -.755E+02 0.102E+03   -.556E+02 0.765E+02 -.999E+02   0.102E+01 -.127E+01 -.270E+01   -.159E-01 0.318E-02 -.884E-01
   0.579E+02 -.187E+03 -.270E+04   -.587E+02 0.191E+03 0.270E+04   0.395E+00 -.444E+01 -.601E+01   -.152E-02 0.258E-01 0.195E+00
   0.187E+02 0.162E+03 0.208E+04   -.193E+02 -.164E+03 -.209E+04   0.646E+00 0.232E+01 0.738E+00   -.338E-01 0.179E+00 -.418E+00
   0.779E+01 0.171E+03 -.693E+03   -.833E+01 -.173E+03 0.693E+03   0.282E+00 0.285E+01 0.358E-01   0.151E-01 -.343E-01 0.111E+00
   0.788E+01 0.172E+03 0.721E+03   -.835E+01 -.175E+03 -.721E+03   0.230E+00 0.290E+01 -.225E+00   0.104E-02 -.680E-01 -.284E+00
   0.495E+01 0.186E+03 -.211E+04   -.511E+01 -.189E+03 0.211E+04   -.169E-01 0.310E+01 0.419E+00   0.341E-02 -.710E-02 0.183E+00
 -----------------------------------------------------------------------------------------------
   -.885E+02 -.195E+01 -.499E+01   0.381E-12 -.588E-11 -.136E-11   0.886E+02 0.147E+01 0.201E+02   -.226E+00 0.563E+00 -.150E+02
 
 
 POSITION                                       TOTAL-FORCE (eV/Angst)
 -----------------------------------------------------------------------------------
      1.58120      0.48447      4.44331         0.026532     -0.075490      0.055277
      1.58120      0.48447     14.02172         0.095093      0.160672     -0.316122
      0.03892      3.00675      9.23251         0.044869      0.231993     -0.323471
      0.03892      3.00675     18.81092         0.281248      0.792855     -1.242429
      1.58120      0.48447      1.91264        -0.132830     -1.568655      0.112702
      1.58120      0.48447     11.49105         0.073229      0.156068      0.333399
      0.03892      3.00675      6.70184         0.099334      0.097395      0.521394
      0.03892      3.00675     16.28025         0.013245      0.323186      0.081001
      1.17372      2.63788      3.17797        -0.393265      0.224390      1.410453
      1.17372      2.63788     12.75638         0.239998     -0.310787      0.000267
      2.71599      5.74383      7.96718         0.245960     -0.310088      0.072257
      2.71599      5.74383     17.54559         0.344760     -0.502240     -0.336949
      4.66574      1.06813      4.44331         0.049652      0.023595      0.019586
      4.66574      1.06813     14.02172         0.094991      0.160656     -0.315290
      3.12347      3.59042      9.23251         0.035963      0.224183     -0.336393
      3.12347      3.59042     18.81092         0.281269      0.792845     -1.242723
      4.66574      1.06813      1.91264        -0.111790     -1.551450      0.020503
      4.66574      1.06813     11.49105         0.072157      0.159988      0.338320
      3.12347      3.59042      6.70184         0.093336      0.110310      0.438778
      3.12347      3.59042     16.28025         0.013472      0.324224      0.080189
      4.25826      3.22155      3.17797        -0.328091      0.080722      1.479432
      4.25826      3.22155     12.75638         0.238563     -0.316331      0.001080
      5.80053      6.32750      7.96718         0.252398     -0.348174      0.060284
      5.80053      6.32750     17.54559         0.344795     -0.502717     -0.337334
      1.58120      6.11270      4.44331        -0.069489      0.105867      0.043364
      1.58120      6.11270     14.02172         0.095081      0.159818     -0.314932
      0.03892      8.63498      9.23251         0.025417      0.220616     -0.345651
      0.03892      8.63498     18.81092         0.281567      0.791625     -1.241764
      1.58120      6.11270      1.91264        -0.482538     -1.170588     -0.724694
      1.58120      6.11270     11.49105         0.070099      0.154770      0.329665
      0.03892      8.63498      6.70184         0.094108      0.082995      0.449648
      0.03892      8.63498     16.28025         0.012739      0.323085      0.084026
      1.17372      8.26611      3.17797        -0.370439      0.021386      0.865088
      1.17372      8.26611     12.75638         0.234533     -0.317055     -0.000151
      2.71599     11.37206      7.96718         0.234029     -0.370240      0.048174
      2.71599     11.37206     17.54559         0.345276     -0.503756     -0.337330
      4.66574      6.69637      4.44331         0.186243      0.017187      0.062787
      4.66574      6.69637     14.02172         0.095317      0.159953     -0.315832
      3.12347      9.21865      9.23251         0.029852      0.200823     -0.370450
      3.12347      9.21865     18.81092         0.281889      0.791813     -1.242687
      4.66574      6.69637      1.91264         0.777796     -0.068757      1.230982
      4.66574      6.69637     11.49105         0.079433      0.162307      0.328210
      3.12347      9.21865      6.70184         0.101764      0.216661      0.471840
      3.12347      9.21865     16.28025         0.013337      0.323688      0.083584
      4.25826      8.84978      3.17797        -0.071050     -0.037695      0.669596
      4.25826      8.84978     12.75638         0.238428     -0.314655     -0.004263
      5.80053     11.95573      7.96718         0.247540     -0.373390      0.044349
      5.80053     11.95573     17.54559         0.344930     -0.503373     -0.337949
      2.88963      2.42231     11.14515        -0.058170     -0.284417      0.397219
      1.34735      4.94459      6.35595        -0.107548     -0.318424      0.248210
      1.34735      4.94459     15.93436        -0.070775     -0.395410      0.597922
      2.88963      2.42231      4.78920         0.192657     -0.041758     -1.726462
      2.88963      2.42231     14.36761        -0.080262     -0.205858     -0.344260
      1.34735      4.94459      0.00000        -0.001906      0.741686      1.384082
      1.34735      4.94459      9.57841        -0.044004     -0.274571     -0.437975
      1.34735      4.94459     19.15682        -0.406821     -0.851761      0.250270
      0.32395      4.72480      3.17797         0.021321     -0.072426     -0.451061
      0.32395      4.72480     12.75638        -0.242018      0.505984     -0.025139
      1.86622      2.20252      7.96718        -0.303521      0.537688     -0.077092
      1.86622      2.20252     17.54559        -0.173180      0.622426      0.863975
      5.97417      3.00598     11.14515        -0.068936     -0.287978      0.402071
      4.43190      5.52826      6.35595        -0.033449     -0.239996      0.157172
      4.43190      5.52826     15.93436        -0.070531     -0.394924      0.596723
      5.97417      3.00598      4.78920         0.226171      0.092034     -1.704272
      5.97417      3.00598     14.36761        -0.081360     -0.205642     -0.340704
      4.43190      5.52826      9.57841        -0.049485     -0.290084     -0.447341
      4.43190      5.52826     19.15682        -0.406751     -0.852043      0.250597
      3.40849      5.30847      3.17797         0.241025      0.496723     -1.336121
      3.40849      5.30847     12.75638        -0.247482      0.504719     -0.021533
      4.95076      2.78618      7.96718        -0.274794      0.571373     -0.099140
      4.95076      2.78618     17.54559        -0.173047      0.622387      0.863508
      2.88963      8.05054     11.14515        -0.052174     -0.283790      0.399965
      1.34735     10.57282      6.35595        -0.101464     -0.258991      0.197933
      1.34735     10.57282     15.93436        -0.072193     -0.395682      0.598423
      2.88963      8.05054      4.78920        -0.064882     -0.053309     -1.604101
      2.88963      8.05054     14.36761        -0.082111     -0.203728     -0.341900
      1.34735     10.57282      0.00000         0.265298      0.845685      0.806496
      1.34735     10.57282      9.57841        -0.040993     -0.262124     -0.447070
      1.34735     10.57282     19.15682        -0.407137     -0.850859      0.250293
      0.32395     10.35303      3.17797         0.111007      1.157638     -0.644390
      0.32395     10.35303     12.75638        -0.248268      0.501494     -0.021933
      1.86622      7.83075      7.96718        -0.284463      0.520490     -0.013745
      1.86622      7.83075     17.54559        -0.173225      0.621049      0.862854
      5.97417      8.63421      1.56674        -0.522663     -0.350536      0.113338
      5.97417      8.63421     11.14515        -0.057368     -0.287419      0.416883
      4.43190     11.15649      6.35595        -0.029971     -0.204179      0.222622
      4.43190     11.15649     15.93436        -0.070981     -0.395078      0.598143
      5.97417      8.63421      4.78920         0.156332     -0.179344     -0.618007
      5.97417      8.63421     14.36761        -0.079713     -0.200091     -0.337735
      4.43190     11.15649      0.00000         0.329482      0.784406      0.867986
      4.43190     11.15649      9.57841        -0.042521     -0.275188     -0.420668
      4.43190     11.15649     19.15682        -0.406927     -0.850781      0.250678
      3.40849     10.93670      3.17797        -0.017176      0.549575     -0.946064
      3.40849     10.93670     12.75638        -0.248051      0.504720     -0.023489
      4.95076      8.41442      7.96718        -0.244806      0.514230     -0.078927
      4.95076      8.41442     17.54559        -0.172914      0.621846      0.861945
 -----------------------------------------------------------------------------------
    total drift:                               -0.105602      0.090079      0.157932


--------------------------------------------------------------------------------------------------------



  FREE ENERGIE OF THE ION-ELECTRON SYSTEM (eV)
  ---------------------------------------------------
  free  energy   TOTEN  =      -480.98359976 eV

  energy  without entropy=     -479.62533633  energy(sigma->0) =     -480.30446804
 


--------------------------------------------------------------------------------------------------------


    POTLOK:  cpu time    0.0579: real time    0.0582


--------------------------------------------------------------------------------------------------------


     LOOP+:  cpu time  164.1156: real time  164.5845
    4ORBIT:  cpu time    0.0000: real time    0.0000

 total amount of memory used by VASP MPI-rank0    48492. kBytes
=======================================================================

   base      :      30000. kBytes
   nonlr-proj:       3251. kBytes
   fftplans  :       3676. kBytes
   grid      :       6629. kBytes
   one-center:        124. kBytes
   wavefun   :       4812. kBytes
 
  
  
 General timing and accounting informations for this job:
 ========================================================
  
                  Total CPU time used (sec):      166.598
                            User time (sec):      165.342
                          System time (sec):        1.256
                         Elapsed time (sec):      167.542
  
                   Maximum memory used (kb):      242288.
                   Average memory used (kb):           0.
  
                          Minor page faults:       168070
                          Major page faults:            0
                 Voluntary context switches:          999
