 vasp.6.1.0 28Jan20 (build Mar 31 2020 17:42:31) gamma-only                     
  
 executed on             LinuxIFC date 2020.04.12  16:02:14
 running on   48 total cores
 distrk:  each k-point on   48 cores,    1 groups
 distr:  one band on NCORE=   6 cores,    8 groups


--------------------------------------------------------------------------------------------------------


 INCAR:
 POTCAR:    PAW_PBE Ni_pv 06Sep2000               
 POTCAR:    PAW_PBE S 06Sep2000                   
 POTCAR:    PAW_PBE Ni_pv 06Sep2000               
   VRHFIN =Ni:                                                                                      
   LEXCH  = PE                                                                                      
   EATOM  =  3501.1230 eV,  257.3253 Ry                                                             
                                                                                                    
   TITEL  = PAW_PBE Ni_pv 06Sep2000                                                                 
   LULTRA =        F    use ultrasoft PP ?                                                          
   IUNSCR =        1    unscreen: 0-lin 1-nonlin 2-no                                               
   RPACOR =    1.500    partial core radius                                                         
   POMASS =   58.690; ZVAL   =   16.000    mass and valenz                                          
   RCORE  =    2.000    outmost cutoff radius                                                       
   RWIGS  =    2.000; RWIGS  =    1.058    wigner-seitz radius (au A)                               
   ENMAX  =  367.986; ENMIN  =  275.989 eV                                                          
   RCLOC  =    1.301    cutoff for local pot                                                        
   LCOR   =        T    correct aug charges                                                         
   LPAW   =        T    paw PP                                                                      
   EAUG   =  703.443                                                                                
   DEXC   =    0.000                                                                                
   RMAX   =    2.041    core radius for proj-oper                                                   
   RAUG   =    1.300    factor for augmentation sphere                                              
   RDEP   =    2.103    radius for radial grids                                                     
   RDEPT  =    1.618    core radius for aug-charge                                                  
                                                                                                    
   Atomic configuration                                                                             
    8 entries                                                                                       
     n  l   j            E        occ.                                                              
     1  0  0.50     -8206.4253   2.0000                                                             
     2  0  0.50      -976.1748   2.0000                                                             
     2  1  1.50      -839.0571   6.0000                                                             
     3  0  0.50      -105.9991   2.0000                                                             
     3  1  1.50       -66.4603   6.0000                                                             
     3  2  2.50        -4.6458   9.0000                                                             
     4  0  0.50        -4.4926   1.0000                                                             
     4  3  2.50        -1.3606   0.0000                                                             
   Description                                                                                      
     l       E           TYP  RCUT    TYP  RCUT                                                     
     1    -66.4602962     23  1.700                                                                 
     1     -1.3605826     23  1.700                                                                 
     2     -4.6457867     23  2.000                                                                 
     2     -6.0063693     23  2.000                                                                 
     0     -4.4925576     23  1.900                                                                 
     0     16.3626226     23  1.900                                                                 
  local pseudopotential read in
  partial core-charges read in
  partial kinetic energy density read in
  atomic valenz-charges read in
  non local Contribution for L=           1  read in
    real space projection operators read in
  non local Contribution for L=           1  read in
    real space projection operators read in
  non local Contribution for L=           2  read in
    real space projection operators read in
  non local Contribution for L=           2  read in
    real space projection operators read in
  non local Contribution for L=           0  read in
    real space projection operators read in
  non local Contribution for L=           0  read in
    real space projection operators read in
    PAW grid and wavefunctions read in
 
   number of l-projection  operators is LMAX  =           6
   number of lm-projection operators is LMMAX =          18
 
 POTCAR:    PAW_PBE S 06Sep2000                   
   VRHFIN =S : s2p4                                                                                 
   LEXCH  = PE                                                                                      
   EATOM  =   276.8230 eV,   20.3459 Ry                                                             
                                                                                                    
   TITEL  = PAW_PBE S 06Sep2000                                                                     
   LULTRA =        F    use ultrasoft PP ?                                                          
   IUNSCR =        1    unscreen: 0-lin 1-nonlin 2-no                                               
   RPACOR =    1.500    partial core radius                                                         
   POMASS =   32.066; ZVAL   =    6.000    mass and valenz                                          
   RCORE  =    1.900    outmost cutoff radius                                                       
   RWIGS  =    2.200; RWIGS  =    1.164    wigner-seitz radius (au A)                               
   ENMAX  =  258.689; ENMIN  =  194.016 eV                                                          
   ICORE  =        2    local potential                                                             
   LCOR   =        T    correct aug charges                                                         
   LPAW   =        T    paw PP                                                                      
   EAUG   =  335.092                                                                                
   DEXC   =    0.000                                                                                
   RMAX   =    1.942    core radius for proj-oper                                                   
   RAUG   =    1.300    factor for augmentation sphere                                              
   RDEP   =    1.954    radius for radial grids                                                     
   RDEPT  =    1.744    core radius for aug-charge                                                  
                                                                                                    
   Atomic configuration                                                                             
    6 entries                                                                                       
     n  l   j            E        occ.                                                              
     1  0  0.50     -2405.8406   2.0000                                                             
     2  0  0.50      -211.7007   2.0000                                                             
     2  1  1.50      -156.4958   6.0000                                                             
     3  0  0.50       -17.2562   2.0000                                                             
     3  1  0.50        -7.0085   4.0000                                                             
     3  2  1.50        -6.8029   0.0000                                                             
   Description                                                                                      
     l       E           TYP  RCUT    TYP  RCUT                                                     
     0    -17.2561641     23  1.900                                                                 
     0    -15.8743224     23  1.900                                                                 
     1     -7.0085400     23  1.900                                                                 
     1     -2.7779785     23  1.900                                                                 
     2     -6.8029130     23  1.900                                                                 
  local pseudopotential read in
  partial core-charges read in
  partial kinetic energy density read in
  atomic valenz-charges read in
  non local Contribution for L=           0  read in
    real space projection operators read in
  non local Contribution for L=           0  read in
    real space projection operators read in
  non local Contribution for L=           1  read in
    real space projection operators read in
  non local Contribution for L=           1  read in
    real space projection operators read in
    PAW grid and wavefunctions read in
 
   number of l-projection  operators is LMAX  =           4
   number of lm-projection operators is LMMAX =           8
 
 Optimization of the real space projectors (new method)

 maximal supplied QI-value         = 18.90
 optimisation between [QCUT,QGAM] = [ 10.77, 21.73] = [ 32.49,132.25] Ry 
 Optimized for a Real-space Cutoff    1.38 Angstroem

   l    n(q)    QCUT    max X(q) W(low)/X(q) W(high)/X(q)  e(spline) 
   1      8    10.771     2.836    0.40E-04    0.29E-04    0.12E-06
   1      8    10.771     4.023    0.10E-03    0.48E-04    0.29E-06
   2      8    10.771    73.368    0.42E-03    0.97E-04    0.44E-06
   2      8    10.771    69.010    0.42E-03    0.99E-04    0.45E-06
   0      9    10.771    54.797    0.10E-03    0.56E-04    0.74E-07
   0      9    10.771    24.266    0.89E-04    0.49E-04    0.67E-07
 Optimization of the real space projectors (new method)

 maximal supplied QI-value         = 19.84
 optimisation between [QCUT,QGAM] = [ 10.71, 21.63] = [ 32.15,130.99] Ry 
 Optimized for a Real-space Cutoff    1.19 Angstroem

   l    n(q)    QCUT    max X(q) W(low)/X(q) W(high)/X(q)  e(spline) 
   0      8    10.715   187.594    0.41E-03    0.53E-04    0.66E-07
   0      8    10.715   164.243    0.41E-03    0.53E-04    0.65E-07
   1      7    10.715    67.533    0.19E-03    0.59E-03    0.68E-07
   1      7    10.715    50.729    0.19E-03    0.58E-03    0.67E-07
  PAW_PBE Ni_pv 06Sep2000               :
 energy of atom  1       EATOM=-3501.1230
 kinetic energy error for atom=    0.0925 (will be added to EATOM!!)
  PAW_PBE S 06Sep2000                   :
 energy of atom  2       EATOM= -276.8230
 kinetic energy error for atom=    0.0033 (will be added to EATOM!!)
 
 
 POSCAR: Structure 27 made from -121-6.xsd file
  positions in direct lattice
  No initial velocities read in
 exchange correlation table for  LEXCH =        8
   RHO(1)=    0.500       N(1)  =     2000
   RHO(2)=  100.500       N(2)  =     4000
 


--------------------------------------------------------------------------------------------------------


 ion  position               nearest neighbor table
   1  0.374  0.751  0.095-  41 2.25  49 2.26  61 2.26  62 2.36  50 2.36  26 2.53  14 2.53
   2  0.525  0.601  0.223-  42 2.25  50 2.26  62 2.26  63 2.36  51 2.36  15 2.53  27 2.53
   3  0.675  0.451  0.351-  43 2.25  63 2.26  51 2.26  64 2.36  52 2.36  28 2.53  16 2.53
   4  0.825  0.301  0.479-  64 2.26  52 2.26  65 2.36  13 2.53  25 2.53
   5  0.607  0.185  0.010-  45 2.25  67 2.36  53 2.36
   6  0.758  0.035  0.138-  46 2.25  53 2.26  67 2.26  54 2.36  68 2.36  29 2.53  20 2.53
   7  0.058  0.734  0.394-  48 2.25  66 2.26  55 2.26  56 2.36  18 2.53  31 2.53
   8  0.908  0.884  0.266-  47 2.25  54 2.26  68 2.26  55 2.36  66 2.36  30 2.53  17 2.53
   9  0.141  0.318  0.180-  40 2.25  57 2.26  69 2.26  70 2.36  58 2.36  34 2.53  21 2.53
  10  0.291  0.168  0.308-  37 2.25  58 2.26  70 2.26  59 2.36  71 2.36  35 2.53  22 2.53
  11  0.442  0.017  0.436-  38 2.25  71 2.26  59 2.26  72 2.36  23 2.53  36 2.53
  12  0.991  0.468  0.052-  39 2.25  60 2.26  57 2.36  69 2.36  33 2.53
  13  0.010  0.116  0.412-  55 2.25  64 2.26  37 2.26  65 2.36  38 2.36  25 2.53   4 2.53
  14  0.559  0.567  0.027-  61 2.26  62 2.36  39 2.36  26 2.53   1 2.53
  15  0.709  0.416  0.155-  53 2.25  39 2.26  62 2.26  40 2.36  63 2.36  27 2.53   2 2.53
  16  0.860  0.266  0.283-  54 2.25  63 2.26  40 2.26  37 2.36  64 2.36   3 2.53  28 2.53
  17  0.093  0.700  0.198-  57 2.25  41 2.26  68 2.26  42 2.36  66 2.36  30 2.53   8 2.53
  18  0.243  0.549  0.326-  58 2.25  66 2.26  42 2.26  43 2.36   7 2.53  31 2.53
  19  0.393  0.399  0.454-  59 2.25  43 2.26  32 2.53
  20  0.943  0.850  0.070-  60 2.25  67 2.26  44 2.26  68 2.36  41 2.36   6 2.53  29 2.53
  21  0.326  0.133  0.113-  49 2.25  45 2.26  69 2.26  70 2.36  46 2.36  34 2.53   9 2.53
  22  0.476  0.983  0.241-  50 2.25  70 2.26  46 2.26  47 2.36  71 2.36  35 2.53  10 2.53
  23  0.627  0.833  0.369-  51 2.25  71 2.26  47 2.26  48 2.36  72 2.36  36 2.53  11 2.53
  24  0.777  0.682  0.497-  52 2.25  72 2.26  48 2.26
  25  0.050  0.340  0.445-  52 2.26  37 2.26  38 2.36  13 2.53   4 2.53
  26  0.599  0.791  0.061-  67 2.25  49 2.26  39 2.36  50 2.36  14 2.53   1 2.53
  27  0.749  0.641  0.189-  68 2.25  50 2.26  39 2.26  40 2.36  51 2.36  15 2.53   2 2.53
  28  0.899  0.491  0.317-  66 2.25  51 2.26  40 2.26  52 2.36  37 2.36   3 2.53  16 2.53
  29  0.982  0.074  0.104-  69 2.25  44 2.26  53 2.26  41 2.36  54 2.36   6 2.53  20 2.53
  30  0.133  0.924  0.232-  70 2.25  54 2.26  41 2.26  55 2.36  42 2.36   8 2.53  17 2.53
  31  0.283  0.774  0.360-  71 2.25  55 2.26  42 2.26  43 2.36  56 2.36   7 2.53  18 2.53
  32  0.433  0.624  0.488-  72 2.25  56 2.26  43 2.26  19 2.53
  33  0.215  0.508  0.019-  61 2.25  60 2.26  45 2.36  57 2.36  12 2.53
  34  0.366  0.358  0.147-  62 2.25  45 2.26  57 2.26  46 2.36  58 2.36  21 2.53   9 2.53
  35  0.516  0.207  0.275-  63 2.25  58 2.26  46 2.26  47 2.36  59 2.36  10 2.53  22 2.53
  36  0.666  0.057  0.403-  64 2.25  59 2.26  47 2.26  48 2.36  23 2.53  11 2.53
  37  0.064  0.262  0.341-  10 2.25  13 2.26  25 2.26  16 2.36  28 2.36
  38  0.214  0.112  0.469-  11 2.25  25 2.36  13 2.36
  39  0.763  0.563  0.085-  12 2.25  15 2.26  27 2.26  14 2.36  26 2.36
  40  0.914  0.412  0.213-   9 2.25  16 2.26  28 2.26  27 2.36  15 2.36
  41  0.147  0.846  0.128-   1 2.25  17 2.26  30 2.26  20 2.36  29 2.36
  42  0.297  0.696  0.256-   2 2.25  31 2.26  18 2.26  30 2.36  17 2.36
  43  0.447  0.545  0.384-   3 2.25  32 2.26  19 2.26  31 2.36  18 2.36
  44  0.996  0.996  0.000-  29 2.26  20 2.26
  45  0.380  0.279  0.043-   5 2.25  34 2.26  21 2.26  33 2.36
  46  0.530  0.129  0.171-   6 2.25  22 2.26  35 2.26  34 2.36  21 2.36
  47  0.680  0.979  0.299-   8 2.25  23 2.26  36 2.26  35 2.36  22 2.36
  48  0.831  0.829  0.427-   7 2.25  24 2.26  23 2.36  36 2.36
  49  0.378  0.948  0.043-  21 2.25  26 2.26   1 2.26
  50  0.528  0.798  0.171-  22 2.25  27 2.26   2 2.26   1 2.36  26 2.36
  51  0.678  0.648  0.299-  23 2.25  28 2.26   3 2.26  27 2.36   2 2.36
  52  0.829  0.497  0.427-  24 2.25   4 2.26  25 2.26  28 2.36   3 2.36
  53  0.761  0.231  0.086-  15 2.25  29 2.26   6 2.26   5 2.36
  54  0.911  0.081  0.214-  16 2.25   8 2.26  30 2.26   6 2.36  29 2.36
  55  0.062  0.931  0.342-  13 2.25  31 2.26   7 2.26  30 2.36   8 2.36
  56  0.212  0.781  0.470-  32 2.26  31 2.36   7 2.36
  57  0.145  0.515  0.129-  17 2.25  34 2.26   9 2.26  12 2.36  33 2.36
  58  0.295  0.364  0.257-  18 2.25  10 2.26  35 2.26   9 2.36  34 2.36
  59  0.445  0.214  0.385-  19 2.25  36 2.26  11 2.26  35 2.36  10 2.36
  60  0.994  0.665  0.001-  20 2.25  33 2.26  12 2.26
  61  0.327  0.662  0.000-  33 2.25  14 2.26   1 2.26
  62  0.477  0.512  0.128-  34 2.25  15 2.26   2 2.26   1 2.36  14 2.36
  63  0.628  0.362  0.256-  35 2.25   3 2.26  16 2.26   2 2.36  15 2.36
  64  0.778  0.212  0.384-  36 2.25   4 2.26  13 2.26  16 2.36   3 2.36
  65  0.928  0.061  0.512-  13 2.36   4 2.36
  66  0.011  0.645  0.299-  28 2.25   7 2.26  18 2.26   8 2.36  17 2.36
  67  0.711  0.946  0.043-  26 2.25  20 2.26   6 2.26   5 2.36
  68  0.861  0.795  0.171-  27 2.25  17 2.26   8 2.26   6 2.36  20 2.36
  69  0.094  0.229  0.086-  29 2.25  21 2.26   9 2.26  12 2.36
  70  0.244  0.079  0.214-  30 2.25  22 2.26  10 2.26   9 2.36  21 2.36
  71  0.395  0.928  0.342-  31 2.25  11 2.26  23 2.26  10 2.36  22 2.36
  72  0.545  0.778  0.470-  32 2.25  24 2.26  11 2.36  23 2.36
 
  LATTYP: Found a base centered orthorhombic cell.
 ALAT       =    11.4527836704
 B/A-ratio  =     1.4485816945
 C/A-ratio  =     1.7908432109
  
  Lattice vectors:
  
 A1 = (   9.4251025535,   3.5732980427,   0.0000000000)
 A2 = (   0.0000000000, -10.0797329849,   0.0000000000)
 A3 = (   0.0000000000,   0.0000000000, -20.5101398818)


Analysis of symmetry for initial positions (statically):
=====================================================================
 Subroutine PRICEL returns:
 Original cell was already a primitive cell.
 

 Routine SETGRP: Setting up the symmetry group for a 
 base centered orthorhombic supercell.


 Subroutine GETGRP returns: Found  1 space group operations
 (whereof  1 operations were pure point group operations)
 out of a pool of  8 trial point group operations.


The static configuration has the point symmetry C_1 .


Analysis of symmetry for dynamics (positions and initial velocities):
=====================================================================
 Subroutine PRICEL returns:
 Original cell was already a primitive cell.
 

 Routine SETGRP: Setting up the symmetry group for a 
 base centered orthorhombic supercell.


 Subroutine GETGRP returns: Found  1 space group operations
 (whereof  1 operations were pure point group operations)
 out of a pool of  8 trial point group operations.


The dynamic configuration has the point symmetry C_1 .


 Subroutine INISYM returns: Found  1 space group operations
 (whereof  1 operations are pure point group operations),
 and found     1 'primitive' translations


----------------------------------------------------------------------------------------

                                     Primitive cell                                     

  volume of cell :    1948.5149

  direct lattice vectors                    reciprocal lattice vectors
     9.425102554  3.573298043  0.000000000     0.106099641  0.000000000  0.000000000
     0.000000000 10.079732985  0.000000000    -0.037612667  0.099208977  0.000000000
     0.000000000  0.000000000 20.510139882     0.000000000  0.000000000  0.048756372

  length of vectors
    10.079732985 10.079732985 20.510139882     0.106099641  0.106099641  0.048756372

  position of ions in fractional coordinates (direct lattice)
     0.374332151  0.751362196  0.095112347
     0.524600663  0.601093683  0.223122317
     0.674869176  0.450825171  0.351132287
     0.825137688  0.300556659  0.479142257
     0.607486476  0.184874537  0.009772366
     0.757754989  0.034606025  0.137782337
     0.058292013  0.734069000  0.393802277
     0.908023501  0.884337513  0.265792307
     0.141177826  0.317849854  0.180452327
     0.291446338  0.167581342  0.308462297
     0.441714851  0.017312829  0.436472267
     0.990909314  0.468118367  0.052442357
     0.009940003  0.115754344  0.411500253
     0.559134466  0.566559881  0.027470342
     0.709402978  0.416291369  0.155480312
     0.859671491  0.266022856  0.283490283
     0.092825816  0.699535198  0.198150302
     0.243094328  0.549266685  0.326160273
     0.393362841  0.398998173  0.454170243
     0.942557303  0.849803710  0.070140332
     0.325980141  0.133047539  0.112810322
     0.476248653  0.982779027  0.240820292
     0.626517166  0.832510515  0.368830263
     0.776785678  0.682242002  0.496840233
     0.049641846  0.340258501  0.445321255
     0.598836308  0.791064038  0.061291344
     0.749104821  0.640795526  0.189301315
     0.899373333  0.490527014  0.317311285
     0.982259146  0.074307868  0.103961334
     0.132527658  0.924039355  0.231971305
     0.282796171  0.773770843  0.359981275
     0.433064683  0.623502330  0.487991245
     0.215413471  0.507820209  0.018621354
     0.365681983  0.357551697  0.146631324
     0.515950496  0.207283184  0.274641295
     0.666219008  0.057014672  0.402651265
     0.063821577  0.262084769  0.341359920
     0.214090090  0.111816257  0.469369891
     0.763284553  0.562621794  0.085339980
     0.913553065  0.412353282  0.213349950
     0.146707390  0.845865623  0.128009970
     0.296975903  0.695597111  0.256019940
     0.447244415  0.545328599  0.384029910
     0.996438878  0.996134136  0.000000000
     0.379861715  0.279377965  0.042669990
     0.530130228  0.129109453  0.170679960
     0.680398740  0.978840940  0.298689930
     0.830667252  0.828572428  0.426699900
     0.377695711  0.948210635  0.043462798
     0.527964224  0.797942123  0.171472769
     0.678232736  0.647673611  0.299482739
     0.828501249  0.497405098  0.427492709
     0.761118549  0.231454465  0.086132789
     0.911387061  0.081185952  0.214142759
     0.061655574  0.930917440  0.342152729
     0.211924086  0.780648927  0.470162699
     0.144541386  0.514698294  0.128802779
     0.294809899  0.364429781  0.256812749
     0.445078411  0.214161269  0.384822719
     0.994272874  0.664966806  0.000792808
     0.327140876  0.662335471  0.000396404
     0.477409388  0.512066959  0.128406374
     0.627677901  0.361798446  0.256416345
     0.777946413  0.211529934  0.384426315
     0.928214925  0.061261421  0.512436285
     0.011100738  0.645042275  0.299086335
     0.710563713  0.945579300  0.043066394
     0.860832226  0.795310788  0.171076364
     0.093986551  0.228823129  0.085736384
     0.244255063  0.078554617  0.213746354
     0.394523576  0.928286105  0.341756325
     0.544792088  0.778017592  0.469766295

  ion indices of the primitive-cell ions
   primitive index   ion index
                 1           1
                 2           2
                 3           3
                 4           4
                 5           5
                 6           6
                 7           7
                 8           8
                 9           9
                10          10
                11          11
                12          12
                13          13
                14          14
                15          15
                16          16
                17          17
                18          18
                19          19
                20          20
                21          21
                22          22
                23          23
                24          24
                25          25
                26          26
                27          27
                28          28
                29          29
                30          30
                31          31
                32          32
                33          33
                34          34
                35          35
                36          36
                37          37
                38          38
                39          39
                40          40
                41          41
                42          42
                43          43
                44          44
                45          45
                46          46
                47          47
                48          48
                49          49
                50          50
                51          51
                52          52
                53          53
                54          54
                55          55
                56          56
                57          57
                58          58
                59          59
                60          60
                61          61
                62          62
                63          63
                64          64
                65          65
                66          66
                67          67
                68          68
                69          69
                70          70
                71          71
                72          72

----------------------------------------------------------------------------------------

 
 
 KPOINTS: gamma-point-only calculation. no periodi

Automatic generation of k-mesh.
Space group operators:
 irot       det(A)        alpha          n_x          n_y          n_z        tau_x        tau_y        tau_z
    1     1.000000     0.000000     1.000000     0.000000     0.000000     0.000000     0.000000     0.000000
 
 Subroutine IBZKPT returns following result:
 ===========================================
 
 Found      1 irreducible k-points:
 
 Following reciprocal coordinates:
            Coordinates               Weight
  0.000000  0.000000  0.000000      1.000000
 
 Following cartesian coordinates:
            Coordinates               Weight
  0.000000  0.000000  0.000000      1.000000
 


--------------------------------------------------------------------------------------------------------




 Dimension of arrays:
   k-points           NKPTS =      1   k-points in BZ     NKDIM =      1   number of bands    NBANDS=    480
   number of dos      NEDOS =    301   number of ions     NIONS =     72
   non local maximal  LDIM  =      6   non local SUM 2l+1 LMDIM =     18
   total plane-waves  NPLWV = 314928
   max r-space proj   IRMAX =   1832   max aug-charges    IRDMAX=   5291
   dimension x,y,z NGX =    54 NGY =   54 NGZ =  108
   dimension x,y,z NGXF=   108 NGYF=  108 NGZF=  216
   support grid    NGXF=   108 NGYF=  108 NGZF=  216
   ions per type =              36  36
   NGX,Y,Z   is equivalent  to a cutoff of   8.91,  8.91,  8.75 a.u.
   NGXF,Y,Z  is equivalent  to a cutoff of  17.81, 17.81, 17.51 a.u.

 SYSTEM =  "Millerite NiS"                         
 POSCAR =  Structure 27 made from -121-6.xsd file  

 Startparameter for this run:
   NWRITE =      2    write-flag & timer
   PREC   = normal    normal or accurate (medium, high low for compatibility)
   ISTART =      0    job   : 0-new  1-cont  2-samecut
   ICHARG =      2    charge: 1-file 2-atom 10-const
   ISPIN  =      1    spin polarized calculation?
   LNONCOLLINEAR =      F non collinear calculations
   LSORBIT =      F    spin-orbit coupling
   INIWAV =      1    electr: 0-lowe 1-rand  2-diag
   LASPH  =      F    aspherical Exc in radial PAW
   METAGGA=      F    non-selfconsistent MetaGGA calc.

 Electronic Relaxation 1
   ENCUT  =  450.0 eV  33.07 Ry    5.75 a.u.  17.43 17.43 35.48*2*pi/ulx,y,z
   ENINI  =  450.0     initial cutoff
   ENAUG  =  703.4 eV  augmentation charge cutoff
   NELM   =    100;   NELMIN=  2; NELMDL= -5     # of ELM steps 
   EDIFF  = 0.1E-03   stopping-criterion for ELM
   LREAL  =      T    real-space projection
   NLSPLINE    = F    spline interpolate recip. space projectors
   LCOMPAT=      F    compatible to vasp.4.4
   GGA_COMPAT  = T    GGA compatible to vasp.4.4-vasp.4.6
   LMAXPAW     = -100 max onsite density
   LMAXMIX     =    2 max onsite mixed and CHGCAR
   VOSKOWN=      0    Vosko Wilk Nusair interpolation
   ROPT   =   -0.00050  -0.00050
 Ionic relaxation
   EDIFFG = 0.1E-02   stopping-criterion for IOM
   NSW    =      0    number of steps for IOM
   NBLOCK =      1;   KBLOCK =      1    inner block; outer block 
   IBRION =     -1    ionic relax: 0-MD 1-quasi-New 2-CG
   NFREE  =      0    steps in history (QN), initial steepest desc. (CG)
   ISIF   =      2    stress and relaxation
   IWAVPR =     10    prediction:  0-non 1-charg 2-wave 3-comb
   ISYM   =      2    0-nonsym 1-usesym 2-fastsym
   LCORR  =      T    Harris-Foulkes like correction to forces

   POTIM  = 0.5000    time-step for ionic-motion
   TEIN   =    0.0    initial temperature
   TEBEG  =    0.0;   TEEND  =   0.0 temperature during run
   SMASS  =  -3.00    Nose mass-parameter (am)
   estimated Nose-frequenzy (Omega)   =  0.10E-29 period in steps = 0.13E+47 mass=  -0.232E-26a.u.
   SCALEE = 1.0000    scale energy and forces
   NPACO  =    256;   APACO  = 16.0  distance and # of slots for P.C.
   PSTRESS=    0.0 pullay stress

  Mass of Ions in am
   POMASS =  58.69 32.07
  Ionic Valenz
   ZVAL   =  16.00  6.00
  Atomic Wigner-Seitz radii
   RWIGS  =  -1.00 -1.00
  virtual crystal weights 
   VCA    =   1.00  1.00
   NELECT =     792.0000    total number of electrons
   NUPDOWN=      -1.0000    fix difference up-down

 DOS related values:
   EMIN   =  10.00;   EMAX   =-10.00  energy-range for DOS
   EFERMI =   0.00
   ISMEAR =     0;   SIGMA  =   0.20  broadening in eV -4-tet -1-fermi 0-gaus

 Electronic relaxation 2 (details)
   IALGO  =     38    algorithm
   LDIAG  =      T    sub-space diagonalisation (order eigenvalues)
   LSUBROT=      F    optimize rotation matrix (better conditioning)
   TURBO    =      0    0=normal 1=particle mesh
   IRESTART =      0    0=no restart 2=restart with 2 vectors
   NREBOOT  =      0    no. of reboots
   NMIN     =      0    reboot dimension
   EREF     =   0.00    reference energy to select bands
   IMIX   =      4    mixing-type and parameters
     AMIX     =   0.40;   BMIX     =  1.00
     AMIX_MAG =   1.60;   BMIX_MAG =  1.00
     AMIN     =   0.10
     WC   =   100.;   INIMIX=   1;  MIXPRE=   1;  MAXMIX= -45

 Intra band minimization:
   WEIMIN = 0.0000     energy-eigenvalue tresh-hold
   EBREAK =  0.52E-07  absolut break condition
   DEPER  =   0.30     relativ break condition  

   TIME   =   0.40     timestep for ELM

  volume/ion in A,a.u.               =      27.06       182.63
  Fermi-wavevector in a.u.,A,eV,Ry     =   1.212687  2.291646 20.008854  1.470609
  Thomas-Fermi vector in A             =   2.348163
 
 Write flags
   LWAVE        =      F    write WAVECAR
   LDOWNSAMPLE  =      F    k-point downsampling of WAVECAR
   LCHARG       =      F    write CHGCAR
   LVTOT        =      F    write LOCPOT, total local potential
   LVHAR        =      F    write LOCPOT, Hartree potential only
   LELF         =      F    write electronic localiz. function (ELF)
   LORBIT       =      0    0 simple, 1 ext, 2 COOP (PROOUT), +10 PAW based schemes


 Dipole corrections
   LMONO  =      F    monopole corrections only (constant potential shift)
   LDIPOL =      F    correct potential (dipole corrections)
   IDIPOL =      0    1-x, 2-y, 3-z, 4-all directions 
   EPSILON=  1.0000000 bulk dielectric constant

 Exchange correlation treatment:
   GGA     =    --    GGA type
   LEXCH   =     8    internal setting for exchange type
   VOSKOWN=      0    Vosko Wilk Nusair interpolation
   LHFCALC =     F    Hartree Fock is set to
   LHFONE  =     F    Hartree Fock one center treatment
   AEXX    =    0.0000 exact exchange contribution

 Linear response parameters
   LEPSILON=     F    determine dielectric tensor
   LRPA    =     F    only Hartree local field effects (RPA)
   LNABLA  =     F    use nabla operator in PAW spheres
   LVEL    =     F    velocity operator in full k-point grid
   LINTERFAST=   F  fast interpolation
   KINTER  =     0    interpolate to denser k-point grid
   CSHIFT  =0.1000    complex shift for real part using Kramers Kronig
   OMEGAMAX=  -1.0    maximum frequency
   DEG_THRESHOLD= 0.2000000E-02 threshold for treating states as degnerate
   RTIME   =   -0.100 relaxation time in fs
  (WPLASMAI=    0.000 imaginary part of plasma frequency in eV, 0.658/RTIME)
   DFIELD  = 0.0000000 0.0000000 0.0000000 field for delta impulse in time
 
 Orbital magnetization related:
   ORBITALMAG=     F  switch on orbital magnetization
   LCHIMAG   =     F  perturbation theory with respect to B field
   DQ        =  0.001000  dq finite difference perturbation B field
   LLRAUG    =     F  two centre corrections for induced B field



--------------------------------------------------------------------------------------------------------


 Static calculation
 charge density and potential will be updated during run
 non-spin polarized calculation
 Variant of blocked Davidson
 Davidson routine will perform the subspace rotation
 perform sub-space diagonalisation
    after iterative eigenvector-optimisation
 modified Broyden-mixing scheme, WC =      100.0
 initial mixing is a Kerker type mixing with AMIX =  0.4000 and BMIX =      1.0000
 Hartree-type preconditioning will be used
 using additional bands           84
 real space projection scheme for non local part
 use partial core corrections
 calculate Harris-corrections to forces 
   (improved forces if not selfconsistent)
 use gradient corrections 
 use of overlap-Matrix (Vanderbilt PP)
 Gauss-broadening in eV      SIGMA  =   0.20


--------------------------------------------------------------------------------------------------------


  energy-cutoff  :      450.00
  volume of cell :     1948.51
      direct lattice vectors                 reciprocal lattice vectors
     9.425102554  3.573298043  0.000000000     0.106099641  0.000000000  0.000000000
     0.000000000 10.079732985  0.000000000    -0.037612667  0.099208977  0.000000000
     0.000000000  0.000000000 20.510139882     0.000000000  0.000000000  0.048756372

  length of vectors
    10.079732985 10.079732985 20.510139882     0.106099641  0.106099641  0.048756372


 
 k-points in units of 2pi/SCALE and weight: gamma-point-only calculation. no periodi
   0.00000000  0.00000000  0.00000000       1.000
 
 k-points in reciprocal lattice and weights: gamma-point-only calculation. no periodi
   0.00000000  0.00000000  0.00000000       1.000
 
 position of ions in fractional coordinates (direct lattice) 
   0.37433215  0.75136220  0.09511235
   0.52460066  0.60109368  0.22312232
   0.67486918  0.45082517  0.35113229
   0.82513769  0.30055666  0.47914226
   0.60748648  0.18487454  0.00977237
   0.75775499  0.03460603  0.13778234
   0.05829201  0.73406900  0.39380228
   0.90802350  0.88433751  0.26579231
   0.14117783  0.31784985  0.18045233
   0.29144634  0.16758134  0.30846230
   0.44171485  0.01731283  0.43647227
   0.99090931  0.46811837  0.05244236
   0.00994000  0.11575434  0.41150025
   0.55913447  0.56655988  0.02747034
   0.70940298  0.41629137  0.15548031
   0.85967149  0.26602286  0.28349028
   0.09282582  0.69953520  0.19815030
   0.24309433  0.54926668  0.32616027
   0.39336284  0.39899817  0.45417024
   0.94255730  0.84980371  0.07014033
   0.32598014  0.13304754  0.11281032
   0.47624865  0.98277903  0.24082029
   0.62651717  0.83251052  0.36883026
   0.77678568  0.68224200  0.49684023
   0.04964185  0.34025850  0.44532126
   0.59883631  0.79106404  0.06129134
   0.74910482  0.64079553  0.18930132
   0.89937333  0.49052701  0.31731129
   0.98225915  0.07430787  0.10396133
   0.13252766  0.92403935  0.23197131
   0.28279617  0.77377084  0.35998128
   0.43306468  0.62350233  0.48799125
   0.21541347  0.50782021  0.01862135
   0.36568198  0.35755170  0.14663132
   0.51595050  0.20728318  0.27464130
   0.66621901  0.05701467  0.40265127
   0.06382158  0.26208477  0.34135992
   0.21409009  0.11181626  0.46936989
   0.76328455  0.56262179  0.08533998
   0.91355307  0.41235328  0.21334995
   0.14670739  0.84586562  0.12800997
   0.29697590  0.69559711  0.25601994
   0.44724442  0.54532860  0.38402991
   0.99643888  0.99613414  0.00000000
   0.37986171  0.27937797  0.04266999
   0.53013023  0.12910945  0.17067996
   0.68039874  0.97884094  0.29868993
   0.83066725  0.82857243  0.42669990
   0.37769571  0.94821064  0.04346280
   0.52796422  0.79794212  0.17147277
   0.67823274  0.64767361  0.29948274
   0.82850125  0.49740510  0.42749271
   0.76111855  0.23145446  0.08613279
   0.91138706  0.08118595  0.21414276
   0.06165557  0.93091744  0.34215273
   0.21192409  0.78064893  0.47016270
   0.14454139  0.51469829  0.12880278
   0.29480990  0.36442978  0.25681275
   0.44507841  0.21416127  0.38482272
   0.99427287  0.66496681  0.00079281
   0.32714088  0.66233547  0.00039640
   0.47740939  0.51206696  0.12840637
   0.62767790  0.36179845  0.25641634
   0.77794641  0.21152993  0.38442631
   0.92821492  0.06126142  0.51243628
   0.01110074  0.64504228  0.29908633
   0.71056371  0.94557930  0.04306639
   0.86083223  0.79531079  0.17107636
   0.09398655  0.22882313  0.08573638
   0.24425506  0.07855462  0.21374635
   0.39452358  0.92828610  0.34175632
   0.54479209  0.77801759  0.46976629
 
 position of ions in cartesian coordinates  (Angst):
   3.52811891  8.91113065  1.95076754
   4.94441505  7.93341835  4.57626993
   6.36071119  6.95570605  7.20177232
   7.77700733  5.97799376  9.82727471
   5.72562234  4.03421620  0.20043259
   7.14191848  3.05650391  2.82593501
   0.54940820  7.60751425  8.07693979
   8.55821462 12.15852460  5.45143740
   1.33061549  3.70831211  3.70110247
   2.74691162  2.73059981  6.32660486
   4.16320777  1.75288751  8.95210725
   9.33942191  8.25932246  1.07560008
   0.09368555  1.20229147  8.43992775
   5.26989968  7.70872641  0.56342056
   6.68619582  6.73101412  3.18892295
   8.10249196  5.75330181  5.81442536
   0.87489284  7.38282232  4.06409041
   2.29118897  6.40511001  6.68959282
   3.70748512  5.42739772  9.31509521
   8.88369924 11.93383265  1.43858802
   3.07239626  2.50590787  2.31375548
   4.48869240 11.60792855  4.93925788
   5.90498854 10.63021626  7.56476029
   7.32128468  9.65250395 10.19026268
   0.46787949  3.60709995  9.13360123
   5.64409362 10.11353488  1.25709404
   7.06038976  9.13582259  3.88259645
   8.47668590  8.15811029  6.50809884
   9.25789319  4.25890815  2.13226150
   1.24908677  9.78763079  4.75776391
   2.66538291  8.80991849  7.38326631
   4.08167905  7.83220619 10.00876870
   2.03029406  5.88842865  0.38192658
   3.44659019  4.91071635  3.00742897
   4.86288634  3.93300404  5.63293138
   6.27918247  2.95529175  8.25843377
   0.60152491  2.86979801  7.00133971
   2.01782105  1.89208571  9.62684212
   7.19403519  8.39852065  1.75033493
   8.61033133  7.42080836  4.37583732
   1.38273220  9.05032885  2.62550239
   2.79902834  8.07261656  5.25100478
   4.21532448  7.09490426  7.87650717
   9.39153861 13.60133920  0.00000000
   3.58023562  4.17341441  0.87516746
   4.99653177  3.19570212  3.50066985
   6.41282790 12.29772280  6.12617225
   7.82912404 11.32001050  8.75167464
   3.55982081 10.90732936  0.89142807
   4.97611696  9.92961707  3.51693048
   6.39241309  8.95190477  6.14243287
   7.80870924  7.97419246  8.76793526
   7.17362038  5.05270263  1.76659555
   8.58991652  4.07499032  4.39209794
   0.58111011  9.60371297  7.01760033
   1.99740624  8.62600066  9.64310272
   1.36231739  5.70451082  2.64176301
   2.77861353  4.72679852  5.26726541
   4.19490967  3.74908622  7.89276780
   9.37112380 10.25552116  0.01626060
   3.08333631  7.84513655  0.00813030
   4.49963244  6.86742425  2.63363269
   5.91592859  5.88971195  5.25913510
   7.33222472  4.91199965  7.88463749
   8.74852086  3.93428734 10.51013989
   0.10462559  6.54152014  6.13430257
   6.69713587 12.07024278  0.88329777
   8.11343201 11.09253049  3.50880016
   0.88583288  2.64231800  1.75846523
   2.30212902  1.66460570  4.38396762
   3.71842516 10.76662639  7.00947003
   5.13472130  9.78891409  9.63497242
 


--------------------------------------------------------------------------------------------------------


 use parallel FFT for orbitals z direction half grid
 k-point   1 :   0.0000 0.0000 0.0000  plane waves:   21165

 maximum and minimum number of plane-waves per node :      3530     3525

 maximum number of plane-waves:     21165
 maximum index in each direction: 
   IXMAX=   17   IYMAX=   17   IZMAX=   35
   IXMIN=  -17   IYMIN=  -17   IZMIN=    0


 real space projection operators:
  total allocation   :      11246.41 KBytes
  max/ min on nodes  :       1877.44       1869.98


 parallel 3D FFT for wavefunctions:
    minimum data exchange during FFTs selected (reduces bandwidth)
 parallel 3D FFT for charge:
    minimum data exchange during FFTs selected (reduces bandwidth)


 total amount of memory used by VASP MPI-rank0    45303. kBytes
=======================================================================

   base      :      30000. kBytes
   nonlr-proj:       2304. kBytes
   fftplans  :       3383. kBytes
   grid      :       6052. kBytes
   one-center:         93. kBytes
   wavefun   :       3471. kBytes
 
     INWAV:  cpu time    0.0000: real time    0.0000
 Broyden mixing: mesh for mixing (old mesh)
   NGX = 35   NGY = 35   NGZ = 71
  (NGX  =108   NGY  =108   NGZ  =216)
  gives a total of  86975 points

 initial charge density was supplied:
 charge density of overlapping atoms calculated
 number of electron     792.0000000 magnetization 
 keeping initial charge density in first step


--------------------------------------------------------------------------------------------------------


 Maximum index for non-local projection operator          304
 Maximum index for augmentation-charges          454 (set IRDMAX)


--------------------------------------------------------------------------------------------------------


 First call to EWALD:  gamma=   0.142
 Maximum number of real-space cells 3x 3x 2
 Maximum number of reciprocal cells 2x 2x 4

    FEWALD:  cpu time    0.0037: real time    0.0038


--------------------------------------- Iteration      1(   1)  ---------------------------------------


    POTLOK:  cpu time    0.0439: real time    0.0476
    SETDIJ:  cpu time    0.0051: real time    0.0069
     EDDAV:  cpu time    2.0125: real time    2.0188
       DOS:  cpu time    0.0006: real time    0.0006
    --------------------------------------------
      LOOP:  cpu time    2.0622: real time    2.0740

 eigenvalue-minimisations  :  1168
 total energy-change (2. order) : 0.9821213E+04  (-0.5079361E+05)
 number of electron     792.0000000 magnetization 
 augmentation part      792.0000000 magnetization 

 Free energy of the ion-electron system (eV)
  ---------------------------------------------------
  alpha Z        PSCENC =      1909.09476555
  Ewald energy   TEWEN  =    163704.04698100
  -Hartree energ DENC   =   -286338.06972691
  -exchange      EXHF   =         0.00000000
  -V(xc)+E(xc)   XCENC  =      3652.15379867
  PAW double counting   =    112729.53333415  -117641.51188735
  entropy T*S    EENTRO =        -0.31061138
  eigenvalues    EBANDS =     -4196.32822244
  atomic energy  EATOM  =    136002.60505376
  Solvation  Ediel_sol  =         0.00000000
  ---------------------------------------------------
  free energy    TOTEN  =      9821.21348505 eV

  energy without entropy =     9821.52409643  energy(sigma->0) =     9821.36879074


--------------------------------------------------------------------------------------------------------




--------------------------------------- Iteration      1(   2)  ---------------------------------------


     EDDAV:  cpu time    1.7679: real time    1.7756
       DOS:  cpu time    0.0008: real time    0.0008
    --------------------------------------------
      LOOP:  cpu time    1.7686: real time    1.7763

 eigenvalue-minimisations  :  1016
 total energy-change (2. order) :-0.9192963E+04  (-0.8858531E+04)
 number of electron     792.0000000 magnetization 
 augmentation part      792.0000000 magnetization 

 Free energy of the ion-electron system (eV)
  ---------------------------------------------------
  alpha Z        PSCENC =      1909.09476555
  Ewald energy   TEWEN  =    163704.04698100
  -Hartree energ DENC   =   -286338.06972691
  -exchange      EXHF   =         0.00000000
  -V(xc)+E(xc)   XCENC  =      3652.15379867
  PAW double counting   =    112729.53333415  -117641.51188735
  entropy T*S    EENTRO =        -0.80636128
  eigenvalues    EBANDS =    -13388.79504835
  atomic energy  EATOM  =    136002.60505376
  Solvation  Ediel_sol  =         0.00000000
  ---------------------------------------------------
  free energy    TOTEN  =       628.25090925 eV

  energy without entropy =      629.05727053  energy(sigma->0) =      628.65408989


--------------------------------------------------------------------------------------------------------




--------------------------------------- Iteration      1(   3)  ---------------------------------------


     EDDAV:  cpu time    1.8841: real time    1.8885
       DOS:  cpu time    0.0008: real time    0.0008
    --------------------------------------------
      LOOP:  cpu time    1.8849: real time    1.8893

 eigenvalue-minimisations  :  1104
 total energy-change (2. order) :-0.9687362E+03  (-0.9121991E+03)
 number of electron     792.0000000 magnetization 
 augmentation part      792.0000000 magnetization 

 Free energy of the ion-electron system (eV)
  ---------------------------------------------------
  alpha Z        PSCENC =      1909.09476555
  Ewald energy   TEWEN  =    163704.04698100
  -Hartree energ DENC   =   -286338.06972691
  -exchange      EXHF   =         0.00000000
  -V(xc)+E(xc)   XCENC  =      3652.15379867
  PAW double counting   =    112729.53333415  -117641.51188735
  entropy T*S    EENTRO =        -1.12238079
  eigenvalues    EBANDS =    -14357.21520192
  atomic energy  EATOM  =    136002.60505376
  Solvation  Ediel_sol  =         0.00000000
  ---------------------------------------------------
  free energy    TOTEN  =      -340.48526384 eV

  energy without entropy =     -339.36288305  energy(sigma->0) =     -339.92407344


--------------------------------------------------------------------------------------------------------




--------------------------------------- Iteration      1(   4)  ---------------------------------------


     EDDAV:  cpu time    1.9205: real time    1.9278
       DOS:  cpu time    0.0007: real time    0.0007
    --------------------------------------------
      LOOP:  cpu time    1.9213: real time    1.9285

 eigenvalue-minimisations  :  1112
 total energy-change (2. order) :-0.6405343E+02  (-0.6317866E+02)
 number of electron     792.0000000 magnetization 
 augmentation part      792.0000000 magnetization 

 Free energy of the ion-electron system (eV)
  ---------------------------------------------------
  alpha Z        PSCENC =      1909.09476555
  Ewald energy   TEWEN  =    163704.04698100
  -Hartree energ DENC   =   -286338.06972691
  -exchange      EXHF   =         0.00000000
  -V(xc)+E(xc)   XCENC  =      3652.15379867
  PAW double counting   =    112729.53333415  -117641.51188735
  entropy T*S    EENTRO =        -1.18973424
  eigenvalues    EBANDS =    -14421.20127518
  atomic energy  EATOM  =    136002.60505376
  Solvation  Ediel_sol  =         0.00000000
  ---------------------------------------------------
  free energy    TOTEN  =      -404.53869055 eV

  energy without entropy =     -403.34895631  energy(sigma->0) =     -403.94382343


--------------------------------------------------------------------------------------------------------




--------------------------------------- Iteration      1(   5)  ---------------------------------------


     EDDAV:  cpu time    2.0723: real time    2.0795
       DOS:  cpu time    0.0006: real time    0.0006
    CHARGE:  cpu time    0.0396: real time    0.0397
    MIXING:  cpu time    0.0025: real time    0.0027
    --------------------------------------------
      LOOP:  cpu time    2.1150: real time    2.1226

 eigenvalue-minimisations  :  1248
 total energy-change (2. order) :-0.2504172E+01  (-0.2501170E+01)
 number of electron     791.9999532 magnetization 
 augmentation part      286.2291547 magnetization 

 Broyden mixing:
  rms(total) = 0.82061E+01    rms(broyden)= 0.81917E+01
  rms(prec ) = 0.86327E+01
  weight for this iteration     100.00

 Free energy of the ion-electron system (eV)
  ---------------------------------------------------
  alpha Z        PSCENC =      1909.09476555
  Ewald energy   TEWEN  =    163704.04698100
  -Hartree energ DENC   =   -286338.06972691
  -exchange      EXHF   =         0.00000000
  -V(xc)+E(xc)   XCENC  =      3652.15379867
  PAW double counting   =    112729.53333415  -117641.51188735
  entropy T*S    EENTRO =        -1.19083743
  eigenvalues    EBANDS =    -14423.70434428
  atomic energy  EATOM  =    136002.60505376
  Solvation  Ediel_sol  =         0.00000000
  ---------------------------------------------------
  free energy    TOTEN  =      -407.04286283 eV

  energy without entropy =     -405.85202541  energy(sigma->0) =     -406.44744412


--------------------------------------------------------------------------------------------------------




--------------------------------------- Iteration      1(   6)  ---------------------------------------


    POTLOK:  cpu time    0.0423: real time    0.0424
    SETDIJ:  cpu time    0.0046: real time    0.0064
     EDDAV:  cpu time    1.9452: real time    1.9499
       DOS:  cpu time    0.0011: real time    0.0011
    CHARGE:  cpu time    0.0381: real time    0.0382
    MIXING:  cpu time    0.0020: real time    0.0021
    --------------------------------------------
      LOOP:  cpu time    2.0333: real time    2.0401

 eigenvalue-minimisations  :  1160
 total energy-change (2. order) :-0.8508781E+02  (-0.9579344E+02)
 number of electron     791.9999543 magnetization 
 augmentation part      352.6711446 magnetization 

 Broyden mixing:
  rms(total) = 0.15773E+02    rms(broyden)= 0.15770E+02
  rms(prec ) = 0.16459E+02
  weight for this iteration     100.00

 eigenvalues of (default mixing * dielectric matrix)
  average eigenvalue GAMMA=   0.2264
  0.2264

 Free energy of the ion-electron system (eV)
  ---------------------------------------------------
  alpha Z        PSCENC =      1909.09476555
  Ewald energy   TEWEN  =    163704.04698100
  -Hartree energ DENC   =   -283527.27594631
  -exchange      EXHF   =         0.00000000
  -V(xc)+E(xc)   XCENC  =      3575.15169108
  PAW double counting   =    114518.76814721  -119190.19905309
  entropy T*S    EENTRO =        -0.84912842
  eigenvalues    EBANDS =    -17483.47318077
  atomic energy  EATOM  =    136002.60505376
  Solvation  Ediel_sol  =         0.00000000
  ---------------------------------------------------
  free energy    TOTEN  =      -492.13066998 eV

  energy without entropy =     -491.28154156  energy(sigma->0) =     -491.70610577


--------------------------------------------------------------------------------------------------------




--------------------------------------- Iteration      1(   7)  ---------------------------------------


    POTLOK:  cpu time    0.0420: real time    0.0421
    SETDIJ:  cpu time    0.0050: real time    0.0051
     EDDAV:  cpu time    1.9064: real time    1.9109
       DOS:  cpu time    0.0006: real time    0.0006
    CHARGE:  cpu time    0.0382: real time    0.0383
    MIXING:  cpu time    0.0017: real time    0.0017
    --------------------------------------------
      LOOP:  cpu time    1.9939: real time    1.9986

 eigenvalue-minimisations  :  1120
 total energy-change (2. order) : 0.1159542E+03  (-0.1750274E+02)
 number of electron     791.9999527 magnetization 
 augmentation part      331.9759398 magnetization 

 Broyden mixing:
  rms(total) = 0.61663E+01    rms(broyden)= 0.61650E+01
  rms(prec ) = 0.64584E+01
  weight for this iteration     100.00

 eigenvalues of (default mixing * dielectric matrix)
  average eigenvalue GAMMA=   0.5119
  0.5119  0.5119

 Free energy of the ion-electron system (eV)
  ---------------------------------------------------
  alpha Z        PSCENC =      1909.09476555
  Ewald energy   TEWEN  =    163704.04698100
  -Hartree energ DENC   =   -284802.88653574
  -exchange      EXHF   =         0.00000000
  -V(xc)+E(xc)   XCENC  =      3604.15910507
  PAW double counting   =    118597.60638201  -123413.37228834
  entropy T*S    EENTRO =        -0.80898161
  eigenvalues    EBANDS =    -15976.62092659
  atomic energy  EATOM  =    136002.60505376
  Solvation  Ediel_sol  =         0.00000000
  ---------------------------------------------------
  free energy    TOTEN  =      -376.17644490 eV

  energy without entropy =     -375.36746329  energy(sigma->0) =     -375.77195409


--------------------------------------------------------------------------------------------------------




--------------------------------------- Iteration      1(   8)  ---------------------------------------


    POTLOK:  cpu time    0.0425: real time    0.0426
    SETDIJ:  cpu time    0.0050: real time    0.0050
     EDDAV:  cpu time    2.2420: real time    2.2489
       DOS:  cpu time    0.0007: real time    0.0007
    CHARGE:  cpu time    0.0384: real time    0.0385
    MIXING:  cpu time    0.0019: real time    0.0019
    --------------------------------------------
      LOOP:  cpu time    2.3305: real time    2.3376

 eigenvalue-minimisations  :  1344
 total energy-change (2. order) :-0.4623555E+02  (-0.1548427E+02)
 number of electron     791.9999578 magnetization 
 augmentation part      306.1237746 magnetization 

 Broyden mixing:
  rms(total) = 0.13495E+02    rms(broyden)= 0.13492E+02
  rms(prec ) = 0.16030E+02
  weight for this iteration     100.00

 eigenvalues of (default mixing * dielectric matrix)
  average eigenvalue GAMMA=   0.4194
  0.6996  0.4467  0.1120

 Free energy of the ion-electron system (eV)
  ---------------------------------------------------
  alpha Z        PSCENC =      1909.09476555
  Ewald energy   TEWEN  =    163704.04698100
  -Hartree energ DENC   =   -285264.40060647
  -exchange      EXHF   =         0.00000000
  -V(xc)+E(xc)   XCENC  =      3626.83772987
  PAW double counting   =    124104.12455900  -129031.88350550
  entropy T*S    EENTRO =        -1.40226953
  eigenvalues    EBANDS =    -15471.43470203
  atomic energy  EATOM  =    136002.60505376
  Solvation  Ediel_sol  =         0.00000000
  ---------------------------------------------------
  free energy    TOTEN  =      -422.41199436 eV

  energy without entropy =     -421.00972483  energy(sigma->0) =     -421.71085959


--------------------------------------------------------------------------------------------------------




--------------------------------------- Iteration      1(   9)  ---------------------------------------


    POTLOK:  cpu time    0.0428: real time    0.0451
    SETDIJ:  cpu time    0.0051: real time    0.0061
     EDDAV:  cpu time    2.0353: real time    2.0401
       DOS:  cpu time    0.0007: real time    0.0007
    CHARGE:  cpu time    0.0382: real time    0.0383
    MIXING:  cpu time    0.0018: real time    0.0018
    --------------------------------------------
      LOOP:  cpu time    2.1239: real time    2.1321

 eigenvalue-minimisations  :  1216
 total energy-change (2. order) : 0.4712157E+02  (-0.1103683E+02)
 number of electron     791.9999541 magnetization 
 augmentation part      307.7008883 magnetization 

 Broyden mixing:
  rms(total) = 0.61570E+01    rms(broyden)= 0.61509E+01
  rms(prec ) = 0.72938E+01
  weight for this iteration     100.00

 eigenvalues of (default mixing * dielectric matrix)
  average eigenvalue GAMMA=   0.4223
  0.9573  0.3543  0.2850  0.0926

 Free energy of the ion-electron system (eV)
  ---------------------------------------------------
  alpha Z        PSCENC =      1909.09476555
  Ewald energy   TEWEN  =    163704.04698100
  -Hartree energ DENC   =   -285426.92649306
  -exchange      EXHF   =         0.00000000
  -V(xc)+E(xc)   XCENC  =      3626.58390998
  PAW double counting   =    125509.54902497  -130449.08235530
  entropy T*S    EENTRO =        -1.49636199
  eigenvalues    EBANDS =    -15249.66495171
  atomic energy  EATOM  =    136002.60505376
  Solvation  Ediel_sol  =         0.00000000
  ---------------------------------------------------
  free energy    TOTEN  =      -375.29042680 eV

  energy without entropy =     -373.79406482  energy(sigma->0) =     -374.54224581


--------------------------------------------------------------------------------------------------------




--------------------------------------- Iteration      1(  10)  ---------------------------------------


    POTLOK:  cpu time    0.0418: real time    0.0419
    SETDIJ:  cpu time    0.0049: real time    0.0049
     EDDAV:  cpu time    2.2699: real time    2.2754
       DOS:  cpu time    0.0007: real time    0.0007
    CHARGE:  cpu time    0.0378: real time    0.0379
    MIXING:  cpu time    0.0023: real time    0.0023
    --------------------------------------------
      LOOP:  cpu time    2.3574: real time    2.3631

 eigenvalue-minimisations  :  1392
 total energy-change (2. order) :-0.7245605E+01  (-0.6669088E+01)
 number of electron     791.9999528 magnetization 
 augmentation part      307.0077760 magnetization 

 Broyden mixing:
  rms(total) = 0.62689E+01    rms(broyden)= 0.62637E+01
  rms(prec ) = 0.73091E+01
  weight for this iteration     100.00

 eigenvalues of (default mixing * dielectric matrix)
  average eigenvalue GAMMA=   0.5179
  1.5829  0.3989  0.3989  0.1045  0.1045

 Free energy of the ion-electron system (eV)
  ---------------------------------------------------
  alpha Z        PSCENC =      1909.09476555
  Ewald energy   TEWEN  =    163704.04698100
  -Hartree energ DENC   =   -285519.16093579
  -exchange      EXHF   =         0.00000000
  -V(xc)+E(xc)   XCENC  =      3625.17575361
  PAW double counting   =    127093.44228388  -132043.18098099
  entropy T*S    EENTRO =        -1.05560765
  eigenvalues    EBANDS =    -15153.50334517
  atomic energy  EATOM  =    136002.60505376
  Solvation  Ediel_sol  =         0.00000000
  ---------------------------------------------------
  free energy    TOTEN  =      -382.53603180 eV

  energy without entropy =     -381.48042415  energy(sigma->0) =     -382.00822798


--------------------------------------------------------------------------------------------------------




--------------------------------------- Iteration      1(  11)  ---------------------------------------


    POTLOK:  cpu time    0.0416: real time    0.0417
    SETDIJ:  cpu time    0.0049: real time    0.0049
     EDDAV:  cpu time    2.1587: real time    2.1639
       DOS:  cpu time    0.0012: real time    0.0012
    CHARGE:  cpu time    0.0376: real time    0.0377
    MIXING:  cpu time    0.0023: real time    0.0023
    --------------------------------------------
      LOOP:  cpu time    2.2463: real time    2.2517

 eigenvalue-minimisations  :  1312
 total energy-change (2. order) : 0.4305372E+01  (-0.4119017E+01)
 number of electron     791.9999603 magnetization 
 augmentation part      307.3071577 magnetization 

 Broyden mixing:
  rms(total) = 0.75359E+01    rms(broyden)= 0.75325E+01
  rms(prec ) = 0.90861E+01
  weight for this iteration     100.00

 eigenvalues of (default mixing * dielectric matrix)
  average eigenvalue GAMMA=   0.4944
  1.8294  0.4064  0.4064  0.1207  0.1207  0.0828

 Free energy of the ion-electron system (eV)
  ---------------------------------------------------
  alpha Z        PSCENC =      1909.09476555
  Ewald energy   TEWEN  =    163704.04698100
  -Hartree energ DENC   =   -285487.46139189
  -exchange      EXHF   =         0.00000000
  -V(xc)+E(xc)   XCENC  =      3623.50996337
  PAW double counting   =    129999.28087301  -134971.06944835
  entropy T*S    EENTRO =        -1.53376024
  eigenvalues    EBANDS =    -15156.70369625
  atomic energy  EATOM  =    136002.60505376
  Solvation  Ediel_sol  =         0.00000000
  ---------------------------------------------------
  free energy    TOTEN  =      -378.23066004 eV

  energy without entropy =     -376.69689980  energy(sigma->0) =     -377.46377992


--------------------------------------------------------------------------------------------------------




--------------------------------------- Iteration      1(  12)  ---------------------------------------


    POTLOK:  cpu time    0.0416: real time    0.0417
    SETDIJ:  cpu time    0.0048: real time    0.0048
     EDDAV:  cpu time    2.1765: real time    2.1818
       DOS:  cpu time    0.0009: real time    0.0009
    CHARGE:  cpu time    0.0375: real time    0.0375
    MIXING:  cpu time    0.0023: real time    0.0023
    --------------------------------------------
      LOOP:  cpu time    2.2636: real time    2.2690

 eigenvalue-minimisations  :  1328
 total energy-change (2. order) : 0.1274227E+02  (-0.3924103E+01)
 number of electron     791.9999526 magnetization 
 augmentation part      311.5549947 magnetization 

 Broyden mixing:
  rms(total) = 0.34335E+01    rms(broyden)= 0.34297E+01
  rms(prec ) = 0.38794E+01
  weight for this iteration     100.00

 eigenvalues of (default mixing * dielectric matrix)
  average eigenvalue GAMMA=   0.4933
  2.0185  0.4119  0.4119  0.2737  0.1502  0.1032  0.0833

 Free energy of the ion-electron system (eV)
  ---------------------------------------------------
  alpha Z        PSCENC =      1909.09476555
  Ewald energy   TEWEN  =    163704.04698100
  -Hartree energ DENC   =   -285472.64793232
  -exchange      EXHF   =         0.00000000
  -V(xc)+E(xc)   XCENC  =      3622.15020698
  PAW double counting   =    131253.72959598  -136232.68453367
  entropy T*S    EENTRO =        -1.01905420
  eigenvalues    EBANDS =    -15150.76347488
  atomic energy  EATOM  =    136002.60505376
  Solvation  Ediel_sol  =         0.00000000
  ---------------------------------------------------
  free energy    TOTEN  =      -365.48839180 eV

  energy without entropy =     -364.46933760  energy(sigma->0) =     -364.97886470


--------------------------------------------------------------------------------------------------------




--------------------------------------- Iteration      1(  13)  ---------------------------------------


    POTLOK:  cpu time    0.0419: real time    0.0420
    SETDIJ:  cpu time    0.0050: real time    0.0050
     EDDAV:  cpu time    2.1384: real time    2.1434
       DOS:  cpu time    0.0009: real time    0.0009
    CHARGE:  cpu time    0.0376: real time    0.0377
    MIXING:  cpu time    0.0024: real time    0.0024
    --------------------------------------------
      LOOP:  cpu time    2.2261: real time    2.2314

 eigenvalue-minimisations  :  1296
 total energy-change (2. order) : 0.1934731E+01  (-0.1940208E+01)
 number of electron     791.9999528 magnetization 
 augmentation part      312.0854834 magnetization 

 Broyden mixing:
  rms(total) = 0.36184E+01    rms(broyden)= 0.36149E+01
  rms(prec ) = 0.40394E+01
  weight for this iteration     100.00

 eigenvalues of (default mixing * dielectric matrix)
  average eigenvalue GAMMA=   0.4923
  2.1102  0.4922  0.4281  0.4281  0.1612  0.1173  0.1173  0.0839

 Free energy of the ion-electron system (eV)
  ---------------------------------------------------
  alpha Z        PSCENC =      1909.09476555
  Ewald energy   TEWEN  =    163704.04698100
  -Hartree energ DENC   =   -285447.22117948
  -exchange      EXHF   =         0.00000000
  -V(xc)+E(xc)   XCENC  =      3621.88873853
  PAW double counting   =    132032.80638851  -137018.62943493
  entropy T*S    EENTRO =        -0.95067980
  eigenvalues    EBANDS =    -15167.19429400
  atomic energy  EATOM  =    136002.60505376
  Solvation  Ediel_sol  =         0.00000000
  ---------------------------------------------------
  free energy    TOTEN  =      -363.55366086 eV

  energy without entropy =     -362.60298106  energy(sigma->0) =     -363.07832096


--------------------------------------------------------------------------------------------------------




--------------------------------------- Iteration      1(  14)  ---------------------------------------


    POTLOK:  cpu time    0.0443: real time    0.0444
    SETDIJ:  cpu time    0.0070: real time    0.0070
     EDDAV:  cpu time    2.1034: real time    2.1084
       DOS:  cpu time    0.0007: real time    0.0007
    CHARGE:  cpu time    0.0383: real time    0.0384
    MIXING:  cpu time    0.0026: real time    0.0026
    --------------------------------------------
      LOOP:  cpu time    2.1963: real time    2.2015

 eigenvalue-minimisations  :  1248
 total energy-change (2. order) : 0.2966176E+01  (-0.9992291E+00)
 number of electron     791.9999536 magnetization 
 augmentation part      313.2055087 magnetization 

 Broyden mixing:
  rms(total) = 0.23666E+01    rms(broyden)= 0.23636E+01
  rms(prec ) = 0.26943E+01
  weight for this iteration     100.00

 eigenvalues of (default mixing * dielectric matrix)
  average eigenvalue GAMMA=   0.4635
  2.0668  0.4947  0.4543  0.4543  0.2466  0.1314  0.1314  0.1080  0.0837

 Free energy of the ion-electron system (eV)
  ---------------------------------------------------
  alpha Z        PSCENC =      1909.09476555
  Ewald energy   TEWEN  =    163704.04698100
  -Hartree energ DENC   =   -285438.06751837
  -exchange      EXHF   =         0.00000000
  -V(xc)+E(xc)   XCENC  =      3621.63689830
  PAW double counting   =    132333.73343426  -137321.46881067
  entropy T*S    EENTRO =        -0.96749165
  eigenvalues    EBANDS =    -15171.20079666
  atomic energy  EATOM  =    136002.60505376
  Solvation  Ediel_sol  =         0.00000000
  ---------------------------------------------------
  free energy    TOTEN  =      -360.58748448 eV

  energy without entropy =     -359.61999282  energy(sigma->0) =     -360.10373865


--------------------------------------------------------------------------------------------------------




--------------------------------------- Iteration      1(  15)  ---------------------------------------


    POTLOK:  cpu time    0.0425: real time    0.0447
    SETDIJ:  cpu time    0.0044: real time    0.0063
     EDDAV:  cpu time    2.0188: real time    2.0237
       DOS:  cpu time    0.0008: real time    0.0008
    CHARGE:  cpu time    0.0380: real time    0.0381
    MIXING:  cpu time    0.0023: real time    0.0023
    --------------------------------------------
      LOOP:  cpu time    2.1069: real time    2.1159

 eigenvalue-minimisations  :  1208
 total energy-change (2. order) : 0.1754117E+01  (-0.3731233E+00)
 number of electron     791.9999536 magnetization 
 augmentation part      313.0345464 magnetization 

 Broyden mixing:
  rms(total) = 0.17951E+01    rms(broyden)= 0.17941E+01
  rms(prec ) = 0.20180E+01
  weight for this iteration     100.00

 eigenvalues of (default mixing * dielectric matrix)
  average eigenvalue GAMMA=   0.4427
  2.0240  0.5165  0.5165  0.3736  0.3736  0.1515  0.1515  0.1182  0.1182  0.0836

 Free energy of the ion-electron system (eV)
  ---------------------------------------------------
  alpha Z        PSCENC =      1909.09476555
  Ewald energy   TEWEN  =    163704.04698100
  -Hartree energ DENC   =   -285439.70253887
  -exchange      EXHF   =         0.00000000
  -V(xc)+E(xc)   XCENC  =      3622.09195137
  PAW double counting   =    132159.83755125  -137147.58578272
  entropy T*S    EENTRO =        -0.98953618
  eigenvalues    EBANDS =    -15168.23181273
  atomic energy  EATOM  =    136002.60505376
  Solvation  Ediel_sol  =         0.00000000
  ---------------------------------------------------
  free energy    TOTEN  =      -358.83336756 eV

  energy without entropy =     -357.84383139  energy(sigma->0) =     -358.33859947


--------------------------------------------------------------------------------------------------------




--------------------------------------- Iteration      1(  16)  ---------------------------------------


    POTLOK:  cpu time    0.0419: real time    0.0420
    SETDIJ:  cpu time    0.0049: real time    0.0049
     EDDAV:  cpu time    2.1296: real time    2.1346
       DOS:  cpu time    0.0009: real time    0.0009
    CHARGE:  cpu time    0.0427: real time    0.0428
    MIXING:  cpu time    0.0025: real time    0.0025
    --------------------------------------------
      LOOP:  cpu time    2.2224: real time    2.2276

 eigenvalue-minimisations  :  1296
 total energy-change (2. order) : 0.4770290E+00  (-0.2071984E+00)
 number of electron     791.9999524 magnetization 
 augmentation part      312.8358238 magnetization 

 Broyden mixing:
  rms(total) = 0.15259E+01    rms(broyden)= 0.15253E+01
  rms(prec ) = 0.17256E+01
  weight for this iteration     100.00

 eigenvalues of (default mixing * dielectric matrix)
  average eigenvalue GAMMA=   0.4348
  1.9943  0.6065  0.6065  0.3858  0.3858  0.2177  0.1534  0.1220  0.1220  0.0837
  0.1048

 Free energy of the ion-electron system (eV)
  ---------------------------------------------------
  alpha Z        PSCENC =      1909.09476555
  Ewald energy   TEWEN  =    163704.04698100
  -Hartree energ DENC   =   -285450.91929525
  -exchange      EXHF   =         0.00000000
  -V(xc)+E(xc)   XCENC  =      3622.31418015
  PAW double counting   =    131987.75814855  -136974.44640383
  entropy T*S    EENTRO =        -0.96854500
  eigenvalues    EBANDS =    -15157.84122352
  atomic energy  EATOM  =    136002.60505376
  Solvation  Ediel_sol  =         0.00000000
  ---------------------------------------------------
  free energy    TOTEN  =      -358.35633859 eV

  energy without entropy =     -357.38779360  energy(sigma->0) =     -357.87206610


--------------------------------------------------------------------------------------------------------




--------------------------------------- Iteration      1(  17)  ---------------------------------------


    POTLOK:  cpu time    0.0421: real time    0.0422
    SETDIJ:  cpu time    0.0049: real time    0.0049
     EDDAV:  cpu time    2.0515: real time    2.0564
       DOS:  cpu time    0.0006: real time    0.0006
    CHARGE:  cpu time    0.0425: real time    0.0426
    MIXING:  cpu time    0.0025: real time    0.0025
    --------------------------------------------
      LOOP:  cpu time    2.1441: real time    2.1492

 eigenvalue-minimisations  :  1232
 total energy-change (2. order) : 0.6707374E+00  (-0.6007848E-01)
 number of electron     791.9999531 magnetization 
 augmentation part      312.5658737 magnetization 

 Broyden mixing:
  rms(total) = 0.11798E+01    rms(broyden)= 0.11795E+01
  rms(prec ) = 0.13317E+01
  weight for this iteration     100.00

 eigenvalues of (default mixing * dielectric matrix)
  average eigenvalue GAMMA=   0.4445
  2.0027  0.7000  0.7000  0.4032  0.4032  0.3575  0.1924  0.0836  0.1317  0.1317
  0.1141  0.1141

 Free energy of the ion-electron system (eV)
  ---------------------------------------------------
  alpha Z        PSCENC =      1909.09476555
  Ewald energy   TEWEN  =    163704.04698100
  -Hartree energ DENC   =   -285458.51910691
  -exchange      EXHF   =         0.00000000
  -V(xc)+E(xc)   XCENC  =      3622.56901510
  PAW double counting   =    131828.77805312  -136814.36999524
  entropy T*S    EENTRO =        -0.98429720
  eigenvalues    EBANDS =    -15150.90607038
  atomic energy  EATOM  =    136002.60505376
  Solvation  Ediel_sol  =         0.00000000
  ---------------------------------------------------
  free energy    TOTEN  =      -357.68560121 eV

  energy without entropy =     -356.70130401  energy(sigma->0) =     -357.19345261


--------------------------------------------------------------------------------------------------------




--------------------------------------- Iteration      1(  18)  ---------------------------------------


    POTLOK:  cpu time    0.0421: real time    0.0422
    SETDIJ:  cpu time    0.0049: real time    0.0049
     EDDAV:  cpu time    2.1314: real time    2.1364
       DOS:  cpu time    0.0007: real time    0.0007
    CHARGE:  cpu time    0.0425: real time    0.0426
    MIXING:  cpu time    0.0026: real time    0.0026
    --------------------------------------------
      LOOP:  cpu time    2.2241: real time    2.2294

 eigenvalue-minimisations  :  1296
 total energy-change (2. order) : 0.1950293E+00  (-0.4331295E-01)
 number of electron     791.9999534 magnetization 
 augmentation part      312.4749186 magnetization 

 Broyden mixing:
  rms(total) = 0.10706E+01    rms(broyden)= 0.10703E+01
  rms(prec ) = 0.12055E+01
  weight for this iteration     100.00

 eigenvalues of (default mixing * dielectric matrix)
  average eigenvalue GAMMA=   0.4581
  1.9945  0.8619  0.8619  0.4327  0.4327  0.4400  0.2159  0.1425  0.1425  0.0836
  0.1194  0.1194  0.1091

 Free energy of the ion-electron system (eV)
  ---------------------------------------------------
  alpha Z        PSCENC =      1909.09476555
  Ewald energy   TEWEN  =    163704.04698100
  -Hartree energ DENC   =   -285464.26780410
  -exchange      EXHF   =         0.00000000
  -V(xc)+E(xc)   XCENC  =      3622.60980642
  PAW double counting   =    131725.28478417  -136709.30098269
  entropy T*S    EENTRO =        -0.96743684
  eigenvalues    EBANDS =    -15146.59573918
  atomic energy  EATOM  =    136002.60505376
  Solvation  Ediel_sol  =         0.00000000
  ---------------------------------------------------
  free energy    TOTEN  =      -357.49057191 eV

  energy without entropy =     -356.52313507  energy(sigma->0) =     -357.00685349


--------------------------------------------------------------------------------------------------------




--------------------------------------- Iteration      1(  19)  ---------------------------------------


    POTLOK:  cpu time    0.0421: real time    0.0422
    SETDIJ:  cpu time    0.0049: real time    0.0050
     EDDAV:  cpu time    2.0352: real time    2.0400
       DOS:  cpu time    0.0007: real time    0.0007
    CHARGE:  cpu time    0.0426: real time    0.0427
    MIXING:  cpu time    0.0026: real time    0.0027
    --------------------------------------------
      LOOP:  cpu time    2.1282: real time    2.1332

 eigenvalue-minimisations  :  1224
 total energy-change (2. order) : 0.2018532E+00  (-0.2129655E-01)
 number of electron     791.9999531 magnetization 
 augmentation part      312.3856587 magnetization 

 Broyden mixing:
  rms(total) = 0.89175E+00    rms(broyden)= 0.89158E+00
  rms(prec ) = 0.10063E+01
  weight for this iteration     100.00

 eigenvalues of (default mixing * dielectric matrix)
  average eigenvalue GAMMA=   0.4849
  1.9826  1.1162  1.1162  0.4883  0.4499  0.4499  0.2747  0.1717  0.1717  0.0836
  0.1272  0.1272  0.1149  0.1149

 Free energy of the ion-electron system (eV)
  ---------------------------------------------------
  alpha Z        PSCENC =      1909.09476555
  Ewald energy   TEWEN  =    163704.04698100
  -Hartree energ DENC   =   -285470.07311266
  -exchange      EXHF   =         0.00000000
  -V(xc)+E(xc)   XCENC  =      3622.68624465
  PAW double counting   =    131595.51886292  -136577.82112115
  entropy T*S    EENTRO =        -0.97513518
  eigenvalues    EBANDS =    -15142.37125760
  atomic energy  EATOM  =    136002.60505376
  Solvation  Ediel_sol  =         0.00000000
  ---------------------------------------------------
  free energy    TOTEN  =      -357.28871871 eV

  energy without entropy =     -356.31358354  energy(sigma->0) =     -356.80115113


--------------------------------------------------------------------------------------------------------




--------------------------------------- Iteration      1(  20)  ---------------------------------------


    POTLOK:  cpu time    0.0420: real time    0.0421
    SETDIJ:  cpu time    0.0050: real time    0.0050
     EDDAV:  cpu time    2.1858: real time    2.1909
       DOS:  cpu time    0.0006: real time    0.0006
    CHARGE:  cpu time    0.0433: real time    0.0434
    MIXING:  cpu time    0.0027: real time    0.0027
    --------------------------------------------
      LOOP:  cpu time    2.2795: real time    2.2848

 eigenvalue-minimisations  :  1336
 total energy-change (2. order) : 0.1064540E+00  (-0.2012630E-01)
 number of electron     791.9999530 magnetization 
 augmentation part      312.2465477 magnetization 

 Broyden mixing:
  rms(total) = 0.83159E+00    rms(broyden)= 0.83136E+00
  rms(prec ) = 0.93248E+00
  weight for this iteration     100.00

 eigenvalues of (default mixing * dielectric matrix)
  average eigenvalue GAMMA=   0.5436
  1.9977  1.5241  1.5241  0.5866  0.5866  0.4217  0.4217  0.2201  0.1671  0.0836
  0.1314  0.1314  0.1224  0.1224  0.1127

 Free energy of the ion-electron system (eV)
  ---------------------------------------------------
  alpha Z        PSCENC =      1909.09476555
  Ewald energy   TEWEN  =    163704.04698100
  -Hartree energ DENC   =   -285476.83196970
  -exchange      EXHF   =         0.00000000
  -V(xc)+E(xc)   XCENC  =      3622.78350743
  PAW double counting   =    131409.10292472  -136388.93788849
  entropy T*S    EENTRO =        -0.98842599
  eigenvalues    EBANDS =    -15138.05721295
  atomic energy  EATOM  =    136002.60505376
  Solvation  Ediel_sol  =         0.00000000
  ---------------------------------------------------
  free energy    TOTEN  =      -357.18226468 eV

  energy without entropy =     -356.19383869  energy(sigma->0) =     -356.68805168


--------------------------------------------------------------------------------------------------------




--------------------------------------- Iteration      1(  21)  ---------------------------------------


    POTLOK:  cpu time    0.0425: real time    0.0426
    SETDIJ:  cpu time    0.0049: real time    0.0049
     EDDAV:  cpu time    2.2178: real time    2.2231
       DOS:  cpu time    0.0009: real time    0.0009
    CHARGE:  cpu time    0.0380: real time    0.0381
    MIXING:  cpu time    0.0028: real time    0.0028
    --------------------------------------------
      LOOP:  cpu time    2.3069: real time    2.3124

 eigenvalue-minimisations  :  1360
 total energy-change (2. order) : 0.2030350E+00  (-0.2630304E-01)
 number of electron     791.9999537 magnetization 
 augmentation part      312.1508459 magnetization 

 Broyden mixing:
  rms(total) = 0.54859E+00    rms(broyden)= 0.54819E+00
  rms(prec ) = 0.62898E+00
  weight for this iteration     100.00

 eigenvalues of (default mixing * dielectric matrix)
  average eigenvalue GAMMA=   0.5565
  1.9899  1.6762  1.6762  0.6678  0.6678  0.4169  0.4169  0.3267  0.2032  0.0836
  0.1499  0.1264  0.1264  0.1384  0.1233  0.1145

 Free energy of the ion-electron system (eV)
  ---------------------------------------------------
  alpha Z        PSCENC =      1909.09476555
  Ewald energy   TEWEN  =    163704.04698100
  -Hartree energ DENC   =   -285494.23170854
  -exchange      EXHF   =         0.00000000
  -V(xc)+E(xc)   XCENC  =      3622.77039950
  PAW double counting   =    131005.63577422  -135979.47474706
  entropy T*S    EENTRO =        -1.00738172
  eigenvalues    EBANDS =    -15126.41836641
  atomic energy  EATOM  =    136002.60505376
  Solvation  Ediel_sol  =         0.00000000
  ---------------------------------------------------
  free energy    TOTEN  =      -356.97922970 eV

  energy without entropy =     -355.97184798  energy(sigma->0) =     -356.47553884


--------------------------------------------------------------------------------------------------------




--------------------------------------- Iteration      1(  22)  ---------------------------------------


    POTLOK:  cpu time    0.0422: real time    0.0423
    SETDIJ:  cpu time    0.0049: real time    0.0049
[...]
    FORCOR:  cpu time    0.0557: real time    0.0559
    FORHAR:  cpu time    0.0247: real time    0.0249
    MIXING:  cpu time    0.0059: real time    0.0059
    OFIELD:  cpu time    0.0001: real time    0.0001

  FORCE on cell =-STRESS in cart. coord.  units (eV):
  Direction    XX          YY          ZZ          XY          YZ          ZX
  --------------------------------------------------------------------------------------
  Alpha Z  1909.09477  1909.09477  1909.09477
  Ewald  214008.89455213830.05204************  -494.82517  -374.74000   393.45566
  Hartree250952.22019250814.24537************  -327.13272  -226.97306   260.64404
  E(xc)   -5026.51565 -5026.72561 -5030.80197    -0.60936    -0.67454     0.65585
  Local  ************************467338.29653   807.55863   582.18731  -631.69373
  n-local  -684.87205  -688.91105  -692.72549    -3.44366    -3.15092     4.69503
  augment  5788.66597  5795.83201  5803.10381     9.03021     8.37924   -11.79588
  Kinetic 10961.11554 10967.27312 11004.01720    13.91212    20.14541   -25.34745
  Fock        0.00000     0.00000     0.00000     0.00000     0.00000     0.00000
  -------------------------------------------------------------------------------------
  Total     -32.71867   -31.81689   -25.45105     4.49006     5.17344    -9.38649
  in kB     -26.90311   -26.16162   -20.92727     3.69197     4.25389    -7.71809
  external pressure =      -24.66 kB  Pullay stress =        0.00 kB


 VOLUME and BASIS-vectors are now :
 -----------------------------------------------------------------------------
  energy-cutoff  :      450.00
  volume of cell :     1948.51
      direct lattice vectors                 reciprocal lattice vectors
     9.425102554  3.573298043  0.000000000     0.106099641  0.000000000  0.000000000
     0.000000000 10.079732985  0.000000000    -0.037612667  0.099208977  0.000000000
     0.000000000  0.000000000 20.510139882     0.000000000  0.000000000  0.048756372

  length of vectors
    10.079732985 10.079732985 20.510139882     0.106099641  0.106099641  0.048756372


 FORCES acting on ions
    electron-ion (+dipol)            ewald-force                    non-local-force                 convergence-correction
 -----------------------------------------------------------------------------------------------
   0.507E+03 -.151E+03 0.321E+04   -.510E+03 0.153E+03 -.321E+04   0.221E+01 -.115E+01 0.372E+01   -.823E-02 0.467E-02 0.107E-01
   0.442E+03 0.181E+02 0.275E+03   -.444E+03 -.173E+02 -.276E+03   0.151E+01 -.685E+00 0.777E+00   0.547E-02 -.533E-02 0.129E-01
   0.465E+03 0.469E+02 -.255E+04   -.466E+03 -.472E+02 0.255E+04   0.151E+01 0.175E+00 0.136E+01   0.233E-01 0.177E-01 -.134E-01
   0.452E+03 0.961E+02 -.488E+04   -.446E+03 -.102E+03 0.488E+04   -.605E+01 0.478E+01 0.346E+01   -.124E-01 0.160E-01 -.774E-02
   -.333E+02 -.655E+02 0.473E+04   0.301E+02 0.639E+02 -.472E+04   0.300E+01 0.129E+01 -.890E+01   0.420E-02 0.548E-02 -.104E-01
   0.405E+03 -.533E+02 0.226E+04   -.407E+03 0.541E+02 -.226E+04   0.181E+01 -.797E+00 0.164E+01   -.452E-02 0.363E-02 -.151E-02
   0.312E+03 0.213E+03 -.372E+04   -.312E+03 -.211E+03 0.373E+04   -.503E+00 -.142E+01 -.875E+00   -.115E-01 -.335E-01 -.246E-01
   0.418E+03 0.163E+02 -.710E+03   -.419E+03 -.158E+02 0.709E+03   0.129E+01 -.470E+00 0.513E+00   0.900E-02 -.158E-01 0.525E-03
   0.444E+03 0.515E+02 0.132E+04   -.446E+03 -.515E+02 -.132E+04   0.148E+01 -.984E-01 0.170E+01   -.164E-01 0.994E-02 0.182E-01
   0.452E+03 -.337E+02 -.167E+04   -.453E+03 0.335E+02 0.167E+04   0.154E+01 0.409E-01 0.617E+00   -.446E-03 0.824E-02 -.210E-01
   0.335E+03 -.102E+03 -.448E+04   -.338E+03 0.101E+03 0.448E+04   0.211E+01 0.281E+00 0.661E+00   0.248E-01 -.256E-03 -.141E-01
   0.304E+03 0.392E+03 0.423E+04   -.304E+03 -.388E+03 -.423E+04   0.704E+00 -.292E+01 -.238E+00   0.300E-02 0.153E-02 0.649E-02
   -.292E+03 0.516E+03 -.344E+04   0.293E+03 -.519E+03 0.345E+04   -.123E+01 0.242E+01 -.365E+01   -.160E-01 0.339E-02 -.180E-01
   -.328E+03 0.377E+03 0.483E+04   0.320E+03 -.372E+03 -.483E+04   0.712E+01 -.478E+01 -.304E+01   0.472E-02 -.569E-02 0.237E-02
   -.248E+03 0.478E+03 0.235E+04   0.248E+03 -.480E+03 -.235E+04   -.152E+00 0.184E+01 0.172E+01   0.129E-01 -.887E-02 0.922E-02
   -.202E+03 0.444E+03 -.558E+03   0.202E+03 -.444E+03 0.557E+03   0.109E-01 0.626E+00 0.137E+01   -.965E-02 0.366E-01 0.391E-02
   -.179E+03 0.437E+03 0.129E+04   0.179E+03 -.437E+03 -.129E+04   0.872E-01 0.353E+00 0.122E+01   0.398E-02 -.856E-02 0.137E-01
   -.917E+02 0.519E+03 -.180E+04   0.911E+02 -.518E+03 0.180E+04   0.911E+00 -.779E+00 0.103E+01   -.213E-01 -.110E-01 -.136E-01
   0.186E+03 0.378E+03 -.439E+04   -.182E+03 -.373E+03 0.438E+04   -.329E+01 -.491E+01 0.900E+01   -.270E-02 0.141E-02 -.212E-01
   -.135E+03 0.277E+03 0.410E+04   0.136E+03 -.278E+03 -.411E+04   -.720E+00 0.581E+00 0.549E+01   0.409E-02 -.197E-02 0.452E-02
   -.378E+02 0.454E+03 0.340E+04   0.381E+02 -.456E+03 -.340E+04   -.454E+00 0.271E+01 0.364E+01   0.399E-02 -.474E-02 0.900E-02
   -.160E+03 0.421E+03 0.380E+03   0.160E+03 -.422E+03 -.381E+03   0.890E-01 0.906E+00 0.105E+01   0.120E-02 -.278E-02 -.857E-03
   -.215E+03 0.347E+03 -.252E+04   0.216E+03 -.347E+03 0.252E+04   -.725E+00 0.873E+00 -.244E+00   0.245E-01 -.111E-01 -.546E-02
   -.276E+03 -.138E+03 -.475E+04   0.271E+03 0.141E+03 0.474E+04   0.509E+01 -.260E+01 0.101E+02   0.544E-02 -.110E-03 -.764E-02
   -.591E+03 -.613E+03 -.428E+04   0.591E+03 0.605E+03 0.428E+04   0.746E+00 0.685E+01 0.255E+01   -.207E-01 0.281E-01 -.246E-01
   -.211E+03 -.423E+03 0.419E+04   0.209E+03 0.426E+03 -.419E+04   0.168E+01 -.246E+01 0.150E+01   -.696E-03 0.430E-02 0.465E-02
   -.330E+03 -.399E+03 0.129E+04   0.330E+03 0.400E+03 -.129E+04   -.498E-01 -.111E+01 0.281E-01   0.132E-01 -.749E-02 0.168E-01
   -.402E+03 -.450E+03 -.160E+04   0.402E+03 0.451E+03 0.160E+04   -.212E+00 -.116E+01 0.149E+01   -.645E-02 0.362E-02 0.196E-02
   -.299E+03 -.538E+03 0.338E+04   0.299E+03 0.540E+03 -.338E+04   -.388E-01 -.177E+01 0.423E+01   -.321E-02 0.493E-04 0.270E-02
   -.306E+03 -.426E+03 0.340E+03   0.306E+03 0.427E+03 -.340E+03   -.268E+00 -.103E+01 0.368E+00   0.306E-02 -.875E-02 -.817E-02
   -.227E+03 -.331E+03 -.259E+04   0.226E+03 0.332E+03 0.259E+04   0.504E+00 -.106E+01 -.155E+01   -.566E-02 -.281E-01 -.263E-01
   0.171E+02 -.198E+02 -.476E+04   -.234E+02 0.213E+02 0.475E+04   0.539E+01 -.703E+00 0.619E+01   0.160E-01 0.651E-03 -.114E-02
   -.138E+03 0.318E+02 0.465E+04   0.138E+03 -.266E+02 -.465E+04   -.738E-01 -.461E+01 -.646E+00   -.408E-02 -.667E-02 -.107E-02
   -.273E+03 -.343E+03 0.223E+04   0.273E+03 0.344E+03 -.224E+04   0.262E+00 -.103E+01 0.165E+01   -.402E-02 0.661E-02 0.861E-02
   -.287E+03 -.413E+03 -.659E+03   0.287E+03 0.414E+03 0.658E+03   -.175E+00 -.884E+00 0.100E+01   -.124E-02 -.234E-02 -.127E-02
   -.311E+03 -.337E+03 -.370E+04   0.312E+03 0.337E+03 0.369E+04   -.338E-01 0.926E+00 0.131E+01   0.861E-02 -.102E-01 -.113E-01
   -.152E+03 -.367E+02 -.680E+03   0.154E+03 0.369E+02 0.679E+03   -.252E+01 -.202E+00 0.178E+01   -.880E-02 0.136E-01 -.102E-01
   -.855E+02 0.327E+02 -.179E+04   0.856E+02 -.337E+02 0.180E+04   -.832E+00 0.171E+01 -.366E+01   -.460E-03 0.195E-02 0.937E-03
   -.159E+03 0.185E+02 0.148E+04   0.161E+03 -.183E+02 -.149E+04   -.210E+01 -.204E+00 0.172E+00   0.446E-02 -.287E-02 0.114E-02
   -.141E+03 -.449E+01 0.420E+03   0.143E+03 0.488E+01 -.421E+03   -.200E+01 -.331E+00 0.162E+01   0.957E-04 0.271E-02 0.112E-01
   -.132E+03 -.562E+02 0.115E+04   0.134E+03 0.561E+02 -.115E+04   -.141E+01 0.120E+00 0.984E+00   0.196E-02 -.378E-02 0.432E-02
   -.117E+03 -.557E+01 0.303E+02   0.119E+03 0.582E+01 -.314E+02   -.215E+01 -.125E+00 0.112E+01   -.809E-02 -.886E-02 0.373E-03
   -.642E+02 0.338E+02 -.104E+04   0.657E+02 -.336E+02 0.104E+04   -.218E+01 -.102E+01 0.304E+01   0.536E-02 -.448E-02 -.149E-01
   -.104E+03 -.149E+03 0.196E+04   0.104E+03 0.150E+03 -.196E+04   -.841E+00 -.151E+01 0.488E+01   -.250E-02 0.379E-04 -.142E-02
   -.615E+00 0.809E+02 0.178E+04   0.362E+00 -.815E+02 -.178E+04   0.977E+00 0.128E+01 0.212E+01   0.717E-02 0.372E-02 -.817E-02
   -.124E+03 -.113E+02 0.771E+03   0.125E+03 0.113E+02 -.772E+03   -.178E+01 -.792E-01 0.133E+01   0.239E-02 -.376E-02 0.455E-02
   -.132E+03 -.157E+02 -.328E+03   0.134E+03 0.159E+02 0.327E+03   -.222E+01 -.277E+00 0.146E+01   -.285E-02 -.449E-02 0.498E-03
   -.139E+03 -.792E+02 -.150E+04   0.140E+03 0.799E+02 0.150E+04   -.138E+01 -.978E+00 -.535E+00   -.178E-02 -.116E-01 0.736E-03
   0.169E+03 -.124E+03 0.180E+04   -.170E+03 0.125E+03 -.180E+04   0.214E+01 -.114E+01 0.508E+01   0.201E-02 -.384E-02 -.133E-03
   0.802E+02 -.158E+03 0.606E+03   -.810E+02 0.160E+03 -.606E+03   0.632E+00 -.214E+01 -.702E-01   -.442E-02 0.588E-02 0.215E-02
   0.641E+02 -.155E+03 -.472E+03   -.650E+02 0.157E+03 0.474E+03   0.847E+00 -.218E+01 -.130E+01   0.120E-01 -.755E-02 0.102E-01
   0.179E+02 -.176E+03 -.145E+04   -.189E+02 0.178E+03 0.145E+04   0.155E+01 -.171E+01 0.683E+00   -.510E-02 0.106E-01 -.116E-01
   -.764E+01 -.161E+03 0.146E+04   0.772E+01 0.163E+03 -.146E+04   -.496E+00 -.246E+01 0.177E+01   -.462E-02 0.278E-03 -.341E-02
   0.641E+02 -.156E+03 0.257E+03   -.654E+02 0.159E+03 -.257E+03   0.128E+01 -.231E+01 -.406E+00   0.103E-02 0.219E-02 0.276E-03
   0.676E+02 -.131E+03 -.859E+03   -.685E+02 0.133E+03 0.860E+03   0.106E+01 -.184E+01 -.828E+00   -.366E-02 -.682E-02 -.649E-02
   0.158E+03 -.774E+02 -.184E+04   -.160E+03 0.810E+02 0.185E+04   0.245E+01 -.452E+01 -.376E+01   -.724E-02 -.361E-02 -.749E-03
   0.784E+02 -.107E+03 0.955E+03   -.793E+02 0.109E+03 -.954E+03   0.109E+01 -.215E+01 -.103E+01   -.508E-02 0.253E-02 0.306E-02
   0.815E+02 -.151E+03 -.142E+03   -.824E+02 0.153E+03 0.144E+03   0.805E+00 -.214E+01 -.127E+01   -.781E-02 0.805E-02 0.751E-02
   0.892E+02 -.169E+03 -.122E+04   -.904E+02 0.171E+03 0.122E+04   0.105E+01 -.151E+01 0.438E+00   0.271E-02 0.228E-02 -.822E-02
   0.136E+03 -.586E+02 0.189E+04   -.137E+03 0.587E+02 -.189E+04   0.188E+01 -.110E+01 0.441E+01   0.277E-02 -.282E-02 0.114E-02
   0.128E+03 -.108E+03 0.189E+04   -.130E+03 0.111E+03 -.189E+04   0.257E+01 -.315E+01 0.364E+01   -.367E-02 -.130E-02 0.356E-03
   0.992E+02 0.128E+03 0.102E+04   -.101E+03 -.130E+03 -.102E+04   0.189E+01 0.220E+01 -.310E+00   0.101E-02 -.161E-04 0.141E-02
   0.114E+03 0.131E+03 -.352E+02   -.116E+03 -.133E+03 0.349E+02   0.180E+01 0.193E+01 0.524E+00   0.504E-02 0.544E-02 0.593E-02
   0.125E+03 0.154E+03 -.110E+04   -.127E+03 -.157E+03 0.110E+04   0.169E+01 0.263E+01 0.906E+00   -.555E-02 0.669E-02 -.675E-02
   -.193E+02 0.236E+03 -.185E+04   0.196E+02 -.238E+03 0.185E+04   -.629E+00 0.407E+01 -.336E+01   -.422E-02 -.399E-02 0.515E-02
   0.866E+02 0.131E+03 -.440E+03   -.879E+02 -.133E+03 0.440E+03   0.188E+01 0.162E+01 0.687E+00   0.492E-02 -.106E-01 0.389E-02
   0.888E+02 0.518E+02 0.175E+04   -.894E+02 -.524E+02 -.175E+04   0.229E+00 0.664E+00 0.232E+01   -.281E-02 0.633E-02 -.292E-02
   0.111E+03 0.118E+03 0.676E+03   -.113E+03 -.120E+03 -.677E+03   0.175E+01 0.225E+01 0.428E+00   0.529E-02 -.973E-03 0.262E-02
   0.922E+02 0.100E+03 0.155E+04   -.926E+02 -.101E+03 -.155E+04   -.389E-01 0.115E+01 0.195E+01   -.604E-02 0.330E-02 0.153E-02
   0.121E+03 0.119E+03 0.342E+03   -.123E+03 -.121E+03 -.342E+03   0.189E+01 0.188E+01 0.534E+00   0.208E-02 -.162E-02 0.385E-02
   0.122E+03 0.114E+03 -.757E+03   -.124E+03 -.116E+03 0.756E+03   0.213E+01 0.200E+01 0.157E+00   0.833E-02 0.281E-02 -.112E-01
   0.793E+02 -.149E+02 -.173E+04   -.805E+02 0.144E+02 0.173E+04   0.174E+01 0.868E+00 -.678E+00   0.193E-01 0.507E-03 -.105E-02
 -----------------------------------------------------------------------------------------------
   -.378E+02 0.206E+02 -.750E+02   0.398E-12 -.140E-12 0.130E-10   0.378E+02 -.205E+02 0.750E+02   0.255E-01 -.254E-01 -.121E+00
 
 
 POSITION                                       TOTAL-FORCE (eV/Angst)
 -----------------------------------------------------------------------------------
      3.52812      8.91113      1.95077        -0.175891      0.325758     -0.263396
      4.94442      7.93342      4.57627         0.091422      0.130901     -0.015085
      6.36071      6.95571      7.20177         0.101734     -0.152121      0.197707
      7.77701      5.97799      9.82727         0.550081     -0.895881     -0.759307
      5.72562      4.03422      0.20043        -0.128715     -0.331596      1.857864
      7.14192      3.05650      2.82594        -0.135813      0.041647     -0.089307
      0.54941      7.60751      8.07694        -0.217083      0.554099      0.163599
      8.55821     12.15852      5.45144         0.130589      0.054633      0.072784
      1.33062      3.70831      3.70110        -0.123856     -0.053214     -0.070163
      2.74691      2.73060      6.32660         0.182525     -0.059250     -0.072157
      4.16321      1.75289      8.95211        -0.745029     -0.384695     -0.495933
      9.33942      8.25932      1.07560         0.194853      0.763015      0.578339
      0.09369      1.20229      8.43993         0.148512     -0.131758      0.520343
      5.26990      7.70873      0.56342        -0.554043      0.049034      1.153179
      6.68620      6.73101      3.18892        -0.195744     -0.034975     -0.241860
      8.10249      5.75330      5.81443        -0.001802      0.172849     -0.028337
      0.87489      7.38282      4.06409         0.055259     -0.029512     -0.021955
      2.29119      6.40511      6.68959         0.294326      0.221837     -0.396689
      3.70749      5.42740      9.31510         0.181266      0.480244     -1.904182
      8.88370     11.93383      1.43859         0.005450      0.148172     -0.703305
      3.07240      2.50591      2.31376        -0.151112     -0.043894     -0.428553
      4.48869     11.60793      4.93926        -0.043714     -0.075774     -0.007073
      5.90499     10.63022      7.56476         0.011595      0.149418      0.307059
      7.32128      9.65250     10.19026        -0.711929      0.001835     -2.034173
      0.46788      3.60710      9.13360         0.241455     -0.747058     -0.566633
      5.64409     10.11353      1.25709        -0.245770      0.726199      0.389926
      7.06039      9.13582      3.88260        -0.167160     -0.061739     -0.118673
      8.47669      8.15811      6.50810         0.225219     -0.158017      0.045788
      9.25789      4.25891      2.13226        -0.049652      0.138557     -0.624069
      1.24909      9.78763      4.75776        -0.034672      0.075935     -0.002470
      2.66538      8.80992      7.38327        -0.094069     -0.263269      0.602439
      4.08168      7.83221     10.00877        -0.901902      0.798104     -1.682990
      2.03029      5.88843      0.38193        -0.274559      0.518482      0.726305
      3.44659      4.91072      3.00743         0.109636     -0.039008     -0.115487
      4.86289      3.93300      5.63293         0.094305     -0.035302      0.011748
      6.27918      2.95529      8.25843         0.380241      0.094206     -0.520238
      0.60152      2.86980      7.00134        -0.050806      0.011149      0.460941
      2.01782      1.89209      9.62684        -0.762965      0.724153      0.287565
      7.19404      8.39852      1.75033        -0.257433      0.007267     -1.639505
      8.61033      7.42081      4.37584        -0.076763      0.061556      0.024561
      1.38273      9.05033      2.62550         0.057196     -0.062513     -0.187922
      2.79903      8.07262      5.25100        -0.040927      0.113409      0.019173
      4.21532      7.09490      7.87651        -0.685315     -0.844361      1.502530
      9.39154     13.60134      0.00000        -0.022322     -0.247624      0.977816
      3.58024      4.17341      0.87517         0.731282      0.701032     -1.085104
      4.99653      3.19570      3.50067        -0.144260     -0.077431     -0.023390
      6.41283     12.29772      6.12617        -0.172528     -0.135650      0.071535
      7.82912     11.32001      8.75167        -0.422964     -0.277793      1.076289
      3.55982     10.90733      0.89143         0.699290     -0.361439      0.276172
      4.97612      9.92962      3.51693        -0.169952     -0.408901      0.141237
      6.39241      8.95190      6.14243         0.016054     -0.117139     -0.056936
      7.80871      7.97419      8.76794         0.629128     -0.227531      1.638085
      7.17362      5.05270      1.76660        -0.425361     -0.287205     -0.593966
      8.58992      4.07499      4.39210         0.011335     -0.038548     -0.154462
      0.58111      9.60371      7.01760         0.116148      0.024941     -0.129542
      1.99741      8.62600      9.64310         0.556936     -0.878806     -0.628273
      1.36232      5.70451      2.64176         0.243977     -0.524269     -0.174113
      2.77861      4.72680      5.26727        -0.072412     -0.012577     -0.051335
      4.19491      3.74909      7.89277        -0.142178      0.039800      1.405138
      9.37112     10.25552      0.01626         0.883121     -1.020915      0.430805
      3.08334      7.84514      0.00813         1.014278     -0.661621     -0.035979
      4.49963      6.86742      2.63363         0.055493      0.230345     -0.049008
      5.91593      5.88971      5.25914        -0.091491     -0.082067      0.208732
      7.33222      4.91200      7.88464         0.093239      0.051448      0.653906
      8.74852      3.93429     10.51014        -0.331776      1.700210     -1.072134
      0.10463      6.54152      6.13430         0.503388     -0.190216      0.845753
      6.69714     12.07024      0.88330        -0.371616      0.015771     -0.390251
      8.11343     11.09253      3.50880         0.179781      0.149048      0.022835
      0.88583      2.64232      1.75847        -0.475847      0.295484      0.058352
      2.30213      1.66461      4.38397         0.098013     -0.050847      0.078648
      3.71843     10.76663      7.00947         0.194016      0.092032     -0.079354
      5.13472      9.78891      9.63497         0.588283      0.341947      0.706154
 -----------------------------------------------------------------------------------
    total drift:                                0.045164      0.100658     -0.050946


--------------------------------------------------------------------------------------------------------



  FREE ENERGIE OF THE ION-ELECTRON SYSTEM (eV)
  ---------------------------------------------------
  free  energy   TOTEN  =      -356.83299025 eV

  energy  without entropy=     -355.82115893  energy(sigma->0) =     -356.32707459
 


--------------------------------------------------------------------------------------------------------


    POTLOK:  cpu time    0.0468: real time    0.0475


--------------------------------------------------------------------------------------------------------


     LOOP+:  cpu time   86.4687: real time   86.7557
    4ORBIT:  cpu time    0.0000: real time    0.0000

 total amount of memory used by VASP MPI-rank0    45303. kBytes
=======================================================================

   base      :      30000. kBytes
   nonlr-proj:       2304. kBytes
   fftplans  :       3383. kBytes
   grid      :       6052. kBytes
   one-center:         93. kBytes
   wavefun   :       3471. kBytes
 
  
  
 General timing and accounting informations for this job:
 ========================================================
  
                  Total CPU time used (sec):       88.563
                            User time (sec):       87.878
                          System time (sec):        0.685
                         Elapsed time (sec):       89.280
  
                   Maximum memory used (kb):      225284.
                   Average memory used (kb):           0.
  
                          Minor page faults:        81833
                          Major page faults:            0
                 Voluntary context switches:          915
