  74  74   0   0
  0.3540023E+02  0.1688469E-08  0.9578410E-09  0.1619762E-08  0.5000000E-15
  1.000000000000000E-004
  CAR 
 "Millerite NiS"                         
      9.09743220    -67.91336891  301     -0.25854439      1.00000000
    -67.913  0.0000E+00  0.0000E+00
    -67.657  0.0000E+00  0.0000E+00
    -67.400  0.0000E+00  0.0000E+00
    -67.143  0.0000E+00  0.0000E+00
    -66.887  0.0000E+00  0.0000E+00
    -66.630  0.0000E+00  0.0000E+00
    -66.373  0.0000E+00  0.0000E+00
    -66.116  0.0000E+00  0.0000E+00
    -65.860  0.0000E+00  0.0000E+00
    -65.603  0.0000E+00  0.0000E+00
    -65.346  0.4158E-09  0.1067E-09
    -65.090  0.2469E-04  0.6338E-05
    -64.833  0.6957E-01  0.1787E-01
    -64.576  0.1085E+02  0.2803E+01
    -64.320  0.1285E+03  0.3578E+02
    -64.063  0.2173E+03  0.9157E+02
    -63.806  0.1714E+03  0.1356E+03
    -63.549  0.1340E+03  0.1700E+03
    -63.293  0.1043E+03  0.1967E+03
    -63.036  0.6635E+02  0.2138E+03
    -62.779  0.2953E+02  0.2213E+03
    -62.523  0.2544E+01  0.2220E+03
    -62.266  0.1798E-01  0.2220E+03
    -62.009  0.7155E-05  0.2220E+03
    -61.753  0.1335E-09  0.2220E+03
    -61.496  0.0000E+00  0.2220E+03
    -61.239  0.0000E+00  0.2220E+03
    -60.982  0.0000E+00  0.2220E+03
    -60.726  0.0000E+00  0.2220E+03
    -60.469  0.0000E+00  0.2220E+03
    -60.212  0.0000E+00  0.2220E+03
    -59.956  0.0000E+00  0.2220E+03
    -59.699  0.0000E+00  0.2220E+03
    -59.442  0.0000E+00  0.2220E+03
    -59.185  0.0000E+00  0.2220E+03
    -58.929  0.0000E+00  0.2220E+03
    -58.672  0.0000E+00  0.2220E+03
    -58.415  0.0000E+00  0.2220E+03
    -58.159  0.0000E+00  0.2220E+03
    -57.902  0.0000E+00  0.2220E+03
    -57.645  0.0000E+00  0.2220E+03
    -57.389  0.0000E+00  0.2220E+03
    -57.132  0.0000E+00  0.2220E+03
    -56.875  0.0000E+00  0.2220E+03
    -56.618  0.0000E+00  0.2220E+03
    -56.362  0.0000E+00  0.2220E+03
    -56.105  0.0000E+00  0.2220E+03
    -55.848  0.0000E+00  0.2220E+03
    -55.592  0.0000E+00  0.2220E+03
    -55.335  0.0000E+00  0.2220E+03
    -55.078  0.0000E+00  0.2220E+03
    -54.822  0.0000E+00  0.2220E+03
    -54.565  0.0000E+00  0.2220E+03
    -54.308  0.0000E+00  0.2220E+03
    -54.051  0.0000E+00  0.2220E+03
    -53.795  0.0000E+00  0.2220E+03
    -53.538  0.0000E+00  0.2220E+03
    -53.281  0.0000E+00  0.2220E+03
    -53.025  0.0000E+00  0.2220E+03
    -52.768  0.0000E+00  0.2220E+03
    -52.511  0.0000E+00  0.2220E+03
    -52.255  0.0000E+00  0.2220E+03
    -51.998  0.0000E+00  0.2220E+03
    -51.741  0.0000E+00  0.2220E+03
    -51.484  0.0000E+00  0.2220E+03
    -51.228  0.0000E+00  0.2220E+03
    -50.971  0.0000E+00  0.2220E+03
    -50.714  0.0000E+00  0.2220E+03
    -50.458  0.0000E+00  0.2220E+03
    -50.201  0.0000E+00  0.2220E+03
    -49.944  0.0000E+00  0.2220E+03
    -49.687  0.0000E+00  0.2220E+03
    -49.431  0.0000E+00  0.2220E+03
    -49.174  0.0000E+00  0.2220E+03
    -48.917  0.0000E+00  0.2220E+03
    -48.661  0.0000E+00  0.2220E+03
    -48.404  0.0000E+00  0.2220E+03
    -48.147  0.0000E+00  0.2220E+03
    -47.891  0.0000E+00  0.2220E+03
    -47.634  0.0000E+00  0.2220E+03
    -47.377  0.0000E+00  0.2220E+03
    -47.120  0.0000E+00  0.2220E+03
    -46.864  0.0000E+00  0.2220E+03
    -46.607  0.0000E+00  0.2220E+03
    -46.350  0.0000E+00  0.2220E+03
    -46.094  0.0000E+00  0.2220E+03
    -45.837  0.0000E+00  0.2220E+03
    -45.580  0.0000E+00  0.2220E+03
    -45.324  0.0000E+00  0.2220E+03
    -45.067  0.0000E+00  0.2220E+03
    -44.810  0.0000E+00  0.2220E+03
    -44.553  0.0000E+00  0.2220E+03
    -44.297  0.0000E+00  0.2220E+03
    -44.040  0.0000E+00  0.2220E+03
    -43.783  0.0000E+00  0.2220E+03
    -43.527  0.0000E+00  0.2220E+03
    -43.270  0.0000E+00  0.2220E+03
    -43.013  0.0000E+00  0.2220E+03
    -42.757  0.0000E+00  0.2220E+03
    -42.500  0.0000E+00  0.2220E+03
    -42.243  0.0000E+00  0.2220E+03
    -41.986  0.0000E+00  0.2220E+03
    -41.730  0.0000E+00  0.2220E+03
    -41.473  0.0000E+00  0.2220E+03
    -41.216  0.0000E+00  0.2220E+03
    -40.960  0.0000E+00  0.2220E+03
    -40.703  0.0000E+00  0.2220E+03
    -40.446  0.0000E+00  0.2220E+03
    -40.189  0.0000E+00  0.2220E+03
    -39.933  0.0000E+00  0.2220E+03
    -39.676  0.0000E+00  0.2220E+03
    -39.419  0.0000E+00  0.2220E+03
    -39.163  0.0000E+00  0.2220E+03
    -38.906  0.0000E+00  0.2220E+03
    -38.649  0.0000E+00  0.2220E+03
    -38.393  0.0000E+00  0.2220E+03
    -38.136  0.0000E+00  0.2220E+03
    -37.879  0.0000E+00  0.2220E+03
    -37.622  0.0000E+00  0.2220E+03
    -37.366  0.0000E+00  0.2220E+03
    -37.109  0.0000E+00  0.2220E+03
    -36.852  0.0000E+00  0.2220E+03
    -36.596  0.0000E+00  0.2220E+03
    -36.339  0.0000E+00  0.2220E+03
    -36.082  0.0000E+00  0.2220E+03
    -35.826  0.0000E+00  0.2220E+03
    -35.569  0.0000E+00  0.2220E+03
    -35.312  0.0000E+00  0.2220E+03
    -35.055  0.0000E+00  0.2220E+03
    -34.799  0.0000E+00  0.2220E+03
    -34.542  0.0000E+00  0.2220E+03
    -34.285  0.0000E+00  0.2220E+03
    -34.029  0.0000E+00  0.2220E+03
    -33.772  0.0000E+00  0.2220E+03
    -33.515  0.0000E+00  0.2220E+03
    -33.259  0.0000E+00  0.2220E+03
    -33.002  0.0000E+00  0.2220E+03
    -32.745  0.0000E+00  0.2220E+03
    -32.488  0.0000E+00  0.2220E+03
    -32.232  0.0000E+00  0.2220E+03
    -31.975  0.0000E+00  0.2220E+03
    -31.718  0.0000E+00  0.2220E+03
    -31.462  0.0000E+00  0.2220E+03
    -31.205  0.0000E+00  0.2220E+03
    -30.948  0.0000E+00  0.2220E+03
    -30.691  0.0000E+00  0.2220E+03
    -30.435  0.0000E+00  0.2220E+03
    -30.178  0.0000E+00  0.2220E+03
    -29.921  0.0000E+00  0.2220E+03
    -29.665  0.0000E+00  0.2220E+03
    -29.408  0.0000E+00  0.2220E+03
    -29.151  0.0000E+00  0.2220E+03
    -28.895  0.0000E+00  0.2220E+03
    -28.638  0.0000E+00  0.2220E+03
    -28.381  0.0000E+00  0.2220E+03
    -28.124  0.0000E+00  0.2220E+03
    -27.868  0.0000E+00  0.2220E+03
    -27.611  0.0000E+00  0.2220E+03
    -27.354  0.0000E+00  0.2220E+03
    -27.098  0.0000E+00  0.2220E+03
    -26.841  0.0000E+00  0.2220E+03
    -26.584  0.0000E+00  0.2220E+03
    -26.328  0.0000E+00  0.2220E+03
    -26.071  0.0000E+00  0.2220E+03
    -25.814  0.0000E+00  0.2220E+03
    -25.557  0.0000E+00  0.2220E+03
    -25.301  0.0000E+00  0.2220E+03
    -25.044  0.0000E+00  0.2220E+03
    -24.787  0.0000E+00  0.2220E+03
    -24.531  0.0000E+00  0.2220E+03
    -24.274  0.0000E+00  0.2220E+03
    -24.017  0.0000E+00  0.2220E+03
    -23.761  0.0000E+00  0.2220E+03
    -23.504  0.0000E+00  0.2220E+03
    -23.247  0.0000E+00  0.2220E+03
    -22.990  0.0000E+00  0.2220E+03
    -22.734  0.0000E+00  0.2220E+03
    -22.477  0.0000E+00  0.2220E+03
    -22.220  0.0000E+00  0.2220E+03
    -21.964  0.0000E+00  0.2220E+03
    -21.707  0.0000E+00  0.2220E+03
    -21.450  0.0000E+00  0.2220E+03
    -21.193  0.0000E+00  0.2220E+03
    -20.937  0.0000E+00  0.2220E+03
    -20.680  0.0000E+00  0.2220E+03
    -20.423  0.0000E+00  0.2220E+03
    -20.167  0.0000E+00  0.2220E+03
    -19.910  0.0000E+00  0.2220E+03
    -19.653  0.0000E+00  0.2220E+03
    -19.397  0.0000E+00  0.2220E+03
    -19.140  0.0000E+00  0.2220E+03
    -18.883  0.0000E+00  0.2220E+03
    -18.626  0.0000E+00  0.2220E+03
    -18.370  0.0000E+00  0.2220E+03
    -18.113  0.0000E+00  0.2220E+03
    -17.856  0.0000E+00  0.2220E+03
    -17.600  0.0000E+00  0.2220E+03
    -17.343  0.0000E+00  0.2220E+03
    -17.086  0.0000E+00  0.2220E+03
    -16.830  0.0000E+00  0.2220E+03
    -16.573  0.0000E+00  0.2220E+03
    -16.316  0.2811E-12  0.2220E+03
    -16.059  0.5608E-07  0.2220E+03
    -15.803  0.4537E-03  0.2220E+03
    -15.546  0.1618E+00  0.2220E+03
    -15.289  0.3242E+01  0.2229E+03
    -15.033  0.8909E+01  0.2252E+03
    -14.776  0.1026E+02  0.2278E+03
    -14.519  0.1125E+02  0.2307E+03
    -14.263  0.1893E+02  0.2355E+03
    -14.006  0.2850E+02  0.2429E+03
    -13.749  0.3297E+02  0.2513E+03
    -13.492  0.3044E+02  0.2591E+03
    -13.236  0.1730E+02  0.2636E+03
    -12.979  0.1739E+02  0.2680E+03
    -12.722  0.2887E+02  0.2755E+03
    -12.466  0.3538E+02  0.2845E+03
    -12.209  0.1937E+02  0.2895E+03
    -11.952  0.1226E+02  0.2927E+03
    -11.695  0.1012E+02  0.2953E+03
    -11.439  0.2818E+01  0.2960E+03
    -11.182  0.9228E-01  0.2960E+03
    -10.925  0.1729E-03  0.2960E+03
    -10.669  0.1425E-07  0.2960E+03
    -10.412  0.4757E-13  0.2960E+03
    -10.155  0.0000E+00  0.2960E+03
     -9.899  0.0000E+00  0.2960E+03
     -9.642  0.0000E+00  0.2960E+03
     -9.385  0.0000E+00  0.2960E+03
     -9.128  0.0000E+00  0.2960E+03
     -8.872  0.0000E+00  0.2960E+03
     -8.615  0.0000E+00  0.2960E+03
     -8.358  0.0000E+00  0.2960E+03
     -8.102  0.6704E-13  0.2960E+03
     -7.845  0.1981E-07  0.2960E+03
     -7.588  0.2533E-03  0.2960E+03
     -7.332  0.1605E+00  0.2960E+03
     -7.075  0.6394E+01  0.2977E+03
     -6.818  0.2389E+02  0.3038E+03
     -6.561  0.2282E+02  0.3097E+03
     -6.305  0.3549E+02  0.3188E+03
     -6.048  0.4200E+02  0.3296E+03
     -5.791  0.4563E+02  0.3413E+03
     -5.535  0.5244E+02  0.3547E+03
     -5.278  0.5190E+02  0.3681E+03
     -5.021  0.3842E+02  0.3779E+03
     -4.765  0.4266E+02  0.3889E+03
     -4.508  0.5882E+02  0.4040E+03
     -4.251  0.5599E+02  0.4184E+03
     -3.994  0.5880E+02  0.4334E+03
     -3.738  0.7305E+02  0.4522E+03
     -3.481  0.6066E+02  0.4678E+03
     -3.224  0.5930E+02  0.4830E+03
     -2.968  0.6647E+02  0.5001E+03
     -2.711  0.7510E+02  0.5193E+03
     -2.454  0.8146E+02  0.5402E+03
     -2.197  0.1104E+03  0.5686E+03
     -1.941  0.1474E+03  0.6064E+03
     -1.684  0.1690E+03  0.6498E+03
     -1.427  0.1595E+03  0.6908E+03
     -1.171  0.1437E+03  0.7276E+03
     -0.914  0.1178E+03  0.7579E+03
     -0.657  0.1020E+03  0.7841E+03
     -0.401  0.8097E+02  0.8048E+03
     -0.144  0.6212E+02  0.8208E+03
      0.113  0.5721E+02  0.8355E+03
      0.370  0.5554E+02  0.8497E+03
      0.626  0.6164E+02  0.8656E+03
      0.883  0.5881E+02  0.8807E+03
      1.140  0.4753E+02  0.8929E+03
      1.396  0.1179E+02  0.8959E+03
      1.653  0.9045E+00  0.8961E+03
      1.910  0.4637E+01  0.8973E+03
      2.166  0.8261E+01  0.8994E+03
      2.423  0.8269E+01  0.9015E+03
      2.680  0.7228E+01  0.9034E+03
      2.937  0.9434E+01  0.9058E+03
      3.193  0.1109E+02  0.9087E+03
      3.450  0.1696E+02  0.9130E+03
      3.707  0.1572E+02  0.9171E+03
      3.963  0.1607E+02  0.9212E+03
      4.220  0.2664E+02  0.9280E+03
      4.477  0.2987E+02  0.9357E+03
      4.733  0.2424E+02  0.9419E+03
      4.990  0.3135E+02  0.9500E+03
      5.247  0.3890E+02  0.9599E+03
      5.504  0.4064E+02  0.9704E+03
      5.760  0.1975E+02  0.9754E+03
      6.017  0.2128E+01  0.9760E+03
      6.274  0.2035E-01  0.9760E+03
      6.530  0.1028E-04  0.9760E+03
      6.787  0.2261E-09  0.9760E+03
      7.044  0.0000E+00  0.9760E+03
      7.301  0.0000E+00  0.9760E+03
      7.557  0.0000E+00  0.9760E+03
      7.814  0.0000E+00  0.9760E+03
      8.071  0.0000E+00  0.9760E+03
      8.327  0.0000E+00  0.9760E+03
      8.584  0.0000E+00  0.9760E+03
      8.841  0.0000E+00  0.9760E+03
      9.097  0.0000E+00  0.9760E+03
