
72 atoms
2 atom types
   0.0000000000   16.8846940542 xlo xhi
   0.0000000000    9.5784100000 ylo yhi
   0.0000000000   16.1690871197 zlo zhi
   0.0000000000    0.0000000000    0.0000000000 xy xz yz

Atoms # atomic

     1      1   13.1708432418    1.3917137972    1.9497492410
     2      1   13.7545126198    1.3917137972    5.0342927957
     3      1    4.4366615172    6.1809187972    0.4074774555
     4      1    5.0203308953    6.1809187972    3.4920210102
     5      1    7.3480554254    1.3917137972    0.9215680507
     6      1    7.9317248035    1.3917137972    4.0061116054
     7      1   16.0822371500    6.1809187972    2.4638398361
     8      1   16.6659065280    6.1809187972    5.5483833908
     9      1    2.1089370040    1.3917137972    2.9779304313
    10      1    2.6926063820    1.3917137972    6.0624739860
    11      1   10.2594493336    6.1809187972    1.4356586458
    12      1   10.8431187116    6.1809187972    4.5202022005
    13      1   15.3242575016    0.1263771009    1.5422717854
    14      1   15.9079268796    0.1263771009    4.6268153401
    15      1    7.1737451720    4.9155821009    3.0845435547
    16      1    7.7574145500    4.9155821009    6.1690871255
    17      1   10.0851390633    0.1263771009    3.5986341498
    18      1    1.3509573556    4.9155821009    2.0563623806
    19      1    1.9346267336    4.9155821009    5.1409059353
    20      1    4.2623512638    0.1263771009    2.5704529595
    21      1    4.8460206418    0.1263771009    5.6549965304
    22      1   12.4128635934    4.9155821009    1.0281811903
    23      1   12.9965329715    4.9155821009    4.1127247450
    24      1   15.3242575016    2.6570504934    1.5422717854
    25      1   15.9079268796    2.6570504934    4.6268153401
    26      1    6.5900757771    7.4462554934    0.0000000000
    27      1    7.1737451720    7.4462554934    3.0845435547
    28      1    7.7574145500    7.4462554934    6.1690871255
    29      1    9.5014696853    2.6570504934    0.5140905951
    30      1   10.0851390633    2.6570504934    3.5986341498
    31      1    1.3509573556    7.4462554934    2.0563623806
    32      1    1.9346267336    7.4462554934    5.1409059353
    33      1    4.2623512638    2.6570504934    2.5704529595
    34      1    4.8460206418    2.6570504934    5.6549965304
    35      1   12.4128635934    7.4462554934    1.0281811903
    36      1   12.9965329715    7.4462554934    4.1127247450
    37      2    0.4394944537    1.3917137972    6.0339419501
    38      2   16.7405191299    1.3917137972    2.9493983955
    39      2    8.0063374054    6.1809187972    1.4071266100
    40      2    8.5900067834    6.1809187972    4.4916701809
    41      2   10.9177313135    1.3917137972    1.9212172052
    42      2   11.5014006916    1.3917137972    5.0057607760
    43      2    2.1835495890    6.1809187972    0.3789454359
    44      2    2.7672189670    6.1809187972    3.4634889906
    45      2    5.0949434972    1.3917137972    0.8930360311
    46      2    5.6786128752    1.3917137972    3.9775795857
    47      2   13.8291252217    6.1809187972    2.4353078003
    48      2   14.4127945998    6.1809187972    5.5198513550
    49      2   13.4147728710    3.0029460353    0.3837213315
    50      2   13.9984422659    3.0029460353    3.4682648862
    51      2    5.2642605414    7.7921510353    1.9259931169
    52      2    5.8479299194    7.7921510353    5.0105366716
    53      2    8.1756544496    3.0029460353    2.4400837121
    54      2    8.7593238276    3.0029460353    5.5246272668
    55      2    0.0251421030    7.7921510353    3.9823554813
    56      2   16.3261667792    7.7921510353    0.8978119267
    57      2    2.3528666332    3.0029460353    1.4119025218
    58      2    2.9365360112    3.0029460353    4.4964460765
    59      2   11.0870483577    7.7921510353    2.9541742911
    60      2   11.6707177358    7.7921510353    6.0387178619
    61      2    5.2642605414    4.5696865590    1.9259931169
    62      2    5.8479299194    4.5696865590    5.0105366716
    63      2   13.4147728710    9.3588915590    0.3837213315
    64      2   13.9984422659    9.3588915590    3.4682648862
    65      2    0.0251421030    4.5696865590    3.9823554813
    66      2   16.3261667792    4.5696865590    0.8978119267
    67      2    8.1756544496    9.3588915590    2.4400837121
    68      2    8.7593238276    9.3588915590    5.5246272668
    69      2   11.0870483577    4.5696865590    2.9541742911
    70      2   11.6707177358    4.5696865590    6.0387178619
    71      2    2.3528666332    9.3588915590    1.4119025218
    72      2    2.9365360112    9.3588915590    4.4964460765
