LAMMPS (5 Jun 2019)
OMP_NUM_THREADS environment is not set. Defaulting to 1 thread. (../comm.cpp:88)
  using 1 OpenMP thread(s) per MPI task
Reading data file ...
  triclinic box = (0 0 0) to (16.8847 9.57841 16.1691) with tilt (0 0 0)
  1 by 1 by 1 MPI processor grid
  reading atoms ...
  72 atoms
  read_data CPU = 0.000807669 secs
31 atoms in group bulk
WARNING: Using 'neigh_modify every 1 delay 0 check yes' setting during minimization (../min.cpp:168)
Neighbor list info ...
  update every 1 steps, delay 0 steps, check yes
  max neighbors/atom: 2000, page size: 100000
  master list distance cutoff = 8.5
  ghost atom cutoff = 8.5
  binsize = 4.25, bins = 4 3 4
  1 neighbor lists, perpetual/occasional/extra = 1 0 0
  (1) pair eam/alloy, perpetual
      attributes: half, newton on
      pair build: half/bin/newton/tri
      stencil: half/bin/3d/newton/tri
      bin: standard
Setting up cg style minimization ...
  Unit style    : metal
  Current step  : 0
Per MPI rank memory allocation (min/avg/max) = 4.107 | 4.107 | 4.107 Mbytes
Step Temp E_pair E_mol TotEng Press 
       0            0   -297.79853            0   -297.79853    -102511.8 
      35            0   -327.01822            0   -327.01822   -11758.971 
Loop time of 0.0165521 on 1 procs for 35 steps with 72 atoms

99.0% CPU use with 1 MPI tasks x 1 OpenMP threads

Minimization stats:
  Stopping criterion = energy tolerance
  Energy initial, next-to-last, final = 
        -297.798534847     -327.016438376     -327.018219655
  Force two-norm initial, final = 13.8815 0.134658
  Force max component initial, final = 3.00483 0.049251
  Final line search alpha, max atom move = 0.974492 0.0479948
  Iterations, force evaluations = 35 46

MPI task timing breakdown:
Section |  min time  |  avg time  |  max time  |%varavg| %total
---------------------------------------------------------------
Pair    | 0.0149     | 0.0149     | 0.0149     |   0.0 | 90.02
Neigh   | 0.00089511 | 0.00089511 | 0.00089511 |   0.0 |  5.41
Comm    | 0.00035907 | 0.00035907 | 0.00035907 |   0.0 |  2.17
Output  | 0          | 0          | 0          |   0.0 |  0.00
Modify  | 2.9039e-05 | 2.9039e-05 | 2.9039e-05 |   0.0 |  0.18
Other   |            | 0.0003686  |            |       |  2.23

Nlocal:    72 ave 72 max 72 min
Histogram: 1 0 0 0 0 0 0 0 0 0
Nghost:    748 ave 748 max 748 min
Histogram: 1 0 0 0 0 0 0 0 0 0
Neighs:    3363 ave 3363 max 3363 min
Histogram: 1 0 0 0 0 0 0 0 0 0

Total # of neighbors = 3363
Ave neighs/atom = 46.7083
Neighbor list builds = 2
Dangerous builds = 0
System init for write_data ...
Total wall time: 0:00:00
