  72  72   0   0
  0.2706271E+02  0.1007973E-08  0.1007973E-08  0.2051014E-08  0.5000000E-15
  1.000000000000000E-004
  CAR 
 "Millerite NiS"                         
     11.10325819    -66.78377375  301      1.51175164      1.00000000
    -66.784  0.0000E+00  0.0000E+00
    -66.524  0.0000E+00  0.0000E+00
    -66.265  0.0000E+00  0.0000E+00
    -66.005  0.0000E+00  0.0000E+00
    -65.745  0.0000E+00  0.0000E+00
    -65.486  0.0000E+00  0.0000E+00
    -65.226  0.0000E+00  0.0000E+00
    -64.966  0.0000E+00  0.0000E+00
    -64.707  0.0000E+00  0.0000E+00
    -64.447  0.0000E+00  0.0000E+00
    -64.188  0.1484E-09  0.3854E-10
    -63.928  0.8792E-05  0.2283E-05
    -63.668  0.2252E-01  0.5849E-02
    -63.409  0.3288E+01  0.8596E+00
    -63.149  0.4693E+02  0.1304E+02
    -62.889  0.1461E+03  0.5098E+02
    -62.630  0.2251E+03  0.1094E+03
    -62.370  0.2575E+03  0.1763E+03
    -62.111  0.1185E+03  0.2070E+03
    -61.851  0.2544E+02  0.2136E+03
    -61.591  0.8557E+01  0.2159E+03
    -61.332  0.5135E+00  0.2160E+03
    -61.072  0.1806E-02  0.2160E+03
    -60.812  0.2755E-06  0.2160E+03
    -60.553  0.1629E-11  0.2160E+03
    -60.293  0.0000E+00  0.2160E+03
    -60.034  0.0000E+00  0.2160E+03
    -59.774  0.0000E+00  0.2160E+03
    -59.514  0.0000E+00  0.2160E+03
    -59.255  0.0000E+00  0.2160E+03
    -58.995  0.0000E+00  0.2160E+03
    -58.735  0.0000E+00  0.2160E+03
    -58.476  0.0000E+00  0.2160E+03
    -58.216  0.0000E+00  0.2160E+03
    -57.957  0.0000E+00  0.2160E+03
    -57.697  0.0000E+00  0.2160E+03
    -57.437  0.0000E+00  0.2160E+03
    -57.178  0.0000E+00  0.2160E+03
    -56.918  0.0000E+00  0.2160E+03
    -56.658  0.0000E+00  0.2160E+03
    -56.399  0.0000E+00  0.2160E+03
    -56.139  0.0000E+00  0.2160E+03
    -55.880  0.0000E+00  0.2160E+03
    -55.620  0.0000E+00  0.2160E+03
    -55.360  0.0000E+00  0.2160E+03
    -55.101  0.0000E+00  0.2160E+03
    -54.841  0.0000E+00  0.2160E+03
    -54.581  0.0000E+00  0.2160E+03
    -54.322  0.0000E+00  0.2160E+03
    -54.062  0.0000E+00  0.2160E+03
    -53.803  0.0000E+00  0.2160E+03
    -53.543  0.0000E+00  0.2160E+03
    -53.283  0.0000E+00  0.2160E+03
    -53.024  0.0000E+00  0.2160E+03
    -52.764  0.0000E+00  0.2160E+03
    -52.504  0.0000E+00  0.2160E+03
    -52.245  0.0000E+00  0.2160E+03
    -51.985  0.0000E+00  0.2160E+03
    -51.726  0.0000E+00  0.2160E+03
    -51.466  0.0000E+00  0.2160E+03
    -51.206  0.0000E+00  0.2160E+03
    -50.947  0.0000E+00  0.2160E+03
    -50.687  0.0000E+00  0.2160E+03
    -50.427  0.0000E+00  0.2160E+03
    -50.168  0.0000E+00  0.2160E+03
    -49.908  0.0000E+00  0.2160E+03
    -49.649  0.0000E+00  0.2160E+03
    -49.389  0.0000E+00  0.2160E+03
    -49.129  0.0000E+00  0.2160E+03
    -48.870  0.0000E+00  0.2160E+03
    -48.610  0.0000E+00  0.2160E+03
    -48.351  0.0000E+00  0.2160E+03
    -48.091  0.0000E+00  0.2160E+03
    -47.831  0.0000E+00  0.2160E+03
    -47.572  0.0000E+00  0.2160E+03
    -47.312  0.0000E+00  0.2160E+03
    -47.052  0.0000E+00  0.2160E+03
    -46.793  0.0000E+00  0.2160E+03
    -46.533  0.0000E+00  0.2160E+03
    -46.274  0.0000E+00  0.2160E+03
    -46.014  0.0000E+00  0.2160E+03
    -45.754  0.0000E+00  0.2160E+03
    -45.495  0.0000E+00  0.2160E+03
    -45.235  0.0000E+00  0.2160E+03
    -44.975  0.0000E+00  0.2160E+03
    -44.716  0.0000E+00  0.2160E+03
    -44.456  0.0000E+00  0.2160E+03
    -44.197  0.0000E+00  0.2160E+03
    -43.937  0.0000E+00  0.2160E+03
    -43.677  0.0000E+00  0.2160E+03
    -43.418  0.0000E+00  0.2160E+03
    -43.158  0.0000E+00  0.2160E+03
    -42.898  0.0000E+00  0.2160E+03
    -42.639  0.0000E+00  0.2160E+03
    -42.379  0.0000E+00  0.2160E+03
    -42.120  0.0000E+00  0.2160E+03
    -41.860  0.0000E+00  0.2160E+03
    -41.600  0.0000E+00  0.2160E+03
    -41.341  0.0000E+00  0.2160E+03
    -41.081  0.0000E+00  0.2160E+03
    -40.821  0.0000E+00  0.2160E+03
    -40.562  0.0000E+00  0.2160E+03
    -40.302  0.0000E+00  0.2160E+03
    -40.043  0.0000E+00  0.2160E+03
    -39.783  0.0000E+00  0.2160E+03
    -39.523  0.0000E+00  0.2160E+03
    -39.264  0.0000E+00  0.2160E+03
    -39.004  0.0000E+00  0.2160E+03
    -38.744  0.0000E+00  0.2160E+03
    -38.485  0.0000E+00  0.2160E+03
    -38.225  0.0000E+00  0.2160E+03
    -37.966  0.0000E+00  0.2160E+03
    -37.706  0.0000E+00  0.2160E+03
    -37.446  0.0000E+00  0.2160E+03
    -37.187  0.0000E+00  0.2160E+03
    -36.927  0.0000E+00  0.2160E+03
    -36.667  0.0000E+00  0.2160E+03
    -36.408  0.0000E+00  0.2160E+03
    -36.148  0.0000E+00  0.2160E+03
    -35.889  0.0000E+00  0.2160E+03
    -35.629  0.0000E+00  0.2160E+03
    -35.369  0.0000E+00  0.2160E+03
    -35.110  0.0000E+00  0.2160E+03
    -34.850  0.0000E+00  0.2160E+03
    -34.590  0.0000E+00  0.2160E+03
    -34.331  0.0000E+00  0.2160E+03
    -34.071  0.0000E+00  0.2160E+03
    -33.812  0.0000E+00  0.2160E+03
    -33.552  0.0000E+00  0.2160E+03
    -33.292  0.0000E+00  0.2160E+03
    -33.033  0.0000E+00  0.2160E+03
    -32.773  0.0000E+00  0.2160E+03
    -32.513  0.0000E+00  0.2160E+03
    -32.254  0.0000E+00  0.2160E+03
    -31.994  0.0000E+00  0.2160E+03
    -31.735  0.0000E+00  0.2160E+03
    -31.475  0.0000E+00  0.2160E+03
    -31.215  0.0000E+00  0.2160E+03
    -30.956  0.0000E+00  0.2160E+03
    -30.696  0.0000E+00  0.2160E+03
    -30.436  0.0000E+00  0.2160E+03
    -30.177  0.0000E+00  0.2160E+03
    -29.917  0.0000E+00  0.2160E+03
    -29.658  0.0000E+00  0.2160E+03
    -29.398  0.0000E+00  0.2160E+03
    -29.138  0.0000E+00  0.2160E+03
    -28.879  0.0000E+00  0.2160E+03
    -28.619  0.0000E+00  0.2160E+03
    -28.360  0.0000E+00  0.2160E+03
    -28.100  0.0000E+00  0.2160E+03
    -27.840  0.0000E+00  0.2160E+03
    -27.581  0.0000E+00  0.2160E+03
    -27.321  0.0000E+00  0.2160E+03
    -27.061  0.0000E+00  0.2160E+03
    -26.802  0.0000E+00  0.2160E+03
    -26.542  0.0000E+00  0.2160E+03
    -26.283  0.0000E+00  0.2160E+03
    -26.023  0.0000E+00  0.2160E+03
    -25.763  0.0000E+00  0.2160E+03
    -25.504  0.0000E+00  0.2160E+03
    -25.244  0.0000E+00  0.2160E+03
    -24.984  0.0000E+00  0.2160E+03
    -24.725  0.0000E+00  0.2160E+03
    -24.465  0.0000E+00  0.2160E+03
    -24.206  0.0000E+00  0.2160E+03
    -23.946  0.0000E+00  0.2160E+03
    -23.686  0.0000E+00  0.2160E+03
    -23.427  0.0000E+00  0.2160E+03
    -23.167  0.0000E+00  0.2160E+03
    -22.907  0.0000E+00  0.2160E+03
    -22.648  0.0000E+00  0.2160E+03
    -22.388  0.0000E+00  0.2160E+03
    -22.129  0.0000E+00  0.2160E+03
    -21.869  0.0000E+00  0.2160E+03
    -21.609  0.0000E+00  0.2160E+03
    -21.350  0.0000E+00  0.2160E+03
    -21.090  0.0000E+00  0.2160E+03
    -20.830  0.0000E+00  0.2160E+03
    -20.571  0.0000E+00  0.2160E+03
    -20.311  0.0000E+00  0.2160E+03
    -20.052  0.0000E+00  0.2160E+03
    -19.792  0.0000E+00  0.2160E+03
    -19.532  0.0000E+00  0.2160E+03
    -19.273  0.0000E+00  0.2160E+03
    -19.013  0.0000E+00  0.2160E+03
    -18.753  0.0000E+00  0.2160E+03
    -18.494  0.0000E+00  0.2160E+03
    -18.234  0.0000E+00  0.2160E+03
    -17.975  0.0000E+00  0.2160E+03
    -17.715  0.0000E+00  0.2160E+03
    -17.455  0.0000E+00  0.2160E+03
    -17.196  0.0000E+00  0.2160E+03
    -16.936  0.0000E+00  0.2160E+03
    -16.676  0.0000E+00  0.2160E+03
    -16.417  0.0000E+00  0.2160E+03
    -16.157  0.0000E+00  0.2160E+03
    -15.898  0.4319E-13  0.2160E+03
    -15.638  0.1499E-07  0.2160E+03
    -15.378  0.1948E-03  0.2160E+03
    -15.119  0.1027E+00  0.2160E+03
    -14.859  0.2747E+01  0.2167E+03
    -14.599  0.7395E+01  0.2187E+03
    -14.340  0.5937E+01  0.2202E+03
    -14.080  0.7119E+01  0.2220E+03
    -13.821  0.1444E+02  0.2258E+03
    -13.561  0.1969E+02  0.2309E+03
    -13.301  0.2338E+02  0.2370E+03
    -13.042  0.2193E+02  0.2427E+03
    -12.782  0.2562E+02  0.2493E+03
    -12.522  0.3256E+02  0.2578E+03
    -12.263  0.3220E+02  0.2661E+03
    -12.003  0.2920E+02  0.2737E+03
    -11.744  0.2435E+02  0.2800E+03
    -11.484  0.2148E+02  0.2856E+03
    -11.224  0.8411E+01  0.2878E+03
    -10.965  0.7585E+00  0.2880E+03
    -10.705  0.5819E-02  0.2880E+03
    -10.445  0.2079E-05  0.2880E+03
    -10.186  0.2891E-10  0.2880E+03
     -9.926  0.0000E+00  0.2880E+03
     -9.667  0.0000E+00  0.2880E+03
     -9.407  0.0000E+00  0.2880E+03
     -9.147  0.0000E+00  0.2880E+03
     -8.888  0.0000E+00  0.2880E+03
     -8.628  0.0000E+00  0.2880E+03
     -8.368  0.0000E+00  0.2880E+03
     -8.109  0.0000E+00  0.2880E+03
     -7.849  0.0000E+00  0.2880E+03
     -7.590  0.2780E-13  0.2880E+03
     -7.330  0.1065E-07  0.2880E+03
     -7.070  0.1531E-03  0.2880E+03
     -6.811  0.8917E-01  0.2880E+03
     -6.551  0.2709E+01  0.2887E+03
     -6.292  0.1083E+02  0.2915E+03
     -6.032  0.2498E+02  0.2980E+03
     -5.772  0.3792E+02  0.3079E+03
     -5.513  0.4614E+02  0.3198E+03
     -5.253  0.4518E+02  0.3316E+03
     -4.993  0.4056E+02  0.3421E+03
     -4.734  0.3817E+02  0.3520E+03
     -4.474  0.4354E+02  0.3633E+03
     -4.215  0.4090E+02  0.3739E+03
     -3.955  0.4388E+02  0.3853E+03
     -3.695  0.5647E+02  0.4000E+03
     -3.436  0.6808E+02  0.4177E+03
     -3.176  0.6797E+02  0.4353E+03
     -2.916  0.6560E+02  0.4523E+03
     -2.657  0.5674E+02  0.4671E+03
     -2.397  0.4836E+02  0.4796E+03
     -2.138  0.4475E+02  0.4912E+03
     -1.878  0.4167E+02  0.5021E+03
     -1.618  0.4979E+02  0.5150E+03
     -1.359  0.6670E+02  0.5323E+03
     -1.099  0.9178E+02  0.5561E+03
     -0.839  0.1068E+03  0.5839E+03
     -0.580  0.1200E+03  0.6150E+03
     -0.320  0.1339E+03  0.6498E+03
     -0.061  0.1404E+03  0.6862E+03
      0.199  0.1111E+03  0.7151E+03
      0.459  0.8071E+02  0.7360E+03
      0.718  0.6782E+02  0.7536E+03
      0.978  0.5403E+02  0.7677E+03
      1.238  0.4612E+02  0.7796E+03
      1.497  0.4508E+02  0.7913E+03
      1.757  0.4827E+02  0.8039E+03
      2.016  0.4740E+02  0.8162E+03
      2.276  0.4967E+02  0.8291E+03
      2.536  0.5166E+02  0.8425E+03
      2.795  0.4186E+02  0.8533E+03
      3.055  0.2919E+02  0.8609E+03
      3.315  0.1116E+02  0.8638E+03
      3.574  0.6807E+00  0.8640E+03
      3.834  0.3007E-02  0.8640E+03
      4.093  0.7858E-01  0.8640E+03
      4.353  0.2440E+01  0.8647E+03
      4.613  0.8592E+01  0.8669E+03
      4.872  0.1670E+02  0.8712E+03
      5.132  0.1363E+02  0.8748E+03
      5.392  0.1679E+02  0.8791E+03
      5.651  0.1979E+02  0.8843E+03
      5.911  0.2434E+02  0.8906E+03
      6.170  0.2393E+02  0.8968E+03
      6.430  0.3115E+02  0.9049E+03
      6.690  0.3152E+02  0.9131E+03
      6.949  0.3386E+02  0.9219E+03
      7.209  0.4361E+02  0.9332E+03
      7.469  0.4403E+02  0.9446E+03
      7.728  0.2594E+02  0.9513E+03
      7.988  0.2519E+01  0.9520E+03
      8.247  0.1919E-01  0.9520E+03
      8.507  0.7493E-05  0.9520E+03
      8.767  0.1233E-09  0.9520E+03
      9.026  0.0000E+00  0.9520E+03
      9.286  0.0000E+00  0.9520E+03
      9.546  0.0000E+00  0.9520E+03
      9.805  0.0000E+00  0.9520E+03
     10.065  0.0000E+00  0.9520E+03
     10.324  0.0000E+00  0.9520E+03
     10.584  0.0000E+00  0.9520E+03
     10.844  0.0000E+00  0.9520E+03
     11.103  0.0000E+00  0.9520E+03
