
74 atoms
2 atom types
   0.0000000000   16.8846940542 xlo xhi
   0.0000000000    9.5784100000 ylo yhi
   0.0000000000   16.5480325497 zlo zhi
   0.0000000000    0.0000000000    0.0000000000 xy xz yz

Atoms # atomic

     1      1   13.1708432080    1.3917138259    1.9497492313
     2      1   13.7545125861    1.3917138259    5.0342928014
     3      1    4.4366614835    6.1809188259    0.4074774628
     4      1    5.0203308784    6.1809188259    3.4920210163
     5      1    7.3480553917    1.3917138259    0.9215680578
     6      1    7.9317247697    1.3917138259    4.0061116113
     7      1   16.0822371162    6.1809188259    2.4638398263
     8      1   16.6659064942    6.1809188259    5.5483833964
     9      1    2.1089369702    1.3917138259    2.9779304213
    10      1    2.6926063482    1.3917138259    6.0624739914
    11      1   10.8431186779    6.1809188259    4.5202022064
    12      1   15.3242574679    0.1263771297    1.5422717851
    13      1   15.9079268459    0.1263771297    4.6268153386
    14      1    6.5900757602    4.9155821297    0.0000000000
    15      1    7.1737451382    4.9155821297    3.0845435536
    16      1    7.7574145162    4.9155821297    6.1690871237
    17      1    9.5014696515    0.1263771297    0.5140905950
    18      1   10.0851390464    0.1263771297    3.5986341486
    19      1    1.3509573218    4.9155821297    2.0563623801
    20      1    1.9346266999    4.9155821297    5.1409059336
    21      1    4.2623512300    0.1263771297    2.5704529585
    22      1    4.8460206080    0.1263771297    5.6549965287
    23      1   12.4128635597    4.9155821297    1.0281811900
    24      1   12.9965329377    4.9155821297    4.1127247436
    25      1   15.3242574679    2.6570505221    1.5422717851
    26      1   15.9079268459    2.6570505221    4.6268153386
    27      1    6.5900757602    7.4462555221    0.0000000000
    28      1    7.1737451382    7.4462555221    3.0845435536
    29      1    7.7574145162    7.4462555221    6.1690871237
    30      1    9.5014696515    2.6570505221    0.5140905950
    31      1   10.0851390464    2.6570505221    3.5986341486
    32      1    1.3509573218    7.4462555221    2.0563623801
    33      1    1.9346266999    7.4462555221    5.1409059336
    34      1    4.2623512300    2.6570505221    2.5704529585
    35      1    4.8460206080    2.6570505221    5.6549965287
    36      1   12.4128635597    7.4462555221    1.0281811900
    37      1   12.9965329377    7.4462555221    4.1127247436
    38      2    0.4394944200    1.3917138259    6.0339419564
    39      2   16.7405190961    1.3917138259    2.9493984029
    40      2    8.0063373716    6.1809188259    1.4071266178
    41      2    8.5900067496    6.1809188259    4.4916701714
    42      2   10.9177312798    1.3917138259    1.9212172128
    43      2   11.5014006578    1.3917138259    5.0057607664
    44      2    2.1835495552    6.1809188259    0.3789454278
    45      2    2.7672189501    6.1809188259    3.4634889979
    46      2    3.3508883282    6.1809188259    6.5480325515
    47      2    5.0949434634    1.3917138259    0.8930360228
    48      2    5.6786128414    1.3917138259    3.9775795764
    49      2   13.8291251880    6.1809188259    2.4353078079
    50      2   14.4127945660    6.1809188259    5.5198513614
    51      2   13.4147728541    3.0029460640    0.3837213389
    52      2   13.9984422322    3.0029460640    3.4682648925
    53      2    5.2642605076    7.7921510640    1.9259931074
    54      2    5.8479298856    7.7921510640    5.0105366775
    55      2    8.1756544158    3.0029460640    2.4400837024
    56      2    8.7593237938    3.0029460640    5.5246272725
    57      2    0.0251420861    7.7921510640    3.9823554875
    58      2   16.3261667454    7.7921510640    0.8978119174
    59      2    2.3528665994    3.0029460640    1.4119025124
    60      2    2.9365359774    3.0029460640    4.4964460825
    61      2   11.0870483240    7.7921510640    2.9541742975
    62      2   11.6707177020    7.7921510640    6.0387178510
    63      2    5.2642605076    4.5696865877    1.9259931074
    64      2    5.8479298856    4.5696865877    5.0105366775
    65      2   13.4147728541    9.3588915877    0.3837213389
    66      2   13.9984422322    9.3588915877    3.4682648925
    67      2    0.0251420861    4.5696865877    3.9823554875
    68      2   16.3261667454    4.5696865877    0.8978119174
    69      2    8.1756544158    9.3588915877    2.4400837024
    70      2    8.7593237938    9.3588915877    5.5246272725
    71      2   11.0870483240    4.5696865877    2.9541742975
    72      2   11.6707177020    4.5696865877    6.0387178510
    73      2    2.3528665994    9.3588915877    1.4119025124
    74      2    2.9365359774    9.3588915877    4.4964460825
