 vasp.5.4.4.18Apr17-6-g9f103f2a35 (build Aug 13 2019 17:33:20) gamma-only       
  
 executed on             LinuxIFC date 2020.05.11  22:38:19
 running on   12 total cores
 distrk:  each k-point on   12 cores,    1 groups
 distr:  one band on NCORES_PER_BAND=   6 cores,    2 groups


--------------------------------------------------------------------------------------------------------


 INCAR:
 POTCAR:    PAW_PBE Ni_pv 06Sep2000               
 POTCAR:    PAW_PBE S 06Sep2000                   
 POTCAR:    PAW_PBE Ni_pv 06Sep2000               
   VRHFIN =Ni:                                                                  
   LEXCH  = PE                                                                  
   EATOM  =  3501.1230 eV,  257.3253 Ry                                         
                                                                                
   TITEL  = PAW_PBE Ni_pv 06Sep2000                                             
   LULTRA =        F    use ultrasoft PP ?                                      
   IUNSCR =        1    unscreen: 0-lin 1-nonlin 2-no                           
   RPACOR =    1.500    partial core radius                                     
   POMASS =   58.690; ZVAL   =   16.000    mass and valenz                      
   RCORE  =    2.000    outmost cutoff radius                                   
   RWIGS  =    2.000; RWIGS  =    1.058    wigner-seitz radius (au A)           
   ENMAX  =  367.986; ENMIN  =  275.989 eV                                      
   RCLOC  =    1.301    cutoff for local pot                                    
   LCOR   =        T    correct aug charges                                     
   LPAW   =        T    paw PP                                                  
   EAUG   =  703.443                                                            
   DEXC   =    0.000                                                            
   RMAX   =    2.041    core radius for proj-oper                               
   RAUG   =    1.300    factor for augmentation sphere                          
   RDEP   =    2.103    radius for radial grids                                 
   RDEPT  =    1.618    core radius for aug-charge                              
                                                                                
   Atomic configuration                                                         
    8 entries                                                                   
     n  l   j            E        occ.                                          
     1  0  0.50     -8206.4253   2.0000                                         
     2  0  0.50      -976.1748   2.0000                                         
     2  1  1.50      -839.0571   6.0000                                         
     3  0  0.50      -105.9991   2.0000                                         
     3  1  1.50       -66.4603   6.0000                                         
     3  2  2.50        -4.6458   9.0000                                         
     4  0  0.50        -4.4926   1.0000                                         
     4  3  2.50        -1.3606   0.0000                                         
   Description                                                                  
     l       E           TYP  RCUT    TYP  RCUT                                 
     1    -66.4602962     23  1.700                                             
     1     -1.3605826     23  1.700                                             
     2     -4.6457867     23  2.000                                             
     2     -6.0063693     23  2.000                                             
     0     -4.4925576     23  1.900                                             
     0     16.3626226     23  1.900                                             
  local pseudopotential read in
  partial core-charges read in
  partial kinetic energy density read in
  atomic valenz-charges read in
  non local Contribution for L=           1  read in
    real space projection operators read in
  non local Contribution for L=           1  read in
    real space projection operators read in
  non local Contribution for L=           2  read in
    real space projection operators read in
  non local Contribution for L=           2  read in
    real space projection operators read in
  non local Contribution for L=           0  read in
    real space projection operators read in
  non local Contribution for L=           0  read in
    real space projection operators read in
    PAW grid and wavefunctions read in
 
   number of l-projection  operators is LMAX  =           6
   number of lm-projection operators is LMMAX =          18
 
 POTCAR:    PAW_PBE S 06Sep2000                   
   VRHFIN =S : s2p4                                                             
   LEXCH  = PE                                                                  
   EATOM  =   276.8230 eV,   20.3459 Ry                                         
                                                                                
   TITEL  = PAW_PBE S 06Sep2000                                                 
   LULTRA =        F    use ultrasoft PP ?                                      
   IUNSCR =        1    unscreen: 0-lin 1-nonlin 2-no                           
   RPACOR =    1.500    partial core radius                                     
   POMASS =   32.066; ZVAL   =    6.000    mass and valenz                      
   RCORE  =    1.900    outmost cutoff radius                                   
   RWIGS  =    2.200; RWIGS  =    1.164    wigner-seitz radius (au A)           
   ENMAX  =  258.689; ENMIN  =  194.016 eV                                      
   ICORE  =        2    local potential                                         
   LCOR   =        T    correct aug charges                                     
   LPAW   =        T    paw PP                                                  
   EAUG   =  335.092                                                            
   DEXC   =    0.000                                                            
   RMAX   =    1.942    core radius for proj-oper                               
   RAUG   =    1.300    factor for augmentation sphere                          
   RDEP   =    1.954    radius for radial grids                                 
   RDEPT  =    1.744    core radius for aug-charge                              
                                                                                
   Atomic configuration                                                         
    6 entries                                                                   
     n  l   j            E        occ.                                          
     1  0  0.50     -2405.8406   2.0000                                         
     2  0  0.50      -211.7007   2.0000                                         
     2  1  1.50      -156.4958   6.0000                                         
     3  0  0.50       -17.2562   2.0000                                         
     3  1  0.50        -7.0085   4.0000                                         
     3  2  1.50        -6.8029   0.0000                                         
   Description                                                                  
     l       E           TYP  RCUT    TYP  RCUT                                 
     0    -17.2561641     23  1.900                                             
     0    -15.8743224     23  1.900                                             
     1     -7.0085400     23  1.900                                             
     1     -2.7779785     23  1.900                                             
     2     -6.8029130     23  1.900                                             
  local pseudopotential read in
  partial core-charges read in
  partial kinetic energy density read in
  atomic valenz-charges read in
  non local Contribution for L=           0  read in
    real space projection operators read in
  non local Contribution for L=           0  read in
    real space projection operators read in
  non local Contribution for L=           1  read in
    real space projection operators read in
  non local Contribution for L=           1  read in
    real space projection operators read in
    PAW grid and wavefunctions read in
 
   number of l-projection  operators is LMAX  =           4
   number of lm-projection operators is LMMAX =           8
 
 Optimization of the real space projectors (new method)

 maximal supplied QI-value         = 18.90
 optimisation between [QCUT,QGAM] = [ 10.77, 21.73] = [ 32.49,132.25] Ry 
 Optimized for a Real-space Cutoff    1.38 Angstroem

   l    n(q)    QCUT    max X(q) W(low)/X(q) W(high)/X(q)  e(spline) 
   1      8    10.771     2.836    0.40E-04    0.29E-04    0.12E-06
   1      8    10.771     4.023    0.10E-03    0.48E-04    0.29E-06
   2      8    10.771    73.368    0.42E-03    0.97E-04    0.44E-06
   2      8    10.771    69.010    0.42E-03    0.99E-04    0.45E-06
   0      9    10.771    54.797    0.10E-03    0.56E-04    0.74E-07
   0      9    10.771    24.266    0.89E-04    0.49E-04    0.67E-07
 Optimization of the real space projectors (new method)

 maximal supplied QI-value         = 19.84
 optimisation between [QCUT,QGAM] = [ 10.71, 21.63] = [ 32.15,130.99] Ry 
 Optimized for a Real-space Cutoff    1.19 Angstroem

   l    n(q)    QCUT    max X(q) W(low)/X(q) W(high)/X(q)  e(spline) 
   0      8    10.715   187.594    0.41E-03    0.53E-04    0.66E-07
   0      8    10.715   164.243    0.41E-03    0.53E-04    0.65E-07
   1      7    10.715    67.533    0.19E-03    0.59E-03    0.68E-07
   1      7    10.715    50.729    0.19E-03    0.58E-03    0.67E-07
  PAW_PBE Ni_pv 06Sep2000               :
 energy of atom  1       EATOM=-3501.1230
 kinetic energy error for atom=    0.0925 (will be added to EATOM!!)
  PAW_PBE S 06Sep2000                   :
 energy of atom  2       EATOM= -276.8230
 kinetic energy error for atom=    0.0033 (will be added to EATOM!!)
 
 
 POSCAR: Type_037 Type_137                       
  positions in cartesian coordinates
  No initial velocities read in
 exchange correlation table for  LEXCH =        8
   RHO(1)=    0.500       N(1)  =     2000
   RHO(2)=  100.500       N(2)  =     4000
 


--------------------------------------------------------------------------------------------------------


 ion  position               nearest neighbor table
   1  0.780  0.145  0.118-  65 2.08  51 2.08  42 2.25  52 2.36  66 2.36
   2  0.797  0.145  0.278-  66 2.04  52 2.04  43 2.06
   3  0.222  0.645  0.092-  44 2.03  45 2.17  63 2.25  53 2.25   4 2.34
   4  0.297  0.645  0.211-  64 2.13  54 2.13  45 2.25  53 2.26  63 2.26   3 2.34  28 2.53  15 2.53

   5  0.394  0.145  0.122-  47 2.03  48 2.19  69 2.25  55 2.25   6 2.36
   6  0.470  0.145  0.242-  56 2.09  70 2.09  48 2.25  55 2.26  69 2.26   5 2.36  31 2.53  18 2.53

   7  0.952  0.645  0.149-  58 2.07  68 2.07  49 2.25  57 2.36  67 2.36  32 2.53  19 2.53
   8  0.977  0.645  0.314-  46 2.05  67 2.06  57 2.06  50 2.10
   9  0.125  0.145  0.180-  59 2.09  73 2.09  39 2.25  60 2.36  74 2.36  10 2.37  34 2.53  21 2.53

  10  0.110  0.145  0.322-  38 2.03  74 2.11  60 2.11   9 2.37
  11  0.642  0.645  0.273-  62 2.01  72 2.01  41 2.25  61 2.32  71 2.32  37 2.53  24 2.53
  12  0.911  0.005  0.115-  65 2.06  58 2.10  66 2.11  39 2.18
  13  0.944  0.012  0.265-  38 2.06  39 2.08  66 2.17  57 2.18
  14  0.402  0.518  0.041-  63 2.01  40 2.02  27 2.43  15 2.44
  15  0.425  0.513  0.186-  40 2.13  64 2.14  55 2.25  63 2.26  41 2.36  14 2.44  16 2.46   4 2.53
                            28 2.53
  16  0.464  0.472  0.327-  56 2.01  41 2.04  64 2.05  15 2.46
  17  0.566  0.019  0.064-  69 1.99  42 2.02  30 2.43
  18  0.597  0.013  0.217-  70 2.07  43 2.10  61 2.21  42 2.26  69 2.26  31 2.53   6 2.53
  19  0.080  0.513  0.124-  44 2.06  68 2.09  59 2.11  67 2.36  45 2.36   7 2.53  32 2.53
  20  0.112  0.506  0.291-  46 2.05  67 2.06  45 2.09  60 2.14
  21  0.252  0.013  0.155-  47 2.06  73 2.09  53 2.25  48 2.36  74 2.36   9 2.53  34 2.53
  22  0.291  0.980  0.303-  48 2.04  74 2.04  54 2.04
  23  0.776  0.432  0.115-  51 2.02  52 2.13  71 2.18  49 2.23  24 2.34
  24  0.770  0.513  0.249-  72 2.03  71 2.09  50 2.12  52 2.25  49 2.26  23 2.34  11 2.53  37 2.53

  25  0.911  0.286  0.115-  51 2.06  68 2.10  52 2.11  39 2.18
  26  0.944  0.278  0.265-  38 2.06  39 2.08  52 2.17  67 2.18
  27  0.402  0.772  0.041-  53 2.01  40 2.02  14 2.43  28 2.44
  28  0.425  0.777  0.186-  40 2.13  54 2.14  69 2.25  53 2.26  41 2.36  27 2.44  29 2.46   4 2.53
                            15 2.53
  29  0.464  0.818  0.327-  70 2.01  41 2.04  54 2.05  28 2.46
  30  0.566  0.272  0.064-  55 1.99  42 2.02  17 2.43
  31  0.597  0.277  0.217-  56 2.07  43 2.10  71 2.21  42 2.26  55 2.26  18 2.53   6 2.53
  32  0.080  0.777  0.124-  44 2.06  58 2.09  73 2.11  57 2.36  45 2.36   7 2.53  19 2.53
  33  0.112  0.785  0.291-  46 2.05  57 2.06  45 2.09  74 2.14
  34  0.252  0.277  0.155-  47 2.06  59 2.09  63 2.25  48 2.36  60 2.36   9 2.53  21 2.53
  35  0.291  0.310  0.303-  48 2.04  60 2.04  64 2.04
  36  0.776  0.858  0.115-  65 2.02  66 2.13  61 2.18  49 2.23  37 2.34
  37  0.770  0.777  0.249-  62 2.03  61 2.09  50 2.12  66 2.25  49 2.26  36 2.34  11 2.53  24 2.53

  38  0.993  0.145  0.349-  10 2.03  26 2.06  13 2.06
  39  0.991  0.145  0.178-  26 2.08  13 2.08  25 2.18  12 2.18   9 2.25
  40  0.479  0.645  0.099-  14 2.02  27 2.02  28 2.13  15 2.13
  41  0.509  0.645  0.271-  16 2.04  29 2.04  11 2.25  28 2.36  15 2.36
  42  0.647  0.145  0.116-  30 2.02  17 2.02   1 2.25  18 2.26  31 2.26  43 2.77
  43  0.675  0.145  0.281-   2 2.06  18 2.10  31 2.10  42 2.77
  44  0.117  0.645  0.034-   3 2.03  19 2.06  32 2.06
  45  0.164  0.645  0.209-  20 2.09  33 2.09   3 2.17   4 2.25  32 2.36  19 2.36
  46  0.080  0.645  0.378-   8 2.05  20 2.05  33 2.05
  47  0.288  0.145  0.064-   5 2.03  21 2.06  34 2.06
  48  0.336  0.145  0.240-  22 2.04  35 2.04   5 2.19   6 2.25  34 2.36  21 2.36
  49  0.819  0.645  0.147-  36 2.23  23 2.23   7 2.25  24 2.26  37 2.26  50 2.71
  50  0.852  0.645  0.307-   8 2.10  24 2.12  37 2.12  49 2.71
  51  0.818  0.292  0.034-  23 2.02  25 2.06   1 2.08
  52  0.829  0.314  0.210-   2 2.04  25 2.11  23 2.13  26 2.17  24 2.25   1 2.36
  53  0.312  0.814  0.116-  27 2.01   3 2.25  21 2.25   4 2.26  28 2.26
  54  0.349  0.795  0.290-  22 2.04  29 2.05   4 2.13  28 2.14
  55  0.484  0.314  0.147-  30 1.99  15 2.25   5 2.25   6 2.26  31 2.26
  56  0.524  0.292  0.318-  16 2.01  31 2.07   6 2.09
  57  0.001  0.814  0.241-   8 2.06  33 2.06  13 2.18  32 2.36   7 2.36  58 2.76
  58  0.968  0.821  0.077-   7 2.07  32 2.09  12 2.10  57 2.76
  59  0.140  0.322  0.108-   9 2.09  34 2.09  19 2.11  60 2.77
  60  0.174  0.314  0.272-  35 2.04  10 2.11  20 2.14   9 2.36  34 2.36  59 2.77
  61  0.667  0.827  0.184-  37 2.09  36 2.18  18 2.21  11 2.32  62 2.72
  62  0.695  0.787  0.344-  11 2.01  37 2.03  72 2.72  61 2.72
  63  0.312  0.477  0.116-  14 2.01   3 2.25  34 2.25   4 2.26  15 2.26
  64  0.349  0.496  0.290-  35 2.04  16 2.05   4 2.13  15 2.14
  65  0.818  0.998  0.034-  36 2.02  12 2.06   1 2.08
  66  0.829  0.977  0.210-   2 2.04  12 2.11  36 2.13  13 2.17  37 2.25   1 2.36
  67  0.001  0.477  0.241-   8 2.06  20 2.06  26 2.18  19 2.36   7 2.36  68 2.76
  68  0.968  0.470  0.077-   7 2.07  19 2.09  25 2.10  67 2.76
  69  0.484  0.977  0.147-  17 1.99  28 2.25   5 2.25   6 2.26  18 2.26
  70  0.524  0.999  0.318-  29 2.01  18 2.07   6 2.09
  71  0.667  0.463  0.184-  24 2.09  23 2.18  31 2.21  11 2.32  72 2.72
  72  0.695  0.503  0.344-  11 2.01  24 2.03  62 2.72  71 2.72
  73  0.140  0.968  0.108-   9 2.09  21 2.09  32 2.11  74 2.77
  74  0.174  0.977  0.272-  22 2.04  10 2.11  33 2.14   9 2.36  21 2.36  73 2.77
 
  LATTYP: Found a simple orthorhombic cell.
 ALAT       =     9.5784100000
 B/A-ratio  =     1.7276387782
 C/A-ratio  =     1.7627867312
  
  Lattice vectors:
  
 A1 = (   0.0000000000,   9.5784100000,   0.0000000000)
 A2 = (   0.0000000000,   0.0000000000, -16.5480325497)
 A3 = ( -16.8846940542,   0.0000000000,   0.0000000000)


Analysis of symmetry for initial positions (statically):
=====================================================================
 Subroutine PRICEL returns:
 Original cell was already a primitive cell.
 

 Routine SETGRP: Setting up the symmetry group for a 
 simple orthorhombic supercell.


 Subroutine GETGRP returns: Found  2 space group operations
 (whereof  1 operations were pure point group operations)
 out of a pool of  8 trial point group operations.


The static configuration has the point symmetry C_1 .
 The point group associated with its full space group is C_1h.


Analysis of symmetry for dynamics (positions and initial velocities):
=====================================================================
 Subroutine PRICEL returns:
 Original cell was already a primitive cell.
 

 Routine SETGRP: Setting up the symmetry group for a 
 simple orthorhombic supercell.


 Subroutine GETGRP returns: Found  2 space group operations
 (whereof  1 operations were pure point group operations)
 out of a pool of  8 trial point group operations.


The dynamic configuration has the point symmetry C_1 .
 The point group associated with its full space group is C_1h.


 Subroutine INISYM returns: Found  2 space group operations
 (whereof  1 operations are pure point group operations),
 and found     1 'primitive' translations

 
 
 KPOINTS: gamma-point-only calculation. no periodi

Automatic generation of k-mesh.
Space group operators:
 irot       det(A)        alpha          n_x          n_y          n_z        tau_x        tau_y        tau_z
    1     1.000000     0.000001     1.000000     0.000000     0.000000     0.000000     0.000000     0.000000
    2    -1.000000   180.000000     0.000000     1.000000     0.000000    -0.000000     0.290594     0.000000
 
 Subroutine IBZKPT returns following result:
 ===========================================
 
 Found      1 irreducible k-points:
 
 Following reciprocal coordinates:
            Coordinates               Weight
  0.000000  0.000000  0.000000      1.000000
 
 Following cartesian coordinates:
            Coordinates               Weight
  0.000000  0.000000  0.000000      1.000000
 


--------------------------------------------------------------------------------------------------------




 Dimension of arrays:
   k-points           NKPTS =      1   k-points in BZ     NKDIM =      1   number of bands    NBANDS=    488
   number of dos      NEDOS =    301   number of ions     NIONS =     74
   non local maximal  LDIM  =      6   non local SUM 2l+1 LMDIM =     18
   total plane-waves  NPLWV = 405000
   max r-space proj   IRMAX =   1718   max aug-charges    IRDMAX=   4967
   dimension x,y,z NGX =    90 NGY =   50 NGZ =   90
   dimension x,y,z NGXF=   180 NGYF=  100 NGZF=  180
   support grid    NGXF=   180 NGYF=  100 NGZF=  180
   ions per type =              37  37
   NGX,Y,Z   is equivalent  to a cutoff of   8.86,  8.68,  9.04 a.u.
   NGXF,Y,Z  is equivalent  to a cutoff of  17.72, 17.36, 18.08 a.u.

 SYSTEM =  "Millerite NiS"                         
 POSCAR =  Type_037 Type_137                       

 Startparameter for this run:
   NWRITE =      2    write-flag & timer
   PREC   = normal    normal or accurate (medium, high low for compatibility)
   ISTART =      0    job   : 0-new  1-cont  2-samecut
   ICHARG =      2    charge: 1-file 2-atom 10-const
   ISPIN  =      1    spin polarized calculation?
   LNONCOLLINEAR =      F non collinear calculations
   LSORBIT =      F    spin-orbit coupling
   INIWAV =      1    electr: 0-lowe 1-rand  2-diag
   LASPH  =      F    aspherical Exc in radial PAW
   METAGGA=      F    non-selfconsistent MetaGGA calc.

 Electronic Relaxation 1
   ENCUT  =  450.0 eV  33.07 Ry    5.75 a.u.  29.20 16.57 28.62*2*pi/ulx,y,z
   ENINI  =  450.0     initial cutoff
   ENAUG  =  703.4 eV  augmentation charge cutoff
   NELM   =    100;   NELMIN=  2; NELMDL= -5     # of ELM steps 
   EDIFF  = 0.1E-03   stopping-criterion for ELM
   LREAL  =      T    real-space projection
   NLSPLINE    = F    spline interpolate recip. space projectors
   LCOMPAT=      F    compatible to vasp.4.4
   GGA_COMPAT  = T    GGA compatible to vasp.4.4-vasp.4.6
   LMAXPAW     = -100 max onsite density
   LMAXMIX     =    2 max onsite mixed and CHGCAR
   VOSKOWN=      0    Vosko Wilk Nusair interpolation
   ROPT   =   -0.00050  -0.00050
 Ionic relaxation
   EDIFFG = 0.1E-02   stopping-criterion for IOM
   NSW    =      0    number of steps for IOM
   NBLOCK =      1;   KBLOCK =      1    inner block; outer block 
   IBRION =     -1    ionic relax: 0-MD 1-quasi-New 2-CG
   NFREE  =      0    steps in history (QN), initial steepest desc. (CG)
   ISIF   =      2    stress and relaxation
   IWAVPR =     10    prediction:  0-non 1-charg 2-wave 3-comb
   ISYM   =      2    0-nonsym 1-usesym 2-fastsym
   LCORR  =      T    Harris-Foulkes like correction to forces

   POTIM  = 0.5000    time-step for ionic-motion
   TEIN   =    0.0    initial temperature
   TEBEG  =    0.0;   TEEND  =   0.0 temperature during run
   SMASS  =  -3.00    Nose mass-parameter (am)
   estimated Nose-frequenzy (Omega)   =  0.10E-29 period in steps =****** mass=  -0.652E-26a.u.
   SCALEE = 1.0000    scale energy and forces
   NPACO  =    256;   APACO  = 16.0  distance and # of slots for P.C.
   PSTRESS=    0.0 pullay stress

  Mass of Ions in am
   POMASS =  58.69 32.07
  Ionic Valenz
   ZVAL   =  16.00  6.00
  Atomic Wigner-Seitz radii
   RWIGS  =  -1.00 -1.00
  virtual crystal weights 
   VCA    =   1.00  1.00
   NELECT =     814.0000    total number of electrons
   NUPDOWN=      -1.0000    fix difference up-down

 DOS related values:
   EMIN   =  10.00;   EMAX   =-10.00  energy-range for DOS
   EFERMI =   0.00
   ISMEAR =     0;   SIGMA  =   0.20  broadening in eV -4-tet -1-fermi 0-gaus

 Electronic relaxation 2 (details)
   IALGO  =     38    algorithm
   LDIAG  =      T    sub-space diagonalisation (order eigenvalues)
   LSUBROT=      F    optimize rotation matrix (better conditioning)
   TURBO    =      0    0=normal 1=particle mesh
   IRESTART =      0    0=no restart 2=restart with 2 vectors
   NREBOOT  =      0    no. of reboots
   NMIN     =      0    reboot dimension
   EREF     =   0.00    reference energy to select bands
   IMIX   =      4    mixing-type and parameters
     AMIX     =   0.40;   BMIX     =  1.00
     AMIX_MAG =   1.60;   BMIX_MAG =  1.00
     AMIN     =   0.10
     WC   =   100.;   INIMIX=   1;  MIXPRE=   1;  MAXMIX= -45

 Intra band minimization:
   WEIMIN = 0.0000     energy-eigenvalue tresh-hold
   EBREAK =  0.51E-07  absolut break condition
   DEPER  =   0.30     relativ break condition  

   TIME   =   0.40     timestep for ELM

  volume/ion in A,a.u.               =      36.17       244.06
  Fermi-wavevector in a.u.,A,eV,Ry     =   1.100961  2.080515 16.491830  1.212115
  Thomas-Fermi vector in A             =   2.237381
 
 Write flags
   LWAVE        =      F    write WAVECAR
   LDOWNSAMPLE  =      F    k-point downsampling of WAVECAR
   LCHARG       =      F    write CHGCAR
   LVTOT        =      F    write LOCPOT, total local potential
   LVHAR        =      F    write LOCPOT, Hartree potential only
   LELF         =      F    write electronic localiz. function (ELF)
   LORBIT       =      0    0 simple, 1 ext, 2 COOP (PROOUT), +10 PAW based schemes


 Dipole corrections
   LMONO  =      F    monopole corrections only (constant potential shift)
   LDIPOL =      F    correct potential (dipole corrections)
   IDIPOL =      0    1-x, 2-y, 3-z, 4-all directions 
   EPSILON=  1.0000000 bulk dielectric constant

 Exchange correlation treatment:
   GGA     =    --    GGA type
   LEXCH   =     8    internal setting for exchange type
   VOSKOWN=      0    Vosko Wilk Nusair interpolation
   LHFCALC =     F    Hartree Fock is set to
   LHFONE  =     F    Hartree Fock one center treatment
   AEXX    =    0.0000 exact exchange contribution

 Linear response parameters
   LEPSILON=     F    determine dielectric tensor
   LRPA    =     F    only Hartree local field effects (RPA)
   LNABLA  =     F    use nabla operator in PAW spheres
   LVEL    =     F    velocity operator in full k-point grid
   LINTERFAST=   F  fast interpolation
   KINTER  =     0    interpolate to denser k-point grid
   CSHIFT  =0.1000    complex shift for real part using Kramers Kronig
   OMEGAMAX=  -1.0    maximum frequency
   DEG_THRESHOLD= 0.2000000E-02 threshold for treating states as degnerate
   RTIME   =   -0.100 relaxation time in fs
  (WPLASMAI=    0.000 imaginary part of plasma frequency in eV, 0.658/RTIME)
   DFIELD  = 0.0000000 0.0000000 0.0000000 field for delta impulse in time
 
 Orbital magnetization related:
   ORBITALMAG=     F  switch on orbital magnetization
   LCHIMAG   =     F  perturbation theory with respect to B field
   DQ        =  0.001000  dq finite difference perturbation B field
   LLRAUG    =     F  two centre corrections for induced B field



--------------------------------------------------------------------------------------------------------


 Static calculation
 charge density and potential will be updated during run
 non-spin polarized calculation
 Variant of blocked Davidson
 Davidson routine will perform the subspace rotation
 perform sub-space diagonalisation
    after iterative eigenvector-optimisation
 modified Broyden-mixing scheme, WC =      100.0
 initial mixing is a Kerker type mixing with AMIX =  0.4000 and BMIX =      1.0000
 Hartree-type preconditioning will be used
 using additional bands           81
 real space projection scheme for non local part
 use partial core corrections
 calculate Harris-corrections to forces 
   (improved forces if not selfconsistent)
 use gradient corrections 
 use of overlap-Matrix (Vanderbilt PP)
 Gauss-broadening in eV      SIGMA  =   0.20


--------------------------------------------------------------------------------------------------------


  energy-cutoff  :      450.00
  volume of cell :     2676.29
      direct lattice vectors                 reciprocal lattice vectors
    16.884694054  0.000000000  0.000000000     0.059225237  0.000000000  0.000000000
     0.000000000  9.578410000  0.000000000     0.000000000  0.104401461  0.000000000
     0.000000000  0.000000000 16.548032550     0.000000000  0.000000000  0.060430145

  length of vectors
    16.884694054  9.578410000 16.548032550     0.059225237  0.104401461  0.060430145


 
 k-points in units of 2pi/SCALE and weight: gamma-point-only calculation. no periodi
   0.00000000  0.00000000  0.00000000       1.000
 
 k-points in reciprocal lattice and weights: gamma-point-only calculation. no periodi
   0.00000000  0.00000000  0.00000000       1.000
 
 position of ions in fractional coordinates (direct lattice) 
   0.78004630  0.14529696  0.11782363
   0.79688046  0.14529696  0.27792130
   0.22218251  0.64529696  0.09236566
   0.29733028  0.64529696  0.21102333
   0.39433210  0.14529696  0.12185338
   0.46975828  0.14529696  0.24208990
   0.95247430  0.64529696  0.14889020
   0.97653137  0.64529696  0.31359661
   0.12490229  0.14529696  0.17995677
   0.11033430  0.14529696  0.32216131
   0.64218627  0.64529696  0.27315647
   0.91076950  0.00475668  0.11469915
   0.94386386  0.01247895  0.26522897
   0.40236456  0.51840206  0.04082481
   0.42486675  0.51319396  0.18639941
   0.46430206  0.47232854  0.32745062
   0.56587478  0.01858766  0.06405524
   0.59729475  0.01319396  0.21746598
   0.08001077  0.51319396  0.12426628
   0.11224183  0.50602233  0.29055946
   0.25243876  0.01319396  0.15533284
   0.29087206  0.98017618  0.30289323
   0.77611155  0.43242211  0.11494667
   0.76972274  0.51319396  0.24853255
   0.91076950  0.28583723  0.11469915
   0.94386386  0.27811496  0.26522897
   0.40236456  0.77219186  0.04082481
   0.42486675  0.77739996  0.18639941
   0.46430206  0.81826537  0.32745062
   0.56587478  0.27200626  0.06405524
   0.59729475  0.27739996  0.21746598
   0.08001077  0.77739996  0.12426628
   0.11224183  0.78457158  0.29055946
   0.25243876  0.27739996  0.15533284
   0.29087206  0.31041773  0.30289323
   0.77611155  0.85817181  0.11494667
   0.76972274  0.77739996  0.24853255
   0.99339031  0.14529696  0.34939397
   0.99146120  0.14529696  0.17823257
   0.47923452  0.64529696  0.09853731
   0.50874518  0.64529696  0.27143228
   0.64660522  0.14529696  0.11609943
   0.67501150  0.14529696  0.28087884
   0.11683039  0.64529696  0.03374937
   0.16388920  0.64529696  0.20929914
   0.07971716  0.64529696  0.37846880
   0.28793741  0.14529696  0.06432634
   0.33631719  0.14529696  0.24036571
   0.81903321  0.64529696  0.14716600
   0.85235039  0.64529696  0.30714473
   0.81780780  0.29233436  0.03403342
   0.82906105  0.31351196  0.20958775
   0.31177707  0.81351196  0.11638804
   0.34945070  0.79464396  0.29022889
   0.48420507  0.31351196  0.14745461
   0.52415581  0.29174719  0.31757951
   0.00148905  0.81351196  0.24065432
   0.96780640  0.82102369  0.07741003
   0.14042701  0.32242162  0.10784588
   0.17391704  0.31351196  0.27172089
   0.66742619  0.82723722  0.18394607
   0.69507043  0.78717001  0.34438235
   0.31177707  0.47708196  0.11638804
   0.34945070  0.49594996  0.29022889
   0.81780780  0.99825956  0.03403342
   0.82906105  0.97708196  0.20958775
   0.00148905  0.47708196  0.24065432
   0.96780640  0.46957023  0.07741003
   0.48420507  0.97708196  0.14745461
   0.52415581  0.99884672  0.31757951
   0.66742619  0.46335670  0.18394607
   0.69507043  0.50342391  0.34438235
   0.14042701  0.96817230  0.10784588
   0.17391704  0.97708196  0.27172089
 
 position of ions in cartesian coordinates  (Angst):
  13.17084321  1.39171383  1.94974923
  13.45508280  1.39171383  4.59905079
   3.75148369  6.18091883  1.52846993
   5.02033088  6.18091883  3.49202102
   6.65817694  1.39171383  2.01643378
   7.93172477  1.39171383  4.00611161
  16.08223712  6.18091883  2.46383983
  16.48843347  6.18091883  5.18940688
   2.10893697  1.39171383  2.97793042
   1.86296089  1.39171383  5.33113590
  10.84311868  6.18091883  4.52020221
  15.37806436  0.04556148  1.89804535
  15.93685256  0.11952852  4.38901767
   6.79380251  4.96546748  0.67557024
   7.17374514  4.91558213  3.08454355
   7.83959825  4.52415643  5.41866357
   9.55462247  0.17804022  1.05998817
  10.08513905  0.12637713  3.59863415
   1.35095732  4.91558213  2.05636238
   1.89516888  4.84688934  4.80818743
   4.26235123  0.12637713  2.57045296
   4.91128570  9.38852937  5.01228706
  13.10440608  4.14191623  1.90214121
  12.99653294  4.91558213  4.11272474
  15.37806436  2.73786617  1.89804535
  15.93685256  2.66389913  4.38901767
   6.79380251  7.39637019  0.67557024
   7.17374514  7.44625552  3.08454355
   7.83959825  7.83768122  5.41866357
   9.55462247  2.60538744  1.05998817
  10.08513905  2.65705052  3.59863415
   1.35095732  7.44625552  2.05636238
   1.89516888  7.51494831  4.80818743
   4.26235123  2.65705052  2.57045296
   4.91128570  2.97330829  5.01228706
  13.10440608  8.21992142  1.90214121
  12.99653294  7.44625552  4.11272474
  16.77309152  1.39171383  5.78178277
  16.74051910  1.39171383  2.94939840
   8.09172826  6.18091883  1.63059869
   8.59000675  6.18091883  4.49167017
  10.91773128  1.39171383  1.92121721
  11.39736267  1.39171383  4.64799218
   1.97264535  6.18091883  0.55848574
   2.76721895  6.18091883  3.46348900
   1.34599981  6.18091883  6.26291407
   4.86173500  1.39171383  1.06447444
   5.67861284  1.39171383  3.97757958
  13.82912519  6.18091883  2.43530781
  14.39167562  6.18091883  5.08264104
  13.80843452  2.80009831  0.56318612
  13.99844223  3.00294606  3.46826489
   5.26426051  7.79215106  1.92599311
   5.90036818  7.61142562  4.80271719
   8.17565442  3.00294606  2.44008370
   8.85021051  2.79447423  5.25531608
   0.02514209  7.79215106  3.98235549
  16.34111503  7.86410149  1.28098373
   2.37106709  3.08828646  1.78463710
   2.93653598  3.00294606  4.49644608
  11.26928707  7.92361725  3.04394553
  11.73605151  7.53983708  5.69885037
   5.26426051  4.56968659  1.92599311
   5.90036818  4.75041203  4.80271719
  13.80843452  9.56173934  0.56318612
  13.99844223  9.35889159  3.46826489
   0.02514209  4.56968659  3.98235549
  16.34111503  4.49773616  1.28098373
   8.17565442  9.35889159  2.44008370
   8.85021051  9.56736342  5.25531608
  11.26928707  4.43822041  3.04394553
  11.73605151  4.82200057  5.69885037
   2.37106709  9.27355119  1.78463710
   2.93653598  9.35889159  4.49644608
 


--------------------------------------------------------------------------------------------------------


 use parallel FFT for orbitals z direction half grid
 k-point  1 :   0.0000 0.0000 0.0000  plane waves:   29024

 maximum and minimum number of plane-waves per node :      4848     4830

 maximum number of plane-waves:     29024
 maximum index in each direction: 
   IXMAX=   29   IYMAX=   16   IZMAX=   28
   IXMIN=  -29   IYMIN=  -16   IZMIN=    0


 real space projection operators:
  total allocation   :      10831.09 KBytes
  max/ min on nodes  :       1811.77       1797.80


 parallel 3D FFT for wavefunctions:
    minimum data exchange during FFTs selected (reduces bandwidth)
 parallel 3D FFT for charge:
    minimum data exchange during FFTs selected (reduces bandwidth)


 total amount of memory used by VASP MPI-rank0    80116. kBytes
=======================================================================

   base      :      30000. kBytes
   nonlr-proj:       2225. kBytes
   fftplans  :      10634. kBytes
   grid      :      17961. kBytes
   one-center:        101. kBytes
   wavefun   :      19195. kBytes
 
     INWAV:  cpu time    0.0000: real time    0.0000
 Broyden mixing: mesh for mixing (old mesh)
   NGX = 59   NGY = 33   NGZ = 57
  (NGX  =180   NGY  =100   NGZ  =180)
  gives a total of 110979 points

 initial charge density was supplied:
 charge density of overlapping atoms calculated
 number of electron     814.0000000 magnetization 
 keeping initial charge density in first step


--------------------------------------------------------------------------------------------------------


 Maximum index for non-local projection operator          279
 Maximum index for augmentation-charges          449 (set IRDMAX)


--------------------------------------------------------------------------------------------------------


 First call to EWALD:  gamma=   0.128
 Maximum number of real-space cells 2x 4x 2
 Maximum number of reciprocal cells 3x 2x 3

    FEWALD:  cpu time    0.0055: real time    0.0055


--------------------------------------- Iteration      1(   1)  ---------------------------------------


    POTLOK:  cpu time    0.3551: real time    0.3551
    SETDIJ:  cpu time    0.0208: real time    0.0208
     EDDAV:  cpu time    9.3738: real time    9.3759
       DOS:  cpu time    0.0034: real time    0.0034
    --------------------------------------------
      LOOP:  cpu time    9.7532: real time    9.7553

 eigenvalue-minimisations  :  1200
 total energy-change (2. order) : 0.9177615E+04  (-0.5201913E+05)
 number of electron     814.0000000 magnetization 
 augmentation part      814.0000000 magnetization 

 Free energy of the ion-electron system (eV)
  ---------------------------------------------------
  alpha Z        PSCENC =      1468.23875301
  Ewald energy   TEWEN  =    159468.97043339
  -Hartree energ DENC   =   -283162.08493847
  -exchange      EXHF   =         0.00000000
  -V(xc)+E(xc)   XCENC  =      3782.05402225
  PAW double counting   =    115860.90926010  -120909.33166199
  entropy T*S    EENTRO =        -0.38515975
  eigenvalues    EBANDS =     -7111.21083741
  atomic energy  EATOM  =    139780.45519414
  Solvation  Ediel_sol  =         0.00000000
  ---------------------------------------------------
  free energy    TOTEN  =      9177.61506527 eV

  energy without entropy =     9178.00022502  energy(sigma->0) =     9177.80764515


--------------------------------------------------------------------------------------------------------




--------------------------------------- Iteration      1(   2)  ---------------------------------------


     EDDAV:  cpu time    8.2443: real time    8.2457
       DOS:  cpu time    0.0011: real time    0.0011
    --------------------------------------------
      LOOP:  cpu time    8.2453: real time    8.2467

 eigenvalue-minimisations  :  1048
 total energy-change (2. order) :-0.8673682E+04  (-0.8374627E+04)
 number of electron     814.0000000 magnetization 
 augmentation part      814.0000000 magnetization 

 Free energy of the ion-electron system (eV)
  ---------------------------------------------------
  alpha Z        PSCENC =      1468.23875301
  Ewald energy   TEWEN  =    159468.97043339
  -Hartree energ DENC   =   -283162.08493847
  -exchange      EXHF   =         0.00000000
  -V(xc)+E(xc)   XCENC  =      3782.05402225
  PAW double counting   =    115860.90926010  -120909.33166199
  entropy T*S    EENTRO =        -0.70957016
  eigenvalues    EBANDS =    -15784.56892012
  atomic energy  EATOM  =    139780.45519414
  Solvation  Ediel_sol  =         0.00000000
  ---------------------------------------------------
  free energy    TOTEN  =       503.93257215 eV

  energy without entropy =      504.64214232  energy(sigma->0) =      504.28735723


--------------------------------------------------------------------------------------------------------




--------------------------------------- Iteration      1(   3)  ---------------------------------------


     EDDAV:  cpu time    8.9500: real time    8.9595
       DOS:  cpu time    0.0012: real time    0.0012
    --------------------------------------------
      LOOP:  cpu time    8.9512: real time    8.9607

 eigenvalue-minimisations  :  1136
 total energy-change (2. order) :-0.8631231E+03  (-0.8307677E+03)
 number of electron     814.0000000 magnetization 
 augmentation part      814.0000000 magnetization 

 Free energy of the ion-electron system (eV)
  ---------------------------------------------------
  alpha Z        PSCENC =      1468.23875301
  Ewald energy   TEWEN  =    159468.97043339
  -Hartree energ DENC   =   -283162.08493847
  -exchange      EXHF   =         0.00000000
  -V(xc)+E(xc)   XCENC  =      3782.05402225
  PAW double counting   =    115860.90926010  -120909.33166199
  entropy T*S    EENTRO =        -1.10065993
  eigenvalues    EBANDS =    -16647.30091151
  atomic energy  EATOM  =    139780.45519414
  Solvation  Ediel_sol  =         0.00000000
  ---------------------------------------------------
  free energy    TOTEN  =      -359.19050901 eV

  energy without entropy =     -358.08984908  energy(sigma->0) =     -358.64017905


--------------------------------------------------------------------------------------------------------




--------------------------------------- Iteration      1(   4)  ---------------------------------------


     EDDAV:  cpu time    8.8723: real time    8.8741
       DOS:  cpu time    0.0013: real time    0.0013
    --------------------------------------------
      LOOP:  cpu time    8.8736: real time    8.8754

 eigenvalue-minimisations  :  1128
 total energy-change (2. order) :-0.4504352E+02  (-0.4450348E+02)
 number of electron     814.0000000 magnetization 
 augmentation part      814.0000000 magnetization 

 Free energy of the ion-electron system (eV)
  ---------------------------------------------------
  alpha Z        PSCENC =      1468.23875301
  Ewald energy   TEWEN  =    159468.97043339
  -Hartree energ DENC   =   -283162.08493847
  -exchange      EXHF   =         0.00000000
  -V(xc)+E(xc)   XCENC  =      3782.05402225
  PAW double counting   =    115860.90926010  -120909.33166199
  entropy T*S    EENTRO =        -1.10911102
  eigenvalues    EBANDS =    -16692.33597889
  atomic energy  EATOM  =    139780.45519414
  Solvation  Ediel_sol  =         0.00000000
  ---------------------------------------------------
  free energy    TOTEN  =      -404.23402748 eV

  energy without entropy =     -403.12491646  energy(sigma->0) =     -403.67947197


--------------------------------------------------------------------------------------------------------




--------------------------------------- Iteration      1(   5)  ---------------------------------------


     EDDAV:  cpu time    9.1736: real time    9.1747
       DOS:  cpu time    0.0014: real time    0.0014
    CHARGE:  cpu time    0.3408: real time    0.3408
    MIXING:  cpu time    0.0106: real time    0.0106
    --------------------------------------------
      LOOP:  cpu time    9.5264: real time    9.5275

 eigenvalue-minimisations  :  1208
 total energy-change (2. order) :-0.1666371E+01  (-0.1663997E+01)
 number of electron     813.9998506 magnetization 
 augmentation part      293.8711029 magnetization 

 Broyden mixing:
  rms(total) = 0.99802E+01    rms(broyden)= 0.99728E+01
  rms(prec ) = 0.10528E+02
  weight for this iteration     100.00

 Free energy of the ion-electron system (eV)
  ---------------------------------------------------
  alpha Z        PSCENC =      1468.23875301
  Ewald energy   TEWEN  =    159468.97043339
  -Hartree energ DENC   =   -283162.08493847
  -exchange      EXHF   =         0.00000000
  -V(xc)+E(xc)   XCENC  =      3782.05402225
  PAW double counting   =    115860.90926010  -120909.33166199
  entropy T*S    EENTRO =        -1.11548420
  eigenvalues    EBANDS =    -16693.99597632
  atomic energy  EATOM  =    139780.45519414
  Solvation  Ediel_sol  =         0.00000000
  ---------------------------------------------------
  free energy    TOTEN  =      -405.90039809 eV

  energy without entropy =     -404.78491389  energy(sigma->0) =     -405.34265599


--------------------------------------------------------------------------------------------------------




--------------------------------------- Iteration      1(   6)  ---------------------------------------


    POTLOK:  cpu time    0.3446: real time    0.3450
    SETDIJ:  cpu time    0.0195: real time    0.0195
     EDDAV:  cpu time    9.5495: real time    9.5538
       DOS:  cpu time    0.0016: real time    0.0016
    CHARGE:  cpu time    0.3350: real time    0.3350
    MIXING:  cpu time    0.0106: real time    0.0106
    --------------------------------------------
      LOOP:  cpu time   10.2608: real time   10.2655

 eigenvalue-minimisations  :  1232
 total energy-change (2. order) :-0.7357562E+02  (-0.1044381E+03)
 number of electron     813.9998083 magnetization 
 augmentation part      355.2709170 magnetization 

 Broyden mixing:
  rms(total) = 0.16820E+02    rms(broyden)= 0.16818E+02
  rms(prec ) = 0.17636E+02
  weight for this iteration     100.00

 eigenvalues of (default mixing * dielectric matrix)
  average eigenvalue GAMMA=   0.2172
  0.2172

 Free energy of the ion-electron system (eV)
  ---------------------------------------------------
  alpha Z        PSCENC =      1468.23875301
  Ewald energy   TEWEN  =    159468.97043339
  -Hartree energ DENC   =   -280431.31170254
  -exchange      EXHF   =         0.00000000
  -V(xc)+E(xc)   XCENC  =      3705.71656158
  PAW double counting   =    121047.94008247  -125856.56414544
  entropy T*S    EENTRO =        -0.77776316
  eigenvalues    EBANDS =    -19662.14343549
  atomic energy  EATOM  =    139780.45519414
  Solvation  Ediel_sol  =         0.00000000
  ---------------------------------------------------
  free energy    TOTEN  =      -479.47602204 eV

  energy without entropy =     -478.69825888  energy(sigma->0) =     -479.08714046


--------------------------------------------------------------------------------------------------------




--------------------------------------- Iteration      1(   7)  ---------------------------------------


    POTLOK:  cpu time    0.3479: real time    0.3482
    SETDIJ:  cpu time    0.0193: real time    0.0193
     EDDAV:  cpu time    8.8731: real time    8.8777
       DOS:  cpu time    0.0013: real time    0.0013
    CHARGE:  cpu time    0.3339: real time    0.3339
    MIXING:  cpu time    0.0117: real time    0.0117
    --------------------------------------------
      LOOP:  cpu time    9.5873: real time    9.5923

 eigenvalue-minimisations  :  1120
 total energy-change (2. order) : 0.1025901E+03  (-0.2124196E+02)
 number of electron     813.9998163 magnetization 
 augmentation part      342.3958024 magnetization 

 Broyden mixing:
  rms(total) = 0.74537E+01    rms(broyden)= 0.74526E+01
  rms(prec ) = 0.79211E+01
  weight for this iteration     100.00

 eigenvalues of (default mixing * dielectric matrix)
  average eigenvalue GAMMA=   0.5049
  0.5049  0.5049

 Free energy of the ion-electron system (eV)
  ---------------------------------------------------
  alpha Z        PSCENC =      1468.23875301
  Ewald energy   TEWEN  =    159468.97043339
  -Hartree energ DENC   =   -281444.62564175
  -exchange      EXHF   =         0.00000000
  -V(xc)+E(xc)   XCENC  =      3730.95569012
  PAW double counting   =    125605.83422119  -130552.12427289
  entropy T*S    EENTRO =        -1.05903742
  eigenvalues    EBANDS =    -18433.53126929
  atomic energy  EATOM  =    139780.45519414
  Solvation  Ediel_sol  =         0.00000000
  ---------------------------------------------------
  free energy    TOTEN  =      -376.88592950 eV

  energy without entropy =     -375.82689208  energy(sigma->0) =     -376.35641079


--------------------------------------------------------------------------------------------------------




--------------------------------------- Iteration      1(   8)  ---------------------------------------


    POTLOK:  cpu time    0.3418: real time    0.3419
    SETDIJ:  cpu time    0.0194: real time    0.0194
     EDDAV:  cpu time   10.2712: real time   10.2728
       DOS:  cpu time    0.0012: real time    0.0012
    CHARGE:  cpu time    0.3648: real time    0.3650
    MIXING:  cpu time    0.0121: real time    0.0121
    --------------------------------------------
      LOOP:  cpu time   11.0105: real time   11.0123

 eigenvalue-minimisations  :  1360
 total energy-change (2. order) :-0.1002804E+03  (-0.2569302E+02)
 number of electron     813.9998401 magnetization 
 augmentation part      309.2366568 magnetization 

 Broyden mixing:
  rms(total) = 0.18042E+02    rms(broyden)= 0.18040E+02
  rms(prec ) = 0.22695E+02
  weight for this iteration     100.00

 eigenvalues of (default mixing * dielectric matrix)
  average eigenvalue GAMMA=   0.4398
  0.6771  0.5105  0.1317

 Free energy of the ion-electron system (eV)
  ---------------------------------------------------
  alpha Z        PSCENC =      1468.23875301
  Ewald energy   TEWEN  =    159468.97043339
  -Hartree energ DENC   =   -282557.12729156
  -exchange      EXHF   =         0.00000000
  -V(xc)+E(xc)   XCENC  =      3760.38387556
  PAW double counting   =    133243.87237891  -138341.22830690
  entropy T*S    EENTRO =        -0.69534077
  eigenvalues    EBANDS =    -17300.03597863
  atomic energy  EATOM  =    139780.45519414
  Solvation  Ediel_sol  =         0.00000000
  ---------------------------------------------------
  free energy    TOTEN  =      -477.16628284 eV

  energy without entropy =     -476.47094207  energy(sigma->0) =     -476.81861245


--------------------------------------------------------------------------------------------------------




--------------------------------------- Iteration      1(   9)  ---------------------------------------


    POTLOK:  cpu time    0.3416: real time    0.3416
    SETDIJ:  cpu time    0.0195: real time    0.0195
     EDDAV:  cpu time    9.9044: real time    9.9069
       DOS:  cpu time    0.0013: real time    0.0013
    CHARGE:  cpu time    0.3353: real time    0.3363
    MIXING:  cpu time    0.0140: real time    0.0140
    --------------------------------------------
      LOOP:  cpu time   10.6161: real time   10.6196

 eigenvalue-minimisations  :  1296
 total energy-change (2. order) : 0.9538963E+02  (-0.1976068E+02)
 number of electron     813.9998299 magnetization 
 augmentation part      312.5082250 magnetization 

 Broyden mixing:
  rms(total) = 0.80752E+01    rms(broyden)= 0.80695E+01
  rms(prec ) = 0.94361E+01
  weight for this iteration     100.00

 eigenvalues of (default mixing * dielectric matrix)
  average eigenvalue GAMMA=   0.4694
  1.0898  0.3434  0.3434  0.1010

 Free energy of the ion-electron system (eV)
  ---------------------------------------------------
  alpha Z        PSCENC =      1468.23875301
  Ewald energy   TEWEN  =    159468.97043339
  -Hartree energ DENC   =   -282584.61701514
  -exchange      EXHF   =         0.00000000
  -V(xc)+E(xc)   XCENC  =      3758.84861323
  PAW double counting   =    136029.76377792  -141142.52487273
  entropy T*S    EENTRO =        -0.88941502
  eigenvalues    EBANDS =    -17160.02212561
  atomic energy  EATOM  =    139780.45519414
  Solvation  Ediel_sol  =         0.00000000
  ---------------------------------------------------
  free energy    TOTEN  =      -381.77665682 eV

  energy without entropy =     -380.88724179  energy(sigma->0) =     -381.33194931


--------------------------------------------------------------------------------------------------------




--------------------------------------- Iteration      1(  10)  ---------------------------------------


    POTLOK:  cpu time    0.3389: real time    0.3390
    SETDIJ:  cpu time    0.0195: real time    0.0195
     EDDAV:  cpu time   10.7024: real time   10.7048
       DOS:  cpu time    0.0014: real time    0.0014
    CHARGE:  cpu time    0.4116: real time    0.4117
    MIXING:  cpu time    0.0145: real time    0.0145
    --------------------------------------------
      LOOP:  cpu time   11.4884: real time   11.4909

 eigenvalue-minimisations  :  1432
 total energy-change (2. order) :-0.1271491E+01  (-0.8208242E+01)
 number of electron     813.9998379 magnetization 
 augmentation part      312.8510750 magnetization 

 Broyden mixing:
  rms(total) = 0.68900E+01    rms(broyden)= 0.68873E+01
  rms(prec ) = 0.77508E+01
  weight for this iteration     100.00

 eigenvalues of (default mixing * dielectric matrix)
  average eigenvalue GAMMA=   0.6011
  1.9284  0.4152  0.4152  0.1235  0.1235

 Free energy of the ion-electron system (eV)
  ---------------------------------------------------
  alpha Z        PSCENC =      1468.23875301
  Ewald energy   TEWEN  =    159468.97043339
  -Hartree energ DENC   =   -282529.68321246
  -exchange      EXHF   =         0.00000000
  -V(xc)+E(xc)   XCENC  =      3757.16516692
  PAW double counting   =    138894.77268071  -144023.87051302
  entropy T*S    EENTRO =        -1.02577626
  eigenvalues    EBANDS =    -17198.07087440
  atomic energy  EATOM  =    139780.45519414
  Solvation  Ediel_sol  =         0.00000000
  ---------------------------------------------------
  free energy    TOTEN  =      -383.04814796 eV

  energy without entropy =     -382.02237170  energy(sigma->0) =     -382.53525983


--------------------------------------------------------------------------------------------------------




--------------------------------------- Iteration      1(  11)  ---------------------------------------


    POTLOK:  cpu time    0.3419: real time    0.3451
    SETDIJ:  cpu time    0.0194: real time    0.0195
     EDDAV:  cpu time   10.1088: real time   10.1131
       DOS:  cpu time    0.0016: real time    0.0016
    CHARGE:  cpu time    0.3393: real time    0.3394
    MIXING:  cpu time    0.0127: real time    0.0127
    --------------------------------------------
      LOOP:  cpu time   10.8236: real time   10.8314

 eigenvalue-minimisations  :  1328
 total energy-change (2. order) : 0.2871132E+01  (-0.4890950E+01)
 number of electron     813.9998441 magnetization 
 augmentation part      317.4727565 magnetization 

 Broyden mixing:
  rms(total) = 0.57064E+01    rms(broyden)= 0.57039E+01
  rms(prec ) = 0.66797E+01
  weight for this iteration     100.00

 eigenvalues of (default mixing * dielectric matrix)
  average eigenvalue GAMMA=   0.5525
  2.0175  0.4111  0.4111  0.1827  0.1827  0.1097

 Free energy of the ion-electron system (eV)
  ---------------------------------------------------
  alpha Z        PSCENC =      1468.23875301
  Ewald energy   TEWEN  =    159468.97043339
  -Hartree energ DENC   =   -282357.85476446
  -exchange      EXHF   =         0.00000000
  -V(xc)+E(xc)   XCENC  =      3752.20631050
  PAW double counting   =    145351.82872996  -150511.67125219
  entropy T*S    EENTRO =        -1.00868206
  eigenvalues    EBANDS =    -17331.34173848
  atomic energy  EATOM  =    139780.45519414
  Solvation  Ediel_sol  =         0.00000000
  ---------------------------------------------------
  free energy    TOTEN  =      -380.17701619 eV

  energy without entropy =     -379.16833414  energy(sigma->0) =     -379.67267517


--------------------------------------------------------------------------------------------------------




--------------------------------------- Iteration      1(  12)  ---------------------------------------


    POTLOK:  cpu time    0.3460: real time    0.3460
    SETDIJ:  cpu time    0.0194: real time    0.0194
     EDDAV:  cpu time   10.0972: real time   10.1046
       DOS:  cpu time    0.0012: real time    0.0012
    CHARGE:  cpu time    0.3450: real time    0.3450
    MIXING:  cpu time    0.0143: real time    0.0143
    --------------------------------------------
      LOOP:  cpu time   10.8231: real time   10.8305

 eigenvalue-minimisations  :  1328
 total energy-change (2. order) : 0.1017452E+02  (-0.3243179E+01)
 number of electron     813.9998333 magnetization 
 augmentation part      319.0843473 magnetization 

 Broyden mixing:
  rms(total) = 0.43374E+01    rms(broyden)= 0.43344E+01
  rms(prec ) = 0.53589E+01
  weight for this iteration     100.00

 eigenvalues of (default mixing * dielectric matrix)
  average eigenvalue GAMMA=   0.5819
  2.1569  0.5640  0.4540  0.4540  0.2043  0.1199  0.1199

 Free energy of the ion-electron system (eV)
  ---------------------------------------------------
  alpha Z        PSCENC =      1468.23875301
  Ewald energy   TEWEN  =    159468.97043339
  -Hartree energ DENC   =   -282344.08232832
  -exchange      EXHF   =         0.00000000
  -V(xc)+E(xc)   XCENC  =      3752.17479253
  PAW double counting   =    146202.22426336  -151368.78444548
  entropy T*S    EENTRO =        -0.93097426
  eigenvalues    EBANDS =    -17328.26818422
  atomic energy  EATOM  =    139780.45519414
  Solvation  Ediel_sol  =         0.00000000
  ---------------------------------------------------
  free energy    TOTEN  =      -370.00249584 eV

  energy without entropy =     -369.07152158  energy(sigma->0) =     -369.53700871


--------------------------------------------------------------------------------------------------------




--------------------------------------- Iteration      1(  13)  ---------------------------------------


    POTLOK:  cpu time    0.3451: real time    0.3452
    SETDIJ:  cpu time    0.0195: real time    0.0195
     EDDAV:  cpu time   10.0158: real time   10.0172
       DOS:  cpu time    0.0012: real time    0.0012
    CHARGE:  cpu time    0.3387: real time    0.3387
    MIXING:  cpu time    0.0135: real time    0.0135
    --------------------------------------------
      LOOP:  cpu time   10.7337: real time   10.7352

 eigenvalue-minimisations  :  1320
 total energy-change (2. order) : 0.4357866E+01  (-0.2912923E+01)
 number of electron     813.9998278 magnetization 
 augmentation part      319.1082905 magnetization 

 Broyden mixing:
  rms(total) = 0.49872E+01    rms(broyden)= 0.49846E+01
  rms(prec ) = 0.62129E+01
  weight for this iteration     100.00

 eigenvalues of (default mixing * dielectric matrix)
  average eigenvalue GAMMA=   0.5376
  2.2281  0.5162  0.4573  0.4573  0.2642  0.1120  0.1330  0.1330

 Free energy of the ion-electron system (eV)
  ---------------------------------------------------
  alpha Z        PSCENC =      1468.23875301
  Ewald energy   TEWEN  =    159468.97043339
  -Hartree energ DENC   =   -282349.10442075
  -exchange      EXHF   =         0.00000000
  -V(xc)+E(xc)   XCENC  =      3751.94842444
  PAW double counting   =    147005.22717730  -152175.55259592
  entropy T*S    EENTRO =        -0.95746696
  eigenvalues    EBANDS =    -17314.87012829
  atomic energy  EATOM  =    139780.45519414
  Solvation  Ediel_sol  =         0.00000000
  ---------------------------------------------------
  free energy    TOTEN  =      -365.64462963 eV

  energy without entropy =     -364.68716267  energy(sigma->0) =     -365.16589615


--------------------------------------------------------------------------------------------------------




--------------------------------------- Iteration      1(  14)  ---------------------------------------


    POTLOK:  cpu time    0.3435: real time    0.3435
    SETDIJ:  cpu time    0.0195: real time    0.0195
     EDDAV:  cpu time   10.2575: real time   10.2619
       DOS:  cpu time    0.0012: real time    0.0012
    CHARGE:  cpu time    0.3381: real time    0.3381
    MIXING:  cpu time    0.0148: real time    0.0149
    --------------------------------------------
      LOOP:  cpu time   10.9746: real time   10.9792

 eigenvalue-minimisations  :  1336
 total energy-change (2. order) : 0.7798185E+01  (-0.2146431E+01)
 number of electron     813.9998360 magnetization 
 augmentation part      321.6007118 magnetization 

 Broyden mixing:
  rms(total) = 0.27894E+01    rms(broyden)= 0.27863E+01
  rms(prec ) = 0.34966E+01
  weight for this iteration     100.00

 eigenvalues of (default mixing * dielectric matrix)
  average eigenvalue GAMMA=   0.5157
  2.2410  0.5052  0.5052  0.4310  0.4310  0.1579  0.1506  0.1096  0.1096

 Free energy of the ion-electron system (eV)
  ---------------------------------------------------
  alpha Z        PSCENC =      1468.23875301
  Ewald energy   TEWEN  =    159468.97043339
  -Hartree energ DENC   =   -282325.74780955
  -exchange      EXHF   =         0.00000000
  -V(xc)+E(xc)   XCENC  =      3751.22415065
  PAW double counting   =    147297.07755430  -152465.85018929
  entropy T*S    EENTRO =        -1.07101852
  eigenvalues    EBANDS =    -17331.14351238
  atomic energy  EATOM  =    139780.45519414
  Solvation  Ediel_sol  =         0.00000000
  ---------------------------------------------------
  free energy    TOTEN  =      -357.84644425 eV

  energy without entropy =     -356.77542573  energy(sigma->0) =     -357.31093499


--------------------------------------------------------------------------------------------------------




--------------------------------------- Iteration      1(  15)  ---------------------------------------


    POTLOK:  cpu time    0.3452: real time    0.3452
    SETDIJ:  cpu time    0.0194: real time    0.0194
     EDDAV:  cpu time   10.2747: real time   10.2823
       DOS:  cpu time    0.0013: real time    0.0013
    CHARGE:  cpu time    0.3359: real time    0.3359
    MIXING:  cpu time    0.0147: real time    0.0147
    --------------------------------------------
      LOOP:  cpu time   10.9912: real time   10.9987

 eigenvalue-minimisations  :  1360
 total energy-change (2. order) : 0.1938140E+01  (-0.6562978E+00)
 number of electron     813.9998335 magnetization 
 augmentation part      321.6831220 magnetization 

 Broyden mixing:
  rms(total) = 0.20379E+01    rms(broyden)= 0.20369E+01
  rms(prec ) = 0.24765E+01
  weight for this iteration     100.00

 eigenvalues of (default mixing * dielectric matrix)
  average eigenvalue GAMMA=   0.4996
  2.1983  0.6159  0.6159  0.4360  0.4360  0.1650  0.1650  0.1117  0.1258  0.1258

 Free energy of the ion-electron system (eV)
  ---------------------------------------------------
  alpha Z        PSCENC =      1468.23875301
  Ewald energy   TEWEN  =    159468.97043339
  -Hartree energ DENC   =   -282334.95291125
  -exchange      EXHF   =         0.00000000
  -V(xc)+E(xc)   XCENC  =      3751.24506378
  PAW double counting   =    147290.78221323  -152458.22924254
  entropy T*S    EENTRO =        -1.05504433
  eigenvalues    EBANDS =    -17321.36276372
  atomic energy  EATOM  =    139780.45519414
  Solvation  Ediel_sol  =         0.00000000
  ---------------------------------------------------
  free energy    TOTEN  =      -355.90830428 eV

  energy without entropy =     -354.85325995  energy(sigma->0) =     -355.38078212


--------------------------------------------------------------------------------------------------------




--------------------------------------- Iteration      1(  16)  ---------------------------------------


    POTLOK:  cpu time    0.3446: real time    0.3446
    SETDIJ:  cpu time    0.0193: real time    0.0193
     EDDAV:  cpu time    9.9566: real time    9.9594
       DOS:  cpu time    0.0014: real time    0.0014
    CHARGE:  cpu time    0.3418: real time    0.3418
    MIXING:  cpu time    0.0161: real time    0.0161
    --------------------------------------------
      LOOP:  cpu time   10.6799: real time   10.6826

 eigenvalue-minimisations  :  1312
 total energy-change (2. order) : 0.1126740E+01  (-0.1423369E+00)
 number of electron     813.9998338 magnetization 
 augmentation part      321.3597295 magnetization 

 Broyden mixing:
  rms(total) = 0.17797E+01    rms(broyden)= 0.17796E+01
  rms(prec ) = 0.22029E+01
  weight for this iteration     100.00

 eigenvalues of (default mixing * dielectric matrix)
  average eigenvalue GAMMA=   0.4839
  2.1874  0.6444  0.6444  0.4220  0.4220  0.2433  0.2433  0.1465  0.1465  0.1116
  0.1116

 Free energy of the ion-electron system (eV)
  ---------------------------------------------------
  alpha Z        PSCENC =      1468.23875301
  Ewald energy   TEWEN  =    159468.97043339
  -Hartree energ DENC   =   -282353.96486501
  -exchange      EXHF   =         0.00000000
  -V(xc)+E(xc)   XCENC  =      3751.64748541
  PAW double counting   =    147020.11225376  -152185.52889929
  entropy T*S    EENTRO =        -1.07860709
  eigenvalues    EBANDS =    -17303.63331221
  atomic energy  EATOM  =    139780.45519414
  Solvation  Ediel_sol  =         0.00000000
  ---------------------------------------------------
  free energy    TOTEN  =      -354.78156388 eV

  energy without entropy =     -353.70295680  energy(sigma->0) =     -354.24226034


--------------------------------------------------------------------------------------------------------




--------------------------------------- Iteration      1(  17)  ---------------------------------------


    POTLOK:  cpu time    0.3412: real time    0.3442
    SETDIJ:  cpu time    0.0194: real time    0.0194
     EDDAV:  cpu time   10.0711: real time   10.0745
       DOS:  cpu time    0.0012: real time    0.0012
    CHARGE:  cpu time    0.3349: real time    0.3349
    MIXING:  cpu time    0.0166: real time    0.0167
    --------------------------------------------
      LOOP:  cpu time   10.7845: real time   10.7908

 eigenvalue-minimisations  :  1328
 total energy-change (2. order) : 0.3678620E+00  (-0.5986337E-01)
 number of electron     813.9998337 magnetization 
 augmentation part      321.0977810 magnetization 

 Broyden mixing:
  rms(total) = 0.17026E+01    rms(broyden)= 0.17024E+01
  rms(prec ) = 0.20869E+01
  weight for this iteration     100.00

 eigenvalues of (default mixing * dielectric matrix)
  average eigenvalue GAMMA=   0.5223
  2.1605  0.9165  0.9165  0.4433  0.4433  0.4367  0.2711  0.1553  0.1553  0.1420
  0.1133  0.1133

 Free energy of the ion-electron system (eV)
  ---------------------------------------------------
  alpha Z        PSCENC =      1468.23875301
  Ewald energy   TEWEN  =    159468.97043339
  -Hartree energ DENC   =   -282365.00521670
  -exchange      EXHF   =         0.00000000
  -V(xc)+E(xc)   XCENC  =      3751.82428848
  PAW double counting   =    146854.84173624  -152018.50787606
  entropy T*S    EENTRO =        -1.07863131
  eigenvalues    EBANDS =    -17294.15238304
  atomic energy  EATOM  =    139780.45519414
  Solvation  Ediel_sol  =         0.00000000
  ---------------------------------------------------
  free energy    TOTEN  =      -354.41370184 eV

  energy without entropy =     -353.33507053  energy(sigma->0) =     -353.87438619


--------------------------------------------------------------------------------------------------------




--------------------------------------- Iteration      1(  18)  ---------------------------------------


    POTLOK:  cpu time    0.3470: real time    0.3473
    SETDIJ:  cpu time    0.0193: real time    0.0193
     EDDAV:  cpu time   10.1920: real time   10.1961
       DOS:  cpu time    0.0013: real time    0.0013
    CHARGE:  cpu time    0.3454: real time    0.3454
    MIXING:  cpu time    0.0177: real time    0.0178
    --------------------------------------------
      LOOP:  cpu time   10.9227: real time   10.9272

 eigenvalue-minimisations  :  1352
 total energy-change (2. order) : 0.8182100E+00  (-0.4120265E-01)
 number of electron     813.9998330 magnetization 
 augmentation part      320.8723413 magnetization 

 Broyden mixing:
  rms(total) = 0.14924E+01    rms(broyden)= 0.14923E+01
  rms(prec ) = 0.18193E+01
  weight for this iteration     100.00

 eigenvalues of (default mixing * dielectric matrix)
  average eigenvalue GAMMA=   0.5335
  2.1384  1.1129  1.1129  0.4593  0.4593  0.3965  0.3965  0.1736  0.1736  0.1126
  0.1126  0.1437  0.1437

 Free energy of the ion-electron system (eV)
  ---------------------------------------------------
  alpha Z        PSCENC =      1468.23875301
  Ewald energy   TEWEN  =    159468.97043339
  -Hartree energ DENC   =   -282383.90541285
  -exchange      EXHF   =         0.00000000
  -V(xc)+E(xc)   XCENC  =      3752.05483884
  PAW double counting   =    146438.40327033  -151596.98877203
  entropy T*S    EENTRO =        -1.09741338
  eigenvalues    EBANDS =    -17279.72638332
  atomic energy  EATOM  =    139780.45519414
  Solvation  Ediel_sol  =         0.00000000
  ---------------------------------------------------
  free energy    TOTEN  =      -353.59549186 eV

  energy without entropy =     -352.49807849  energy(sigma->0) =     -353.04678517


--------------------------------------------------------------------------------------------------------




--------------------------------------- Iteration      1(  19)  ---------------------------------------


    POTLOK:  cpu time    0.3498: real time    0.3500
    SETDIJ:  cpu time    0.0194: real time    0.0194
     EDDAV:  cpu time   10.1604: real time   10.1662
       DOS:  cpu time    0.0014: real time    0.0014
    CHARGE:  cpu time    0.3436: real time    0.3436
    MIXING:  cpu time    0.0185: real time    0.0185
    --------------------------------------------
      LOOP:  cpu time   10.8931: real time   10.8991

 eigenvalue-minimisations  :  1344
 total energy-change (2. order) : 0.6286660E+00  (-0.3120424E-01)
 number of electron     813.9998329 magnetization 
 augmentation part      320.6570482 magnetization 

 Broyden mixing:
  rms(total) = 0.12978E+01    rms(broyden)= 0.12977E+01
  rms(prec ) = 0.15857E+01
  weight for this iteration     100.00

 eigenvalues of (default mixing * dielectric matrix)
  average eigenvalue GAMMA=   0.5806
  2.0824  1.4766  1.4766  0.5504  0.5504  0.4572  0.4572  0.2033  0.2033  0.1128
  0.1128  0.1562  0.1447  0.1447

 Free energy of the ion-electron system (eV)
  ---------------------------------------------------
  alpha Z        PSCENC =      1468.23875301
  Ewald energy   TEWEN  =    159468.97043339
  -Hartree energ DENC   =   -282399.02748880
  -exchange      EXHF   =         0.00000000
  -V(xc)+E(xc)   XCENC  =      3752.24345873
  PAW double counting   =    146104.02160230  -151258.56380083
  entropy T*S    EENTRO =        -1.09684779
  eigenvalues    EBANDS =    -17268.20813007
  atomic energy  EATOM  =    139780.45519414
  Solvation  Ediel_sol  =         0.00000000
  ---------------------------------------------------
  free energy    TOTEN  =      -352.96682591 eV

  energy without entropy =     -351.86997812  energy(sigma->0) =     -352.41840201


--------------------------------------------------------------------------------------------------------




--------------------------------------- Iteration      1(  20)  ---------------------------------------


    POTLOK:  cpu time    0.3482: real time    0.3482
    SETDIJ:  cpu time    0.0194: real time    0.0194
     EDDAV:  cpu time   11.0710: real time   11.0785
       DOS:  cpu time    0.0013: real time    0.0013
    CHARGE:  cpu time    0.3412: real time    0.3412
    MIXING:  cpu time    0.0179: real time    0.0179
    --------------------------------------------
      LOOP:  cpu time   11.7989: real time   11.8065

 eigenvalue-minimisations  :  1496
 total energy-change (2. order) : 0.8920634E+00  (-0.6291420E-01)
 number of electron     813.9998320 magnetization 
 augmentation part      320.3722250 magnetization 

 Broyden mixing:
  rms(total) = 0.87436E+00    rms(broyden)= 0.87401E+00
  rms(prec ) = 0.10205E+01
  weight for this iteration     100.00

 eigenvalues of (default mixing * dielectric matrix)
  average eigenvalue GAMMA=   0.5668
  2.0393  1.5619  1.5619  0.5884  0.5884  0.4464  0.4464  0.2216  0.2216  0.1711
  0.1128  0.1128  0.1440  0.1440  0.1417

 Free energy of the ion-electron system (eV)
  ---------------------------------------------------
  alpha Z        PSCENC =      1468.23875301
  Ewald energy   TEWEN  =    159468.97043339
  -Hartree energ DENC   =   -282431.32913456
  -exchange      EXHF   =         0.00000000
  -V(xc)+E(xc)   XCENC  =      3752.54079207
  PAW double counting   =    145407.81810428  -150553.47480474
  entropy T*S    EENTRO =        -1.12175422
  eigenvalues    EBANDS =    -17244.17234589
  atomic energy  EATOM  =    139780.45519414
  Solvation  Ediel_sol  =         0.00000000
  ---------------------------------------------------
  free energy    TOTEN  =      -352.07476251 eV

  energy without entropy =     -350.95300830  energy(sigma->0) =     -351.51388540


--------------------------------------------------------------------------------------------------------




--------------------------------------- Iteration      1(  21)  ---------------------------------------


    POTLOK:  cpu time    0.3473: real time    0.3473
    SETDIJ:  cpu time    0.0194: real time    0.0194
     EDDAV:  cpu time   10.0992: real time   10.1034
       DOS:  cpu time    0.0012: real time    0.0012
    CHARGE:  cpu time    0.3413: real time    0.3414
    MIXING:  cpu time    0.0187: real time    0.0187
    --------------------------------------------
      LOOP:  cpu time   10.8272: real time   10.8314

 eigenvalue-minimisations  :  1336
 total energy-change (2. order) : 0.2327927E+00  (-0.3905549E-01)
 number of electron     813.9998313 magnetization 
 augmentation part      320.2672611 magnetization 

 Broyden mixing:
  rms(total) = 0.68830E+00    rms(broyden)= 0.68816E+00
  rms(prec ) = 0.81236E+00
  weight for this iteration     100.00

 eigenvalues of (default mixing * dielectric matrix)
  average eigenvalue GAMMA=   0.5383
  2.0307  1.5522  1.5522  0.5824  0.5824  0.4333  0.4333  0.2418  0.2418  0.1710
  0.1130  0.1130  0.1461  0.1461  0.1368  0.1368

 Free energy of the ion-electron system (eV)
  ---------------------------------------------------
  alpha Z        PSCENC =      1468.23875301
  Ewald energy   TEWEN  =    159468.97043339
  -Hartree energ DENC   =   -282442.60660953
  -exchange      EXHF   =         0.00000000
  -V(xc)+E(xc)   XCENC  =      3752.65567153
  PAW double counting   =    145145.81794818  -150288.36270133
  entropy T*S    EENTRO =        -1.13431159
  eigenvalues    EBANDS =    -17235.87634760
  atomic energy  EATOM  =    139780.45519414
  Solvation  Ediel_sol  =         0.00000000
  ---------------------------------------------------
  free energy    TOTEN  =      -351.84196980 eV

  energy without entropy =     -350.70765821  energy(sigma->0) =     -351.27481400


--------------------------------------------------------------------------------------------------------




--------------------------------------- Iteration      1(  22)  ---------------------------------------


    POTLOK:  cpu time    0.3516: real time    0.3516
    SETDIJ:  cpu time    0.0194: real time    0.0194
     EDDAV:  cpu time    8.5454: real time    8.5470
       DOS:  cpu time    0.0012: real time    0.0012
    CHARGE:  cpu time    0.3355: real time    0.3355
    MIXING:  cpu time    0.0194: real time    0.0194
    --------------------------------------------
      LOOP:  cpu time    9.2724: real time    9.2741

 eigenvalue-minimisations  :  1064
 total energy-change (2. order) : 0.1149644E-01  (-0.1097871E-01)
 number of electron     813.9998318 magnetization 
 augmentation part      320.2977335 magnetization 

 Broyden mixing:
  rms(total) = 0.66909E+00    rms(broyden)= 0.66907E+00
  rms(prec ) = 0.77975E+00
  weight for this iteration     100.00

 eigenvalues of (default mixing * dielectric matrix)
  average eigenvalue GAMMA=   0.5411
  1.9896  1.5799  1.5799  0.5305  0.5305  0.4474  0.4474  0.4312  0.4312  0.2072
  0.2072  0.1128  0.1128  0.1637  0.1442  0.1442  0.1397

 Free energy of the ion-electron system (eV)
  ---------------------------------------------------
  alpha Z        PSCENC =      1468.23875301
  Ewald energy   TEWEN  =    159468.97043339
  -Hartree energ DENC   =   -282442.31666329
  -exchange      EXHF   =         0.00000000
  -V(xc)+E(xc)   XCENC  =      3752.61721325
  PAW double counting   =    145130.04234073  -150272.61381624
  entropy T*S    EENTRO =        -1.12698058
  eigenvalues    EBANDS =    -17236.09694778
  atomic energy  EATOM  =    139780.45519414
  Solvation  Ediel_sol  =         0.00000000
  ---------------------------------------------------
  free energy    TOTEN  =      -351.83047336 eV

  energy without entropy =     -350.70349278  energy(sigma->0) =     -351.26698307


--------------------------------------------------------------------------------------------------------




--------------------------------------- Iteration      1(  23)  ---------------------------------------


    POTLOK:  cpu time    0.3489: real time    0.3489
    SETDIJ:  cpu time    0.0194: real time    0.0194
     EDDAV:  cpu time    9.5500: real time    9.5555
       DOS:  cpu time    0.0011: real time    0.0011
    CHARGE:  cpu time    0.3340: real time    0.3341
    MIXING:  cpu time    0.0201: real time    0.0201
    --------------------------------------------
      LOOP:  cpu time   10.2735: real time   10.2792

 eigenvalue-minimisations  :  1240
 total energy-change (2. order) : 0.5979173E-01  (-0.3429189E-02)
 number of electron     813.9998314 magnetization 
 augmentation part      320.2945409 magnetization 

 Broyden mixing:
  rms(total) = 0.59978E+00    rms(broyden)= 0.59975E+00
  rms(prec ) = 0.70204E+00
  weight for this iteration     100.00

 eigenvalues of (default mixing * dielectric matrix)
  average eigenvalue GAMMA=   0.5971
  1.9925  1.6159  1.6159  1.0253  1.0253  0.5744  0.5744  0.4580  0.4580  0.2076
  0.2076  0.1879  0.1128  0.1128  0.1525  0.1461  0.1461  0.1338

 Free energy of the ion-electron system (eV)
  ---------------------------------------------------
  alpha Z        PSCENC =      1468.23875301
  Ewald energy   TEWEN  =    159468.97043339
  -Hartree energ DENC   =   -282447.52211208
  -exchange      EXHF   =         0.00000000
  -V(xc)+E(xc)   XCENC  =      3752.65289474
  PAW double counting   =    144976.46107735  -150117.54854185
  entropy T*S    EENTRO =        -1.13954968
  eigenvalues    EBANDS =    -17232.33883066
  atomic energy  EATOM  =    139780.45519414
  Solvation  Ediel_sol  =         0.00000000
  ---------------------------------------------------
  free energy    TOTEN  =      -351.77068163 eV

  energy without entropy =     -350.63113196  energy(sigma->0) =     -351.20090679


--------------------------------------------------------------------------------------------------------




--------------------------------------- Iteration      1(  24)  ---------------------------------------


    POTLOK:  cpu time    0.3491: real time    0.3491
    SETDIJ:  cpu time    0.0193: real time    0.0193
     EDDAV:  cpu time   10.2854: real time   10.2907
       DOS:  cpu time    0.0012: real time    0.0012
    CHARGE:  cpu time    0.3339: real time    0.3339
    MIXING:  cpu time    0.0222: real time    0.0222
    --------------------------------------------
      LOOP:  cpu time   11.0112: real time   11.0165

 eigenvalue-minimisations  :  1368
 total energy-change (2. order) : 0.4576605E-01  (-0.8708587E-02)
 number of electron     813.9998315 magnetization 
 augmentation part      320.4981672 magnetization 

 Broyden mixing:
  rms(total) = 0.52554E+00    rms(broyden)= 0.52547E+00
  rms(prec ) = 0.62553E+00
  weight for this iteration     100.00

 eigenvalues of (default mixing * dielectric matrix)
  average eigenvalue GAMMA=   0.6371
  1.9043  1.7125  1.7125  1.4173  1.4173  0.6468  0.6468  0.4535  0.4535  0.3549
  0.2003  0.2003  0.1790  0.1128  0.1128  0.1551  0.1452  0.1452  0.1346

 Free energy of the ion-electron system (eV)
  ---------------------------------------------------
  alpha Z        PSCENC =      1468.23875301
  Ewald energy   TEWEN  =    159468.97043339
  -Hartree energ DENC   =   -282452.28377511
  -exchange      EXHF   =         0.00000000
  -V(xc)+E(xc)   XCENC  =      3752.57339579
  PAW double counting   =    144826.29261831  -149965.54529239
  entropy T*S    EENTRO =        -1.12550615
  eigenvalues    EBANDS =    -17229.30073657
  atomic energy  EATOM  =    139780.45519414
  Solvation  Ediel_sol  =         0.00000000
  ---------------------------------------------------
  free energy    TOTEN  =      -351.72491558 eV

  energy without entropy =     -350.59940943  energy(sigma->0) =     -351.16216251


--------------------------------------------------------------------------------------------------------




--------------------------------------- Iteration      1(  25)  ---------------------------------------


    POTLOK:  cpu time    0.3508: real time    0.3508
    SETDIJ:  cpu time    0.0195: real time    0.0195
     EDDAV:  cpu time   10.6526: real time   10.6573
       DOS:  cpu time    0.0012: real time    0.0012
    CHARGE:  cpu time    0.3345: real time    0.3346
    MIXING:  cpu time    0.0229: real time    0.0229
    --------------------------------------------
      LOOP:  cpu time   11.3813: real time   11.3862

 eigenvalue-minimisations  :  1432
 total energy-change (2. order) : 0.2413868E-01  (-0.2796961E-01)
 number of electron     813.9998306 magnetization 
 augmentation part      320.3755790 magnetization 

 Broyden mixing:
  rms(total) = 0.53534E+00    rms(broyden)= 0.53497E+00
  rms(prec ) = 0.63792E+00
  weight for this iteration     100.00

 eigenvalues of (default mixing * dielectric matrix)
  average eigenvalue GAMMA=   0.6541
  1.9880  1.7951  1.7951  1.5430  1.5430  0.7497  0.6027  0.6027  0.4540  0.4540
  0.2043  0.2043  0.1827  0.1128  0.1128  0.1613  0.1449  0.1449  0.1535  0.1335

 Free energy of the ion-electron system (eV)
  ---------------------------------------------------
  alpha Z        PSCENC =      1468.23875301
  Ewald energy   TEWEN  =    159468.97043339
  -Hartree energ DENC   =   -282474.56661745
  -exchange      EXHF   =         0.00000000
  -V(xc)+E(xc)   XCENC  =      3752.66768379
  PAW double counting   =    144465.29250634  -149599.96578553
  entropy T*S    EENTRO =        -1.14120453
  eigenvalues    EBANDS =    -17211.65174005
  atomic energy  EATOM  =    139780.45519414
  Solvation  Ediel_sol  =         0.00000000
[...]
  Alpha Z  1468.23875  1468.23875  1468.23875
  Ewald  209597.21743210874.76975************     0.00001     0.00000  -249.83238
  Hartree244652.54001246287.05237************    -0.00002     0.00002  -253.04786
  E(xc)   -5192.49013 -5193.56507 -5200.73279    -0.00001     0.00001     0.22278
  Local  ************************456430.77521     0.00020    -0.00013   511.79711
  n-local  -589.87890  -607.87048  -608.91954     0.01383    -0.00373    -1.52265
  augment  5935.03881  5963.99267  5964.79303    -0.00049     0.00038    -6.54047
  Kinetic 11370.77180 11403.63827 11501.04686    -0.00013    -0.00031    -2.42259
  Fock        0.00000     0.00000     0.00000     0.00000     0.00000     0.00000
  -------------------------------------------------------------------------------------
  Total     118.14207   113.81241   142.18865     0.00000     0.00000    -1.34606
  in kB      70.72650    68.13452    85.12214     0.00000     0.00000    -0.80583
  external pressure =       74.66 kB  Pullay stress =        0.00 kB


 VOLUME and BASIS-vectors are now :
 -----------------------------------------------------------------------------
  energy-cutoff  :      450.00
  volume of cell :     2676.29
      direct lattice vectors                 reciprocal lattice vectors
    16.884694054  0.000000000  0.000000000     0.059225237  0.000000000  0.000000000
     0.000000000  9.578410000  0.000000000     0.000000000  0.104401461  0.000000000
     0.000000000  0.000000000 16.548032550     0.000000000  0.000000000  0.060430145

  length of vectors
    16.884694054  9.578410000 16.548032550     0.059225237  0.104401461  0.060430145


 FORCES acting on ions
    electron-ion (+dipol)            ewald-force                    non-local-force                 convergence-correction
 -----------------------------------------------------------------------------------------------
   0.617E+03 -.973E-03 0.206E+04   -.622E+03 -.122E-07 -.206E+04   0.441E+01 0.000E+00 0.534E+01   0.943E-02 0.227E-05 -.120E-01
   0.415E+03 -.844E-03 -.290E+04   -.420E+03 0.227E-07 0.290E+04   0.436E+01 0.000E+00 0.151E+01   0.617E-01 0.179E-05 0.723E-01
   0.562E+02 -.716E-03 0.302E+04   -.565E+02 -.308E-07 -.302E+04   0.117E+01 0.000E+00 0.637E+01   0.588E-01 0.116E-05 0.651E-02
   0.355E+03 -.893E-03 -.969E+03   -.356E+03 -.237E-06 0.972E+03   0.124E+01 0.000E+00 -.300E+01   -.304E-01 0.117E-05 0.459E-01
   -.939E+02 -.118E-02 0.241E+04   0.931E+02 0.180E-05 -.242E+04   0.157E+01 0.000E+00 0.629E+01   0.624E-01 0.782E-06 -.402E-01
   0.833E+02 -.810E-03 -.172E+04   -.857E+02 0.581E-06 0.172E+04   0.193E+01 0.000E+00 -.517E+01   0.181E-01 0.988E-06 -.301E-01
   0.684E+03 -.814E-03 0.142E+04   -.690E+03 -.307E-07 -.143E+04   0.492E+01 0.000E+00 0.496E+01   0.263E-01 -.577E-06 0.955E-01
   0.703E+03 -.687E-03 -.321E+04   -.708E+03 -.408E-08 0.321E+04   0.357E+01 0.000E+00 -.391E+01   0.121E+00 -.322E-06 0.149E+00
   0.520E+03 -.756E-03 0.939E+03   -.525E+03 0.627E-07 -.942E+03   0.360E+01 0.000E+00 0.302E+01   -.445E-01 0.419E-06 0.373E+00
   0.564E+02 -.115E-02 -.344E+04   -.599E+02 0.497E-07 0.344E+04   0.463E+01 0.000E+00 0.217E-01   -.870E-01 0.514E-06 0.225E+00
   0.465E+03 -.899E-03 -.169E+04   -.472E+03 -.124E-06 0.169E+04   0.582E+01 0.000E+00 -.216E+01   -.110E+00 0.130E-07 -.138E-01
   -.479E+03 0.221E+03 0.249E+04   0.485E+03 -.223E+03 -.249E+04   -.532E+01 0.254E+01 0.586E+01   0.313E-01 0.658E-01 0.231E-01
   0.116E+03 0.454E+03 -.223E+04   -.115E+03 -.457E+03 0.223E+04   -.257E+01 0.216E+01 -.399E+01   0.154E+00 0.797E-01 0.152E+00
   -.289E+03 0.528E+03 0.390E+04   0.288E+03 -.522E+03 -.390E+04   0.971E+00 -.673E+01 -.165E+01   0.331E-01 -.254E-01 -.108E+00
   -.607E+03 0.350E+03 0.211E+03   0.608E+03 -.353E+03 -.212E+03   -.108E+01 0.310E+01 0.271E+00   -.216E-02 -.253E-01 -.327E-01
   -.339E+03 0.889E+02 -.353E+04   0.342E+03 -.914E+02 0.352E+04   -.309E+01 0.283E+01 0.244E+01   -.148E-01 -.433E-01 0.920E-01
   -.267E+03 0.716E+03 0.350E+04   0.266E+03 -.711E+03 -.350E+04   0.126E+01 -.552E+01 -.136E+01   -.197E-01 0.345E-01 -.819E-01
   -.483E+03 0.601E+03 -.833E+03   0.487E+03 -.607E+03 0.835E+03   -.271E+01 0.515E+01 -.351E+01   -.519E-01 0.754E-01 -.268E-01
   0.546E+02 0.619E+03 0.212E+04   -.546E+02 -.624E+03 -.212E+04   0.172E+00 0.467E+01 0.468E+01   -.255E-02 -.313E-01 0.106E+00
   -.278E+03 0.417E+03 -.263E+04   0.281E+03 -.422E+03 0.263E+04   -.196E+01 0.438E+01 -.365E+01   -.451E-01 -.353E-01 0.188E+00
   0.720E+02 0.381E+03 0.142E+04   -.724E+02 -.385E+03 -.142E+04   0.702E+00 0.290E+01 0.436E+01   0.317E-01 0.228E-01 0.468E-01
   -.103E+03 0.121E+03 -.319E+04   0.103E+03 -.125E+03 0.319E+04   -.338E+00 0.389E+01 0.233E+01   -.145E+00 0.260E-01 0.997E-01
   0.517E+03 -.559E+03 0.257E+04   -.520E+03 0.562E+03 -.258E+04   0.252E+01 -.187E+01 0.878E+01   0.188E-02 -.581E-01 -.705E-01
   -.364E+02 0.246E+03 -.164E+04   0.399E+02 -.248E+03 0.165E+04   -.225E+01 0.203E+01 -.577E+01   0.961E-01 -.510E-01 0.240E-01
   -.479E+03 -.221E+03 0.249E+04   0.485E+03 0.223E+03 -.249E+04   -.532E+01 -.254E+01 0.586E+01   0.313E-01 -.658E-01 0.231E-01
   0.116E+03 -.454E+03 -.223E+04   -.115E+03 0.457E+03 0.223E+04   -.257E+01 -.216E+01 -.399E+01   0.154E+00 -.797E-01 0.152E+00
   -.289E+03 -.528E+03 0.390E+04   0.288E+03 0.522E+03 -.390E+04   0.971E+00 0.673E+01 -.165E+01   0.331E-01 0.254E-01 -.108E+00
   -.607E+03 -.350E+03 0.211E+03   0.608E+03 0.353E+03 -.212E+03   -.108E+01 -.310E+01 0.271E+00   -.216E-02 0.253E-01 -.327E-01
   -.339E+03 -.889E+02 -.353E+04   0.342E+03 0.914E+02 0.352E+04   -.309E+01 -.283E+01 0.244E+01   -.148E-01 0.433E-01 0.920E-01
   -.267E+03 -.716E+03 0.350E+04   0.266E+03 0.711E+03 -.350E+04   0.126E+01 0.552E+01 -.136E+01   -.197E-01 -.345E-01 -.819E-01
   -.483E+03 -.601E+03 -.833E+03   0.487E+03 0.607E+03 0.835E+03   -.271E+01 -.515E+01 -.351E+01   -.519E-01 -.754E-01 -.268E-01
   0.546E+02 -.619E+03 0.212E+04   -.546E+02 0.624E+03 -.212E+04   0.172E+00 -.467E+01 0.468E+01   -.254E-02 0.313E-01 0.106E+00
   -.278E+03 -.417E+03 -.263E+04   0.281E+03 0.422E+03 0.263E+04   -.196E+01 -.438E+01 -.365E+01   -.451E-01 0.353E-01 0.188E+00
   0.720E+02 -.381E+03 0.142E+04   -.724E+02 0.385E+03 -.142E+04   0.702E+00 -.290E+01 0.436E+01   0.317E-01 -.228E-01 0.468E-01
   -.103E+03 -.121E+03 -.319E+04   0.103E+03 0.125E+03 0.319E+04   -.338E+00 -.389E+01 0.233E+01   -.145E+00 -.260E-01 0.997E-01
   0.517E+03 0.559E+03 0.257E+04   -.520E+03 -.562E+03 -.258E+04   0.252E+01 0.187E+01 0.878E+01   0.188E-02 0.581E-01 -.705E-01
   -.364E+02 -.246E+03 -.164E+04   0.399E+02 0.248E+03 0.165E+04   -.225E+01 -.203E+01 -.577E+01   0.961E-01 0.510E-01 0.240E-01
   0.125E+03 -.486E-04 -.160E+04   -.124E+03 0.213E-07 0.161E+04   -.111E+01 0.000E+00 -.161E+01   0.143E+00 0.310E-06 0.231E-01
   -.239E+03 -.801E-05 0.400E+03   0.240E+03 0.996E-08 -.403E+03   0.234E+00 0.000E+00 0.607E+00   -.348E-02 0.348E-06 0.651E-01
   -.730E+03 -.379E-05 0.939E+03   0.737E+03 -.136E-05 -.941E+03   -.341E+01 0.000E+00 0.392E+00   -.585E-03 -.704E-07 -.353E-01
   -.339E+03 -.169E-05 -.636E+03   0.341E+03 -.127E-06 0.638E+03   0.493E-01 0.000E+00 -.173E+01   -.179E-01 -.128E-06 0.967E-02
   -.277E+03 0.850E-05 0.798E+03   0.279E+03 -.101E-06 -.800E+03   -.137E+00 0.000E+00 0.137E+01   -.360E-01 0.260E-06 -.274E-01
   -.747E+02 0.262E-05 -.112E+04   0.761E+02 0.276E-07 0.113E+04   -.474E+00 0.000E+00 -.230E+01   -.321E-02 0.253E-06 0.895E-02
   0.901E+02 -.194E-04 0.174E+04   -.903E+02 0.605E-07 -.175E+04   0.327E+00 0.000E+00 0.195E+01   0.649E-02 0.136E-06 -.424E-01
   -.129E+03 0.380E-05 -.207E+03   0.130E+03 0.246E-07 0.209E+03   0.102E+01 0.000E+00 -.316E+01   -.249E-01 0.249E-06 0.894E-01
   -.706E+02 -.375E-05 -.176E+04   0.710E+02 0.880E-08 0.177E+04   0.282E+00 0.000E+00 -.758E+00   0.129E-02 -.173E-07 0.884E-03
   0.100E+03 -.525E-05 0.162E+04   -.101E+03 0.375E-06 -.163E+04   0.971E+00 0.000E+00 0.186E+01   0.364E-01 -.791E-07 -.142E-01
   -.130E+03 -.376E-04 -.564E+03   0.130E+03 0.208E-06 0.569E+03   0.707E+00 0.000E+00 -.456E+01   0.583E-02 0.176E-07 -.173E-01
   0.556E+02 0.422E-05 0.723E+03   -.547E+02 -.294E-07 -.726E+03   -.378E+00 0.000E+00 0.150E+01   0.754E-02 -.553E-06 -.144E-01
   0.851E+01 -.781E-05 -.123E+04   -.741E+01 0.200E-08 0.123E+04   -.300E+00 0.000E+00 -.171E+01   0.805E-01 -.351E-06 0.529E-01
   0.676E+02 -.110E+03 0.171E+04   -.676E+02 0.111E+03 -.172E+04   -.447E+00 -.561E-01 0.269E+01   0.260E-02 -.128E-01 -.308E-01
   0.115E+03 -.151E+03 -.348E+03   -.115E+03 0.151E+03 0.352E+03   -.585E+00 0.840E+00 -.211E+01   0.354E-01 -.388E-01 0.143E-01
   0.148E+03 -.222E+03 0.841E+03   -.149E+03 0.225E+03 -.844E+03   -.665E+00 -.138E+01 0.282E+01   0.150E-01 0.123E-01 -.102E-01
   0.138E+03 0.421E+02 -.114E+04   -.139E+03 -.411E+02 0.114E+04   -.208E+00 -.335E+00 -.217E+01   -.118E-01 -.760E-02 0.265E-01
   -.204E+02 -.212E+03 0.513E+03   0.190E+02 0.214E+03 -.515E+03   -.409E+00 -.595E+00 0.174E+01   0.474E-02 -.318E-01 -.275E-01
   -.182E+03 0.217E+02 -.139E+04   0.183E+03 -.206E+02 0.140E+04   -.545E+00 -.929E+00 -.208E+01   -.796E-02 -.213E-01 0.190E-01
   0.170E+03 -.186E+03 -.418E+03   -.172E+03 0.188E+03 0.418E+03   0.276E-01 -.765E+00 -.790E+00   0.397E-01 0.129E-01 0.900E-01
   0.936E+02 -.639E+02 0.137E+04   -.950E+02 0.633E+02 -.138E+04   0.110E+01 0.126E+01 0.421E+01   -.917E-02 0.366E-01 -.159E-01
   0.135E+03 0.377E+02 0.115E+04   -.135E+03 -.389E+02 -.116E+04   0.526E-01 0.116E+01 0.368E+01   0.725E-02 -.360E-02 0.179E-01
   0.587E+02 -.121E+03 -.789E+03   -.592E+02 0.123E+03 0.790E+03   -.528E-01 -.132E+01 -.789E+00   -.103E+00 -.663E-01 0.107E+00
   0.234E+03 0.119E+03 0.324E+03   -.237E+03 -.120E+03 -.327E+03   0.110E+01 0.369E+00 0.208E+01   -.305E-01 0.292E-01 -.261E-01
   0.336E+02 -.226E+03 -.152E+04   -.347E+02 0.230E+03 0.152E+04   0.711E+00 -.251E+01 -.104E+01   -.207E-02 0.273E-01 0.564E-01
   0.148E+03 0.222E+03 0.841E+03   -.149E+03 -.225E+03 -.844E+03   -.665E+00 0.138E+01 0.282E+01   0.150E-01 -.123E-01 -.102E-01
   0.138E+03 -.421E+02 -.114E+04   -.139E+03 0.411E+02 0.114E+04   -.208E+00 0.335E+00 -.217E+01   -.118E-01 0.760E-02 0.265E-01
   0.676E+02 0.110E+03 0.171E+04   -.676E+02 -.111E+03 -.172E+04   -.447E+00 0.561E-01 0.269E+01   0.260E-02 0.128E-01 -.308E-01
   0.115E+03 0.151E+03 -.348E+03   -.115E+03 -.151E+03 0.352E+03   -.585E+00 -.840E+00 -.211E+01   0.354E-01 0.388E-01 0.143E-01
   0.170E+03 0.186E+03 -.418E+03   -.172E+03 -.188E+03 0.418E+03   0.276E-01 0.765E+00 -.790E+00   0.397E-01 -.129E-01 0.900E-01
   0.936E+02 0.639E+02 0.137E+04   -.950E+02 -.633E+02 -.138E+04   0.110E+01 -.126E+01 0.421E+01   -.917E-02 -.366E-01 -.159E-01
   -.204E+02 0.212E+03 0.513E+03   0.190E+02 -.214E+03 -.515E+03   -.409E+00 0.595E+00 0.174E+01   0.474E-02 0.318E-01 -.275E-01
   -.182E+03 -.217E+02 -.139E+04   0.183E+03 0.206E+02 0.140E+04   -.545E+00 0.929E+00 -.208E+01   -.796E-02 0.213E-01 0.190E-01
   0.234E+03 -.119E+03 0.324E+03   -.237E+03 0.120E+03 -.327E+03   0.110E+01 -.369E+00 0.208E+01   -.305E-01 -.292E-01 -.261E-01
   0.336E+02 0.226E+03 -.152E+04   -.347E+02 -.230E+03 0.152E+04   0.711E+00 0.251E+01 -.104E+01   -.207E-02 -.273E-01 0.564E-01
   0.135E+03 -.377E+02 0.115E+04   -.135E+03 0.389E+02 -.116E+04   0.526E-01 -.116E+01 0.368E+01   0.725E-02 0.360E-02 0.179E-01
   0.587E+02 0.121E+03 -.789E+03   -.592E+02 -.123E+03 0.790E+03   -.528E-01 0.132E+01 -.789E+00   -.103E+00 0.663E-01 0.107E+00
 -----------------------------------------------------------------------------------------------
   -.796E+01 -.847E-02 -.414E+02   0.222E-11 0.455E-12 0.432E-11   0.774E+01 0.333E-14 0.392E+02   0.295E+00 0.491E-05 0.224E+01
 
 
 POSITION                                       TOTAL-FORCE (eV/Angst)
 -----------------------------------------------------------------------------------
     13.17084      1.39171      1.94975        -0.011213     -0.000000      0.959971
     13.45508      1.39171      4.59905        -0.028505     -0.000000      0.730734
      3.75148      6.18092      1.52847         0.928851     -0.000000     -0.109582
      5.02033      6.18092      3.49202        -0.047741     -0.000000     -0.073584
      6.65818      1.39171      2.01643         0.848123     -0.000000     -0.215207
      7.93172      1.39171      4.00611        -0.415438     -0.000000     -0.855162
     16.08224      6.18092      2.46384        -0.311502     -0.000000      2.238186
     16.48843      6.18092      5.18941        -1.629559     -0.000000      0.465074
      2.10894      1.39171      2.97793        -0.648527     -0.000000      0.385568
      1.86296      1.39171      5.33114         0.981227     -0.000000      1.009593
     10.84312      6.18092      4.52020        -1.723871     -0.000000     -3.127282
     15.37806      0.04556      1.89805         0.902556      0.515896      0.091931
     15.93685      0.11953      4.38902        -0.913078     -0.910210      0.016801
      6.79380      4.96547      0.67557        -0.035815     -0.663999     -1.358639
      7.17375      4.91558      3.08454         0.062452     -0.568054     -0.003893
      7.83960      4.52416      5.41866        -0.068302      0.273432      1.122096
      9.55462      0.17804      1.05999         0.073910     -0.474608     -1.270769
     10.08514      0.12638      3.59863         0.720260     -0.376887     -1.512933
      1.35096      4.91558      2.05636         0.227156     -0.401509      1.767167
      1.89517      4.84689      4.80819         1.054837     -1.185942      0.526647
      4.26235      0.12638      2.57045         0.337273     -0.957727      1.362577
      4.91129      9.38853      5.01229         0.029675     -0.029818      0.812289
     13.10441      4.14192      1.90214        -0.456762      0.797389      0.207763
     12.99653      4.91558      4.11272         1.316161     -0.225563     -0.522523
     15.37806      2.73787      1.89805         0.902556     -0.515896      0.091931
     15.93685      2.66390      4.38902        -0.913078      0.910210      0.016801
      6.79380      7.39637      0.67557        -0.035815      0.663999     -1.358639
      7.17375      7.44626      3.08454         0.062452      0.568054     -0.003893
      7.83960      7.83768      5.41866        -0.068302     -0.273432      1.122096
      9.55462      2.60539      1.05999         0.073910      0.474608     -1.270769
     10.08514      2.65705      3.59863         0.720260      0.376887     -1.512933
      1.35096      7.44626      2.05636         0.227156      0.401509      1.767167
      1.89517      7.51495      4.80819         1.054837      1.185942      0.526647
      4.26235      2.65705      2.57045         0.337273      0.957727      1.362577
      4.91129      2.97331      5.01229         0.029675      0.029818      0.812289
     13.10441      8.21992      1.90214        -0.456762     -0.797389      0.207763
     12.99653      7.44626      4.11272         1.316161      0.225563     -0.522523
     16.77309      1.39171      5.78178        -0.146579     -0.000000      3.235974
     16.74052      1.39171      2.94940         1.887589     -0.000000     -2.469893
      8.09173      6.18092      1.63060         3.420755     -0.000000     -1.591933
      8.59001      6.18092      4.49167         2.017233     -0.000000      0.332410
     10.91773      1.39171      1.92122         2.088780     -0.000000     -1.093889
     11.39736      1.39171      4.64799         0.951728     -0.000000      2.787926
      1.97265      6.18092      0.55849         0.120984     -0.000000     -3.957714
      2.76722      6.18092      3.46349         1.672000     -0.000000     -0.791769
      1.34600      6.18092      6.26291         0.713725     -0.000000      4.210484
      4.86173      1.39171      1.06447         0.491667     -0.000000     -3.995237
      5.67861      1.39171      3.97758         1.270355     -0.000000      0.359225
     13.82913      6.18092      2.43531         0.548255     -0.000000     -2.067553
     14.39168      6.18092      5.08264         0.877053     -0.000000      2.590095
     13.80843      2.80010      0.56319        -0.375501      0.854540     -3.871481
     13.99844      3.00295      3.46826        -0.389701      0.999239      1.807659
      5.26426      7.79215      1.92599        -1.492561      0.732689     -0.601330
      5.90037      7.61143      4.80272        -1.145402      0.620678      1.805995
      8.17565      3.00295      2.44008        -1.772830      1.130492     -0.068048
      8.85021      2.79447      5.25532         0.190636      0.157282      2.866622
      0.02514      7.79215      3.98236        -1.088961      1.591247     -0.657944
     16.34112      7.86410      1.28098        -0.345300      0.702511     -2.888089
      2.37107      3.08829      1.78464        -0.753246     -0.052879     -2.717932
      2.93654      3.00295      4.49645        -0.618034      0.166710      0.882865
     11.26929      7.92362      3.04395        -2.027674     -0.128517     -1.032533
     11.73605      7.53984      5.69885        -0.359444      1.128884      3.757484
      5.26426      4.56969      1.92599        -1.492561     -0.732689     -0.601330
      5.90037      4.75041      4.80272        -1.145402     -0.620678      1.805995
     13.80843      9.56174      0.56319        -0.375501     -0.854540     -3.871481
     13.99844      9.35889      3.46826        -0.389701     -0.999239      1.807659
      0.02514      4.56969      3.98236        -1.088961     -1.591247     -0.657944
     16.34112      4.49774      1.28098        -0.345300     -0.702511     -2.888089
      8.17565      9.35889      2.44008        -1.772830     -1.130492     -0.068048
      8.85021      9.56736      5.25532         0.190636     -0.157282      2.866622
     11.26929      4.43822      3.04395        -2.027674      0.128517     -1.032533
     11.73605      4.82200      5.69885        -0.359444     -1.128884      3.757484
      2.37107      9.27355      1.78464        -0.753246      0.052879     -2.717932
      2.93654      9.35889      4.49645        -0.618034     -0.166710      0.882865
 -----------------------------------------------------------------------------------
    total drift:                                0.073868     -0.008469      0.090158


--------------------------------------------------------------------------------------------------------



  FREE ENERGIE OF THE ION-ELECTRON SYSTEM (eV)
  ---------------------------------------------------
  free  energy   TOTEN  =      -351.56174793 eV

  energy  without entropy=     -350.41546389  energy(sigma->0) =     -350.98860591
 


--------------------------------------------------------------------------------------------------------


    POTLOK:  cpu time    0.3733: real time    0.3734


--------------------------------------------------------------------------------------------------------


     LOOP+:  cpu time  376.3794: real time  376.5362
    4ORBIT:  cpu time    0.0000: real time    0.0000

 total amount of memory used by VASP MPI-rank0    80116. kBytes
=======================================================================

   base      :      30000. kBytes
   nonlr-proj:       2225. kBytes
   fftplans  :      10634. kBytes
   grid      :      17961. kBytes
   one-center:        101. kBytes
   wavefun   :      19195. kBytes
 
  
  
 General timing and accounting informations for this job:
 ========================================================
  
                  Total CPU time used (sec):      379.758
                            User time (sec):      379.297
                          System time (sec):        0.461
                         Elapsed time (sec):      380.154
  
                   Maximum memory used (kb):      218268.
                   Average memory used (kb):           0.
  
                          Minor page faults:       143604
                          Major page faults:            0
                 Voluntary context switches:          203
