  72  72   0   0
  0.2729146E+02  0.1007973E-08  0.1007973E-08  0.2068350E-08  0.5000000E-15
  1.000000000000000E-004
  CAR 
 "Millerite NiS"                         
     11.11379625    -66.78811530  301      1.45257141      1.00000000
    -66.788  0.0000E+00  0.0000E+00
    -66.528  0.0000E+00  0.0000E+00
    -66.269  0.0000E+00  0.0000E+00
    -66.009  0.0000E+00  0.0000E+00
    -65.749  0.0000E+00  0.0000E+00
    -65.490  0.0000E+00  0.0000E+00
    -65.230  0.0000E+00  0.0000E+00
    -64.970  0.0000E+00  0.0000E+00
    -64.711  0.0000E+00  0.0000E+00
    -64.451  0.0000E+00  0.0000E+00
    -64.191  0.1355E-09  0.3518E-10
    -63.932  0.8644E-05  0.2245E-05
    -63.672  0.2393E-01  0.6217E-02
    -63.412  0.3739E+01  0.9773E+00
    -63.153  0.5936E+02  0.1639E+02
    -62.893  0.1959E+03  0.6725E+02
    -62.633  0.2786E+03  0.1396E+03
    -62.374  0.2079E+03  0.1936E+03
    -62.114  0.5946E+02  0.2090E+03
    -61.854  0.1832E+02  0.2138E+03
    -61.595  0.7922E+01  0.2158E+03
    -61.335  0.6663E+00  0.2160E+03
    -61.075  0.4062E-02  0.2160E+03
    -60.816  0.1159E-05  0.2160E+03
    -60.556  0.1303E-10  0.2160E+03
    -60.296  0.0000E+00  0.2160E+03
    -60.037  0.0000E+00  0.2160E+03
    -59.777  0.0000E+00  0.2160E+03
    -59.517  0.0000E+00  0.2160E+03
    -59.258  0.0000E+00  0.2160E+03
    -58.998  0.0000E+00  0.2160E+03
    -58.738  0.0000E+00  0.2160E+03
    -58.479  0.0000E+00  0.2160E+03
    -58.219  0.0000E+00  0.2160E+03
    -57.959  0.0000E+00  0.2160E+03
    -57.700  0.0000E+00  0.2160E+03
    -57.440  0.0000E+00  0.2160E+03
    -57.180  0.0000E+00  0.2160E+03
    -56.921  0.0000E+00  0.2160E+03
    -56.661  0.0000E+00  0.2160E+03
    -56.401  0.0000E+00  0.2160E+03
    -56.142  0.0000E+00  0.2160E+03
    -55.882  0.0000E+00  0.2160E+03
    -55.622  0.0000E+00  0.2160E+03
    -55.363  0.0000E+00  0.2160E+03
    -55.103  0.0000E+00  0.2160E+03
    -54.843  0.0000E+00  0.2160E+03
    -54.583  0.0000E+00  0.2160E+03
    -54.324  0.0000E+00  0.2160E+03
    -54.064  0.0000E+00  0.2160E+03
    -53.804  0.0000E+00  0.2160E+03
    -53.545  0.0000E+00  0.2160E+03
    -53.285  0.0000E+00  0.2160E+03
    -53.025  0.0000E+00  0.2160E+03
    -52.766  0.0000E+00  0.2160E+03
    -52.506  0.0000E+00  0.2160E+03
    -52.246  0.0000E+00  0.2160E+03
    -51.987  0.0000E+00  0.2160E+03
    -51.727  0.0000E+00  0.2160E+03
    -51.467  0.0000E+00  0.2160E+03
    -51.208  0.0000E+00  0.2160E+03
    -50.948  0.0000E+00  0.2160E+03
    -50.688  0.0000E+00  0.2160E+03
    -50.429  0.0000E+00  0.2160E+03
    -50.169  0.0000E+00  0.2160E+03
    -49.909  0.0000E+00  0.2160E+03
    -49.650  0.0000E+00  0.2160E+03
    -49.390  0.0000E+00  0.2160E+03
    -49.130  0.0000E+00  0.2160E+03
    -48.871  0.0000E+00  0.2160E+03
    -48.611  0.0000E+00  0.2160E+03
    -48.351  0.0000E+00  0.2160E+03
    -48.092  0.0000E+00  0.2160E+03
    -47.832  0.0000E+00  0.2160E+03
    -47.572  0.0000E+00  0.2160E+03
    -47.313  0.0000E+00  0.2160E+03
    -47.053  0.0000E+00  0.2160E+03
    -46.793  0.0000E+00  0.2160E+03
    -46.534  0.0000E+00  0.2160E+03
    -46.274  0.0000E+00  0.2160E+03
    -46.014  0.0000E+00  0.2160E+03
    -45.755  0.0000E+00  0.2160E+03
    -45.495  0.0000E+00  0.2160E+03
    -45.235  0.0000E+00  0.2160E+03
    -44.976  0.0000E+00  0.2160E+03
    -44.716  0.0000E+00  0.2160E+03
    -44.456  0.0000E+00  0.2160E+03
    -44.197  0.0000E+00  0.2160E+03
    -43.937  0.0000E+00  0.2160E+03
    -43.677  0.0000E+00  0.2160E+03
    -43.418  0.0000E+00  0.2160E+03
    -43.158  0.0000E+00  0.2160E+03
    -42.898  0.0000E+00  0.2160E+03
    -42.639  0.0000E+00  0.2160E+03
    -42.379  0.0000E+00  0.2160E+03
    -42.119  0.0000E+00  0.2160E+03
    -41.860  0.0000E+00  0.2160E+03
    -41.600  0.0000E+00  0.2160E+03
    -41.340  0.0000E+00  0.2160E+03
    -41.080  0.0000E+00  0.2160E+03
    -40.821  0.0000E+00  0.2160E+03
    -40.561  0.0000E+00  0.2160E+03
    -40.301  0.0000E+00  0.2160E+03
    -40.042  0.0000E+00  0.2160E+03
    -39.782  0.0000E+00  0.2160E+03
    -39.522  0.0000E+00  0.2160E+03
    -39.263  0.0000E+00  0.2160E+03
    -39.003  0.0000E+00  0.2160E+03
    -38.743  0.0000E+00  0.2160E+03
    -38.484  0.0000E+00  0.2160E+03
    -38.224  0.0000E+00  0.2160E+03
    -37.964  0.0000E+00  0.2160E+03
    -37.705  0.0000E+00  0.2160E+03
    -37.445  0.0000E+00  0.2160E+03
    -37.185  0.0000E+00  0.2160E+03
    -36.926  0.0000E+00  0.2160E+03
    -36.666  0.0000E+00  0.2160E+03
    -36.406  0.0000E+00  0.2160E+03
    -36.147  0.0000E+00  0.2160E+03
    -35.887  0.0000E+00  0.2160E+03
    -35.627  0.0000E+00  0.2160E+03
    -35.368  0.0000E+00  0.2160E+03
    -35.108  0.0000E+00  0.2160E+03
    -34.848  0.0000E+00  0.2160E+03
    -34.589  0.0000E+00  0.2160E+03
    -34.329  0.0000E+00  0.2160E+03
    -34.069  0.0000E+00  0.2160E+03
    -33.810  0.0000E+00  0.2160E+03
    -33.550  0.0000E+00  0.2160E+03
    -33.290  0.0000E+00  0.2160E+03
    -33.031  0.0000E+00  0.2160E+03
    -32.771  0.0000E+00  0.2160E+03
    -32.511  0.0000E+00  0.2160E+03
    -32.252  0.0000E+00  0.2160E+03
    -31.992  0.0000E+00  0.2160E+03
    -31.732  0.0000E+00  0.2160E+03
    -31.473  0.0000E+00  0.2160E+03
    -31.213  0.0000E+00  0.2160E+03
    -30.953  0.0000E+00  0.2160E+03
    -30.694  0.0000E+00  0.2160E+03
    -30.434  0.0000E+00  0.2160E+03
    -30.174  0.0000E+00  0.2160E+03
    -29.915  0.0000E+00  0.2160E+03
    -29.655  0.0000E+00  0.2160E+03
    -29.395  0.0000E+00  0.2160E+03
    -29.136  0.0000E+00  0.2160E+03
    -28.876  0.0000E+00  0.2160E+03
    -28.616  0.0000E+00  0.2160E+03
    -28.357  0.0000E+00  0.2160E+03
    -28.097  0.0000E+00  0.2160E+03
    -27.837  0.0000E+00  0.2160E+03
    -27.577  0.0000E+00  0.2160E+03
    -27.318  0.0000E+00  0.2160E+03
    -27.058  0.0000E+00  0.2160E+03
    -26.798  0.0000E+00  0.2160E+03
    -26.539  0.0000E+00  0.2160E+03
    -26.279  0.0000E+00  0.2160E+03
    -26.019  0.0000E+00  0.2160E+03
    -25.760  0.0000E+00  0.2160E+03
    -25.500  0.0000E+00  0.2160E+03
    -25.240  0.0000E+00  0.2160E+03
    -24.981  0.0000E+00  0.2160E+03
    -24.721  0.0000E+00  0.2160E+03
    -24.461  0.0000E+00  0.2160E+03
    -24.202  0.0000E+00  0.2160E+03
    -23.942  0.0000E+00  0.2160E+03
    -23.682  0.0000E+00  0.2160E+03
    -23.423  0.0000E+00  0.2160E+03
    -23.163  0.0000E+00  0.2160E+03
    -22.903  0.0000E+00  0.2160E+03
    -22.644  0.0000E+00  0.2160E+03
    -22.384  0.0000E+00  0.2160E+03
    -22.124  0.0000E+00  0.2160E+03
    -21.865  0.0000E+00  0.2160E+03
    -21.605  0.0000E+00  0.2160E+03
    -21.345  0.0000E+00  0.2160E+03
    -21.086  0.0000E+00  0.2160E+03
    -20.826  0.0000E+00  0.2160E+03
    -20.566  0.0000E+00  0.2160E+03
    -20.307  0.0000E+00  0.2160E+03
    -20.047  0.0000E+00  0.2160E+03
    -19.787  0.0000E+00  0.2160E+03
    -19.528  0.0000E+00  0.2160E+03
    -19.268  0.0000E+00  0.2160E+03
    -19.008  0.0000E+00  0.2160E+03
    -18.749  0.0000E+00  0.2160E+03
    -18.489  0.0000E+00  0.2160E+03
    -18.229  0.0000E+00  0.2160E+03
    -17.970  0.0000E+00  0.2160E+03
    -17.710  0.0000E+00  0.2160E+03
    -17.450  0.0000E+00  0.2160E+03
    -17.191  0.0000E+00  0.2160E+03
    -16.931  0.0000E+00  0.2160E+03
    -16.671  0.0000E+00  0.2160E+03
    -16.412  0.0000E+00  0.2160E+03
    -16.152  0.0000E+00  0.2160E+03
    -15.892  0.9607E-12  0.2160E+03
    -15.633  0.1610E-06  0.2160E+03
    -15.373  0.1022E-02  0.2160E+03
    -15.113  0.2697E+00  0.2161E+03
    -14.854  0.3815E+01  0.2171E+03
    -14.594  0.6589E+01  0.2188E+03
    -14.334  0.5098E+01  0.2201E+03
    -14.074  0.1118E+02  0.2230E+03
    -13.815  0.1820E+02  0.2277E+03
    -13.555  0.1656E+02  0.2320E+03
    -13.295  0.2204E+02  0.2377E+03
    -13.036  0.2389E+02  0.2440E+03
    -12.776  0.3026E+02  0.2518E+03
    -12.516  0.2843E+02  0.2592E+03
    -12.257  0.3001E+02  0.2670E+03
    -11.997  0.2978E+02  0.2747E+03
    -11.737  0.2727E+02  0.2818E+03
    -11.478  0.1574E+02  0.2859E+03
    -11.218  0.6229E+01  0.2875E+03
    -10.958  0.1865E+01  0.2880E+03
    -10.699  0.4496E-01  0.2880E+03
    -10.439  0.5062E-04  0.2880E+03
    -10.179  0.2261E-08  0.2880E+03
     -9.920  0.3420E-14  0.2880E+03
     -9.660  0.0000E+00  0.2880E+03
     -9.400  0.0000E+00  0.2880E+03
     -9.141  0.0000E+00  0.2880E+03
     -8.881  0.0000E+00  0.2880E+03
     -8.621  0.0000E+00  0.2880E+03
     -8.362  0.0000E+00  0.2880E+03
     -8.102  0.0000E+00  0.2880E+03
     -7.842  0.0000E+00  0.2880E+03
     -7.583  0.9875E-11  0.2880E+03
     -7.323  0.9810E-06  0.2880E+03
     -7.063  0.3901E-02  0.2880E+03
     -6.804  0.7139E+00  0.2882E+03
     -6.544  0.8297E+01  0.2903E+03
     -6.284  0.1570E+02  0.2944E+03
     -6.025  0.2497E+02  0.3009E+03
     -5.765  0.3656E+02  0.3104E+03
     -5.505  0.4469E+02  0.3220E+03
     -5.246  0.4940E+02  0.3348E+03
     -4.986  0.4027E+02  0.3453E+03
     -4.726  0.3711E+02  0.3549E+03
     -4.467  0.4170E+02  0.3657E+03
     -4.207  0.4625E+02  0.3778E+03
     -3.947  0.5041E+02  0.3908E+03
     -3.688  0.5762E+02  0.4058E+03
     -3.428  0.6473E+02  0.4226E+03
     -3.168  0.7128E+02  0.4411E+03
     -2.909  0.6287E+02  0.4575E+03
     -2.649  0.5884E+02  0.4727E+03
     -2.389  0.4200E+02  0.4836E+03
     -2.130  0.3630E+02  0.4931E+03
     -1.870  0.5072E+02  0.5062E+03
     -1.610  0.5951E+02  0.5217E+03
     -1.351  0.7772E+02  0.5419E+03
     -1.091  0.9289E+02  0.5660E+03
     -0.831  0.1091E+03  0.5943E+03
     -0.571  0.1292E+03  0.6279E+03
     -0.312  0.1356E+03  0.6631E+03
     -0.052  0.1280E+03  0.6963E+03
      0.208  0.9819E+02  0.7218E+03
      0.467  0.7333E+02  0.7409E+03
      0.727  0.5847E+02  0.7561E+03
      0.987  0.5173E+02  0.7695E+03
      1.246  0.4760E+02  0.7819E+03
      1.506  0.4934E+02  0.7947E+03
      1.766  0.4866E+02  0.8073E+03
      2.025  0.4987E+02  0.8203E+03
      2.285  0.5448E+02  0.8344E+03
      2.545  0.4648E+02  0.8465E+03
      2.804  0.3761E+02  0.8562E+03
      3.064  0.2261E+02  0.8621E+03
      3.324  0.6979E+01  0.8639E+03
      3.583  0.2703E+00  0.8640E+03
      3.843  0.1889E-02  0.8640E+03
      4.103  0.3432E+00  0.8641E+03
      4.362  0.5886E+01  0.8656E+03
      4.622  0.1283E+02  0.8690E+03
      4.882  0.1206E+02  0.8721E+03
      5.141  0.1384E+02  0.8757E+03
      5.401  0.1271E+02  0.8790E+03
      5.661  0.2465E+02  0.8854E+03
      5.920  0.2799E+02  0.8926E+03
      6.180  0.2435E+02  0.8990E+03
      6.440  0.3144E+02  0.9071E+03
      6.699  0.3548E+02  0.9163E+03
      6.959  0.3859E+02  0.9264E+03
      7.219  0.4072E+02  0.9369E+03
      7.478  0.4145E+02  0.9477E+03
      7.738  0.1519E+02  0.9516E+03
      7.998  0.1345E+01  0.9520E+03
      8.257  0.1169E-01  0.9520E+03
      8.517  0.5227E-05  0.9520E+03
      8.777  0.9560E-10  0.9520E+03
      9.036  0.0000E+00  0.9520E+03
      9.296  0.0000E+00  0.9520E+03
      9.556  0.0000E+00  0.9520E+03
      9.815  0.0000E+00  0.9520E+03
     10.075  0.0000E+00  0.9520E+03
     10.335  0.0000E+00  0.9520E+03
     10.594  0.0000E+00  0.9520E+03
     10.854  0.0000E+00  0.9520E+03
     11.114  0.0000E+00  0.9520E+03
