  72  72   0   0
  0.2705198E+02  0.1007973E-08  0.1007973E-08  0.2050201E-08  0.5000000E-15
  1.000000000000000E-004
  CAR 
 "Millerite NiS"                         
     11.10037828    -66.33493906  301      1.33366424      1.00000000
    -66.335  0.0000E+00  0.0000E+00
    -66.077  0.0000E+00  0.0000E+00
    -65.819  0.0000E+00  0.0000E+00
    -65.561  0.0000E+00  0.0000E+00
    -65.302  0.0000E+00  0.0000E+00
    -65.044  0.0000E+00  0.0000E+00
    -64.786  0.0000E+00  0.0000E+00
    -64.528  0.0000E+00  0.0000E+00
    -64.270  0.0000E+00  0.0000E+00
    -64.012  0.0000E+00  0.0000E+00
    -63.754  0.7561E-09  0.1952E-09
    -63.496  0.4646E-04  0.1199E-04
    -63.238  0.1256E+00  0.3244E-01
    -62.979  0.1759E+02  0.4572E+01
    -62.721  0.1818E+03  0.5149E+02
    -62.463  0.2759E+03  0.1227E+03
    -62.205  0.1791E+03  0.1689E+03
    -61.947  0.9274E+02  0.1929E+03
    -61.689  0.4923E+02  0.2056E+03
    -61.431  0.1923E+02  0.2105E+03
    -61.173  0.1127E+02  0.2134E+03
    -60.914  0.5655E+01  0.2149E+03
    -60.656  0.3912E+01  0.2159E+03
    -60.398  0.3318E+00  0.2160E+03
    -60.140  0.1539E-02  0.2160E+03
    -59.882  0.3101E-06  0.2160E+03
    -59.624  0.2471E-11  0.2160E+03
    -59.366  0.0000E+00  0.2160E+03
    -59.108  0.0000E+00  0.2160E+03
    -58.850  0.0000E+00  0.2160E+03
    -58.591  0.0000E+00  0.2160E+03
    -58.333  0.0000E+00  0.2160E+03
    -58.075  0.0000E+00  0.2160E+03
    -57.817  0.0000E+00  0.2160E+03
    -57.559  0.0000E+00  0.2160E+03
    -57.301  0.0000E+00  0.2160E+03
    -57.043  0.0000E+00  0.2160E+03
    -56.785  0.0000E+00  0.2160E+03
    -56.526  0.0000E+00  0.2160E+03
    -56.268  0.0000E+00  0.2160E+03
    -56.010  0.0000E+00  0.2160E+03
    -55.752  0.0000E+00  0.2160E+03
    -55.494  0.0000E+00  0.2160E+03
    -55.236  0.0000E+00  0.2160E+03
    -54.978  0.0000E+00  0.2160E+03
    -54.720  0.0000E+00  0.2160E+03
    -54.462  0.0000E+00  0.2160E+03
    -54.203  0.0000E+00  0.2160E+03
    -53.945  0.0000E+00  0.2160E+03
    -53.687  0.0000E+00  0.2160E+03
    -53.429  0.0000E+00  0.2160E+03
    -53.171  0.0000E+00  0.2160E+03
    -52.913  0.0000E+00  0.2160E+03
    -52.655  0.0000E+00  0.2160E+03
    -52.397  0.0000E+00  0.2160E+03
    -52.138  0.0000E+00  0.2160E+03
    -51.880  0.0000E+00  0.2160E+03
    -51.622  0.0000E+00  0.2160E+03
    -51.364  0.0000E+00  0.2160E+03
    -51.106  0.0000E+00  0.2160E+03
    -50.848  0.0000E+00  0.2160E+03
    -50.590  0.0000E+00  0.2160E+03
    -50.332  0.0000E+00  0.2160E+03
    -50.074  0.0000E+00  0.2160E+03
    -49.815  0.0000E+00  0.2160E+03
    -49.557  0.0000E+00  0.2160E+03
    -49.299  0.0000E+00  0.2160E+03
    -49.041  0.0000E+00  0.2160E+03
    -48.783  0.0000E+00  0.2160E+03
    -48.525  0.0000E+00  0.2160E+03
    -48.267  0.0000E+00  0.2160E+03
    -48.009  0.0000E+00  0.2160E+03
    -47.750  0.0000E+00  0.2160E+03
    -47.492  0.0000E+00  0.2160E+03
    -47.234  0.0000E+00  0.2160E+03
    -46.976  0.0000E+00  0.2160E+03
    -46.718  0.0000E+00  0.2160E+03
    -46.460  0.0000E+00  0.2160E+03
    -46.202  0.0000E+00  0.2160E+03
    -45.944  0.0000E+00  0.2160E+03
    -45.686  0.0000E+00  0.2160E+03
    -45.427  0.0000E+00  0.2160E+03
    -45.169  0.0000E+00  0.2160E+03
    -44.911  0.0000E+00  0.2160E+03
    -44.653  0.0000E+00  0.2160E+03
    -44.395  0.0000E+00  0.2160E+03
    -44.137  0.0000E+00  0.2160E+03
    -43.879  0.0000E+00  0.2160E+03
    -43.621  0.0000E+00  0.2160E+03
    -43.362  0.0000E+00  0.2160E+03
    -43.104  0.0000E+00  0.2160E+03
    -42.846  0.0000E+00  0.2160E+03
    -42.588  0.0000E+00  0.2160E+03
    -42.330  0.0000E+00  0.2160E+03
    -42.072  0.0000E+00  0.2160E+03
    -41.814  0.0000E+00  0.2160E+03
    -41.556  0.0000E+00  0.2160E+03
    -41.298  0.0000E+00  0.2160E+03
    -41.039  0.0000E+00  0.2160E+03
    -40.781  0.0000E+00  0.2160E+03
    -40.523  0.0000E+00  0.2160E+03
    -40.265  0.0000E+00  0.2160E+03
    -40.007  0.0000E+00  0.2160E+03
    -39.749  0.0000E+00  0.2160E+03
    -39.491  0.0000E+00  0.2160E+03
    -39.233  0.0000E+00  0.2160E+03
    -38.974  0.0000E+00  0.2160E+03
    -38.716  0.0000E+00  0.2160E+03
    -38.458  0.0000E+00  0.2160E+03
    -38.200  0.0000E+00  0.2160E+03
    -37.942  0.0000E+00  0.2160E+03
    -37.684  0.0000E+00  0.2160E+03
    -37.426  0.0000E+00  0.2160E+03
    -37.168  0.0000E+00  0.2160E+03
    -36.910  0.0000E+00  0.2160E+03
    -36.651  0.0000E+00  0.2160E+03
    -36.393  0.0000E+00  0.2160E+03
    -36.135  0.0000E+00  0.2160E+03
    -35.877  0.0000E+00  0.2160E+03
    -35.619  0.0000E+00  0.2160E+03
    -35.361  0.0000E+00  0.2160E+03
    -35.103  0.0000E+00  0.2160E+03
    -34.845  0.0000E+00  0.2160E+03
    -34.586  0.0000E+00  0.2160E+03
    -34.328  0.0000E+00  0.2160E+03
    -34.070  0.0000E+00  0.2160E+03
    -33.812  0.0000E+00  0.2160E+03
    -33.554  0.0000E+00  0.2160E+03
    -33.296  0.0000E+00  0.2160E+03
    -33.038  0.0000E+00  0.2160E+03
    -32.780  0.0000E+00  0.2160E+03
    -32.522  0.0000E+00  0.2160E+03
    -32.263  0.0000E+00  0.2160E+03
    -32.005  0.0000E+00  0.2160E+03
    -31.747  0.0000E+00  0.2160E+03
    -31.489  0.0000E+00  0.2160E+03
    -31.231  0.0000E+00  0.2160E+03
    -30.973  0.0000E+00  0.2160E+03
    -30.715  0.0000E+00  0.2160E+03
    -30.457  0.0000E+00  0.2160E+03
    -30.198  0.0000E+00  0.2160E+03
    -29.940  0.0000E+00  0.2160E+03
    -29.682  0.0000E+00  0.2160E+03
    -29.424  0.0000E+00  0.2160E+03
    -29.166  0.0000E+00  0.2160E+03
    -28.908  0.0000E+00  0.2160E+03
    -28.650  0.0000E+00  0.2160E+03
    -28.392  0.0000E+00  0.2160E+03
    -28.134  0.0000E+00  0.2160E+03
    -27.875  0.0000E+00  0.2160E+03
    -27.617  0.0000E+00  0.2160E+03
    -27.359  0.0000E+00  0.2160E+03
    -27.101  0.0000E+00  0.2160E+03
    -26.843  0.0000E+00  0.2160E+03
    -26.585  0.0000E+00  0.2160E+03
    -26.327  0.0000E+00  0.2160E+03
    -26.069  0.0000E+00  0.2160E+03
    -25.810  0.0000E+00  0.2160E+03
    -25.552  0.0000E+00  0.2160E+03
    -25.294  0.0000E+00  0.2160E+03
    -25.036  0.0000E+00  0.2160E+03
    -24.778  0.0000E+00  0.2160E+03
    -24.520  0.0000E+00  0.2160E+03
    -24.262  0.0000E+00  0.2160E+03
    -24.004  0.0000E+00  0.2160E+03
    -23.746  0.0000E+00  0.2160E+03
    -23.487  0.0000E+00  0.2160E+03
    -23.229  0.0000E+00  0.2160E+03
    -22.971  0.0000E+00  0.2160E+03
    -22.713  0.0000E+00  0.2160E+03
    -22.455  0.0000E+00  0.2160E+03
    -22.197  0.0000E+00  0.2160E+03
    -21.939  0.0000E+00  0.2160E+03
    -21.681  0.0000E+00  0.2160E+03
    -21.422  0.0000E+00  0.2160E+03
    -21.164  0.0000E+00  0.2160E+03
    -20.906  0.0000E+00  0.2160E+03
    -20.648  0.0000E+00  0.2160E+03
    -20.390  0.0000E+00  0.2160E+03
    -20.132  0.0000E+00  0.2160E+03
    -19.874  0.0000E+00  0.2160E+03
    -19.616  0.0000E+00  0.2160E+03
    -19.358  0.0000E+00  0.2160E+03
    -19.099  0.0000E+00  0.2160E+03
    -18.841  0.0000E+00  0.2160E+03
    -18.583  0.0000E+00  0.2160E+03
    -18.325  0.0000E+00  0.2160E+03
    -18.067  0.0000E+00  0.2160E+03
    -17.809  0.0000E+00  0.2160E+03
    -17.551  0.0000E+00  0.2160E+03
    -17.293  0.0000E+00  0.2160E+03
    -17.034  0.0000E+00  0.2160E+03
    -16.776  0.0000E+00  0.2160E+03
    -16.518  0.0000E+00  0.2160E+03
    -16.260  0.0000E+00  0.2160E+03
    -16.002  0.0000E+00  0.2160E+03
    -15.744  0.0000E+00  0.2160E+03
    -15.486  0.0000E+00  0.2160E+03
    -15.228  0.9893E-14  0.2160E+03
    -14.970  0.4450E-08  0.2160E+03
    -14.711  0.7846E-04  0.2160E+03
    -14.453  0.5731E-01  0.2160E+03
    -14.195  0.2037E+01  0.2165E+03
    -13.937  0.4784E+01  0.2178E+03
    -13.679  0.1308E+01  0.2181E+03
    -13.421  0.6758E+01  0.2199E+03
    -13.163  0.1856E+02  0.2246E+03
    -12.905  0.2118E+02  0.2301E+03
    -12.646  0.2886E+02  0.2376E+03
    -12.388  0.2742E+02  0.2446E+03
    -12.130  0.3529E+02  0.2537E+03
    -11.872  0.3598E+02  0.2630E+03
    -11.614  0.2657E+02  0.2699E+03
    -11.356  0.1885E+02  0.2748E+03
    -11.098  0.1794E+02  0.2794E+03
    -10.840  0.1808E+02  0.2841E+03
    -10.582  0.7325E+01  0.2859E+03
    -10.323  0.2203E+01  0.2865E+03
    -10.065  0.4823E+01  0.2878E+03
     -9.807  0.9216E+00  0.2880E+03
     -9.549  0.1050E-01  0.2880E+03
     -9.291  0.5455E-05  0.2880E+03
     -9.033  0.1143E-09  0.2880E+03
     -8.775  0.0000E+00  0.2880E+03
     -8.517  0.0000E+00  0.2880E+03
     -8.258  0.0000E+00  0.2880E+03
     -8.000  0.0000E+00  0.2880E+03
     -7.742  0.0000E+00  0.2880E+03
     -7.484  0.0000E+00  0.2880E+03
     -7.226  0.0000E+00  0.2880E+03
     -6.968  0.2151E-13  0.2880E+03
     -6.710  0.8433E-08  0.2880E+03
     -6.452  0.1317E-03  0.2880E+03
     -6.194  0.9407E-01  0.2880E+03
     -5.935  0.4007E+01  0.2891E+03
     -5.677  0.1592E+02  0.2932E+03
     -5.419  0.1876E+02  0.2980E+03
     -5.161  0.2984E+02  0.3057E+03
     -4.903  0.4597E+02  0.3176E+03
     -4.645  0.4945E+02  0.3303E+03
     -4.387  0.4434E+02  0.3418E+03
     -4.129  0.3514E+02  0.3509E+03
     -3.870  0.3838E+02  0.3608E+03
     -3.612  0.3964E+02  0.3710E+03
     -3.354  0.4442E+02  0.3825E+03
     -3.096  0.6512E+02  0.3993E+03
     -2.838  0.7153E+02  0.4177E+03
     -2.580  0.8126E+02  0.4387E+03
     -2.322  0.6839E+02  0.4564E+03
     -2.064  0.4809E+02  0.4688E+03
     -1.806  0.4744E+02  0.4810E+03
     -1.547  0.4949E+02  0.4938E+03
     -1.289  0.5893E+02  0.5090E+03
     -1.031  0.7615E+02  0.5287E+03
     -0.773  0.1002E+03  0.5545E+03
     -0.515  0.1265E+03  0.5872E+03
     -0.257  0.1699E+03  0.6310E+03
      0.001  0.1732E+03  0.6757E+03
      0.259  0.1350E+03  0.7106E+03
      0.518  0.9698E+02  0.7356E+03
      0.776  0.8583E+02  0.7578E+03
      1.034  0.6994E+02  0.7758E+03
      1.292  0.5449E+02  0.7899E+03
      1.550  0.5182E+02  0.8033E+03
      1.808  0.5648E+02  0.8178E+03
      2.066  0.5942E+02  0.8332E+03
      2.324  0.6170E+02  0.8491E+03
      2.582  0.4656E+02  0.8611E+03
      2.841  0.1425E+02  0.8648E+03
      3.099  0.4300E+01  0.8659E+03
      3.357  0.3562E+00  0.8660E+03
      3.615  0.9636E+00  0.8663E+03
      3.873  0.6602E+01  0.8680E+03
      4.131  0.7007E+01  0.8698E+03
      4.389  0.7180E+01  0.8716E+03
      4.647  0.2145E+02  0.8772E+03
      4.906  0.2077E+02  0.8825E+03
      5.164  0.1672E+02  0.8868E+03
      5.422  0.1401E+02  0.8904E+03
      5.680  0.2018E+02  0.8957E+03
      5.938  0.2319E+02  0.9016E+03
      6.196  0.2190E+02  0.9073E+03
      6.454  0.2947E+02  0.9149E+03
      6.712  0.3190E+02  0.9231E+03
      6.970  0.3694E+02  0.9327E+03
      7.229  0.3871E+02  0.9427E+03
      7.487  0.4247E+02  0.9536E+03
      7.745  0.2250E+02  0.9594E+03
      8.003  0.2201E+01  0.9600E+03
      8.261  0.1809E-01  0.9600E+03
      8.519  0.7906E-05  0.9600E+03
      8.777  0.1509E-09  0.9600E+03
      9.035  0.0000E+00  0.9600E+03
      9.294  0.0000E+00  0.9600E+03
      9.552  0.0000E+00  0.9600E+03
      9.810  0.0000E+00  0.9600E+03
     10.068  0.0000E+00  0.9600E+03
     10.326  0.0000E+00  0.9600E+03
     10.584  0.0000E+00  0.9600E+03
     10.842  0.0000E+00  0.9600E+03
     11.100  0.0000E+00  0.9600E+03
