LAMMPS data file via write_data, version 5 Jun 2019, timestep = 96

74 atoms
2 atom types

0.0000000000000000e+00 1.6884694054200001e+01 xlo xhi
0.0000000000000000e+00 9.5784099999999999e+00 ylo yhi
0.0000000000000000e+00 1.6654645685100000e+01 zlo zhi
0.0000000000000000e+00 0.0000000000000000e+00 0.0000000000000000e+00 xy xz yz

Masses

1 58.71
2 32.06

Atoms # atomic

1 1 1.2971587120892901e+01 1.6454169053380256e+00 2.4100586628212484e+00 0 0 0
2 1 1.4081639830513531e+01 1.6399471157131393e+00 4.6655667244003496e+00 0 0 0
3 1 3.6534090208423979e+00 6.3478694104020610e+00 1.6580296073888627e+00 0 0 0
4 1 5.0203308784000003e+00 6.1809188259000001e+00 3.5986341463999998e+00 0 0 0
5 1 6.4880872061705439e+00 9.2221290456907112e-01 2.2364057682235137e+00 0 0 0
6 1 7.9317247696999997e+00 1.3917138258999999e+00 4.1127247530000002e+00 0 0 0
7 1 1.6082237116200002e+01 6.1809188259000001e+00 2.5704529665000000e+00 0 0 0
8 1 1.6469908591663977e+01 6.1782174368755536e+00 5.3028873290633847e+00 0 0 0
9 1 3.0498507767623870e+00 1.4209575764541125e+00 8.1948579547930422e-01 0 0 0
10 1 2.1089369701999998e+00 1.3917138258999999e+00 3.0845435563999999e+00 0 0 0
11 1 1.0630276120002460e+00 6.1917956283825271e-01 5.1207149395384031e+00 0 0 0
12 1 9.6003376690502122e+00 6.2814826039686231e+00 2.7097173995220234e+00 0 0 0
13 1 1.0843118677900000e+01 6.1809188259000001e+00 4.6268153428999996e+00 0 0 0
14 1 1.5470230197112315e+01 9.0843610640513592e+00 2.1330253180353091e+00 0 -1 0
15 1 1.5768650030014493e+01 9.4299935089045075e+00 4.6212717332975091e+00 0 -1 0
16 1 6.5312871380058244e+00 3.1465755738588719e+00 1.2754244795757574e+00 0 0 0
17 1 7.1737451382000001e+00 4.9155821296999997e+00 3.1911566886000000e+00 0 0 0
18 1 7.6559550016122966e+00 4.6647435745182833e+00 5.6118785943685010e+00 0 0 0
19 1 8.9241332031162752e+00 1.4159200031174892e+00 1.5425790892385134e+00 0 0 0
20 1 1.0085139046400000e+01 1.2637712970000001e-01 3.7052472952000000e+00 0 0 0
21 1 1.3509573217999999e+00 4.9155821296999997e+00 2.1629755087000002e+00 0 0 0
22 1 1.8950919444024374e+00 4.7327470997261054e+00 4.8475455008741672e+00 0 0 0
23 1 4.2623512300000002e+00 1.2637712970000001e-01 2.6770660986000001e+00 0 0 0
24 1 5.0424469322834140e+00 9.0907780695151033e+00 4.8058309379463999e+00 0 -1 0
25 1 1.2985742922872486e+01 4.3541867746915379e+00 1.9334220934733553e+00 0 0 0
26 1 1.2996532937700001e+01 4.9155821296999997e+00 4.2193378850999999e+00 0 0 0
27 1 1.6675669166852884e+01 2.5171493651712415e+00 4.3042572296496893e+00 0 0 0
28 1 6.0557864801700907e+00 6.1646088721538259e+00 1.0648203700444003e+00 0 0 0
29 1 7.1737451382000001e+00 7.4462555221000031e+00 3.1911566886000000e+00 0 0 0
30 1 8.3039764959346716e+00 8.2646420379049648e+00 5.0288869196987456e+00 0 0 0
31 1 1.0853241305638415e+01 3.3197789482511197e+00 1.3816688247405871e+00 0 0 0
32 1 1.0085139046400000e+01 2.6570505221000000e+00 3.7052472952000000e+00 0 0 0
33 1 1.3509573217999999e+00 7.4462555221000031e+00 2.1629755087000002e+00 0 0 0
34 1 1.9024746938404982e+00 7.5227624352643874e+00 4.9327391050039724e+00 0 0 0
35 1 4.2623512300000002e+00 2.6570505221000000e+00 2.6770660986000001e+00 0 0 0
36 1 1.3055876463798596e+01 8.2292222596819933e+00 2.0167744355215778e+00 0 0 0
37 1 1.2996532937700001e+01 7.4462555221000031e+00 4.2193378850999999e+00 0 0 0
38 2 1.5875229372275987e+01 1.4590938150681796e+00 5.8610180578443467e+00 -1 0 0
39 2 2.6064785505638535e-02 8.4341532980077061e-01 3.0847691117232503e+00 1 0 0
40 2 8.0063373716000008e+00 6.1809188259000001e+00 1.5137397470000000e+00 0 0 0
41 2 8.5900067496000005e+00 6.1809188259000001e+00 4.5982833201000002e+00 0 0 0
42 2 1.0917731279800000e+01 1.3917138258999999e+00 2.0278303370000001e+00 0 0 0
43 2 1.1930932047383523e+01 1.6581009189379119e+00 4.3738288755838735e+00 0 0 0
44 2 1.9250388786504764e+00 6.1733887782420425e+00 6.2590406019084244e-01 0 0 0
45 2 2.7672189501000002e+00 6.1809188259000001e+00 3.5701021234999999e+00 0 0 0
46 2 1.3744743061787492e+00 6.0834395446961418e+00 6.2984084688846327e+00 0 0 0
47 2 5.0635597859340873e+00 1.6701723905894486e+00 9.3752200238766326e-01 0 0 0
48 2 5.4613722775699021e+00 1.3895671014923725e+00 3.9922403300007581e+00 0 0 0
49 2 1.3829125188000001e+01 6.1809188259000001e+00 2.5419209436000001e+00 0 0 0
50 2 1.4368739335416956e+01 6.1858132007641506e+00 5.2191353877261619e+00 0 0 0
51 2 1.2715148411859857e+01 2.8316700155088270e+00 6.4619447148834830e-01 0 0 0
52 2 1.4061773995736564e+01 3.2463759386827342e+00 3.3634212594276582e+00 0 0 0
53 2 5.2642605076000004e+00 7.7921510639999996e+00 2.0326062398999998e+00 0 0 0
54 2 6.2607236467184775e+00 7.5138710349471936e+00 5.0639975596006863e+00 0 0 0
55 2 8.1756544158000004e+00 3.0029460640000001e+00 2.5466968465000002e+00 0 0 0
56 2 8.7256768470415125e+00 3.0013039867677578e+00 5.2501769793484421e+00 0 0 0
57 2 2.5142086099999999e-02 7.7921510639999996e+00 4.0889686162999999e+00 0 0 0
58 2 1.6444249321934510e+01 7.6095800785097731e+00 1.1230783908366795e+00 0 0 0
59 2 2.3689555333194350e+00 3.0833733238224523e+00 1.8327423862163084e+00 0 0 0
60 2 1.8330576666242622e+00 2.5618084735313067e+00 4.8782592121478743e+00 0 0 0
61 2 1.1087048324000000e+01 7.7921510639999996e+00 3.0607874364000001e+00 0 0 0
62 2 1.1704777751664691e+01 7.6268446616099546e+00 5.7644538353657921e+00 0 0 0
63 2 5.2642605076000004e+00 4.5696865876999997e+00 2.0326062398999998e+00 0 0 0
64 2 5.8224541731940995e+00 4.6751902347548944e+00 4.7877895645069195e+00 0 0 0
65 2 1.3849208292213888e+01 2.4031078894263316e-01 1.0385940965708618e+00 0 1 0
66 2 1.3998442232200000e+01 9.3588915877000023e+00 3.5748780264000000e+00 0 0 0
67 2 2.5142086099999999e-02 4.5696865876999997e+00 4.0889686162999999e+00 0 0 0
68 2 1.6439577572874391e+01 4.6965110990817500e+00 1.2577266539869008e+00 0 0 0
69 2 8.1756544158000004e+00 9.3588915877000023e+00 2.5466968465000002e+00 0 0 0
70 2 9.1799227222083850e+00 4.2378834957675926e-01 5.5026767133009695e+00 0 1 0
71 2 1.1087048324000000e+01 4.5696865876999997e+00 3.0607874364000001e+00 0 0 0
72 2 1.1778449973446092e+01 4.8421377646375863e+00 5.8265147576220979e+00 0 0 0
73 2 2.4099996874018506e+00 9.2724990173831259e+00 1.7237906928220521e+00 0 0 0
74 2 2.9365359774000002e+00 9.3588915877000023e+00 4.6030592063000002e+00 0 0 0

Velocities

1 0.0000000000000000e+00 0.0000000000000000e+00 0.0000000000000000e+00
2 0.0000000000000000e+00 0.0000000000000000e+00 0.0000000000000000e+00
3 0.0000000000000000e+00 0.0000000000000000e+00 0.0000000000000000e+00
4 0.0000000000000000e+00 0.0000000000000000e+00 0.0000000000000000e+00
5 0.0000000000000000e+00 0.0000000000000000e+00 0.0000000000000000e+00
6 0.0000000000000000e+00 0.0000000000000000e+00 0.0000000000000000e+00
7 0.0000000000000000e+00 0.0000000000000000e+00 0.0000000000000000e+00
8 0.0000000000000000e+00 0.0000000000000000e+00 0.0000000000000000e+00
9 0.0000000000000000e+00 0.0000000000000000e+00 0.0000000000000000e+00
10 0.0000000000000000e+00 0.0000000000000000e+00 0.0000000000000000e+00
11 0.0000000000000000e+00 0.0000000000000000e+00 0.0000000000000000e+00
12 0.0000000000000000e+00 0.0000000000000000e+00 0.0000000000000000e+00
13 0.0000000000000000e+00 0.0000000000000000e+00 0.0000000000000000e+00
14 0.0000000000000000e+00 0.0000000000000000e+00 0.0000000000000000e+00
15 0.0000000000000000e+00 0.0000000000000000e+00 0.0000000000000000e+00
16 0.0000000000000000e+00 0.0000000000000000e+00 0.0000000000000000e+00
17 0.0000000000000000e+00 0.0000000000000000e+00 0.0000000000000000e+00
18 0.0000000000000000e+00 0.0000000000000000e+00 0.0000000000000000e+00
19 0.0000000000000000e+00 0.0000000000000000e+00 0.0000000000000000e+00
20 0.0000000000000000e+00 0.0000000000000000e+00 0.0000000000000000e+00
21 0.0000000000000000e+00 0.0000000000000000e+00 0.0000000000000000e+00
22 0.0000000000000000e+00 0.0000000000000000e+00 0.0000000000000000e+00
23 0.0000000000000000e+00 0.0000000000000000e+00 0.0000000000000000e+00
24 0.0000000000000000e+00 0.0000000000000000e+00 0.0000000000000000e+00
25 0.0000000000000000e+00 0.0000000000000000e+00 0.0000000000000000e+00
26 0.0000000000000000e+00 0.0000000000000000e+00 0.0000000000000000e+00
27 0.0000000000000000e+00 0.0000000000000000e+00 0.0000000000000000e+00
28 0.0000000000000000e+00 0.0000000000000000e+00 0.0000000000000000e+00
29 0.0000000000000000e+00 0.0000000000000000e+00 0.0000000000000000e+00
30 0.0000000000000000e+00 0.0000000000000000e+00 0.0000000000000000e+00
31 0.0000000000000000e+00 0.0000000000000000e+00 0.0000000000000000e+00
32 0.0000000000000000e+00 0.0000000000000000e+00 0.0000000000000000e+00
33 0.0000000000000000e+00 0.0000000000000000e+00 0.0000000000000000e+00
34 0.0000000000000000e+00 0.0000000000000000e+00 0.0000000000000000e+00
35 0.0000000000000000e+00 0.0000000000000000e+00 0.0000000000000000e+00
36 0.0000000000000000e+00 0.0000000000000000e+00 0.0000000000000000e+00
37 0.0000000000000000e+00 0.0000000000000000e+00 0.0000000000000000e+00
38 0.0000000000000000e+00 0.0000000000000000e+00 0.0000000000000000e+00
39 0.0000000000000000e+00 0.0000000000000000e+00 0.0000000000000000e+00
40 0.0000000000000000e+00 0.0000000000000000e+00 0.0000000000000000e+00
41 0.0000000000000000e+00 0.0000000000000000e+00 0.0000000000000000e+00
42 0.0000000000000000e+00 0.0000000000000000e+00 0.0000000000000000e+00
43 0.0000000000000000e+00 0.0000000000000000e+00 0.0000000000000000e+00
44 0.0000000000000000e+00 0.0000000000000000e+00 0.0000000000000000e+00
45 0.0000000000000000e+00 0.0000000000000000e+00 0.0000000000000000e+00
46 0.0000000000000000e+00 0.0000000000000000e+00 0.0000000000000000e+00
47 0.0000000000000000e+00 0.0000000000000000e+00 0.0000000000000000e+00
48 0.0000000000000000e+00 0.0000000000000000e+00 0.0000000000000000e+00
49 0.0000000000000000e+00 0.0000000000000000e+00 0.0000000000000000e+00
50 0.0000000000000000e+00 0.0000000000000000e+00 0.0000000000000000e+00
51 0.0000000000000000e+00 0.0000000000000000e+00 0.0000000000000000e+00
52 0.0000000000000000e+00 0.0000000000000000e+00 0.0000000000000000e+00
53 0.0000000000000000e+00 0.0000000000000000e+00 0.0000000000000000e+00
54 0.0000000000000000e+00 0.0000000000000000e+00 0.0000000000000000e+00
55 0.0000000000000000e+00 0.0000000000000000e+00 0.0000000000000000e+00
56 0.0000000000000000e+00 0.0000000000000000e+00 0.0000000000000000e+00
57 0.0000000000000000e+00 0.0000000000000000e+00 0.0000000000000000e+00
58 0.0000000000000000e+00 0.0000000000000000e+00 0.0000000000000000e+00
59 0.0000000000000000e+00 0.0000000000000000e+00 0.0000000000000000e+00
60 0.0000000000000000e+00 0.0000000000000000e+00 0.0000000000000000e+00
61 0.0000000000000000e+00 0.0000000000000000e+00 0.0000000000000000e+00
62 0.0000000000000000e+00 0.0000000000000000e+00 0.0000000000000000e+00
63 0.0000000000000000e+00 0.0000000000000000e+00 0.0000000000000000e+00
64 0.0000000000000000e+00 0.0000000000000000e+00 0.0000000000000000e+00
65 0.0000000000000000e+00 0.0000000000000000e+00 0.0000000000000000e+00
66 0.0000000000000000e+00 0.0000000000000000e+00 0.0000000000000000e+00
67 0.0000000000000000e+00 0.0000000000000000e+00 0.0000000000000000e+00
68 0.0000000000000000e+00 0.0000000000000000e+00 0.0000000000000000e+00
69 0.0000000000000000e+00 0.0000000000000000e+00 0.0000000000000000e+00
70 0.0000000000000000e+00 0.0000000000000000e+00 0.0000000000000000e+00
71 0.0000000000000000e+00 0.0000000000000000e+00 0.0000000000000000e+00
72 0.0000000000000000e+00 0.0000000000000000e+00 0.0000000000000000e+00
73 0.0000000000000000e+00 0.0000000000000000e+00 0.0000000000000000e+00
74 0.0000000000000000e+00 0.0000000000000000e+00 0.0000000000000000e+00
