"Millerite NiS"                         
           1
    16.884694    0.000000    0.000000
     0.000000    9.578410    0.000000
     0.000000    0.000000   16.654646
   Ty   Ty
  37  37
Direct configuration=     1
   0.76824532  0.17178393  0.14470789
   0.83398845  0.17121288  0.28013605
   0.21637401  0.66272684  0.09955358
   0.29733028  0.64529696  0.21607389
   0.38425850  0.09628037  0.13428120
   0.46975828  0.14529696  0.24694159
   0.95247430  0.64529696  0.15433850
   0.97543423  0.64501493  0.31840289
   0.18062813  0.14835005  0.04920464
   0.12490229  0.14529696  0.18520619
   0.06295806  0.06464325  0.30746466
   0.56858227  0.65579596  0.16270039
   0.64218627  0.64529696  0.27780929
   0.91622804  0.94842057  0.12807389
   0.93390203  0.98450510  0.27747644
   0.38681703  0.32850709  0.07658070
   0.42486675  0.51319396  0.19160760
   0.45342575  0.48700605  0.33695575
   0.52853390  0.14782412  0.09262155
   0.59729475  0.01319396  0.22247530
   0.08001077  0.51319396  0.12987220
   0.11223727  0.49410571  0.29106266
   0.25243876  0.01319396  0.16073990
   0.29864011  0.94909051  0.28855798
   0.76908370  0.45458346  0.11608906
   0.76972274  0.51319396  0.25334300
   0.98762045  0.26279407  0.25844184
   0.35865539  0.64359417  0.06393534
   0.42486675  0.77739996  0.19160760
   0.49180497  0.86284071  0.30195100
   0.64278578  0.34658977  0.08295997
   0.59729475  0.27739996  0.22247530
   0.08001077  0.77739996  0.12987220
   0.11267451  0.78538739  0.29617797
   0.25243876  0.27739996  0.16073990
   0.77323737  0.85914283  0.12109381
   0.76972274  0.77739996  0.25334300
   0.94021422  0.15233153  0.35191491
   0.00154369  0.08805379  0.18521974
   0.47417723  0.64529696  0.09088994
   0.50874518  0.64529696  0.27609614
   0.64660522  0.14529696  0.12175764
   0.70661227  0.17310816  0.26261915
   0.11401088  0.64451081  0.03758135
   0.16388920  0.64529696  0.21436074
   0.08140357  0.63511998  0.37817727
   0.29989053  0.17436844  0.05629192
   0.32345107  0.14507284  0.23970731
   0.81903321  0.64529696  0.15262534
   0.85099199  0.64580794  0.31337415
   0.75305767  0.29563049  0.03879965
   0.83281189  0.33892639  0.20195093
   0.31177707  0.81351196  0.12204440
   0.37079284  0.78445912  0.30405916
   0.48420507  0.31351196  0.15291210
   0.51678028  0.31334052  0.31523799
   0.00148905  0.81351196  0.24551520
   0.97391456  0.79445128  0.06743334
   0.14030195  0.32190868  0.11004391
   0.10856327  0.26745655  0.29290681
   0.65663306  0.81351196  0.18377980
   0.69321823  0.79625373  0.34611687
   0.31177707  0.47708196  0.12204440
   0.34483623  0.48809669  0.28747472
   0.82022264  0.02508880  0.06236062
   0.82906105  0.97708196  0.21464750
   0.00148905  0.47708196  0.24551520
   0.97363787  0.49032262  0.07551807
   0.48420507  0.97708196  0.15291210
   0.54368310  0.04424412  0.33039891
   0.65663306  0.47708196  0.18377980
   0.69758149  0.50552626  0.34984321
   0.14273280  0.96806245  0.10350209
   0.17391704  0.97708196  0.27638290
