       N       E                     dE             d eps       ncg     rms          rms(c)
DAV:   1     0.981890878849E+04    0.98189E+04   -0.50791E+05  1168   0.164E+03
DAV:   2     0.614192172668E+03   -0.92047E+04   -0.88599E+04  1024   0.526E+02
DAV:   3    -0.343430409544E+03   -0.95762E+03   -0.90647E+03  1112   0.181E+02
DAV:   4    -0.405450688741E+03   -0.62020E+02   -0.61240E+02  1144   0.404E+01
DAV:   5    -0.407656876064E+03   -0.22062E+01   -0.22029E+01  1184   0.818E+00    0.820E+01
DAV:   6    -0.491559895486E+03   -0.83903E+02   -0.96312E+02  1160   0.117E+02    0.157E+02
DAV:   7    -0.376258265084E+03    0.11530E+03   -0.17546E+02  1136   0.646E+01    0.618E+01
DAV:   8    -0.476818133947E+03   -0.10056E+03   -0.14522E+02  1368   0.842E+01    0.169E+02
DAV:   9    -0.382766906190E+03    0.94051E+02   -0.13522E+02  1160   0.494E+01    0.953E+01
DAV:  10    -0.374561381773E+03    0.82055E+01   -0.66952E+01  1304   0.327E+01    0.499E+01
DAV:  11    -0.385115217609E+03   -0.10554E+02   -0.37757E+01  1344   0.433E+01    0.912E+01
DAV:  12    -0.368569952443E+03    0.16545E+02   -0.38492E+01  1296   0.309E+01    0.399E+01
DAV:  13    -0.365136550703E+03    0.34334E+01   -0.18735E+01  1320   0.293E+01    0.373E+01
DAV:  14    -0.361636546547E+03    0.35000E+01   -0.11821E+01  1288   0.221E+01    0.257E+01
DAV:  15    -0.359914351178E+03    0.17222E+01   -0.52172E+00  1184   0.144E+01    0.196E+01
DAV:  16    -0.359077221066E+03    0.83713E+00   -0.22062E+00  1264   0.936E+00    0.186E+01
DAV:  17    -0.358458236339E+03    0.61898E+00   -0.17093E+00  1240   0.871E+00    0.147E+01
DAV:  18    -0.357951881077E+03    0.50636E+00   -0.91466E-01  1312   0.625E+00    0.116E+01
DAV:  19    -0.357738871881E+03    0.21301E+00   -0.47282E-01  1288   0.463E+00    0.968E+00
DAV:  20    -0.357618058890E+03    0.12081E+00   -0.22350E-01  1280   0.287E+00    0.877E+00
DAV:  21    -0.357463789332E+03    0.15427E+00   -0.18102E-01  1264   0.310E+00    0.727E+00
DAV:  22    -0.357333712526E+03    0.13008E+00   -0.26175E-01  1312   0.342E+00    0.563E+00
DAV:  23    -0.357250203304E+03    0.83509E-01   -0.27834E-01  1376   0.341E+00    0.345E+00
DAV:  24    -0.357228036105E+03    0.22167E-01   -0.15125E-01  1200   0.184E+00    0.285E+00
DAV:  25    -0.357208585662E+03    0.19450E-01   -0.66034E-02  1112   0.152E+00    0.202E+00
DAV:  26    -0.357206125781E+03    0.24599E-02   -0.22121E-02  1288   0.787E-01    0.169E+00
DAV:  27    -0.357204634426E+03    0.14914E-02   -0.13245E-02  1296   0.740E-01    0.167E+00
DAV:  28    -0.357209588922E+03   -0.49545E-02   -0.31404E-02  1328   0.121E+00    0.203E+00
DAV:  29    -0.357194357084E+03    0.15232E-01   -0.32558E-02  1264   0.124E+00    0.100E+00
DAV:  30    -0.357194554829E+03   -0.19775E-03   -0.14504E-02  1296   0.794E-01    0.804E-01
DAV:  31    -0.357192510312E+03    0.20445E-02   -0.62585E-03  1128   0.562E-01    0.329E-01
DAV:  32    -0.357192752758E+03   -0.24245E-03   -0.15561E-03  1152   0.206E-01    0.302E-01
DAV:  33    -0.357192754874E+03   -0.21153E-05   -0.53581E-04   832   0.136E-01
   1 F= -.35719275E+03 E0= -.35664191E+03  d E =-.110168E+01
