 vasp.6.1.0 28Jan20 (build Mar 31 2020 17:42:31) gamma-only                     
  
 executed on             LinuxIFC date 2020.04.13  01:43:14
 running on   48 total cores
 distrk:  each k-point on   48 cores,    1 groups
 distr:  one band on NCORE=   6 cores,    8 groups


--------------------------------------------------------------------------------------------------------


 INCAR:
 POTCAR:    PAW_PBE Ni_pv 06Sep2000               
 POTCAR:    PAW_PBE S 06Sep2000                   
 POTCAR:    PAW_PBE Ni_pv 06Sep2000               
   VRHFIN =Ni:                                                                                      
   LEXCH  = PE                                                                                      
   EATOM  =  3501.1230 eV,  257.3253 Ry                                                             
                                                                                                    
   TITEL  = PAW_PBE Ni_pv 06Sep2000                                                                 
   LULTRA =        F    use ultrasoft PP ?                                                          
   IUNSCR =        1    unscreen: 0-lin 1-nonlin 2-no                                               
   RPACOR =    1.500    partial core radius                                                         
   POMASS =   58.690; ZVAL   =   16.000    mass and valenz                                          
   RCORE  =    2.000    outmost cutoff radius                                                       
   RWIGS  =    2.000; RWIGS  =    1.058    wigner-seitz radius (au A)                               
   ENMAX  =  367.986; ENMIN  =  275.989 eV                                                          
   RCLOC  =    1.301    cutoff for local pot                                                        
   LCOR   =        T    correct aug charges                                                         
   LPAW   =        T    paw PP                                                                      
   EAUG   =  703.443                                                                                
   DEXC   =    0.000                                                                                
   RMAX   =    2.041    core radius for proj-oper                                                   
   RAUG   =    1.300    factor for augmentation sphere                                              
   RDEP   =    2.103    radius for radial grids                                                     
   RDEPT  =    1.618    core radius for aug-charge                                                  
                                                                                                    
   Atomic configuration                                                                             
    8 entries                                                                                       
     n  l   j            E        occ.                                                              
     1  0  0.50     -8206.4253   2.0000                                                             
     2  0  0.50      -976.1748   2.0000                                                             
     2  1  1.50      -839.0571   6.0000                                                             
     3  0  0.50      -105.9991   2.0000                                                             
     3  1  1.50       -66.4603   6.0000                                                             
     3  2  2.50        -4.6458   9.0000                                                             
     4  0  0.50        -4.4926   1.0000                                                             
     4  3  2.50        -1.3606   0.0000                                                             
   Description                                                                                      
     l       E           TYP  RCUT    TYP  RCUT                                                     
     1    -66.4602962     23  1.700                                                                 
     1     -1.3605826     23  1.700                                                                 
     2     -4.6457867     23  2.000                                                                 
     2     -6.0063693     23  2.000                                                                 
     0     -4.4925576     23  1.900                                                                 
     0     16.3626226     23  1.900                                                                 
  local pseudopotential read in
  partial core-charges read in
  partial kinetic energy density read in
  atomic valenz-charges read in
  non local Contribution for L=           1  read in
    real space projection operators read in
  non local Contribution for L=           1  read in
    real space projection operators read in
  non local Contribution for L=           2  read in
    real space projection operators read in
  non local Contribution for L=           2  read in
    real space projection operators read in
  non local Contribution for L=           0  read in
    real space projection operators read in
  non local Contribution for L=           0  read in
    real space projection operators read in
    PAW grid and wavefunctions read in
 
   number of l-projection  operators is LMAX  =           6
   number of lm-projection operators is LMMAX =          18
 
 POTCAR:    PAW_PBE S 06Sep2000                   
   VRHFIN =S : s2p4                                                                                 
   LEXCH  = PE                                                                                      
   EATOM  =   276.8230 eV,   20.3459 Ry                                                             
                                                                                                    
   TITEL  = PAW_PBE S 06Sep2000                                                                     
   LULTRA =        F    use ultrasoft PP ?                                                          
   IUNSCR =        1    unscreen: 0-lin 1-nonlin 2-no                                               
   RPACOR =    1.500    partial core radius                                                         
   POMASS =   32.066; ZVAL   =    6.000    mass and valenz                                          
   RCORE  =    1.900    outmost cutoff radius                                                       
   RWIGS  =    2.200; RWIGS  =    1.164    wigner-seitz radius (au A)                               
   ENMAX  =  258.689; ENMIN  =  194.016 eV                                                          
   ICORE  =        2    local potential                                                             
   LCOR   =        T    correct aug charges                                                         
   LPAW   =        T    paw PP                                                                      
   EAUG   =  335.092                                                                                
   DEXC   =    0.000                                                                                
   RMAX   =    1.942    core radius for proj-oper                                                   
   RAUG   =    1.300    factor for augmentation sphere                                              
   RDEP   =    1.954    radius for radial grids                                                     
   RDEPT  =    1.744    core radius for aug-charge                                                  
                                                                                                    
   Atomic configuration                                                                             
    6 entries                                                                                       
     n  l   j            E        occ.                                                              
     1  0  0.50     -2405.8406   2.0000                                                             
     2  0  0.50      -211.7007   2.0000                                                             
     2  1  1.50      -156.4958   6.0000                                                             
     3  0  0.50       -17.2562   2.0000                                                             
     3  1  0.50        -7.0085   4.0000                                                             
     3  2  1.50        -6.8029   0.0000                                                             
   Description                                                                                      
     l       E           TYP  RCUT    TYP  RCUT                                                     
     0    -17.2561641     23  1.900                                                                 
     0    -15.8743224     23  1.900                                                                 
     1     -7.0085400     23  1.900                                                                 
     1     -2.7779785     23  1.900                                                                 
     2     -6.8029130     23  1.900                                                                 
  local pseudopotential read in
  partial core-charges read in
  partial kinetic energy density read in
  atomic valenz-charges read in
  non local Contribution for L=           0  read in
    real space projection operators read in
  non local Contribution for L=           0  read in
    real space projection operators read in
  non local Contribution for L=           1  read in
    real space projection operators read in
  non local Contribution for L=           1  read in
    real space projection operators read in
    PAW grid and wavefunctions read in
 
   number of l-projection  operators is LMAX  =           4
   number of lm-projection operators is LMMAX =           8
 
 Optimization of the real space projectors (new method)

 maximal supplied QI-value         = 18.90
 optimisation between [QCUT,QGAM] = [ 10.77, 21.73] = [ 32.49,132.25] Ry 
 Optimized for a Real-space Cutoff    1.38 Angstroem

   l    n(q)    QCUT    max X(q) W(low)/X(q) W(high)/X(q)  e(spline) 
   1      8    10.771     2.836    0.40E-04    0.29E-04    0.12E-06
   1      8    10.771     4.023    0.10E-03    0.48E-04    0.29E-06
   2      8    10.771    73.368    0.42E-03    0.97E-04    0.44E-06
   2      8    10.771    69.010    0.42E-03    0.99E-04    0.45E-06
   0      9    10.771    54.797    0.10E-03    0.56E-04    0.74E-07
   0      9    10.771    24.266    0.89E-04    0.49E-04    0.67E-07
 Optimization of the real space projectors (new method)

 maximal supplied QI-value         = 19.84
 optimisation between [QCUT,QGAM] = [ 10.71, 21.63] = [ 32.15,130.99] Ry 
 Optimized for a Real-space Cutoff    1.19 Angstroem

   l    n(q)    QCUT    max X(q) W(low)/X(q) W(high)/X(q)  e(spline) 
   0      8    10.715   187.594    0.41E-03    0.53E-04    0.66E-07
   0      8    10.715   164.243    0.41E-03    0.53E-04    0.65E-07
   1      7    10.715    67.533    0.19E-03    0.59E-03    0.68E-07
   1      7    10.715    50.729    0.19E-03    0.58E-03    0.67E-07
  PAW_PBE Ni_pv 06Sep2000               :
 energy of atom  1       EATOM=-3501.1230
 kinetic energy error for atom=    0.0925 (will be added to EATOM!!)
  PAW_PBE S 06Sep2000                   :
 energy of atom  2       EATOM= -276.8230
 kinetic energy error for atom=    0.0033 (will be added to EATOM!!)
 
 
 POSCAR: Structure 21 made from 011-3.xsd file
  positions in direct lattice
  No initial velocities read in
 exchange correlation table for  LEXCH =        8
   RHO(1)=    0.500       N(1)  =     2000
   RHO(2)=  100.500       N(2)  =     4000
 


--------------------------------------------------------------------------------------------------------


 ion  position               nearest neighbor table
   1  0.645  0.915  0.103-  31 2.25  37 2.26  38 2.36  46 2.36  19 2.53  10 2.53
   2  0.583  0.790  0.257-  32 2.25  46 2.26  38 2.26  39 2.36  47 2.36  11 2.53  20 2.53
   3  0.520  0.665  0.412-  33 2.25  47 2.26  39 2.26  48 2.36  21 2.53  12 2.53
   4  0.333  0.290  0.051-  34 2.25  40 2.36  49 2.36  13 2.53
   5  0.270  0.165  0.206-  35 2.25  49 2.26  40 2.26  50 2.36  41 2.36  14 2.53  22 2.53
   6  0.208  0.040  0.360-  36 2.25  50 2.26  41 2.26  42 2.36  51 2.36  23 2.53  15 2.53
   7  0.020  0.665  0.000-  43 2.36  52 2.36  24 2.53
   8  0.958  0.540  0.154-  28 2.25  52 2.26  43 2.26  44 2.36  53 2.36  25 2.53  17 2.53
   9  0.895  0.415  0.309-  29 2.25  53 2.26  44 2.26  45 2.36  54 2.36  18 2.53  26 2.53
  10  0.662  0.684  0.062-  46 2.36  28 2.36  19 2.53   1 2.53
  11  0.599  0.559  0.217-  40 2.25  46 2.26  28 2.26  47 2.36  29 2.36   2 2.53  20 2.53
  12  0.537  0.434  0.371-  41 2.25  29 2.26  47 2.26  30 2.36  48 2.36  21 2.53   3 2.53
  13  0.349  0.059  0.011-  31 2.36  49 2.36   4 2.53
  14  0.287  0.934  0.165-  43 2.25  31 2.26  49 2.26  50 2.36  32 2.36   5 2.53  22 2.53
  15  0.224  0.809  0.320-  44 2.25  50 2.26  32 2.26  51 2.36  33 2.36  23 2.53   6 2.53
  16  0.161  0.683  0.474-  45 2.25  51 2.26  33 2.26
  17  0.974  0.309  0.114-  37 2.25  34 2.26  52 2.26  35 2.36  53 2.36  25 2.53   8 2.53
  18  0.912  0.184  0.268-  38 2.25  53 2.26  35 2.26  36 2.36  54 2.36   9 2.53  26 2.53
  19  0.909  0.915  0.103-  49 2.25  37 2.26  38 2.36  28 2.36   1 2.53  10 2.53
  20  0.847  0.790  0.257-  50 2.25  28 2.26  38 2.26  29 2.36  39 2.36   2 2.53  11 2.53
  21  0.784  0.665  0.412-  51 2.25  29 2.26  39 2.26  30 2.36   3 2.53  12 2.53
  22  0.534  0.165  0.206-  53 2.25  31 2.26  40 2.26  41 2.36  32 2.36  14 2.53   5 2.53
  23  0.472  0.040  0.360-  54 2.25  41 2.26  32 2.26  42 2.36  33 2.36   6 2.53  15 2.53
  24  0.285  0.665  0.000-  34 2.36  43 2.36   7 2.53
  25  0.222  0.540  0.154-  46 2.25  34 2.26  43 2.26  44 2.36  35 2.36   8 2.53  17 2.53
  26  0.159  0.415  0.309-  47 2.25  35 2.26  44 2.26  45 2.36  36 2.36  18 2.53   9 2.53
  27  0.097  0.290  0.463-  48 2.25  36 2.26  45 2.26
  28  0.825  0.674  0.153-   8 2.25  20 2.26  11 2.26  10 2.36  19 2.36
  29  0.763  0.549  0.307-   9 2.25  21 2.26  12 2.26  20 2.36  11 2.36
  30  0.700  0.424  0.462-  12 2.36  21 2.36
  31  0.513  0.050  0.102-   1 2.25  22 2.26  14 2.26  13 2.36
  32  0.450  0.924  0.256-   2 2.25  23 2.26  15 2.26  22 2.36  14 2.36
  33  0.387  0.799  0.410-   3 2.25  16 2.26  15 2.36  23 2.36
  34  0.200  0.425  0.050-   4 2.25  25 2.26  17 2.26  24 2.36
  35  0.138  0.299  0.204-   5 2.25  26 2.26  18 2.26  17 2.36  25 2.36
  36  0.075  0.174  0.359-   6 2.25  27 2.26  18 2.36  26 2.36
  37  0.867  0.094  0.051-  17 2.25  19 2.26   1 2.26
  38  0.804  0.969  0.205-  18 2.25   2 2.26  20 2.26  19 2.36   1 2.36
  39  0.741  0.843  0.359-  21 2.26   3 2.26   2 2.36  20 2.36
  40  0.492  0.344  0.153-  11 2.25   5 2.26  22 2.26   4 2.36
  41  0.429  0.219  0.308-  12 2.25  23 2.26   6 2.26  22 2.36   5 2.36
  42  0.366  0.093  0.462-  23 2.36   6 2.36
  43  0.179  0.719  0.102-  14 2.25  25 2.26   8 2.26   7 2.36  24 2.36
  44  0.117  0.594  0.256-  15 2.25  26 2.26   9 2.26  25 2.36   8 2.36
  45  0.054  0.468  0.411-  16 2.25  27 2.26   9 2.36  26 2.36
  46  0.489  0.674  0.153-  25 2.25  11 2.26   2 2.26  10 2.36   1 2.36
  47  0.426  0.549  0.307-  26 2.25   3 2.26  12 2.26   2 2.36  11 2.36
  48  0.363  0.424  0.462-  27 2.25   3 2.36  12 2.36
  49  0.176  0.050  0.102-  19 2.25   5 2.26  14 2.26   4 2.36  13 2.36
  50  0.114  0.924  0.256-  20 2.25   6 2.26  15 2.26   5 2.36  14 2.36
  51  0.051  0.799  0.410-  21 2.25  16 2.26  15 2.36   6 2.36
  52  0.864  0.425  0.050-   8 2.26  17 2.26   7 2.36
  53  0.801  0.299  0.204-  22 2.25   9 2.26  18 2.26   8 2.36  17 2.36
  54  0.739  0.174  0.359-  23 2.25  18 2.36   9 2.36
 
  LATTYP: Found a base centered orthorhombic cell.
 ALAT       =     9.5784100000
 B/A-ratio  =     1.8519363485
 C/A-ratio  =     1.9847903504
  
  Lattice vectors:
  
 A1 = (   8.4281814759,   5.5287226424,   0.0000000000)
 A2 = (   0.0000000000, -10.0797329849,   0.0000000000)
 A3 = (   0.0000000000,   0.0000000000, -19.0111357400)


Analysis of symmetry for initial positions (statically):
=====================================================================
 Subroutine PRICEL returns:
 Original cell was already a primitive cell.
 

 Routine SETGRP: Setting up the symmetry group for a 
 base centered orthorhombic supercell.


 Subroutine GETGRP returns: Found  1 space group operations
 (whereof  1 operations were pure point group operations)
 out of a pool of  8 trial point group operations.


The static configuration has the point symmetry C_1 .


Analysis of symmetry for dynamics (positions and initial velocities):
=====================================================================
 Subroutine PRICEL returns:
 Original cell was already a primitive cell.
 

 Routine SETGRP: Setting up the symmetry group for a 
 base centered orthorhombic supercell.


 Subroutine GETGRP returns: Found  1 space group operations
 (whereof  1 operations were pure point group operations)
 out of a pool of  8 trial point group operations.


The dynamic configuration has the point symmetry C_1 .


 Subroutine INISYM returns: Found  1 space group operations
 (whereof  1 operations are pure point group operations),
 and found     1 'primitive' translations


----------------------------------------------------------------------------------------

                                     Primitive cell                                     

  volume of cell :    1615.0686

  direct lattice vectors                    reciprocal lattice vectors
     8.428181476 -4.551010342  0.000000000     0.118649557  0.000000000  0.000000000
     0.000000000 10.079732985  0.000000000     0.053570403  0.099208977  0.000000000
     0.000000000  0.000000000 19.011135740     0.000000000  0.000000000  0.052600750

  length of vectors
     9.578410000 10.079732985 19.011135740     0.118649557  0.112748434  0.052600750

  position of ions in fractional coordinates (direct lattice)
     0.645270229  0.915243159  0.102959234
     0.582630317  0.789963333  0.257398085
     0.519990404  0.664683508  0.411836936
     0.332816867  0.290336434  0.051479617
     0.270176954  0.165056608  0.205918468
     0.207537041  0.039776783  0.360357319
     0.020363505  0.665429709  0.000000000
     0.957723592  0.540149884  0.154438851
     0.895083679  0.414870058  0.308877702
     0.661820070  0.684136840  0.062155563
     0.599180157  0.558857015  0.216594414
     0.536540245  0.433577189  0.371033265
     0.349366708  0.059230116  0.010675946
     0.286726795  0.933950290  0.165114797
     0.224086882  0.808670464  0.319553648
     0.161446969  0.683390639  0.473992499
     0.974273433  0.309043565  0.113635180
     0.911633520  0.183763740  0.268074031
     0.909476229  0.915243159  0.102959234
     0.846836317  0.789963333  0.257398085
     0.784196404  0.664683508  0.411836936
     0.534382954  0.165056608  0.205918468
     0.471743041  0.039776783  0.360357319
     0.284569505  0.665429709  0.000000000
     0.221929592  0.540149884  0.154438851
     0.159289679  0.414870058  0.308877702
     0.096649766  0.289590232  0.463316553
     0.825181678  0.674430055  0.153010292
     0.762541765  0.549150230  0.307449143
     0.699901852  0.423870404  0.461887994
     0.512728315  0.049523331  0.101530675
     0.450088403  0.924243505  0.255969526
     0.387448490  0.798963679  0.410408377
     0.200274953  0.424616606  0.050051058
     0.137635040  0.299336780  0.204489909
     0.074995127  0.174056954  0.358928760
     0.866747645  0.093991989  0.050529303
     0.804107732  0.968712164  0.204968154
     0.741467819  0.843432338  0.359407005
     0.491654369  0.343805439  0.153488537
     0.429014457  0.218525613  0.307927388
     0.366374544  0.093245787  0.462366239
     0.179201007  0.718898714  0.102008920
     0.116561094  0.593618888  0.256447771
     0.053921181  0.468339063  0.410886622
     0.488751678  0.674430055  0.153010292
     0.426111765  0.549150230  0.307449143
     0.363471852  0.423870404  0.461887994
     0.176298315  0.049523331  0.101530675
     0.113658403  0.924243505  0.255969526
     0.051018490  0.798963679  0.410408377
     0.863844953  0.424616606  0.050051058
     0.801205040  0.299336780  0.204489909
     0.738565127  0.174056954  0.358928760

  ion indices of the primitive-cell ions
   primitive index   ion index
                 1           1
                 2           2
                 3           3
                 4           4
                 5           5
                 6           6
                 7           7
                 8           8
                 9           9
                10          10
                11          11
                12          12
                13          13
                14          14
                15          15
                16          16
                17          17
                18          18
                19          19
                20          20
                21          21
                22          22
                23          23
                24          24
                25          25
                26          26
                27          27
                28          28
                29          29
                30          30
                31          31
                32          32
                33          33
                34          34
                35          35
                36          36
                37          37
                38          38
                39          39
                40          40
                41          41
                42          42
                43          43
                44          44
                45          45
                46          46
                47          47
                48          48
                49          49
                50          50
                51          51
                52          52
                53          53
                54          54

----------------------------------------------------------------------------------------

 
 
 KPOINTS: gamma-point-only calculation. no periodi

Automatic generation of k-mesh.
Space group operators:
 irot       det(A)        alpha          n_x          n_y          n_z        tau_x        tau_y        tau_z
    1     1.000000     0.000000     1.000000     0.000000     0.000000     0.000000     0.000000     0.000000
 
 Subroutine IBZKPT returns following result:
 ===========================================
 
 Found      1 irreducible k-points:
 
 Following reciprocal coordinates:
            Coordinates               Weight
  0.000000  0.000000  0.000000      1.000000
 
 Following cartesian coordinates:
            Coordinates               Weight
  0.000000  0.000000  0.000000      1.000000
 


--------------------------------------------------------------------------------------------------------




 Dimension of arrays:
   k-points           NKPTS =      1   k-points in BZ     NKDIM =      1   number of bands    NBANDS=    360
   number of dos      NEDOS =    301   number of ions     NIONS =     54
   non local maximal  LDIM  =      6   non local SUM 2l+1 LMDIM =     18
   total plane-waves  NPLWV = 270000
   max r-space proj   IRMAX =   1893   max aug-charges    IRDMAX=   5466
   dimension x,y,z NGX =    50 NGY =   54 NGZ =  100
   dimension x,y,z NGXF=   100 NGYF=  108 NGZF=  200
   support grid    NGXF=   100 NGYF=  108 NGZF=  200
   ions per type =              27  27
   NGX,Y,Z   is equivalent  to a cutoff of   8.68,  8.91,  8.74 a.u.
   NGXF,Y,Z  is equivalent  to a cutoff of  17.36, 17.81, 17.49 a.u.

 SYSTEM =  "Millerite NiS"                         
 POSCAR =  Structure 21 made from 011-3.xsd file   

 Startparameter for this run:
   NWRITE =      2    write-flag & timer
   PREC   = normal    normal or accurate (medium, high low for compatibility)
   ISTART =      0    job   : 0-new  1-cont  2-samecut
   ICHARG =      2    charge: 1-file 2-atom 10-const
   ISPIN  =      1    spin polarized calculation?
   LNONCOLLINEAR =      F non collinear calculations
   LSORBIT =      F    spin-orbit coupling
   INIWAV =      1    electr: 0-lowe 1-rand  2-diag
   LASPH  =      F    aspherical Exc in radial PAW
   METAGGA=      F    non-selfconsistent MetaGGA calc.

 Electronic Relaxation 1
   ENCUT  =  450.0 eV  33.07 Ry    5.75 a.u.  16.57 17.43 32.88*2*pi/ulx,y,z
   ENINI  =  450.0     initial cutoff
   ENAUG  =  703.4 eV  augmentation charge cutoff
   NELM   =    100;   NELMIN=  2; NELMDL= -5     # of ELM steps 
   EDIFF  = 0.1E-03   stopping-criterion for ELM
   LREAL  =      T    real-space projection
   NLSPLINE    = F    spline interpolate recip. space projectors
   LCOMPAT=      F    compatible to vasp.4.4
   GGA_COMPAT  = T    GGA compatible to vasp.4.4-vasp.4.6
   LMAXPAW     = -100 max onsite density
   LMAXMIX     =    2 max onsite mixed and CHGCAR
   VOSKOWN=      0    Vosko Wilk Nusair interpolation
   ROPT   =   -0.00050  -0.00050
 Ionic relaxation
   EDIFFG = 0.1E-02   stopping-criterion for IOM
   NSW    =      0    number of steps for IOM
   NBLOCK =      1;   KBLOCK =      1    inner block; outer block 
   IBRION =     -1    ionic relax: 0-MD 1-quasi-New 2-CG
   NFREE  =      0    steps in history (QN), initial steepest desc. (CG)
   ISIF   =      2    stress and relaxation
   IWAVPR =     10    prediction:  0-non 1-charg 2-wave 3-comb
   ISYM   =      2    0-nonsym 1-usesym 2-fastsym
   LCORR  =      T    Harris-Foulkes like correction to forces

   POTIM  = 0.5000    time-step for ionic-motion
   TEIN   =    0.0    initial temperature
   TEBEG  =    0.0;   TEEND  =   0.0 temperature during run
   SMASS  =  -3.00    Nose mass-parameter (am)
   estimated Nose-frequenzy (Omega)   =  0.10E-29 period in steps = 0.13E+47 mass=  -0.210E-26a.u.
   SCALEE = 1.0000    scale energy and forces
   NPACO  =    256;   APACO  = 16.0  distance and # of slots for P.C.
   PSTRESS=    0.0 pullay stress

  Mass of Ions in am
   POMASS =  58.69 32.07
  Ionic Valenz
   ZVAL   =  16.00  6.00
  Atomic Wigner-Seitz radii
   RWIGS  =  -1.00 -1.00
  virtual crystal weights 
   VCA    =   1.00  1.00
   NELECT =     594.0000    total number of electrons
   NUPDOWN=      -1.0000    fix difference up-down

 DOS related values:
   EMIN   =  10.00;   EMAX   =-10.00  energy-range for DOS
   EFERMI =   0.00
   ISMEAR =     0;   SIGMA  =   0.20  broadening in eV -4-tet -1-fermi 0-gaus

 Electronic relaxation 2 (details)
   IALGO  =     38    algorithm
   LDIAG  =      T    sub-space diagonalisation (order eigenvalues)
   LSUBROT=      F    optimize rotation matrix (better conditioning)
   TURBO    =      0    0=normal 1=particle mesh
   IRESTART =      0    0=no restart 2=restart with 2 vectors
   NREBOOT  =      0    no. of reboots
   NMIN     =      0    reboot dimension
   EREF     =   0.00    reference energy to select bands
   IMIX   =      4    mixing-type and parameters
     AMIX     =   0.40;   BMIX     =  1.00
     AMIX_MAG =   1.60;   BMIX_MAG =  1.00
     AMIN     =   0.10
     WC   =   100.;   INIMIX=   1;  MIXPRE=   1;  MAXMIX= -45

 Intra band minimization:
   WEIMIN = 0.0000     energy-eigenvalue tresh-hold
   EBREAK =  0.69E-07  absolut break condition
   DEPER  =   0.30     relativ break condition  

   TIME   =   0.40     timestep for ELM

  volume/ion in A,a.u.               =      29.91       201.83
  Fermi-wavevector in a.u.,A,eV,Ry     =   1.172933  2.216523 18.718522  1.375773
  Thomas-Fermi vector in A             =   2.309354
 
 Write flags
   LWAVE        =      F    write WAVECAR
   LDOWNSAMPLE  =      F    k-point downsampling of WAVECAR
   LCHARG       =      F    write CHGCAR
   LVTOT        =      F    write LOCPOT, total local potential
   LVHAR        =      F    write LOCPOT, Hartree potential only
   LELF         =      F    write electronic localiz. function (ELF)
   LORBIT       =      0    0 simple, 1 ext, 2 COOP (PROOUT), +10 PAW based schemes


 Dipole corrections
   LMONO  =      F    monopole corrections only (constant potential shift)
   LDIPOL =      F    correct potential (dipole corrections)
   IDIPOL =      0    1-x, 2-y, 3-z, 4-all directions 
   EPSILON=  1.0000000 bulk dielectric constant

 Exchange correlation treatment:
   GGA     =    --    GGA type
   LEXCH   =     8    internal setting for exchange type
   VOSKOWN=      0    Vosko Wilk Nusair interpolation
   LHFCALC =     F    Hartree Fock is set to
   LHFONE  =     F    Hartree Fock one center treatment
   AEXX    =    0.0000 exact exchange contribution

 Linear response parameters
   LEPSILON=     F    determine dielectric tensor
   LRPA    =     F    only Hartree local field effects (RPA)
   LNABLA  =     F    use nabla operator in PAW spheres
   LVEL    =     F    velocity operator in full k-point grid
   LINTERFAST=   F  fast interpolation
   KINTER  =     0    interpolate to denser k-point grid
   CSHIFT  =0.1000    complex shift for real part using Kramers Kronig
   OMEGAMAX=  -1.0    maximum frequency
   DEG_THRESHOLD= 0.2000000E-02 threshold for treating states as degnerate
   RTIME   =   -0.100 relaxation time in fs
  (WPLASMAI=    0.000 imaginary part of plasma frequency in eV, 0.658/RTIME)
   DFIELD  = 0.0000000 0.0000000 0.0000000 field for delta impulse in time
 
 Orbital magnetization related:
   ORBITALMAG=     F  switch on orbital magnetization
   LCHIMAG   =     F  perturbation theory with respect to B field
   DQ        =  0.001000  dq finite difference perturbation B field
   LLRAUG    =     F  two centre corrections for induced B field



--------------------------------------------------------------------------------------------------------


 Static calculation
 charge density and potential will be updated during run
 non-spin polarized calculation
 Variant of blocked Davidson
 Davidson routine will perform the subspace rotation
 perform sub-space diagonalisation
    after iterative eigenvector-optimisation
 modified Broyden-mixing scheme, WC =      100.0
 initial mixing is a Kerker type mixing with AMIX =  0.4000 and BMIX =      1.0000
 Hartree-type preconditioning will be used
 using additional bands           63
 real space projection scheme for non local part
 use partial core corrections
 calculate Harris-corrections to forces 
   (improved forces if not selfconsistent)
 use gradient corrections 
 use of overlap-Matrix (Vanderbilt PP)
 Gauss-broadening in eV      SIGMA  =   0.20


--------------------------------------------------------------------------------------------------------


  energy-cutoff  :      450.00
  volume of cell :     1615.07
      direct lattice vectors                 reciprocal lattice vectors
     8.428181476 -4.551010342  0.000000000     0.118649557  0.000000000  0.000000000
     0.000000000 10.079732985  0.000000000     0.053570403  0.099208977  0.000000000
     0.000000000  0.000000000 19.011135740     0.000000000  0.000000000  0.052600750

  length of vectors
     9.578410000 10.079732985 19.011135740     0.118649557  0.112748434  0.052600750


 
 k-points in units of 2pi/SCALE and weight: gamma-point-only calculation. no periodi
   0.00000000  0.00000000  0.00000000       1.000
 
 k-points in reciprocal lattice and weights: gamma-point-only calculation. no periodi
   0.00000000  0.00000000  0.00000000       1.000
 
 position of ions in fractional coordinates (direct lattice) 
   0.64527023  0.91524316  0.10295923
   0.58263032  0.78996333  0.25739808
   0.51999040  0.66468351  0.41183694
   0.33281687  0.29033643  0.05147962
   0.27017695  0.16505661  0.20591847
   0.20753704  0.03977678  0.36035732
   0.02036350  0.66542971  0.00000000
   0.95772359  0.54014988  0.15443885
   0.89508368  0.41487006  0.30887770
   0.66182007  0.68413684  0.06215556
   0.59918016  0.55885702  0.21659441
   0.53654024  0.43357719  0.37103327
   0.34936671  0.05923012  0.01067595
   0.28672679  0.93395029  0.16511480
   0.22408688  0.80867046  0.31955365
   0.16144697  0.68339064  0.47399250
   0.97427343  0.30904357  0.11363518
   0.91163352  0.18376374  0.26807403
   0.90947623  0.91524316  0.10295923
   0.84683632  0.78996333  0.25739808
   0.78419640  0.66468351  0.41183694
   0.53438295  0.16505661  0.20591847
   0.47174304  0.03977678  0.36035732
   0.28456951  0.66542971  0.00000000
   0.22192959  0.54014988  0.15443885
   0.15928968  0.41487006  0.30887770
   0.09664977  0.28959023  0.46331655
   0.82518168  0.67443006  0.15301029
   0.76254177  0.54915023  0.30744914
   0.69990185  0.42387040  0.46188799
   0.51272831  0.04952333  0.10153067
   0.45008840  0.92424350  0.25596953
   0.38744849  0.79896368  0.41040838
   0.20027495  0.42461661  0.05005106
   0.13763504  0.29933678  0.20448991
   0.07499513  0.17405695  0.35892876
   0.86674764  0.09399199  0.05052930
   0.80410773  0.96871216  0.20496815
   0.74146782  0.84343234  0.35940701
   0.49165437  0.34380544  0.15348854
   0.42901446  0.21852561  0.30792739
   0.36637454  0.09324579  0.46236624
   0.17920101  0.71889871  0.10200892
   0.11656109  0.59361889  0.25644777
   0.05392118  0.46833906  0.41088662
   0.48875168  0.67443006  0.15301029
   0.42611177  0.54915023  0.30744914
   0.36347185  0.42387040  0.46188799
   0.17629831  0.04952333  0.10153067
   0.11365840  0.92424350  0.25596953
   0.05101849  0.79896368  0.41040838
   0.86384495  0.42461661  0.05005106
   0.80120504  0.29933678  0.20448991
   0.73856513  0.17405695  0.35892876
 
 position of ions in cartesian coordinates  (Angst):
   5.43845459  6.28877517  1.95737197
   4.91051405  5.31106287  4.89342993
   4.38257349  4.33335057  7.82948789
   2.80504095  1.41186073  0.97868599
   2.27710040  0.43414842  3.91474395
   1.74915984 -0.54356387  6.85080191
   0.17162732  6.61467927  0.00000000
   8.07186824  1.08595663  2.93605796
   7.54392768  0.10824433  5.87211592
   5.57793965  3.88396669  1.18164785
   5.04999910  2.90625440  4.11770581
   4.52205855  1.92854209  7.05376376
   2.94452602 -0.99294775  0.20296186
   2.41658546  8.10907293  3.13901982
   1.88864491  7.13136063  6.07507778
   1.36070435  6.15364834  9.01113574
   8.21135330 -1.31885185  2.16033383
   7.68341275 -2.29656415  5.09639179
   7.66523071  5.08637093  1.95737197
   7.13729016  4.10865863  4.89342993
   6.60934961  3.13094633  7.82948789
   4.50387651 -0.76825581  3.91474395
   3.97593596 -1.74596811  6.85080191
   2.39840343  5.41227503  0.00000000
   1.87046288  4.43456273  2.93605796
   1.34252232  3.45685043  5.87211592
   0.81458177  2.47913813  8.80817388
   6.95478093  3.04266452  2.90889943
   6.42684038  2.06495223  5.84495739
   5.89889982  1.08723993  8.78101535
   4.32136729 -1.83424991  1.93021344
   3.79342674  7.26777077  4.86627140
   3.26548619  6.29005846  7.80232936
   1.68795365  3.36856863  0.95152746
   1.16001309  2.39085632  3.88758542
   0.63207254  1.41314402  6.82364338
   7.30510645 -2.99716334  0.96061944
   6.77716589  6.10485735  3.89667740
   6.24922534  5.12714504  6.83273536
   4.14375225  1.22794291  2.91799141
   3.61581170  0.25023060  5.85404937
   3.08787114 -0.72748170  8.79010733
   1.51033861  6.43076144  1.93930542
   0.98239805  5.45304914  4.87536338
   0.45445750  4.47533685  7.81142134
   4.11928784  4.57376093  2.90889943
   3.59134728  3.59604864  5.84495739
   3.06340673  2.61833633  8.78101535
   1.48587419 -0.30315350  1.93021344
   0.95793365  8.79886718  4.86627140
   0.42999309  7.82115487  7.80232936
   7.28064203  0.34865469  0.95152746
   6.75270148 -0.62905761  3.88758542
   6.22476092 -1.60676991  6.82364338
 


--------------------------------------------------------------------------------------------------------


 use parallel FFT for orbitals z direction half grid
 k-point   1 :   0.0000 0.0000 0.0000  plane waves:   17472

 maximum and minimum number of plane-waves per node :      2913     2910

 maximum number of plane-waves:     17472
 maximum index in each direction: 
   IXMAX=   16   IYMAX=   17   IZMAX=   32
   IXMIN=  -16   IYMIN=  -17   IZMIN=    0


 real space projection operators:
  total allocation   :       8733.48 KBytes
  max/ min on nodes  :       1559.42       1400.27


 parallel 3D FFT for wavefunctions:
    minimum data exchange during FFTs selected (reduces bandwidth)
 parallel 3D FFT for charge:
    minimum data exchange during FFTs selected (reduces bandwidth)


 total amount of memory used by VASP MPI-rank0    42830. kBytes
=======================================================================

   base      :      30000. kBytes
   nonlr-proj:       1916. kBytes
   fftplans  :       3097. kBytes
   grid      :       5606. kBytes
   one-center:         69. kBytes
   wavefun   :       2142. kBytes
 
     INWAV:  cpu time    0.0000: real time    0.0000
 Broyden mixing: mesh for mixing (old mesh)
   NGX = 33   NGY = 35   NGZ = 65
  (NGX  =100   NGY  =108   NGZ  =200)
  gives a total of  75075 points

 initial charge density was supplied:
 charge density of overlapping atoms calculated
 number of electron     594.0000000 magnetization 
 keeping initial charge density in first step


--------------------------------------------------------------------------------------------------------


 Maximum index for non-local projection operator          410
 Maximum index for augmentation-charges          505 (set IRDMAX)


--------------------------------------------------------------------------------------------------------


 First call to EWALD:  gamma=   0.151
 Maximum number of real-space cells 4x 3x 2
 Maximum number of reciprocal cells 2x 2x 4

    FEWALD:  cpu time    0.0028: real time    0.0029


--------------------------------------- Iteration      1(   1)  ---------------------------------------


    POTLOK:  cpu time    0.0380: real time    0.0383
    SETDIJ:  cpu time    0.0051: real time    0.0051
     EDDAV:  cpu time    1.1352: real time    1.1398
       DOS:  cpu time    0.0006: real time    0.0007
    --------------------------------------------
      LOOP:  cpu time    1.1790: real time    1.1839

 eigenvalue-minimisations  :   880
 total energy-change (2. order) : 0.6991449E+04  (-0.3786955E+05)
 number of electron     594.0000000 magnetization 
 augmentation part      594.0000000 magnetization 

 Free energy of the ion-electron system (eV)
  ---------------------------------------------------
  alpha Z        PSCENC =      1295.57565721
  Ewald energy   TEWEN  =    104914.63490696
  -Hartree energ DENC   =   -196409.75052771
  -exchange      EXHF   =         0.00000000
  -V(xc)+E(xc)   XCENC  =      2734.38775314
  PAW double counting   =     84547.15000061   -88231.13391551
  entropy T*S    EENTRO =        -0.30709279
  eigenvalues    EBANDS =     -3861.06190690
  atomic energy  EATOM  =    102001.95379032
  Solvation  Ediel_sol  =         0.00000000
  ---------------------------------------------------
  free energy    TOTEN  =      6991.44866533 eV

  energy without entropy =     6991.75575812  energy(sigma->0) =     6991.60221172


--------------------------------------------------------------------------------------------------------




--------------------------------------- Iteration      1(   2)  ---------------------------------------


     EDDAV:  cpu time    0.9797: real time    0.9851
       DOS:  cpu time    0.0006: real time    0.0006
    --------------------------------------------
      LOOP:  cpu time    0.9803: real time    0.9856

 eigenvalue-minimisations  :   760
 total energy-change (2. order) :-0.6586196E+04  (-0.6360377E+04)
 number of electron     594.0000000 magnetization 
 augmentation part      594.0000000 magnetization 

 Free energy of the ion-electron system (eV)
  ---------------------------------------------------
  alpha Z        PSCENC =      1295.57565721
  Ewald energy   TEWEN  =    104914.63490696
  -Hartree energ DENC   =   -196409.75052771
  -exchange      EXHF   =         0.00000000
  -V(xc)+E(xc)   XCENC  =      2734.38775314
  PAW double counting   =     84547.15000061   -88231.13391551
  entropy T*S    EENTRO =        -0.66086230
  eigenvalues    EBANDS =    -10446.90407944
  atomic energy  EATOM  =    102001.95379032
  Solvation  Ediel_sol  =         0.00000000
  ---------------------------------------------------
  free energy    TOTEN  =       405.25272328 eV

  energy without entropy =      405.91358558  energy(sigma->0) =      405.58315443


--------------------------------------------------------------------------------------------------------




--------------------------------------- Iteration      1(   3)  ---------------------------------------


     EDDAV:  cpu time    1.0566: real time    1.0619
       DOS:  cpu time    0.0006: real time    0.0006
    --------------------------------------------
      LOOP:  cpu time    1.0572: real time    1.0625

 eigenvalue-minimisations  :   808
 total energy-change (2. order) :-0.6613967E+03  (-0.6231012E+03)
 number of electron     594.0000000 magnetization 
 augmentation part      594.0000000 magnetization 

 Free energy of the ion-electron system (eV)
  ---------------------------------------------------
  alpha Z        PSCENC =      1295.57565721
  Ewald energy   TEWEN  =    104914.63490696
  -Hartree energ DENC   =   -196409.75052771
  -exchange      EXHF   =         0.00000000
  -V(xc)+E(xc)   XCENC  =      2734.38775314
  PAW double counting   =     84547.15000061   -88231.13391551
  entropy T*S    EENTRO =        -0.98960064
  eigenvalues    EBANDS =    -11107.97203337
  atomic energy  EATOM  =    102001.95379032
  Solvation  Ediel_sol  =         0.00000000
  ---------------------------------------------------
  free energy    TOTEN  =      -256.14396899 eV

  energy without entropy =     -255.15436835  energy(sigma->0) =     -255.64916867


--------------------------------------------------------------------------------------------------------




--------------------------------------- Iteration      1(   4)  ---------------------------------------


     EDDAV:  cpu time    1.0292: real time    1.0340
       DOS:  cpu time    0.0006: real time    0.0006
    --------------------------------------------
      LOOP:  cpu time    1.0299: real time    1.0346

 eigenvalue-minimisations  :   808
 total energy-change (2. order) :-0.4174377E+02  (-0.4124135E+02)
 number of electron     594.0000000 magnetization 
 augmentation part      594.0000000 magnetization 

 Free energy of the ion-electron system (eV)
  ---------------------------------------------------
  alpha Z        PSCENC =      1295.57565721
  Ewald energy   TEWEN  =    104914.63490696
  -Hartree energ DENC   =   -196409.75052771
  -exchange      EXHF   =         0.00000000
  -V(xc)+E(xc)   XCENC  =      2734.38775314
  PAW double counting   =     84547.15000061   -88231.13391551
  entropy T*S    EENTRO =        -1.04359405
  eigenvalues    EBANDS =    -11149.66180753
  atomic energy  EATOM  =    102001.95379032
  Solvation  Ediel_sol  =         0.00000000
  ---------------------------------------------------
  free energy    TOTEN  =      -297.88773657 eV

  energy without entropy =     -296.84414252  energy(sigma->0) =     -297.36593955


--------------------------------------------------------------------------------------------------------




--------------------------------------- Iteration      1(   5)  ---------------------------------------


     EDDAV:  cpu time    1.1450: real time    1.1477
       DOS:  cpu time    0.0007: real time    0.0007
    CHARGE:  cpu time    0.0287: real time    0.0288
    MIXING:  cpu time    0.0023: real time    0.0025
    --------------------------------------------
      LOOP:  cpu time    1.1768: real time    1.1798

 eigenvalue-minimisations  :   928
 total energy-change (2. order) :-0.1752041E+01  (-0.1748667E+01)
 number of electron     594.0000112 magnetization 
 augmentation part      214.6080180 magnetization 

 Broyden mixing:
  rms(total) = 0.70449E+01    rms(broyden)= 0.70314E+01
  rms(prec ) = 0.74917E+01
  weight for this iteration     100.00

 Free energy of the ion-electron system (eV)
  ---------------------------------------------------
  alpha Z        PSCENC =      1295.57565721
  Ewald energy   TEWEN  =    104914.63490696
  -Hartree energ DENC   =   -196409.75052771
  -exchange      EXHF   =         0.00000000
  -V(xc)+E(xc)   XCENC  =      2734.38775314
  PAW double counting   =     84547.15000061   -88231.13391551
  entropy T*S    EENTRO =        -1.04558134
  eigenvalues    EBANDS =    -11151.41186133
  atomic energy  EATOM  =    102001.95379032
  Solvation  Ediel_sol  =         0.00000000
  ---------------------------------------------------
  free energy    TOTEN  =      -299.63977765 eV

  energy without entropy =     -298.59419631  energy(sigma->0) =     -299.11698698


--------------------------------------------------------------------------------------------------------




--------------------------------------- Iteration      1(   6)  ---------------------------------------


    POTLOK:  cpu time    0.0362: real time    0.0363
    SETDIJ:  cpu time    0.0042: real time    0.0060
     EDDAV:  cpu time    1.0786: real time    1.0811
       DOS:  cpu time    0.0010: real time    0.0010
    CHARGE:  cpu time    0.0272: real time    0.0273
    MIXING:  cpu time    0.0018: real time    0.0018
    --------------------------------------------
      LOOP:  cpu time    1.1490: real time    1.1535

 eigenvalue-minimisations  :   864
 total energy-change (2. order) :-0.7271960E+02  (-0.7377643E+02)
 number of electron     594.0000157 magnetization 
 augmentation part      266.2455040 magnetization 

 Broyden mixing:
  rms(total) = 0.13810E+02    rms(broyden)= 0.13807E+02
  rms(prec ) = 0.14492E+02
  weight for this iteration     100.00

 eigenvalues of (default mixing * dielectric matrix)
  average eigenvalue GAMMA=   0.2262
  0.2262

 Free energy of the ion-electron system (eV)
  ---------------------------------------------------
  alpha Z        PSCENC =      1295.57565721
  Ewald energy   TEWEN  =    104914.63490696
  -Hartree energ DENC   =   -194396.30297646
  -exchange      EXHF   =         0.00000000
  -V(xc)+E(xc)   XCENC  =      2676.73358803
  PAW double counting   =     85644.22495614   -89147.72748404
  entropy T*S    EENTRO =        -0.60725994
  eigenvalues    EBANDS =    -13360.84456086
  atomic energy  EATOM  =    102001.95379032
  Solvation  Ediel_sol  =         0.00000000
  ---------------------------------------------------
  free energy    TOTEN  =      -372.35938264 eV

  energy without entropy =     -371.75212270  energy(sigma->0) =     -372.05575267


--------------------------------------------------------------------------------------------------------




--------------------------------------- Iteration      1(   7)  ---------------------------------------


    POTLOK:  cpu time    0.0356: real time    0.0357
    SETDIJ:  cpu time    0.0046: real time    0.0046
     EDDAV:  cpu time    1.0931: real time    1.0972
       DOS:  cpu time    0.0005: real time    0.0005
    CHARGE:  cpu time    0.0283: real time    0.0283
    MIXING:  cpu time    0.0015: real time    0.0015
    --------------------------------------------
      LOOP:  cpu time    1.1636: real time    1.1678

 eigenvalue-minimisations  :   848
 total energy-change (2. order) : 0.9529599E+02  (-0.1349557E+02)
 number of electron     594.0000149 magnetization 
 augmentation part      249.3532423 magnetization 

 Broyden mixing:
  rms(total) = 0.56029E+01    rms(broyden)= 0.56017E+01
  rms(prec ) = 0.59682E+01
  weight for this iteration     100.00

 eigenvalues of (default mixing * dielectric matrix)
  average eigenvalue GAMMA=   0.5227
  0.5227  0.5227

 Free energy of the ion-electron system (eV)
  ---------------------------------------------------
  alpha Z        PSCENC =      1295.57565721
  Ewald energy   TEWEN  =    104914.63490696
  -Hartree energ DENC   =   -195318.32255784
  -exchange      EXHF   =         0.00000000
  -V(xc)+E(xc)   XCENC  =      2699.90671751
  PAW double counting   =     88788.76671984   -92405.73587126
  entropy T*S    EENTRO =        -0.67471774
  eigenvalues    EBANDS =    -12253.16804040
  atomic energy  EATOM  =    102001.95379032
  Solvation  Ediel_sol  =         0.00000000
  ---------------------------------------------------
  free energy    TOTEN  =      -277.06339541 eV

  energy without entropy =     -276.38867767  energy(sigma->0) =     -276.72603654


--------------------------------------------------------------------------------------------------------




--------------------------------------- Iteration      1(   8)  ---------------------------------------


    POTLOK:  cpu time    0.0368: real time    0.0391
    SETDIJ:  cpu time    0.0041: real time    0.0059
     EDDAV:  cpu time    1.2400: real time    1.2429
       DOS:  cpu time    0.0005: real time    0.0005
    CHARGE:  cpu time    0.0270: real time    0.0271
    MIXING:  cpu time    0.0014: real time    0.0014
    --------------------------------------------
      LOOP:  cpu time    1.3099: real time    1.3170

 eigenvalue-minimisations  :  1032
 total energy-change (2. order) :-0.5529734E+02  (-0.1216429E+02)
 number of electron     594.0000113 magnetization 
 augmentation part      227.9867864 magnetization 

 Broyden mixing:
  rms(total) = 0.13165E+02    rms(broyden)= 0.13163E+02
  rms(prec ) = 0.16609E+02
  weight for this iteration     100.00

 eigenvalues of (default mixing * dielectric matrix)
  average eigenvalue GAMMA=   0.4134
  0.6979  0.4506  0.0916

 Free energy of the ion-electron system (eV)
  ---------------------------------------------------
  alpha Z        PSCENC =      1295.57565721
  Ewald energy   TEWEN  =    104914.63490696
  -Hartree energ DENC   =   -195835.67499971
  -exchange      EXHF   =         0.00000000
  -V(xc)+E(xc)   XCENC  =      2714.65184579
  PAW double counting   =     92693.71114034   -96383.50392681
  entropy T*S    EENTRO =        -0.76765375
  eigenvalues    EBANDS =    -11732.94149878
  atomic energy  EATOM  =    102001.95379032
  Solvation  Ediel_sol  =         0.00000000
  ---------------------------------------------------
  free energy    TOTEN  =      -332.36073843 eV

  energy without entropy =     -331.59308469  energy(sigma->0) =     -331.97691156


--------------------------------------------------------------------------------------------------------




--------------------------------------- Iteration      1(   9)  ---------------------------------------


    POTLOK:  cpu time    0.0355: real time    0.0356
    SETDIJ:  cpu time    0.0046: real time    0.0046
     EDDAV:  cpu time    1.1208: real time    1.1235
       DOS:  cpu time    0.0006: real time    0.0005
    CHARGE:  cpu time    0.0274: real time    0.0274
    MIXING:  cpu time    0.0015: real time    0.0015
    --------------------------------------------
      LOOP:  cpu time    1.1903: real time    1.1932

 eigenvalue-minimisations  :   912
 total energy-change (2. order) : 0.5319698E+02  (-0.9609904E+01)
 number of electron     594.0000096 magnetization 
 augmentation part      230.4210626 magnetization 

 Broyden mixing:
  rms(total) = 0.53760E+01    rms(broyden)= 0.53689E+01
  rms(prec ) = 0.60854E+01
  weight for this iteration     100.00

 eigenvalues of (default mixing * dielectric matrix)
  average eigenvalue GAMMA=   0.4286
  0.9906  0.3197  0.3197  0.0845

 Free energy of the ion-electron system (eV)
  ---------------------------------------------------
  alpha Z        PSCENC =      1295.57565721
  Ewald energy   TEWEN  =    104914.63490696
  -Hartree energ DENC   =   -195931.90967430
  -exchange      EXHF   =         0.00000000
  -V(xc)+E(xc)   XCENC  =      2715.34675459
  PAW double counting   =     93874.24127267   -97577.71127303
  entropy T*S    EENTRO =        -1.14529668
  eigenvalues    EBANDS =    -11570.14989265
  atomic energy  EATOM  =    102001.95379032
  Solvation  Ediel_sol  =         0.00000000
  ---------------------------------------------------
  free energy    TOTEN  =      -279.16375492 eV

  energy without entropy =     -278.01845824  energy(sigma->0) =     -278.59110658


--------------------------------------------------------------------------------------------------------




--------------------------------------- Iteration      1(  10)  ---------------------------------------


    POTLOK:  cpu time    0.0358: real time    0.0359
    SETDIJ:  cpu time    0.0045: real time    0.0045
     EDDAV:  cpu time    1.2514: real time    1.2543
       DOS:  cpu time    0.0005: real time    0.0005
    CHARGE:  cpu time    0.0275: real time    0.0276
    MIXING:  cpu time    0.0016: real time    0.0016
    --------------------------------------------
      LOOP:  cpu time    1.3212: real time    1.3244

 eigenvalue-minimisations  :  1048
 total energy-change (2. order) : 0.1736735E+01  (-0.4511638E+01)
 number of electron     594.0000081 magnetization 
 augmentation part      229.1939065 magnetization 

 Broyden mixing:
  rms(total) = 0.80092E+01    rms(broyden)= 0.80067E+01
  rms(prec ) = 0.95623E+01
  weight for this iteration     100.00

 eigenvalues of (default mixing * dielectric matrix)
  average eigenvalue GAMMA=   0.4158
  1.2023  0.3521  0.3521  0.0863  0.0863

 Free energy of the ion-electron system (eV)
  ---------------------------------------------------
  alpha Z        PSCENC =      1295.57565721
  Ewald energy   TEWEN  =    104914.63490696
  -Hartree energ DENC   =   -195862.52566811
  -exchange      EXHF   =         0.00000000
  -V(xc)+E(xc)   XCENC  =      2714.97727713
  PAW double counting   =     95150.66674271   -98865.99695493
  entropy T*S    EENTRO =        -1.01935065
  eigenvalues    EBANDS =    -11625.69342032
  atomic energy  EATOM  =    102001.95379032
  Solvation  Ediel_sol  =         0.00000000
  ---------------------------------------------------
  free energy    TOTEN  =      -277.42701968 eV

  energy without entropy =     -276.40766903  energy(sigma->0) =     -276.91734436


--------------------------------------------------------------------------------------------------------




--------------------------------------- Iteration      1(  11)  ---------------------------------------


    POTLOK:  cpu time    0.0356: real time    0.0356
    SETDIJ:  cpu time    0.0045: real time    0.0045
     EDDAV:  cpu time    1.1679: real time    1.1707
       DOS:  cpu time    0.0011: real time    0.0011
    CHARGE:  cpu time    0.0275: real time    0.0276
    MIXING:  cpu time    0.0016: real time    0.0016
    --------------------------------------------
      LOOP:  cpu time    1.2382: real time    1.2412

 eigenvalue-minimisations  :   960
 total energy-change (2. order) : 0.1001971E+01  (-0.4586842E+01)
 number of electron     594.0000109 magnetization 
 augmentation part      230.2473970 magnetization 

 Broyden mixing:
  rms(total) = 0.59814E+01    rms(broyden)= 0.59800E+01
  rms(prec ) = 0.69286E+01
  weight for this iteration     100.00

 eigenvalues of (default mixing * dielectric matrix)
  average eigenvalue GAMMA=   0.5076
  1.9169  0.4187  0.4187  0.1070  0.1070  0.0776

 Free energy of the ion-electron system (eV)
  ---------------------------------------------------
  alpha Z        PSCENC =      1295.57565721
  Ewald energy   TEWEN  =    104914.63490696
  -Hartree energ DENC   =   -195871.92807129
  -exchange      EXHF   =         0.00000000
  -V(xc)+E(xc)   XCENC  =      2713.82657237
  PAW double counting   =     95932.62163717   -99652.74942596
  entropy T*S    EENTRO =        -0.98514212
  eigenvalues    EBANDS =    -11609.37497317
  atomic energy  EATOM  =    102001.95379032
  Solvation  Ediel_sol  =         0.00000000
  ---------------------------------------------------
  free energy    TOTEN  =      -276.42504850 eV

  energy without entropy =     -275.43990639  energy(sigma->0) =     -275.93247745


--------------------------------------------------------------------------------------------------------




--------------------------------------- Iteration      1(  12)  ---------------------------------------


    POTLOK:  cpu time    0.0358: real time    0.0359
    SETDIJ:  cpu time    0.0045: real time    0.0045
     EDDAV:  cpu time    1.2380: real time    1.2424
       DOS:  cpu time    0.0005: real time    0.0005
    CHARGE:  cpu time    0.0281: real time    0.0282
    MIXING:  cpu time    0.0018: real time    0.0018
    --------------------------------------------
      LOOP:  cpu time    1.3088: real time    1.3134

 eigenvalue-minimisations  :  1000
 total energy-change (2. order) : 0.3788634E+01  (-0.4154030E+01)
 number of electron     594.0000122 magnetization 
 augmentation part      235.3965265 magnetization 

 Broyden mixing:
  rms(total) = 0.35876E+01    rms(broyden)= 0.35862E+01
  rms(prec ) = 0.41101E+01
  weight for this iteration     100.00

 eigenvalues of (default mixing * dielectric matrix)
  average eigenvalue GAMMA=   0.4550
  1.9131  0.4163  0.4163  0.1507  0.1134  0.0878  0.0878

 Free energy of the ion-electron system (eV)
  ---------------------------------------------------
  alpha Z        PSCENC =      1295.57565721
  Ewald energy   TEWEN  =    104914.63490696
  -Hartree energ DENC   =   -195785.40342707
  -exchange      EXHF   =         0.00000000
  -V(xc)+E(xc)   XCENC  =      2710.40229161
  PAW double counting   =     98048.20904718  -101781.61648463
  entropy T*S    EENTRO =        -0.69006995
  eigenvalues    EBANDS =    -11675.70212607
  atomic energy  EATOM  =    102001.95379032
  Solvation  Ediel_sol  =         0.00000000
  ---------------------------------------------------
  free energy    TOTEN  =      -272.63641445 eV

  energy without entropy =     -271.94634450  energy(sigma->0) =     -272.29137947


--------------------------------------------------------------------------------------------------------




--------------------------------------- Iteration      1(  13)  ---------------------------------------


    POTLOK:  cpu time    0.0363: real time    0.0385
    SETDIJ:  cpu time    0.0046: real time    0.0046
     EDDAV:  cpu time    1.1743: real time    1.1771
       DOS:  cpu time    0.0005: real time    0.0005
    CHARGE:  cpu time    0.0273: real time    0.0274
    MIXING:  cpu time    0.0018: real time    0.0018
    --------------------------------------------
      LOOP:  cpu time    1.2449: real time    1.2500

 eigenvalue-minimisations  :   968
 total energy-change (2. order) : 0.7524230E+01  (-0.1005495E+01)
 number of electron     594.0000119 magnetization 
 augmentation part      236.1753520 magnetization 

 Broyden mixing:
  rms(total) = 0.21487E+01    rms(broyden)= 0.21473E+01
  rms(prec ) = 0.24807E+01
  weight for this iteration     100.00

 eigenvalues of (default mixing * dielectric matrix)
  average eigenvalue GAMMA=   0.4650
  1.8529  0.5505  0.3991  0.3991  0.2235  0.1043  0.1043  0.0861

 Free energy of the ion-electron system (eV)
  ---------------------------------------------------
  alpha Z        PSCENC =      1295.57565721
  Ewald energy   TEWEN  =    104914.63490696
  -Hartree energ DENC   =   -195787.84869243
  -exchange      EXHF   =         0.00000000
  -V(xc)+E(xc)   XCENC  =      2711.26033933
  PAW double counting   =     98085.84954131  -101822.49992243
  entropy T*S    EENTRO =        -0.76274702
  eigenvalues    EBANDS =    -11663.27505725
  atomic energy  EATOM  =    102001.95379032
  Solvation  Ediel_sol  =         0.00000000
  ---------------------------------------------------
  free energy    TOTEN  =      -265.11218401 eV

  energy without entropy =     -264.34943698  energy(sigma->0) =     -264.73081050


--------------------------------------------------------------------------------------------------------




--------------------------------------- Iteration      1(  14)  ---------------------------------------


    POTLOK:  cpu time    0.0355: real time    0.0356
    SETDIJ:  cpu time    0.0045: real time    0.0045
     EDDAV:  cpu time    1.2005: real time    1.2034
       DOS:  cpu time    0.0005: real time    0.0005
    CHARGE:  cpu time    0.0274: real time    0.0275
    MIXING:  cpu time    0.0019: real time    0.0019
    --------------------------------------------
      LOOP:  cpu time    1.2704: real time    1.2734

 eigenvalue-minimisations  :   992
 total energy-change (2. order) : 0.9621278E+00  (-0.5926113E+00)
 number of electron     594.0000118 magnetization 
 augmentation part      234.1522079 magnetization 

 Broyden mixing:
  rms(total) = 0.24850E+01    rms(broyden)= 0.24838E+01
  rms(prec ) = 0.28379E+01
  weight for this iteration     100.00

 eigenvalues of (default mixing * dielectric matrix)
  average eigenvalue GAMMA=   0.4306
  1.8867  0.4549  0.4023  0.4023  0.2803  0.1596  0.1014  0.1014  0.0870

 Free energy of the ion-electron system (eV)
  ---------------------------------------------------
  alpha Z        PSCENC =      1295.57565721
  Ewald energy   TEWEN  =    104914.63490696
  -Hartree energ DENC   =   -195857.02698920
  -exchange      EXHF   =         0.00000000
  -V(xc)+E(xc)   XCENC  =      2713.00348958
  PAW double counting   =     97984.91841743  -101723.79079835
  entropy T*S    EENTRO =        -0.91232079
  eigenvalues    EBANDS =    -11592.50620934
  atomic energy  EATOM  =    102001.95379032
  Solvation  Ediel_sol  =         0.00000000
  ---------------------------------------------------
  free energy    TOTEN  =      -264.15005619 eV

  energy without entropy =     -263.23773540  energy(sigma->0) =     -263.69389579


--------------------------------------------------------------------------------------------------------




--------------------------------------- Iteration      1(  15)  ---------------------------------------


    POTLOK:  cpu time    0.0379: real time    0.0380
    SETDIJ:  cpu time    0.0048: real time    0.0048
     EDDAV:  cpu time    1.1294: real time    1.1321
       DOS:  cpu time    0.0005: real time    0.0005
    CHARGE:  cpu time    0.0269: real time    0.0270
    MIXING:  cpu time    0.0019: real time    0.0019
    --------------------------------------------
      LOOP:  cpu time    1.2014: real time    1.2043

 eigenvalue-minimisations  :   920
 total energy-change (2. order) : 0.6547955E+00  (-0.7983697E+00)
 number of electron     594.0000122 magnetization 
 augmentation part      235.0588348 magnetization 

 Broyden mixing:
  rms(total) = 0.17058E+01    rms(broyden)= 0.17042E+01
  rms(prec ) = 0.20525E+01
  weight for this iteration     100.00

 eigenvalues of (default mixing * dielectric matrix)
  average eigenvalue GAMMA=   0.4478
  1.9213  0.5845  0.5845  0.4074  0.4074  0.1621  0.1025  0.1025  0.0865  0.1188

 Free energy of the ion-electron system (eV)
  ---------------------------------------------------
  alpha Z        PSCENC =      1295.57565721
  Ewald energy   TEWEN  =    104914.63490696
  -Hartree energ DENC   =   -195856.73973805
  -exchange      EXHF   =         0.00000000
  -V(xc)+E(xc)   XCENC  =      2712.75858701
  PAW double counting   =     98043.65602082  -101782.09001808
  entropy T*S    EENTRO =        -0.70309496
  eigenvalues    EBANDS =    -11592.54137192
  atomic energy  EATOM  =    102001.95379032
  Solvation  Ediel_sol  =         0.00000000
  ---------------------------------------------------
  free energy    TOTEN  =      -263.49526070 eV

  energy without entropy =     -262.79216574  energy(sigma->0) =     -263.14371322


--------------------------------------------------------------------------------------------------------




--------------------------------------- Iteration      1(  16)  ---------------------------------------


    POTLOK:  cpu time    0.0362: real time    0.0363
    SETDIJ:  cpu time    0.0045: real time    0.0045
     EDDAV:  cpu time    1.1824: real time    1.1852
       DOS:  cpu time    0.0005: real time    0.0005
    CHARGE:  cpu time    0.0273: real time    0.0274
    MIXING:  cpu time    0.0020: real time    0.0020
    --------------------------------------------
      LOOP:  cpu time    1.2530: real time    1.2559

 eigenvalue-minimisations  :   976
 total energy-change (2. order) : 0.7904534E+00  (-0.7245058E-01)
 number of electron     594.0000125 magnetization 
 augmentation part      234.6971814 magnetization 

 Broyden mixing:
  rms(total) = 0.13837E+01    rms(broyden)= 0.13835E+01
  rms(prec ) = 0.16233E+01
  weight for this iteration     100.00

 eigenvalues of (default mixing * dielectric matrix)
  average eigenvalue GAMMA=   0.4578
  1.9522  0.7431  0.7431  0.4050  0.4050  0.1878  0.1878  0.1034  0.1034  0.0871
  0.1171

 Free energy of the ion-electron system (eV)
  ---------------------------------------------------
  alpha Z        PSCENC =      1295.57565721
  Ewald energy   TEWEN  =    104914.63490696
  -Hartree energ DENC   =   -195865.01263646
  -exchange      EXHF   =         0.00000000
  -V(xc)+E(xc)   XCENC  =      2713.00351177
  PAW double counting   =     97973.19159522  -101710.49337816
  entropy T*S    EENTRO =        -0.71617750
  eigenvalues    EBANDS =    -11584.84207669
  atomic energy  EATOM  =    102001.95379032
  Solvation  Ediel_sol  =         0.00000000
  ---------------------------------------------------
  free energy    TOTEN  =      -262.70480732 eV

  energy without entropy =     -261.98862982  energy(sigma->0) =     -262.34671857


--------------------------------------------------------------------------------------------------------




--------------------------------------- Iteration      1(  17)  ---------------------------------------


    POTLOK:  cpu time    0.0363: real time    0.0364
    SETDIJ:  cpu time    0.0045: real time    0.0045
     EDDAV:  cpu time    1.1765: real time    1.1793
       DOS:  cpu time    0.0005: real time    0.0005
    CHARGE:  cpu time    0.0273: real time    0.0274
    MIXING:  cpu time    0.0021: real time    0.0021
    --------------------------------------------
      LOOP:  cpu time    1.2472: real time    1.2501

 eigenvalue-minimisations  :   968
 total energy-change (2. order) : 0.3555478E+00  (-0.5763676E-01)
 number of electron     594.0000128 magnetization 
 augmentation part      234.5855997 magnetization 

 Broyden mixing:
  rms(total) = 0.11941E+01    rms(broyden)= 0.11937E+01
  rms(prec ) = 0.13833E+01
  weight for this iteration     100.00

 eigenvalues of (default mixing * dielectric matrix)
  average eigenvalue GAMMA=   0.4989
  2.0332  0.9763  0.9763  0.4392  0.4029  0.4029  0.1859  0.1622  0.1031  0.1031
  0.0869  0.1148

 Free energy of the ion-electron system (eV)
  ---------------------------------------------------
  alpha Z        PSCENC =      1295.57565721
  Ewald energy   TEWEN  =    104914.63490696
  -Hartree energ DENC   =   -195868.42822172
  -exchange      EXHF   =         0.00000000
  -V(xc)+E(xc)   XCENC  =      2713.11777204
  PAW double counting   =     97927.77271963  -101663.50228958
  entropy T*S    EENTRO =        -0.71981019
  eigenvalues    EBANDS =    -11582.75378419
  atomic energy  EATOM  =    102001.95379032
  Solvation  Ediel_sol  =         0.00000000
  ---------------------------------------------------
  free energy    TOTEN  =      -262.34925953 eV

  energy without entropy =     -261.62944934  energy(sigma->0) =     -261.98935444


--------------------------------------------------------------------------------------------------------




--------------------------------------- Iteration      1(  18)  ---------------------------------------


    POTLOK:  cpu time    0.0364: real time    0.0365
    SETDIJ:  cpu time    0.0046: real time    0.0046
     EDDAV:  cpu time    1.1686: real time    1.1714
       DOS:  cpu time    0.0005: real time    0.0005
    CHARGE:  cpu time    0.0275: real time    0.0276
    MIXING:  cpu time    0.0022: real time    0.0022
    --------------------------------------------
      LOOP:  cpu time    1.2398: real time    1.2428

 eigenvalue-minimisations  :   968
 total energy-change (2. order) : 0.3331863E+00  (-0.5186346E-01)
 number of electron     594.0000128 magnetization 
 augmentation part      234.6589682 magnetization 

 Broyden mixing:
  rms(total) = 0.90793E+00    rms(broyden)= 0.90706E+00
  rms(prec ) = 0.10249E+01
  weight for this iteration     100.00

 eigenvalues of (default mixing * dielectric matrix)
  average eigenvalue GAMMA=   0.4907
  2.0419  1.0587  1.0587  0.4273  0.4048  0.4048  0.2462  0.1734  0.0870  0.1031
  0.1031  0.1518  0.1182

 Free energy of the ion-electron system (eV)
  ---------------------------------------------------
  alpha Z        PSCENC =      1295.57565721
  Ewald energy   TEWEN  =    104914.63490696
  -Hartree energ DENC   =   -195868.05922694
  -exchange      EXHF   =         0.00000000
  -V(xc)+E(xc)   XCENC  =      2713.09717871
  PAW double counting   =     97928.42597712  -101661.59988887
  entropy T*S    EENTRO =        -0.78930447
  eigenvalues    EBANDS =    -11585.25516327
  atomic energy  EATOM  =    102001.95379032
  Solvation  Ediel_sol  =         0.00000000
  ---------------------------------------------------
  free energy    TOTEN  =      -262.01607324 eV

  energy without entropy =     -261.22676877  energy(sigma->0) =     -261.62142101


--------------------------------------------------------------------------------------------------------




--------------------------------------- Iteration      1(  19)  ---------------------------------------


    POTLOK:  cpu time    0.0363: real time    0.0364
    SETDIJ:  cpu time    0.0045: real time    0.0045
     EDDAV:  cpu time    1.1831: real time    1.1859
       DOS:  cpu time    0.0005: real time    0.0005
    CHARGE:  cpu time    0.0274: real time    0.0275
    MIXING:  cpu time    0.0022: real time    0.0022
    --------------------------------------------
      LOOP:  cpu time    1.2541: real time    1.2571

 eigenvalue-minimisations  :   984
 total energy-change (2. order) : 0.8641913E-01  (-0.4294746E-01)
 number of electron     594.0000127 magnetization 
 augmentation part      234.6508706 magnetization 

 Broyden mixing:
  rms(total) = 0.84015E+00    rms(broyden)= 0.83959E+00
  rms(prec ) = 0.95087E+00
  weight for this iteration     100.00

 eigenvalues of (default mixing * dielectric matrix)
  average eigenvalue GAMMA=   0.4978
  2.0340  1.1636  1.1636  0.4700  0.4700  0.4033  0.4033  0.1669  0.1669  0.1032
  0.1032  0.0869  0.1213  0.1131

 Free energy of the ion-electron system (eV)
  ---------------------------------------------------
  alpha Z        PSCENC =      1295.57565721
  Ewald energy   TEWEN  =    104914.63490696
  -Hartree energ DENC   =   -195874.53914784
  -exchange      EXHF   =         0.00000000
  -V(xc)+E(xc)   XCENC  =      2713.11622533
  PAW double counting   =     97863.72804182  -101595.54060430
  entropy T*S    EENTRO =        -0.77441154
  eigenvalues    EBANDS =    -11580.08411207
  atomic energy  EATOM  =    102001.95379032
  Solvation  Ediel_sol  =         0.00000000
  ---------------------------------------------------
  free energy    TOTEN  =      -261.92965411 eV

  energy without entropy =     -261.15524257  energy(sigma->0) =     -261.54244834


--------------------------------------------------------------------------------------------------------




--------------------------------------- Iteration      1(  20)  ---------------------------------------


    POTLOK:  cpu time    0.0360: real time    0.0361
    SETDIJ:  cpu time    0.0044: real time    0.0044
     EDDAV:  cpu time    1.1578: real time    1.1605
       DOS:  cpu time    0.0005: real time    0.0005
    CHARGE:  cpu time    0.0274: real time    0.0275
    MIXING:  cpu time    0.0023: real time    0.0023
    --------------------------------------------
      LOOP:  cpu time    1.2286: real time    1.2314

 eigenvalue-minimisations  :   952
 total energy-change (2. order) : 0.1305653E+00  (-0.1606554E-01)
 number of electron     594.0000128 magnetization 
 augmentation part      234.3981865 magnetization 

 Broyden mixing:
  rms(total) = 0.69825E+00    rms(broyden)= 0.69787E+00
  rms(prec ) = 0.78967E+00
  weight for this iteration     100.00

 eigenvalues of (default mixing * dielectric matrix)
  average eigenvalue GAMMA=   0.4950
  2.0299  1.2240  1.2240  0.5416  0.5416  0.3985  0.3985  0.2003  0.2003  0.1477
  0.1031  0.1031  0.0870  0.1177  0.1083

 Free energy of the ion-electron system (eV)
  ---------------------------------------------------
  alpha Z        PSCENC =      1295.57565721
  Ewald energy   TEWEN  =    104914.63490696
  -Hartree energ DENC   =   -195887.69907435
  -exchange      EXHF   =         0.00000000
  -V(xc)+E(xc)   XCENC  =      2713.25463628
  PAW double counting   =     97737.37819123  -101467.52042974
  entropy T*S    EENTRO =        -0.81179609
  eigenvalues    EBANDS =    -11568.56497059
  atomic energy  EATOM  =    102001.95379032
  Solvation  Ediel_sol  =         0.00000000
  ---------------------------------------------------
  free energy    TOTEN  =      -261.79908878 eV

  energy without entropy =     -260.98729269  energy(sigma->0) =     -261.39319074


--------------------------------------------------------------------------------------------------------




--------------------------------------- Iteration      1(  21)  ---------------------------------------


    POTLOK:  cpu time    0.0362: real time    0.0363
    SETDIJ:  cpu time    0.0044: real time    0.0044
     EDDAV:  cpu time    1.2242: real time    1.2296
       DOS:  cpu time    0.0005: real time    0.0005
    CHARGE:  cpu time    0.0278: real time    0.0279
    MIXING:  cpu time    0.0026: real time    0.0026
    --------------------------------------------
      LOOP:  cpu time    1.2958: real time    1.3013

 eigenvalue-minimisations  :   984
 total energy-change (2. order) : 0.4851281E-01  (-0.1356779E-01)
 number of electron     594.0000128 magnetization 
 augmentation part      234.2650086 magnetization 

 Broyden mixing:
  rms(total) = 0.66786E+00    rms(broyden)= 0.66751E+00
  rms(prec ) = 0.75880E+00
  weight for this iteration     100.00

 eigenvalues of (default mixing * dielectric matrix)
  average eigenvalue GAMMA=   0.5190
  2.0450  1.3040  1.3040  0.7316  0.7316  0.4038  0.4038  0.3954  0.1804  0.1593
  0.1031  0.1031  0.1392  0.0869  0.1169  0.0960

 Free energy of the ion-electron system (eV)
  ---------------------------------------------------
  alpha Z        PSCENC =      1295.57565721
  Ewald energy   TEWEN  =    104914.63490696
  -Hartree energ DENC   =   -195893.79423765
  -exchange      EXHF   =         0.00000000
  -V(xc)+E(xc)   XCENC  =      2713.34766532
  PAW double counting   =     97643.65424626  -101372.56955545
  entropy T*S    EENTRO =        -0.83352989
  eigenvalues    EBANDS =    -11563.71951905
  atomic energy  EATOM  =    102001.95379032
  Solvation  Ediel_sol  =         0.00000000
  ---------------------------------------------------
  free energy    TOTEN  =      -261.75057597 eV

  energy without entropy =     -260.91704608  energy(sigma->0) =     -261.33381103


--------------------------------------------------------------------------------------------------------




--------------------------------------- Iteration      1(  22)  ---------------------------------------


    POTLOK:  cpu time    0.0370: real time    0.0391
    SETDIJ:  cpu time    0.0040: real time    0.0058
     EDDAV:  cpu time    1.1829: real time    1.1857
       DOS:  cpu time    0.0005: real time    0.0005
    CHARGE:  cpu time    0.0272: real time    0.0272
    MIXING:  cpu time    0.0025: real time    0.0025
    --------------------------------------------
      LOOP:  cpu time    1.2541: real time    1.2608

 eigenvalue-minimisations  :   976
 total energy-change (2. order) : 0.5982598E-01  (-0.2328680E-01)
 number of electron     594.0000130 magnetization 
 augmentation part      234.5744525 magnetization 

 Broyden mixing:
  rms(total) = 0.47735E+00    rms(broyden)= 0.47675E+00
  rms(prec ) = 0.53075E+00
  weight for this iteration     100.00

 eigenvalues of (default mixing * dielectric matrix)
  average eigenvalue GAMMA=   0.5313
  2.0644  1.4023  1.4023  0.8744  0.8744  0.4045  0.4045  0.4281  0.2077  0.1760
  0.1598  0.1031  0.1031  0.1297  0.1164  0.0869  0.0949

 Free energy of the ion-electron system (eV)
  ---------------------------------------------------
  alpha Z        PSCENC =      1295.57565721
  Ewald energy   TEWEN  =    104914.63490696
  -Hartree energ DENC   =   -195894.77416611
  -exchange      EXHF   =         0.00000000
  -V(xc)+E(xc)   XCENC  =      2713.31889321
  PAW double counting   =     97545.87562127  -101273.35613336
  entropy T*S    EENTRO =        -0.79975056
  eigenvalues    EBANDS =    -11564.11956893
  atomic energy  EATOM  =    102001.95379032
  Solvation  Ediel_sol  =         0.00000000
  ---------------------------------------------------
  free energy    TOTEN  =      -261.69074999 eV

  energy without entropy =     -260.89099944  energy(sigma->0) =     -261.29087471


--------------------------------------------------------------------------------------------------------




--------------------------------------- Iteration      1(  23)  ---------------------------------------


    POTLOK:  cpu time    0.0366: real time    0.0366
    SETDIJ:  cpu time    0.0044: real time    0.0044
     EDDAV:  cpu time    1.2305: real time    1.2334
       DOS:  cpu time    0.0005: real time    0.0005
    CHARGE:  cpu time    0.0272: real time    0.0273
    MIXING:  cpu time    0.0026: real time    0.0026
    --------------------------------------------
      LOOP:  cpu time    1.3017: real time    1.3049

 eigenvalue-minimisations  :  1024
 total energy-change (2. order) : 0.4137471E-01  (-0.1665157E-01)
 number of electron     594.0000131 magnetization 
 augmentation part      234.4755318 magnetization 

 Broyden mixing:
  rms(total) = 0.34164E+00    rms(broyden)= 0.34084E+00
  rms(prec ) = 0.38679E+00
  weight for this iteration     100.00

 eigenvalues of (default mixing * dielectric matrix)
  average eigenvalue GAMMA=   0.5361
  2.0527  1.4916  1.4916  0.9314  0.9314  0.4857  0.4045  0.4045  0.3381  0.1748
  0.1748  0.1448  0.1031  0.1031  0.0869  0.1212  0.1151  0.0938

 Free energy of the ion-electron system (eV)
  ---------------------------------------------------
  alpha Z        PSCENC =      1295.57565721
  Ewald energy   TEWEN  =    104914.63490696
  -Hartree energ DENC   =   -195906.18576163
  -exchange      EXHF   =         0.00000000
  -V(xc)+E(xc)   XCENC  =      2713.44124723
  PAW double counting   =     97399.15795628  -101124.60289263
  entropy T*S    EENTRO =        -0.84175497
  eigenvalues    EBANDS =    -11554.78252404
  atomic energy  EATOM  =    102001.95379032
  Solvation  Ediel_sol  =         0.00000000
  ---------------------------------------------------
  free energy    TOTEN  =      -261.64937528 eV

  energy without entropy =     -260.80762031  energy(sigma->0) =     -261.22849780


--------------------------------------------------------------------------------------------------------




--------------------------------------- Iteration      1(  24)  ---------------------------------------


    POTLOK:  cpu time    0.0366: real time    0.0367
    SETDIJ:  cpu time    0.0044: real time    0.0044
     EDDAV:  cpu time    1.1819: real time    1.1848
       DOS:  cpu time    0.0005: real time    0.0005
    CHARGE:  cpu time    0.0273: real time    0.0274
    MIXING:  cpu time    0.0027: real time    0.0027
[...]
-64.870   0.080   0.019  11.834  -0.035  -0.007   0.024  -0.014
  0.080 -64.758   0.088  -0.035  11.784  -0.037   0.002   0.017
  0.019   0.088 -64.902  -0.007  -0.037  11.847   0.011   0.002
 11.834  -0.035  -0.007   4.992   0.009   0.003  -0.007   0.003
 -0.035  11.784  -0.037   0.009   5.005   0.011  -0.001  -0.004
 -0.007  -0.037  11.847   0.003   0.011   4.988  -0.003  -0.001
  0.024   0.002   0.011  -0.007  -0.001  -0.003 -10.145   0.072
 -0.014   0.017   0.002   0.003  -0.004  -0.001   0.072 -10.011
 -0.007  -0.012  -0.016   0.002   0.003   0.005  -0.031   0.025
  0.002   0.030  -0.006  -0.001  -0.009   0.001   0.081  -0.009
 -0.017   0.004   0.034   0.005  -0.001  -0.011  -0.018  -0.028
  0.024   0.002   0.011  -0.007  -0.001  -0.003 -10.697   0.071
 -0.014   0.016   0.002   0.003  -0.004  -0.001   0.071 -10.564
 -0.007  -0.012  -0.016   0.002   0.003   0.005  -0.030   0.024
  0.002   0.030  -0.006  -0.001  -0.009   0.001   0.080  -0.009
 -0.017   0.004   0.034   0.005  -0.001  -0.010  -0.017  -0.028
 -0.005   0.004  -0.008   0.000   0.001   0.002  -0.003  -0.017
 -0.010   0.009  -0.018   0.000   0.003   0.004  -0.007  -0.037
 total augmentation occupancy for first ion, spin component:           1
  1.995   0.000   0.000  -0.018   0.001   0.000  -0.000  -0.003   0.002   0.001   0.001   0.000   0.004  -0.001  -0.001  -0.000
  0.000   1.995   0.000   0.001  -0.017   0.001   0.001   0.001  -0.008  -0.009   0.000  -0.001  -0.001   0.007   0.008   0.000
  0.000   0.000   1.995   0.000   0.001  -0.019  -0.002   0.001   0.003  -0.003  -0.014   0.002  -0.001  -0.003   0.004   0.013
 -0.018   0.001   0.000   0.120  -0.013  -0.003   0.155   0.013   0.043   0.009   0.011  -0.142  -0.006  -0.044  -0.009  -0.006
  0.001  -0.017   0.001  -0.013   0.073  -0.012   0.023   0.019  -0.122  -0.183  -0.009  -0.023  -0.022   0.121   0.184   0.004
  0.000   0.001  -0.019  -0.003  -0.012   0.117  -0.046  -0.028  -0.059  -0.033  -0.268   0.057   0.015   0.056   0.020   0.244
 -0.000   0.001  -0.002   0.155   0.023  -0.046   2.925   0.190  -0.284   0.193  -0.221  -1.550   0.080   0.073   0.186  -0.010
 -0.003   0.001   0.001   0.013   0.019  -0.028   0.190   2.972   0.018  -0.162   0.366   0.076  -1.002  -0.022  -0.020  -0.192
  0.002  -0.008   0.003   0.043  -0.122  -0.059  -0.284   0.018   3.592  -0.050   0.096   0.064  -0.022  -1.564  -0.230  -0.189
  0.001  -0.009  -0.003   0.009  -0.183  -0.033   0.193  -0.162  -0.050   3.595   0.286   0.184  -0.030  -0.235  -1.782  -0.130
  0.001   0.000  -0.014   0.011  -0.009  -0.268  -0.221   0.366   0.096   0.286   3.819  -0.004  -0.188  -0.182  -0.125  -1.784
  0.000  -0.001   0.002  -0.142  -0.023   0.057  -1.550   0.076   0.064   0.184  -0.004   1.768  -0.240   0.073  -0.418   0.166
  0.004  -0.001  -0.001  -0.006  -0.022   0.015   0.080  -1.002  -0.022  -0.030  -0.188  -0.240   0.856   0.023   0.137   0.074
 -0.001   0.007  -0.003  -0.044   0.121   0.056   0.073  -0.022  -1.564  -0.235  -0.182   0.073   0.023   1.348   0.386   0.238
 -0.001   0.008   0.004  -0.009   0.184   0.020   0.186  -0.020  -0.230  -1.782  -0.125  -0.418   0.137   0.386   1.682   0.025
 -0.000   0.000   0.013  -0.006   0.004   0.244  -0.010  -0.192  -0.189  -0.130  -1.784   0.166   0.074   0.238   0.025   1.589
  0.013  -0.013   0.019   0.021   0.002   0.042   0.061   0.461   0.634   0.326   0.032  -0.059  -0.293  -0.493  -0.227  -0.049
 -0.006   0.006  -0.009  -0.001  -0.003  -0.002  -0.019  -0.069  -0.054  -0.038   0.007   0.008   0.024   0.022   0.005   0.001


------------------------ aborting loop because EDIFF is reached ----------------------------------------


    CHARGE:  cpu time    0.0278: real time    0.0279
    FORLOC:  cpu time    0.0116: real time    0.0117
    FORNL :  cpu time    0.2222: real time    0.2230
    STRESS:  cpu time    0.6654: real time    0.6671
    FORCOR:  cpu time    0.0445: real time    0.0448
    FORHAR:  cpu time    0.0181: real time    0.0182
    MIXING:  cpu time    0.0048: real time    0.0048
    OFIELD:  cpu time    0.0001: real time    0.0001

  FORCE on cell =-STRESS in cart. coord.  units (eV):
  Direction    XX          YY          ZZ          XY          YZ          ZX
  --------------------------------------------------------------------------------------
  Alpha Z  1295.57566  1295.57566  1295.57566
  Ewald  139969.75581141578.90883************  -998.41557  -557.11334  -430.31207
  Hartree167824.55106169148.93915************  -855.86952  -312.02675  -321.82353
  E(xc)   -3768.16849 -3767.62889 -3770.59569    -0.19307    -1.00745    -0.27722
  Local  ************************308038.50315  1851.68927   839.23372   742.11429
  n-local  -529.75225  -529.33204  -527.12169    -0.65371    -4.70722    -2.12713
  augment  4341.38444  4341.56705  4341.32234     0.88977    13.80918     5.58180
  Kinetic  8224.11789  8218.88641  8236.17739     0.27575    32.14168    11.93006
  Fock        0.00000     0.00000     0.00000     0.00000     0.00000     0.00000
  -------------------------------------------------------------------------------------
  Total     -27.30205   -28.05991   -30.94476    -2.27708    10.32983     5.08619
  in kB     -27.08413   -27.83593   -30.69776    -2.25890    10.24738     5.04560
  external pressure =      -28.54 kB  Pullay stress =        0.00 kB


 VOLUME and BASIS-vectors are now :
 -----------------------------------------------------------------------------
  energy-cutoff  :      450.00
  volume of cell :     1615.07
      direct lattice vectors                 reciprocal lattice vectors
     8.428181476 -4.551010342  0.000000000     0.118649557  0.000000000  0.000000000
     0.000000000 10.079732985  0.000000000     0.053570403  0.099208977  0.000000000
     0.000000000  0.000000000 19.011135740     0.000000000  0.000000000  0.052600750

  length of vectors
     9.578410000 10.079732985 19.011135740     0.118649557  0.112748434  0.052600750


 FORCES acting on ions
    electron-ion (+dipol)            ewald-force                    non-local-force                 convergence-correction
 -----------------------------------------------------------------------------------------------
   0.194E+03 -.473E+03 0.299E+04   -.192E+03 0.475E+03 -.299E+04   -.183E+01 -.167E+01 0.277E+01   0.434E-02 0.946E-02 0.185E-01
   0.176E+03 -.496E+03 -.680E+03   -.175E+03 0.498E+03 0.680E+03   -.416E+00 -.137E+01 0.255E+00   0.692E-02 -.276E-02 0.473E-04
   0.163E+02 -.532E+03 -.385E+04   -.180E+02 0.532E+03 0.384E+04   0.957E+00 0.962E-01 0.139E+01   0.987E-02 -.185E-01 -.219E-01
   -.234E+03 -.229E+03 0.377E+04   0.232E+03 0.229E+03 -.376E+04   0.218E+01 -.482E+00 -.331E+01   -.742E-02 0.365E-03 0.115E-01
   0.219E+03 -.412E+03 0.558E+03   -.218E+03 0.414E+03 -.558E+03   -.775E+00 -.186E+01 0.589E+00   -.216E-02 0.105E-01 -.546E-03
   0.393E+03 -.429E+03 -.297E+04   -.392E+03 0.430E+03 0.298E+04   -.717E-01 -.143E+01 -.327E+01   -.941E-03 0.178E-01 -.245E-01
   0.476E+03 -.276E+03 0.415E+04   -.472E+03 0.265E+03 -.414E+04   -.351E+01 0.984E+01 -.662E+01   0.113E-01 -.545E-02 0.105E-02
   0.474E+03 -.333E+03 0.168E+04   -.475E+03 0.334E+03 -.168E+04   0.123E+01 -.843E+00 0.260E+01   0.281E-03 -.625E-02 0.126E-01
   0.411E+03 -.199E+03 -.191E+04   -.414E+03 0.198E+03 0.191E+04   0.220E+01 0.256E+00 -.110E+01   -.649E-02 -.895E-02 -.130E-01
   0.187E+03 0.472E+03 0.398E+04   -.183E+03 -.464E+03 -.397E+04   -.389E+01 -.729E+01 -.909E+01   0.162E-03 0.743E-02 0.169E-01
   0.210E+03 0.510E+03 0.650E+03   -.211E+03 -.512E+03 -.650E+03   0.122E+01 0.203E+01 0.454E+00   -.245E-02 0.590E-02 0.203E-01
   0.178E+03 0.564E+03 -.283E+04   -.178E+03 -.566E+03 0.283E+04   -.165E-01 0.224E+01 -.298E+01   0.505E-02 0.124E-01 -.152E-01
   -.265E+03 0.626E+02 0.423E+04   0.266E+03 -.574E+02 -.422E+04   -.606E+00 -.520E+01 -.114E+02   -.318E-02 0.121E-02 0.894E-02
   0.129E+03 0.340E+03 0.166E+04   -.128E+03 -.341E+03 -.166E+04   -.571E+00 0.930E+00 0.182E+01   0.306E-02 0.247E-02 0.225E-02
   0.188E+03 0.352E+03 -.174E+04   -.188E+03 -.354E+03 0.175E+04   0.602E+00 0.127E+01 -.613E-01   0.370E-02 -.109E-01 -.269E-01
   0.441E+02 -.429E+02 -.426E+04   -.428E+02 0.450E+02 0.425E+04   -.126E+01 -.202E+01 0.122E+02   -.266E-02 -.115E-01 -.540E-02
   0.424E+03 0.430E+03 0.289E+04   -.426E+03 -.432E+03 -.289E+04   0.212E+01 0.230E+01 0.368E+01   -.654E-03 -.109E-01 0.159E-01
   0.356E+03 0.493E+03 -.874E+03   -.358E+03 -.494E+03 0.876E+03   0.187E+01 0.146E+01 -.189E+01   -.269E-02 0.356E-02 -.818E-02
   -.394E+03 -.400E+02 0.297E+04   0.393E+03 0.429E+02 -.298E+04   0.605E+00 -.237E+01 0.287E+01   0.667E-02 0.132E-01 0.161E-01
   -.489E+03 -.836E+02 -.678E+03   0.490E+03 0.850E+02 0.677E+03   -.782E+00 -.132E+01 0.291E+00   -.139E-01 0.774E-02 -.129E-02
   -.466E+03 -.157E+03 -.386E+04   0.467E+03 0.154E+03 0.386E+04   0.421E-01 0.237E+01 -.302E+00   -.260E-01 -.986E-03 -.203E-01
   -.607E+03 -.526E+02 0.705E+03   0.609E+03 0.541E+02 -.707E+03   -.132E+01 -.117E+01 0.159E+01   0.682E-02 0.608E-03 0.650E-02
   -.729E+03 0.675E+02 -.303E+04   0.731E+03 -.661E+02 0.304E+04   -.243E+01 -.109E+01 -.290E+01   0.270E-01 0.101E-02 -.249E-01
   -.478E+03 0.128E+03 0.417E+04   0.468E+03 -.129E+03 -.416E+04   0.919E+01 0.575E+00 -.625E+01   -.747E-02 0.178E-02 0.298E-02
   -.474E+03 0.693E+02 0.162E+04   0.476E+03 -.695E+02 -.162E+04   -.151E+01 0.228E+00 0.151E+01   0.436E-03 -.591E-02 0.933E-02
   -.321E+03 0.112E+03 -.176E+04   0.322E+03 -.113E+03 0.176E+04   -.119E+01 0.571E+00 -.479E+00   -.293E-02 -.526E-02 -.146E-01
   0.432E+03 0.313E+03 -.414E+04   -.426E+03 -.309E+03 0.413E+04   -.471E+01 -.349E+01 0.110E+02   0.249E-02 0.762E-03 -.128E-01
   -.564E+02 0.141E+03 0.774E+03   0.572E+02 -.142E+03 -.775E+03   -.693E+00 0.231E+01 -.960E+00   0.228E-02 0.237E-02 0.724E-02
   -.918E+02 0.148E+03 -.525E+03   0.934E+02 -.150E+03 0.523E+03   -.209E+01 0.219E+01 0.167E+01   -.491E-02 -.719E-03 0.150E-03
   -.389E+02 0.256E+03 -.164E+04   0.400E+02 -.258E+03 0.164E+04   -.152E+01 0.398E+01 -.314E+01   -.307E-02 0.377E-02 -.700E-02
   -.220E+03 -.445E+02 0.122E+04   0.222E+03 0.455E+02 -.122E+04   -.268E+01 -.141E+01 0.740E+00   0.289E-02 -.310E-02 0.528E-02
   -.143E+03 0.102E+03 -.125E+03   0.145E+03 -.104E+03 0.124E+03   -.161E+01 0.217E+01 0.103E+01   0.794E-02 -.367E-02 -.384E-02
   -.193E+03 -.218E+02 -.139E+04   0.194E+03 0.216E+02 0.140E+04   -.161E+01 0.280E+00 -.142E+01   0.111E-01 -.655E-02 -.847E-02
   -.211E+02 0.138E+03 0.153E+04   0.209E+02 -.139E+03 -.154E+04   0.156E+01 0.119E+01 0.188E+01   -.183E-02 0.833E-03 0.296E-02
   -.733E+02 0.140E+03 0.312E+03   0.746E+02 -.142E+03 -.312E+03   -.158E+01 0.185E+01 0.709E+00   -.302E-02 -.317E-03 0.239E-02
   0.152E+03 0.142E+03 -.106E+04   -.154E+03 -.143E+03 0.106E+04   0.114E+01 0.203E+01 -.582E+00   -.369E-02 0.766E-02 -.827E-02
   -.668E+01 -.116E+03 0.161E+04   0.684E+01 0.116E+03 -.161E+04   -.683E+00 -.126E+01 0.435E+01   0.109E-02 0.229E-03 0.672E-02
   -.792E+02 -.176E+03 0.206E+03   0.804E+02 0.178E+03 -.205E+03   -.141E+01 -.233E+01 -.117E-01   -.100E-02 0.137E-02 0.263E-02
   -.188E+03 -.362E+03 -.116E+04   0.191E+03 0.368E+03 0.116E+04   -.323E+01 -.594E+01 -.231E+01   -.404E-02 -.230E-02 -.809E-02
   -.174E+03 -.608E+02 0.825E+03   0.176E+03 0.610E+02 -.827E+03   -.251E+01 0.228E-02 0.167E+01   -.289E-02 -.884E-03 0.494E-02
   -.103E+03 -.123E+03 -.623E+03   0.104E+03 0.126E+03 0.624E+03   -.145E+01 -.255E+01 -.108E+01   0.698E-02 0.776E-02 -.493E-02
   -.785E+02 -.423E+02 -.172E+04   0.789E+02 0.430E+02 0.172E+04   -.479E+00 -.810E+00 -.503E+01   0.569E-02 0.490E-02 -.214E-03
   -.694E+02 -.144E+03 0.102E+04   0.704E+02 0.146E+03 -.102E+04   -.912E+00 -.156E+01 -.230E+01   0.932E-03 -.177E-02 -.976E-03
   -.577E+02 -.137E+03 -.199E+03   0.591E+02 0.140E+03 0.200E+03   -.151E+01 -.227E+01 -.806E+00   -.331E-02 -.708E-02 -.184E-02
   0.151E+03 -.177E+02 -.137E+04   -.152E+03 0.180E+02 0.138E+04   0.125E+01 -.940E+00 -.767E+00   -.476E-02 -.846E-02 -.117E-01
   0.120E+03 -.241E+01 0.760E+03   -.122E+03 0.202E+01 -.761E+03   0.229E+01 0.646E+00 -.980E+00   -.532E-03 0.376E-02 0.810E-02
   0.140E+03 -.918E+01 -.510E+03   -.143E+03 0.902E+01 0.508E+03   0.302E+01 -.125E+00 0.131E+01   0.380E-02 -.223E-02 -.327E-03
   0.424E+01 0.953E+02 -.163E+04   -.371E+01 -.964E+02 0.164E+04   -.222E+00 0.115E+01 -.356E+01   0.506E-02 0.758E-03 -.680E-02
   0.142E+03 -.541E+02 0.115E+04   -.143E+03 0.537E+02 -.115E+04   0.191E+01 0.247E+00 -.123E+01   -.310E-02 0.321E-02 0.500E-02
   0.166E+03 -.400E+02 -.126E+03   -.169E+03 0.403E+02 0.126E+03   0.274E+01 -.260E+00 0.867E+00   -.536E-02 0.382E-02 -.811E-02
   0.104E+03 -.137E+03 -.139E+04   -.104E+03 0.137E+03 0.140E+04   0.976E+00 -.859E+00 -.148E+01   -.119E-01 0.217E-02 -.653E-02
   0.357E+03 0.703E+02 0.153E+04   -.362E+03 -.708E+02 -.153E+04   0.541E+01 0.163E+01 0.194E+01   0.361E-02 -.247E-02 0.311E-02
   0.202E+03 -.617E+01 0.353E+03   -.204E+03 0.608E+01 -.353E+03   0.213E+01 -.413E-02 0.651E-01   0.269E-02 -.364E-02 0.542E-02
   0.134E+02 0.112E+03 -.122E+04   -.121E+02 -.113E+03 0.123E+04   -.740E+00 0.159E+01 -.449E+01   0.355E-02 0.107E-02 -.883E-02
 -----------------------------------------------------------------------------------------------
   0.513E+01 0.647E+01 0.206E+02   0.753E-12 -.256E-12 0.432E-11   -.517E+01 -.648E+01 -.205E+02   0.134E-01 0.934E-02 -.787E-01
 
 
 POSITION                                       TOTAL-FORCE (eV/Angst)
 -----------------------------------------------------------------------------------
      5.43845      6.28878      1.95737         0.239562      0.341765      0.152010
      4.91051      5.31106      4.89343         0.287372     -0.186726      0.077000
      4.38257      4.33335      7.82949        -0.709093      0.021101     -0.701990
      2.80504      1.41186      0.97869        -0.460529      0.081821      1.269323
      2.27710      0.43415      3.91474         0.349166      0.176070     -0.198286
      1.74916     -0.54356      6.85080         0.291067     -0.014156      0.643122
      0.17163      6.61468      0.00000         0.244005     -1.346174      1.887928
      8.07187      1.08596      2.93606        -0.055344     -0.178031     -0.422006
      7.54393      0.10824      5.87212        -0.232700     -0.232753      0.341412
      5.57794      3.88397      1.18165        -0.059065     -0.046187      1.655551
      5.05000      2.90625      4.11771        -0.072463      0.048504     -0.232750
      4.52206      1.92854      7.05376         0.326944      0.285197      0.885200
      2.94453     -0.99295      0.20296        -0.122427      0.085887      2.183488
      2.41659      8.10907      3.13902         0.210171     -0.043121     -0.210001
      1.88864      7.13136      6.07508         0.028027      0.051846      0.252865
      1.36070      6.15365      9.01114         0.061507      0.014065     -2.083755
      8.21135     -1.31885      2.16033        -0.004695      0.142185     -0.513124
      7.68341     -2.29656      5.09639        -0.306079     -0.020056      0.315186
      7.66523      5.08637      1.95737         0.104612      0.544055      0.115937
      7.13729      4.10866      4.89343        -0.312828      0.106966      0.134289
      6.60935      3.13095      7.82949         0.236582     -0.725000     -0.550864
      4.50388     -0.76826      3.91474        -0.084379      0.262499     -0.417021
      3.97594     -1.74597      6.85080         0.015047      0.263602      0.595493
      2.39840      5.41228      0.00000        -1.063208     -0.398564      1.814281
      1.87046      4.43456      2.93606        -0.038684      0.015357     -0.288366
      1.34252      3.45685      5.87212        -0.007841     -0.036436      0.262938
      0.81458      2.47914      8.80817         1.229803      0.915533     -1.924862
      6.95478      3.04266      2.90890         0.049188      0.367782     -1.157051
      6.42684      2.06495      5.84496        -0.466793     -0.057451     -0.150048
      5.89890      1.08724      8.78102        -0.408085      1.479275     -0.822330
      4.32137     -1.83425      1.93021        -0.553731     -0.466073     -1.206932
      3.79343      7.26777      4.86627        -0.020279      0.045454      0.206387
      3.26549      6.29006      7.80233        -0.398794      0.073233      0.818840
      1.68795      3.36857      0.95153         1.286737     -0.254216     -0.944521
      1.16001      2.39086      3.88759        -0.277927     -0.003314      0.213259
      0.63207      1.41314      6.82364        -0.367766      0.429332      0.713061
      7.30511     -2.99716      0.96062        -0.523109     -0.908100      0.667180
      6.77717      6.10486      3.89668        -0.192964     -0.360775      0.328601
      6.24923      5.12715      6.83274        -0.165806     -0.142843      0.529958
      4.14375      1.22794      2.91799        -0.325418      0.194580     -0.400473
      3.61581      0.25023      5.85405        -0.054489     -0.315088      0.172996
      3.08787     -0.72748      8.79011        -0.042051     -0.152715     -1.453365
      1.51034      6.43076      1.93931         0.090249      0.118220     -1.253821
      0.98240      5.45305      4.87536        -0.099154     -0.103227      0.009266
      0.45446      4.47534      7.81142        -0.044798     -0.664324      1.033338
      4.11929      4.57376      2.90890         0.304956      0.253133     -1.130251
      3.59135      3.59605      5.84496         0.193074     -0.283009     -0.221774
      3.06341      2.61834      8.78102         0.320504      0.022392      0.178698
      1.48587     -0.30315      1.93021         0.183280     -0.161572     -1.691506
      0.95793      8.79887      4.86627        -0.003638     -0.007061      0.127595
      0.42999      7.82115      7.80233         0.321851     -0.255979      0.831908
      7.28064      0.34865      0.95153         0.437659      1.172365     -0.508185
      6.75270     -0.62906      3.88759         0.073290     -0.099528      0.127057
      6.22476     -1.60677      6.82364         0.589483     -0.049740     -0.060883
 -----------------------------------------------------------------------------------
    total drift:                               -0.026570      0.006329      0.017653


--------------------------------------------------------------------------------------------------------



  FREE ENERGIE OF THE ION-ELECTRON SYSTEM (eV)
  ---------------------------------------------------
  free  energy   TOTEN  =      -261.60183558 eV

  energy  without entropy=     -260.77100154  energy(sigma->0) =     -261.18641856
 


--------------------------------------------------------------------------------------------------------


    POTLOK:  cpu time    0.0410: real time    0.0421


--------------------------------------------------------------------------------------------------------


     LOOP+:  cpu time   49.9107: real time   50.1110
    4ORBIT:  cpu time    0.0000: real time    0.0000

 total amount of memory used by VASP MPI-rank0    42830. kBytes
=======================================================================

   base      :      30000. kBytes
   nonlr-proj:       1916. kBytes
   fftplans  :       3097. kBytes
   grid      :       5606. kBytes
   one-center:         69. kBytes
   wavefun   :       2142. kBytes
 
  
  
 General timing and accounting informations for this job:
 ========================================================
  
                  Total CPU time used (sec):       51.439
                            User time (sec):       50.999
                          System time (sec):        0.440
                         Elapsed time (sec):       52.357
  
                   Maximum memory used (kb):      205184.
                   Average memory used (kb):           0.
  
                          Minor page faults:        63581
                          Major page faults:            0
                 Voluntary context switches:          919
