LAMMPS (5 Jun 2019)
OMP_NUM_THREADS environment is not set. Defaulting to 1 thread. (../comm.cpp:88)
  using 1 OpenMP thread(s) per MPI task
Reading data file ...
  triclinic box = (0 0 0) to (9.57841 10.4034 20.8468) with tilt (-4.7892 0 0)
  1 by 1 by 1 MPI processor grid
  reading atoms ...
  78 atoms
  read_data CPU = 0.000811663 secs
51 atoms in group bulk
WARNING: Using 'neigh_modify every 1 delay 0 check yes' setting during minimization (../min.cpp:168)
Neighbor list info ...
  update every 1 steps, delay 0 steps, check yes
  max neighbors/atom: 2000, page size: 100000
  master list distance cutoff = 8.5
  ghost atom cutoff = 8.5
  binsize = 4.25, bins = 4 3 5
  1 neighbor lists, perpetual/occasional/extra = 1 0 0
  (1) pair eam/alloy, perpetual
      attributes: half, newton on
      pair build: half/bin/newton/tri
      stencil: half/bin/3d/newton/tri
      bin: standard
Setting up cg style minimization ...
  Unit style    : metal
  Current step  : 0
Per MPI rank memory allocation (min/avg/max) = 4.118 | 4.118 | 4.118 Mbytes
Step Temp E_pair E_mol TotEng Press 
       0            0   -333.21538            0   -333.21538   -131101.17 
      27            0   -350.87372            0   -350.87372   -55761.894 
Loop time of 0.018047 on 1 procs for 27 steps with 78 atoms

98.9% CPU use with 1 MPI tasks x 1 OpenMP threads

Minimization stats:
  Stopping criterion = energy tolerance
  Energy initial, next-to-last, final = 
        -333.215381577     -350.870767984     -350.873719915
  Force two-norm initial, final = 10.7193 0.188555
  Force max component initial, final = 2.93516 0.0901569
  Final line search alpha, max atom move = 0.719376 0.0648567
  Iterations, force evaluations = 27 32

MPI task timing breakdown:
Section |  min time  |  avg time  |  max time  |%varavg| %total
---------------------------------------------------------------
Pair    | 0.015973   | 0.015973   | 0.015973   |   0.0 | 88.51
Neigh   | 0.0013395  | 0.0013395  | 0.0013395  |   0.0 |  7.42
Comm    | 0.00037941 | 0.00037941 | 0.00037941 |   0.0 |  2.10
Output  | 0          | 0          | 0          |   0.0 |  0.00
Modify  | 3.0857e-05 | 3.0857e-05 | 3.0857e-05 |   0.0 |  0.17
Other   |            | 0.0003244  |            |       |  1.80

Nlocal:    78 ave 78 max 78 min
Histogram: 1 0 0 0 0 0 0 0 0 0
Nghost:    1004 ave 1004 max 1004 min
Histogram: 1 0 0 0 0 0 0 0 0 0
Neighs:    5287 ave 5287 max 5287 min
Histogram: 1 0 0 0 0 0 0 0 0 0

Total # of neighbors = 5287
Ave neighs/atom = 67.7821
Neighbor list builds = 2
Dangerous builds = 0
System init for write_data ...
Total wall time: 0:00:00
