       N       E                     dE             d eps       ncg     rms          rms(c)
DAV:   1     0.888658032096E+04    0.88866E+04   -0.50611E+05  1176   0.154E+03
DAV:   2     0.473779532149E+03   -0.84128E+04   -0.81059E+04  1028   0.490E+02
DAV:   3    -0.349643287911E+03   -0.82342E+03   -0.79050E+03  1088   0.162E+02
DAV:   4    -0.391942616366E+03   -0.42299E+02   -0.41861E+02  1088   0.356E+01
DAV:   5    -0.393654903869E+03   -0.17123E+01   -0.17100E+01  1192   0.731E+00    0.989E+01
DAV:   6    -0.463118566123E+03   -0.69464E+02   -0.99297E+02  1192   0.130E+02    0.161E+02
DAV:   7    -0.360110487063E+03    0.10301E+03   -0.19996E+02  1056   0.729E+01    0.681E+01
DAV:   8    -0.411915195697E+03   -0.51805E+02   -0.24272E+02  1336   0.859E+01    0.123E+02
DAV:   9    -0.356709568613E+03    0.55206E+02   -0.11543E+02  1240   0.506E+01    0.494E+01
DAV:  10    -0.386279436755E+03   -0.29570E+02   -0.87488E+01  1320   0.656E+01    0.103E+02
DAV:  11    -0.357912781933E+03    0.28367E+02   -0.40879E+01  1304   0.333E+01    0.504E+01
DAV:  12    -0.347994660416E+03    0.99181E+01   -0.31903E+01  1328   0.320E+01    0.274E+01
DAV:  13    -0.345017889636E+03    0.29768E+01   -0.14217E+01  1288   0.254E+01    0.230E+01
DAV:  14    -0.343760287924E+03    0.12576E+01   -0.81166E+00  1248   0.170E+01    0.164E+01
DAV:  15    -0.342797752853E+03    0.96254E+00   -0.18412E+00  1296   0.848E+00    0.126E+01
DAV:  16    -0.342548123868E+03    0.24963E+00   -0.70667E-01  1272   0.544E+00    0.111E+01
DAV:  17    -0.342307715643E+03    0.24041E+00   -0.35381E-01  1264   0.400E+00    0.962E+00
DAV:  18    -0.342061731198E+03    0.24598E+00   -0.26536E-01  1296   0.346E+00    0.818E+00
DAV:  19    -0.341836757725E+03    0.22497E+00   -0.38822E-01  1288   0.394E+00    0.617E+00
DAV:  20    -0.341648538080E+03    0.18822E+00   -0.52695E-01  1352   0.430E+00    0.377E+00
DAV:  21    -0.341623524667E+03    0.25013E-01   -0.32823E-01  1272   0.340E+00    0.290E+00
DAV:  22    -0.341615778768E+03    0.77459E-02   -0.13593E-01  1208   0.202E+00    0.229E+00
DAV:  23    -0.341604715567E+03    0.11063E-01   -0.69261E-02  1088   0.168E+00    0.188E+00
DAV:  24    -0.341595122885E+03    0.95927E-02   -0.40143E-02  1256   0.123E+00    0.139E+00
DAV:  25    -0.341590666601E+03    0.44563E-02   -0.29740E-02  1232   0.123E+00    0.996E-01
DAV:  26    -0.341588414495E+03    0.22521E-02   -0.16010E-02  1288   0.822E-01    0.728E-01
DAV:  27    -0.341586665475E+03    0.17490E-02   -0.86832E-03  1144   0.673E-01    0.405E-01
DAV:  28    -0.341586788166E+03   -0.12269E-03   -0.29809E-03  1240   0.337E-01    0.331E-01
DAV:  29    -0.341586688613E+03    0.99553E-04   -0.15746E-03  1080   0.307E-01    0.235E-01
DAV:  30    -0.341587227018E+03   -0.53841E-03   -0.10200E-03  1024   0.224E-01    0.270E-01
DAV:  31    -0.341587189026E+03    0.37992E-04   -0.74135E-04   976   0.217E-01
   1 F= -.34158719E+03 E0= -.34108166E+03  d E =-.101105E+01
