 vasp.5.4.4.18Apr17-6-g9f103f2a35 (build Aug 13 2019 17:33:20) gamma-only       
  
 executed on             LinuxIFC date 2020.05.11  08:38:33
 running on   12 total cores
 distrk:  each k-point on   12 cores,    1 groups
 distr:  one band on NCORES_PER_BAND=   6 cores,    2 groups


--------------------------------------------------------------------------------------------------------


 INCAR:
 POTCAR:    PAW_PBE Ni_pv 06Sep2000               
 POTCAR:    PAW_PBE S 06Sep2000                   
 POTCAR:    PAW_PBE Ni_pv 06Sep2000               
   VRHFIN =Ni:                                                                  
   LEXCH  = PE                                                                  
   EATOM  =  3501.1230 eV,  257.3253 Ry                                         
                                                                                
   TITEL  = PAW_PBE Ni_pv 06Sep2000                                             
   LULTRA =        F    use ultrasoft PP ?                                      
   IUNSCR =        1    unscreen: 0-lin 1-nonlin 2-no                           
   RPACOR =    1.500    partial core radius                                     
   POMASS =   58.690; ZVAL   =   16.000    mass and valenz                      
   RCORE  =    2.000    outmost cutoff radius                                   
   RWIGS  =    2.000; RWIGS  =    1.058    wigner-seitz radius (au A)           
   ENMAX  =  367.986; ENMIN  =  275.989 eV                                      
   RCLOC  =    1.301    cutoff for local pot                                    
   LCOR   =        T    correct aug charges                                     
   LPAW   =        T    paw PP                                                  
   EAUG   =  703.443                                                            
   DEXC   =    0.000                                                            
   RMAX   =    2.041    core radius for proj-oper                               
   RAUG   =    1.300    factor for augmentation sphere                          
   RDEP   =    2.103    radius for radial grids                                 
   RDEPT  =    1.618    core radius for aug-charge                              
                                                                                
   Atomic configuration                                                         
    8 entries                                                                   
     n  l   j            E        occ.                                          
     1  0  0.50     -8206.4253   2.0000                                         
     2  0  0.50      -976.1748   2.0000                                         
     2  1  1.50      -839.0571   6.0000                                         
     3  0  0.50      -105.9991   2.0000                                         
     3  1  1.50       -66.4603   6.0000                                         
     3  2  2.50        -4.6458   9.0000                                         
     4  0  0.50        -4.4926   1.0000                                         
     4  3  2.50        -1.3606   0.0000                                         
   Description                                                                  
     l       E           TYP  RCUT    TYP  RCUT                                 
     1    -66.4602962     23  1.700                                             
     1     -1.3605826     23  1.700                                             
     2     -4.6457867     23  2.000                                             
     2     -6.0063693     23  2.000                                             
     0     -4.4925576     23  1.900                                             
     0     16.3626226     23  1.900                                             
  local pseudopotential read in
  partial core-charges read in
  partial kinetic energy density read in
  atomic valenz-charges read in
  non local Contribution for L=           1  read in
    real space projection operators read in
  non local Contribution for L=           1  read in
    real space projection operators read in
  non local Contribution for L=           2  read in
    real space projection operators read in
  non local Contribution for L=           2  read in
    real space projection operators read in
  non local Contribution for L=           0  read in
    real space projection operators read in
  non local Contribution for L=           0  read in
    real space projection operators read in
    PAW grid and wavefunctions read in
 
   number of l-projection  operators is LMAX  =           6
   number of lm-projection operators is LMMAX =          18
 
 POTCAR:    PAW_PBE S 06Sep2000                   
   VRHFIN =S : s2p4                                                             
   LEXCH  = PE                                                                  
   EATOM  =   276.8230 eV,   20.3459 Ry                                         
                                                                                
   TITEL  = PAW_PBE S 06Sep2000                                                 
   LULTRA =        F    use ultrasoft PP ?                                      
   IUNSCR =        1    unscreen: 0-lin 1-nonlin 2-no                           
   RPACOR =    1.500    partial core radius                                     
   POMASS =   32.066; ZVAL   =    6.000    mass and valenz                      
   RCORE  =    1.900    outmost cutoff radius                                   
   RWIGS  =    2.200; RWIGS  =    1.164    wigner-seitz radius (au A)           
   ENMAX  =  258.689; ENMIN  =  194.016 eV                                      
   ICORE  =        2    local potential                                         
   LCOR   =        T    correct aug charges                                     
   LPAW   =        T    paw PP                                                  
   EAUG   =  335.092                                                            
   DEXC   =    0.000                                                            
   RMAX   =    1.942    core radius for proj-oper                               
   RAUG   =    1.300    factor for augmentation sphere                          
   RDEP   =    1.954    radius for radial grids                                 
   RDEPT  =    1.744    core radius for aug-charge                              
                                                                                
   Atomic configuration                                                         
    6 entries                                                                   
     n  l   j            E        occ.                                          
     1  0  0.50     -2405.8406   2.0000                                         
     2  0  0.50      -211.7007   2.0000                                         
     2  1  1.50      -156.4958   6.0000                                         
     3  0  0.50       -17.2562   2.0000                                         
     3  1  0.50        -7.0085   4.0000                                         
     3  2  1.50        -6.8029   0.0000                                         
   Description                                                                  
     l       E           TYP  RCUT    TYP  RCUT                                 
     0    -17.2561641     23  1.900                                             
     0    -15.8743224     23  1.900                                             
     1     -7.0085400     23  1.900                                             
     1     -2.7779785     23  1.900                                             
     2     -6.8029130     23  1.900                                             
  local pseudopotential read in
  partial core-charges read in
  partial kinetic energy density read in
  atomic valenz-charges read in
  non local Contribution for L=           0  read in
    real space projection operators read in
  non local Contribution for L=           0  read in
    real space projection operators read in
  non local Contribution for L=           1  read in
    real space projection operators read in
  non local Contribution for L=           1  read in
    real space projection operators read in
    PAW grid and wavefunctions read in
 
   number of l-projection  operators is LMAX  =           4
   number of lm-projection operators is LMMAX =           8
 
 Optimization of the real space projectors (new method)

 maximal supplied QI-value         = 18.90
 optimisation between [QCUT,QGAM] = [ 10.77, 21.73] = [ 32.49,132.25] Ry 
 Optimized for a Real-space Cutoff    1.38 Angstroem

   l    n(q)    QCUT    max X(q) W(low)/X(q) W(high)/X(q)  e(spline) 
   1      8    10.771     2.836    0.40E-04    0.29E-04    0.12E-06
   1      8    10.771     4.023    0.10E-03    0.48E-04    0.29E-06
   2      8    10.771    73.368    0.42E-03    0.97E-04    0.44E-06
   2      8    10.771    69.010    0.42E-03    0.99E-04    0.45E-06
   0      9    10.771    54.797    0.10E-03    0.56E-04    0.74E-07
   0      9    10.771    24.266    0.89E-04    0.49E-04    0.67E-07
 Optimization of the real space projectors (new method)

 maximal supplied QI-value         = 19.84
 optimisation between [QCUT,QGAM] = [ 10.71, 21.63] = [ 32.15,130.99] Ry 
 Optimized for a Real-space Cutoff    1.19 Angstroem

   l    n(q)    QCUT    max X(q) W(low)/X(q) W(high)/X(q)  e(spline) 
   0      8    10.715   187.594    0.41E-03    0.53E-04    0.66E-07
   0      8    10.715   164.243    0.41E-03    0.53E-04    0.65E-07
   1      7    10.715    67.533    0.19E-03    0.59E-03    0.68E-07
   1      7    10.715    50.729    0.19E-03    0.58E-03    0.67E-07
  PAW_PBE Ni_pv 06Sep2000               :
 energy of atom  1       EATOM=-3501.1230
 kinetic energy error for atom=    0.0925 (will be added to EATOM!!)
  PAW_PBE S 06Sep2000                   :
 energy of atom  2       EATOM= -276.8230
 kinetic energy error for atom=    0.0033 (will be added to EATOM!!)
 
 
 POSCAR: Type_048 Type_148                       
  positions in cartesian coordinates
  No initial velocities read in
 exchange correlation table for  LEXCH =        8
   RHO(1)=    0.500       N(1)  =     2000
   RHO(2)=  100.500       N(2)  =     4000
 


--------------------------------------------------------------------------------------------------------


 ion  position               nearest neighbor table
   1  0.261  0.479  0.295-  73 2.25  58 2.26  80 2.26  59 2.36  54 2.36   7 2.53  21 2.53
   2  0.355  0.385  0.426-  60 2.09  65 2.24  74 2.25  54 2.26  59 2.26   8 2.53  22 2.53
   3  0.028  0.203  0.090-  63 2.03  64 2.14  81 2.19  55 2.30   4 2.32  30 2.53
   4  0.167  0.073  0.165-  64 2.25  55 2.26  81 2.26   3 2.32  56 2.36  82 2.36  37 2.53  31 2.53

   5  0.110  0.953  0.447-  77 2.04  50 2.05  72 2.11  20 2.41  35 2.42
   6  0.274  0.333  0.130-  51 2.06  57 2.09  55 2.25  52 2.36  58 2.36  11 2.53  28 2.53
   7  0.368  0.239  0.261-  56 2.25  58 2.26  52 2.26  59 2.36  61 2.36   1 2.53  21 2.53
   8  0.462  0.145  0.391-  60 2.05  78 2.25  59 2.26  61 2.26  62 2.36  17 2.39   2 2.53  22 2.53

   9  0.000  0.372  0.261-  58 2.25  64 2.26  92 2.26  49 2.36  66 2.36  19 2.53  13 2.53
  10  0.094  0.278  0.391-  53 2.07  50 2.11  59 2.25  49 2.26  66 2.26  14 2.53  20 2.53
  11  0.406  0.465  0.130-  51 2.06  79 2.10  69 2.13  52 2.36  80 2.36  28 2.53   6 2.53
  12  0.421  0.072  0.041-  75 2.10  93 2.10  55 2.11  37 2.39
  13  0.761  0.479  0.295-  85 2.25  70 2.26  92 2.26  71 2.36  66 2.36  19 2.53   9 2.53
  14  0.855  0.385  0.426-  53 2.05  86 2.16  66 2.26  71 2.26  20 2.53  10 2.53
  15  0.525  0.215  0.090-  51 2.04  52 2.13  93 2.27  67 2.31  16 2.39  25 2.49
  16  0.667  0.073  0.165-  93 2.11  52 2.25  67 2.26  68 2.36  94 2.36  15 2.39  47 2.53  42 2.53

  17  0.525  0.037  0.485-  89 2.01  60 2.04  62 2.06   8 2.39
  18  0.774  0.333  0.130-  69 2.12  63 2.13  67 2.25  64 2.36  70 2.36  24 2.53  40 2.53
  19  0.868  0.239  0.261-  68 2.25  70 2.26  64 2.26  71 2.36  49 2.36  13 2.53   9 2.53
  20  0.962  0.145  0.391-  72 2.06  90 2.25  71 2.26  49 2.26  50 2.38   5 2.41  14 2.53  10 2.53

  21  0.500  0.372  0.261-  70 2.25  52 2.26  80 2.26  61 2.36  54 2.36   7 2.53   1 2.53
  22  0.594  0.278  0.391-  65 2.08  71 2.25  61 2.26  54 2.26  23 2.31  62 2.36  41 2.42   2 2.53
                             8 2.53
  23  0.754  0.203  0.465-  72 2.02  62 2.16  65 2.21  22 2.31
  24  0.906  0.465  0.130-  57 2.11  91 2.12  63 2.13  64 2.36  92 2.36  40 2.53  18 2.53
  25  0.720  0.013  0.052-  87 2.02  67 2.05  93 2.07  15 2.49  42 2.53
  26  0.261  0.979  0.295-  49 2.25  82 2.26  56 2.26  83 2.36  78 2.36  32 2.53  45 2.53
  27  0.355  0.885  0.426-  89 2.05  50 2.16  78 2.26  83 2.26  33 2.53  46 2.53
  28  0.167  0.573  0.165-  57 2.06  79 2.08  88 2.25  80 2.36  58 2.36  11 2.53   6 2.53
  29  0.025  0.537  0.485-  53 2.01  96 2.04  74 2.06  44 2.39
  30  0.232  0.006  0.051-  75 2.02  81 2.04  55 2.07  31 2.52   3 2.53
  31  0.274  0.833  0.130-  79 2.07  81 2.26  76 2.36  82 2.36  30 2.52  37 2.53   4 2.53
  32  0.368  0.739  0.261-  80 2.25  82 2.26  76 2.26  83 2.36  85 2.36  26 2.53  45 2.53
  33  0.462  0.645  0.391-  84 2.06  54 2.25  83 2.26  85 2.26  86 2.38  41 2.41  27 2.53  46 2.53

  34  0.000  0.872  0.261-  82 2.25  88 2.26  68 2.26  73 2.36  90 2.36  43 2.53  38 2.53
  35  0.094  0.778  0.391-  77 2.08  83 2.25  73 2.26  90 2.26  36 2.31  74 2.36   5 2.42  39 2.53
                            44 2.53
  36  0.254  0.703  0.465-  84 2.02  74 2.16  77 2.21  35 2.31
  37  0.406  0.965  0.130-  75 2.08  93 2.16  55 2.26  76 2.36  56 2.36  12 2.39   4 2.53  31 2.53

  38  0.761  0.979  0.295-  61 2.25  94 2.26  68 2.26  95 2.36  90 2.36  43 2.53  34 2.53
  39  0.855  0.885  0.426-  96 2.09  77 2.24  62 2.25  90 2.26  95 2.26  44 2.53  35 2.53
  40  0.667  0.573  0.165-  69 2.12  91 2.12  76 2.25  92 2.36  70 2.36  48 2.42  24 2.53  18 2.53

  41  0.610  0.453  0.447-  65 2.04  86 2.05  84 2.11  33 2.41  22 2.42
  42  0.774  0.833  0.130-  87 2.06  91 2.12  93 2.26  88 2.36  94 2.36  47 2.53  16 2.53  25 2.53

  43  0.868  0.739  0.261-  92 2.25  94 2.26  88 2.26  95 2.36  73 2.36  38 2.53  34 2.53
  44  0.962  0.645  0.391-  96 2.05  66 2.25  95 2.26  73 2.26  74 2.36  29 2.39  39 2.53  35 2.53

  45  0.500  0.872  0.261-  94 2.25  76 2.26  56 2.26  85 2.36  78 2.36  32 2.53  26 2.53
  46  0.594  0.778  0.391-  89 2.07  86 2.11  95 2.25  85 2.26  78 2.26  27 2.53  33 2.53
  47  0.906  0.965  0.130-  87 2.05  81 2.25  67 2.26  88 2.36  68 2.36  16 2.53  42 2.53
  48  0.705  0.536  0.059-  63 2.01  69 2.05  91 2.05  40 2.42
  49  0.073  0.167  0.311-  26 2.25  10 2.26  20 2.26   9 2.36  19 2.36  50 2.74
  50  0.186  0.079  0.420-   5 2.05  10 2.11  27 2.16  20 2.38  49 2.74
  51  0.362  0.378  0.059-  15 2.04   6 2.06  11 2.06
  52  0.479  0.261  0.181-  15 2.13  16 2.25   7 2.26  21 2.26  11 2.36   6 2.36
  53  0.019  0.362  0.473-  29 2.01  14 2.05  10 2.07
  54  0.436  0.472  0.355-  33 2.25   2 2.26  22 2.26   1 2.36  21 2.36
  55  0.248  0.160  0.094-  30 2.07  12 2.11   6 2.25   4 2.26  37 2.26   3 2.30
  56  0.342  0.066  0.225-   7 2.25  26 2.26  45 2.26   4 2.36  37 2.36
  57  0.083  0.481  0.112-  28 2.06   6 2.09  24 2.11  58 2.74
  58  0.174  0.397  0.225-   9 2.25   1 2.26   7 2.26   6 2.36  28 2.36  57 2.74
  59  0.268  0.303  0.355-  10 2.25   8 2.26   2 2.26   7 2.36   1 2.36
  60  0.367  0.217  0.470-  17 2.04   8 2.05   2 2.09  65 2.74
  61  0.573  0.167  0.311-  38 2.25  22 2.26   8 2.26  21 2.36   7 2.36
  62  0.667  0.073  0.442-  17 2.06  23 2.16  39 2.25  22 2.36   8 2.36  65 2.70
  63  0.874  0.366  0.056-  48 2.01   3 2.03  18 2.13  24 2.13
  64  0.979  0.261  0.181-   3 2.14   4 2.25  19 2.26   9 2.26  24 2.36  18 2.36
  65  0.540  0.327  0.479-  41 2.04  22 2.08  23 2.21   2 2.24  62 2.70  60 2.74
  66  0.936  0.472  0.355-  44 2.25  14 2.26  10 2.26  13 2.36   9 2.36
  67  0.748  0.160  0.094-  25 2.05  18 2.25  16 2.26  47 2.26  15 2.31
  68  0.842  0.066  0.225-  19 2.25  38 2.26  34 2.26  16 2.36  47 2.36
  69  0.582  0.482  0.108-  48 2.05  40 2.12  18 2.12  11 2.13
  70  0.674  0.397  0.225-  21 2.25  13 2.26  19 2.26  18 2.36  40 2.36
  71  0.768  0.303  0.355-  22 2.25  20 2.26  14 2.26  19 2.36  13 2.36
  72  0.951  0.125  0.482-  23 2.02  20 2.06   5 2.11
  73  0.073  0.667  0.311-   1 2.25  35 2.26  44 2.26  34 2.36  43 2.36
  74  0.167  0.573  0.442-  29 2.06  36 2.16   2 2.25  35 2.36  44 2.36  77 2.70
  75  0.428  0.883  0.046-  30 2.02  37 2.08  12 2.10
  76  0.479  0.761  0.181-  40 2.25  32 2.26  45 2.26  37 2.36  31 2.36
  77  0.040  0.827  0.479-   5 2.04  35 2.08  36 2.21  39 2.24  74 2.70  96 2.74
  78  0.436  0.972  0.355-   8 2.25  27 2.26  46 2.26  26 2.36  45 2.36
  79  0.261  0.659  0.114-  31 2.07  28 2.08  11 2.10  80 2.71
  80  0.342  0.566  0.225-  32 2.25   1 2.26  21 2.26  28 2.36  11 2.36  79 2.71
  81  0.080  0.991  0.094-  30 2.04   3 2.19  47 2.25  31 2.26   4 2.26
  82  0.174  0.897  0.225-  34 2.25  26 2.26  32 2.26  31 2.36   4 2.36
  83  0.268  0.803  0.355-  35 2.25  33 2.26  27 2.26  32 2.36  26 2.36
  84  0.451  0.625  0.482-  36 2.02  33 2.06  41 2.11
  85  0.573  0.667  0.311-  13 2.25  46 2.26  33 2.26  45 2.36  32 2.36  86 2.74
  86  0.686  0.579  0.420-  41 2.05  46 2.11  14 2.16  33 2.38  85 2.74
  87  0.893  0.847  0.064-  25 2.02  47 2.05  42 2.06
  88  0.979  0.761  0.181-  28 2.25  43 2.26  34 2.26  47 2.36  42 2.36
  89  0.519  0.862  0.473-  17 2.01  27 2.05  46 2.07
  90  0.936  0.972  0.355-  20 2.25  39 2.26  35 2.26  38 2.36  34 2.36
  91  0.759  0.658  0.108-  48 2.05  24 2.12  42 2.12  40 2.12
  92  0.842  0.566  0.225-  43 2.25  13 2.26   9 2.26  40 2.36  24 2.36
  93  0.575  0.997  0.104-  25 2.07  12 2.10  16 2.11  37 2.16  42 2.26  15 2.27
  94  0.674  0.897  0.225-  45 2.25  38 2.26  43 2.26  42 2.36  16 2.36
  95  0.768  0.803  0.355-  46 2.25  44 2.26  39 2.26  43 2.36  38 2.36
  96  0.867  0.717  0.470-  29 2.04  44 2.05  39 2.09  77 2.74
 
  LATTYP: Found a base centered orthorhombic cell.
 ALAT       =    11.8257374459
 B/A-ratio  =     1.6199260857
 C/A-ratio  =     1.9043172636
  
  Lattice vectors:
  
 A1 = (  11.2564630382,   0.0000000000,   0.0000000000)
 A2 = (  -5.0445621212, -10.0628203371,   0.0000000000)
 A3 = (   0.0000000000,   0.0000000000, -22.5199559732)


Analysis of symmetry for initial positions (statically):
=====================================================================
 Subroutine PRICEL returns:
 Original cell was already a primitive cell.
 

 Routine SETGRP: Setting up the symmetry group for a 
 base centered orthorhombic supercell.


 Subroutine GETGRP returns: Found  1 space group operations
 (whereof  1 operations were pure point group operations)
 out of a pool of  8 trial point group operations.


The static configuration has the point symmetry C_1 .


Analysis of symmetry for dynamics (positions and initial velocities):
=====================================================================
 Subroutine PRICEL returns:
 Original cell was already a primitive cell.
 

 Routine SETGRP: Setting up the symmetry group for a 
 base centered orthorhombic supercell.


 Subroutine GETGRP returns: Found  1 space group operations
 (whereof  1 operations were pure point group operations)
 out of a pool of  8 trial point group operations.


The dynamic configuration has the point symmetry C_1 .


 Subroutine INISYM returns: Found  1 space group operations
 (whereof  1 operations are pure point group operations),
 and found     1 'primitive' translations

 
 
 KPOINTS: gamma-point-only calculation. no periodi

Automatic generation of k-mesh.
Space group operators:
 irot       det(A)        alpha          n_x          n_y          n_z        tau_x        tau_y        tau_z
    1     1.000000     0.000000     1.000000     0.000000     0.000000     0.000000     0.000000     0.000000
 
 Subroutine IBZKPT returns following result:
 ===========================================
 
 Found      1 irreducible k-points:
 
 Following reciprocal coordinates:
            Coordinates               Weight
  0.000000  0.000000  0.000000      1.000000
 
 Following cartesian coordinates:
            Coordinates               Weight
  0.000000  0.000000  0.000000      1.000000
 


--------------------------------------------------------------------------------------------------------




 Dimension of arrays:
   k-points           NKPTS =      1   k-points in BZ     NKDIM =      1   number of bands    NBANDS=    634
   number of dos      NEDOS =    301   number of ions     NIONS =     96
   non local maximal  LDIM  =      6   non local SUM 2l+1 LMDIM =     18
   total plane-waves  NPLWV = 432000
   max r-space proj   IRMAX =   1917   max aug-charges    IRDMAX=   5534
   dimension x,y,z NGX =    60 NGY =   60 NGZ =  120
   dimension x,y,z NGXF=   120 NGYF=  120 NGZF=  240
   support grid    NGXF=   120 NGYF=  120 NGZF=  240
   ions per type =              48  48
   NGX,Y,Z   is equivalent  to a cutoff of   8.86,  8.86,  8.86 a.u.
   NGXF,Y,Z  is equivalent  to a cutoff of  17.72, 17.72, 17.72 a.u.

 SYSTEM =  "Millerite NiS"                         
 POSCAR =  Type_048 Type_148                       

 Startparameter for this run:
   NWRITE =      2    write-flag & timer
   PREC   = normal    normal or accurate (medium, high low for compatibility)
   ISTART =      0    job   : 0-new  1-cont  2-samecut
   ICHARG =      2    charge: 1-file 2-atom 10-const
   ISPIN  =      1    spin polarized calculation?
   LNONCOLLINEAR =      F non collinear calculations
   LSORBIT =      F    spin-orbit coupling
   INIWAV =      1    electr: 0-lowe 1-rand  2-diag
   LASPH  =      F    aspherical Exc in radial PAW
   METAGGA=      F    non-selfconsistent MetaGGA calc.

 Electronic Relaxation 1
   ENCUT  =  450.0 eV  33.07 Ry    5.75 a.u.  19.47 19.47 38.95*2*pi/ulx,y,z
   ENINI  =  450.0     initial cutoff
   ENAUG  =  703.4 eV  augmentation charge cutoff
   NELM   =    100;   NELMIN=  2; NELMDL= -5     # of ELM steps 
   EDIFF  = 0.1E-03   stopping-criterion for ELM
   LREAL  =      T    real-space projection
   NLSPLINE    = F    spline interpolate recip. space projectors
   LCOMPAT=      F    compatible to vasp.4.4
   GGA_COMPAT  = T    GGA compatible to vasp.4.4-vasp.4.6
   LMAXPAW     = -100 max onsite density
   LMAXMIX     =    2 max onsite mixed and CHGCAR
   VOSKOWN=      0    Vosko Wilk Nusair interpolation
   ROPT   =   -0.00050  -0.00050
 Ionic relaxation
   EDIFFG = 0.1E-02   stopping-criterion for IOM
   NSW    =      0    number of steps for IOM
   NBLOCK =      1;   KBLOCK =      1    inner block; outer block 
   IBRION =     -1    ionic relax: 0-MD 1-quasi-New 2-CG
   NFREE  =      0    steps in history (QN), initial steepest desc. (CG)
   ISIF   =      2    stress and relaxation
   IWAVPR =     10    prediction:  0-non 1-charg 2-wave 3-comb
   ISYM   =      2    0-nonsym 1-usesym 2-fastsym
   LCORR  =      T    Harris-Foulkes like correction to forces

   POTIM  = 0.5000    time-step for ionic-motion
   TEIN   =    0.0    initial temperature
   TEBEG  =    0.0;   TEEND  =   0.0 temperature during run
   SMASS  =  -3.00    Nose mass-parameter (am)
   estimated Nose-frequenzy (Omega)   =  0.10E-29 period in steps =****** mass=  -0.290E-26a.u.
   SCALEE = 1.0000    scale energy and forces
   NPACO  =    256;   APACO  = 16.0  distance and # of slots for P.C.
   PSTRESS=    0.0 pullay stress

  Mass of Ions in am
   POMASS =  58.69 32.07
  Ionic Valenz
   ZVAL   =  16.00  6.00
  Atomic Wigner-Seitz radii
   RWIGS  =  -1.00 -1.00
  virtual crystal weights 
   VCA    =   1.00  1.00
   NELECT =    1056.0000    total number of electrons
   NUPDOWN=      -1.0000    fix difference up-down

 DOS related values:
   EMIN   =  10.00;   EMAX   =-10.00  energy-range for DOS
   EFERMI =   0.00
   ISMEAR =     0;   SIGMA  =   0.20  broadening in eV -4-tet -1-fermi 0-gaus

 Electronic relaxation 2 (details)
   IALGO  =     38    algorithm
   LDIAG  =      T    sub-space diagonalisation (order eigenvalues)
   LSUBROT=      F    optimize rotation matrix (better conditioning)
   TURBO    =      0    0=normal 1=particle mesh
   IRESTART =      0    0=no restart 2=restart with 2 vectors
   NREBOOT  =      0    no. of reboots
   NMIN     =      0    reboot dimension
   EREF     =   0.00    reference energy to select bands
   IMIX   =      4    mixing-type and parameters
     AMIX     =   0.40;   BMIX     =  1.00
     AMIX_MAG =   1.60;   BMIX_MAG =  1.00
     AMIN     =   0.10
     WC   =   100.;   INIMIX=   1;  MIXPRE=   1;  MAXMIX= -45

 Intra band minimization:
   WEIMIN = 0.0000     energy-eigenvalue tresh-hold
   EBREAK =  0.39E-07  absolut break condition
   DEPER  =   0.30     relativ break condition  

   TIME   =   0.40     timestep for ELM

  volume/ion in A,a.u.               =      26.57       179.31
  Fermi-wavevector in a.u.,A,eV,Ry     =   1.220112  2.305678 20.254633  1.488674
  Thomas-Fermi vector in A             =   2.355341
 
 Write flags
   LWAVE        =      F    write WAVECAR
   LDOWNSAMPLE  =      F    k-point downsampling of WAVECAR
   LCHARG       =      F    write CHGCAR
   LVTOT        =      F    write LOCPOT, total local potential
   LVHAR        =      F    write LOCPOT, Hartree potential only
   LELF         =      F    write electronic localiz. function (ELF)
   LORBIT       =      0    0 simple, 1 ext, 2 COOP (PROOUT), +10 PAW based schemes


 Dipole corrections
   LMONO  =      F    monopole corrections only (constant potential shift)
   LDIPOL =      F    correct potential (dipole corrections)
   IDIPOL =      0    1-x, 2-y, 3-z, 4-all directions 
   EPSILON=  1.0000000 bulk dielectric constant

 Exchange correlation treatment:
   GGA     =    --    GGA type
   LEXCH   =     8    internal setting for exchange type
   VOSKOWN=      0    Vosko Wilk Nusair interpolation
   LHFCALC =     F    Hartree Fock is set to
   LHFONE  =     F    Hartree Fock one center treatment
   AEXX    =    0.0000 exact exchange contribution

 Linear response parameters
   LEPSILON=     F    determine dielectric tensor
   LRPA    =     F    only Hartree local field effects (RPA)
   LNABLA  =     F    use nabla operator in PAW spheres
   LVEL    =     F    velocity operator in full k-point grid
   LINTERFAST=   F  fast interpolation
   KINTER  =     0    interpolate to denser k-point grid
   CSHIFT  =0.1000    complex shift for real part using Kramers Kronig
   OMEGAMAX=  -1.0    maximum frequency
   DEG_THRESHOLD= 0.2000000E-02 threshold for treating states as degnerate
   RTIME   =   -0.100 relaxation time in fs
  (WPLASMAI=    0.000 imaginary part of plasma frequency in eV, 0.658/RTIME)
   DFIELD  = 0.0000000 0.0000000 0.0000000 field for delta impulse in time
 
 Orbital magnetization related:
   ORBITALMAG=     F  switch on orbital magnetization
   LCHIMAG   =     F  perturbation theory with respect to B field
   DQ        =  0.001000  dq finite difference perturbation B field
   LLRAUG    =     F  two centre corrections for induced B field



--------------------------------------------------------------------------------------------------------


 Static calculation
 charge density and potential will be updated during run
 non-spin polarized calculation
 Variant of blocked Davidson
 Davidson routine will perform the subspace rotation
 perform sub-space diagonalisation
    after iterative eigenvector-optimisation
 modified Broyden-mixing scheme, WC =      100.0
 initial mixing is a Kerker type mixing with AMIX =  0.4000 and BMIX =      1.0000
 Hartree-type preconditioning will be used
 using additional bands          106
 real space projection scheme for non local part
 use partial core corrections
 calculate Harris-corrections to forces 
   (improved forces if not selfconsistent)
 use gradient corrections 
 use of overlap-Matrix (Vanderbilt PP)
 Gauss-broadening in eV      SIGMA  =   0.20


--------------------------------------------------------------------------------------------------------


  energy-cutoff  :      450.00
  volume of cell :     2550.88
      direct lattice vectors                 reciprocal lattice vectors
    11.256463038  0.000000000  0.000000000     0.088837852 -0.044535036  0.000000000
     5.044562121 10.062820337  0.000000000     0.000000000  0.099375718  0.000000000
     0.000000000  0.000000000 22.519955973     0.000000000  0.000000000  0.044405060

  length of vectors
    11.256463038 11.256463038 22.519955973     0.099375718  0.099375718  0.044405060


 
 k-points in units of 2pi/SCALE and weight: gamma-point-only calculation. no periodi
   0.00000000  0.00000000  0.00000000       1.000
 
 k-points in reciprocal lattice and weights: gamma-point-only calculation. no periodi
   0.00000000  0.00000000  0.00000000       1.000
 
 position of ions in fractional coordinates (direct lattice) 
   0.26092069  0.47878037  0.29519774
   0.35488056  0.38482050  0.42557357
   0.02825783  0.20303013  0.09019533
   0.16696082  0.07274025  0.16482191
   0.10992359  0.95309543  0.44736573
   0.27423906  0.33335901  0.13037583
   0.36819893  0.23939914  0.26075166
   0.46215879  0.14543927  0.39112749
   0.00030194  0.37150214  0.26075166
   0.09426180  0.27754227  0.39112749
   0.40634206  0.46546200  0.13037583
   0.42060421  0.07203267  0.04090021
   0.76092069  0.47878037  0.29519774
   0.85488056  0.38482050  0.42557357
   0.52475928  0.21468139  0.08959628
   0.66696082  0.07274025  0.16482191
   0.52546523  0.03667167  0.48495383
   0.77423906  0.33335901  0.13037583
   0.86819893  0.23939914  0.26075166
   0.96215879  0.14543927  0.39112749
   0.50030194  0.37150214  0.26075166
   0.59426180  0.27754227  0.39112749
   0.75439276  0.20286578  0.46453363
   0.90634206  0.46546200  0.13037583
   0.71988495  0.01265441  0.05246069
   0.26092069  0.97878037  0.29519774
   0.35488056  0.88482051  0.42557357
   0.16696083  0.57274025  0.16482191
   0.02546557  0.53666348  0.48495041
   0.23186547  0.00567924  0.05085067
   0.27423906  0.83335901  0.13037583
   0.36819893  0.73939914  0.26075166
   0.46215879  0.64543927  0.39112749
   0.00030194  0.87150214  0.26075166
   0.09426180  0.77754227  0.39112749
   0.25440430  0.70285972  0.46452640
   0.40634206  0.96546200  0.13037583
   0.76092069  0.97878037  0.29519774
   0.85488056  0.88482051  0.42557357
   0.66696083  0.57274025  0.16482191
   0.60991746  0.45310221  0.44737334
   0.77423906  0.83335901  0.13037583
   0.86819893  0.73939914  0.26075166
   0.96215879  0.64543927  0.39112749
   0.50030194  0.87150214  0.26075166
   0.59426180  0.77754227  0.39112749
   0.90634206  0.96546200  0.13037583
   0.70468962  0.53581140  0.05915130
   0.07287763  0.16682345  0.31134757
   0.18597064  0.07881123  0.42033598
   0.36191904  0.37755784  0.05926731
   0.47891775  0.26078331  0.18097174
   0.01946195  0.36243531  0.47266330
   0.43627354  0.47164252  0.35520991
   0.24835381  0.15956227  0.09445824
   0.34231367  0.06560240  0.22483408
   0.08284667  0.48064854  0.11205141
   0.17409868  0.39738739  0.22483408
   0.26805854  0.30342752  0.35520991
   0.36708537  0.21670711  0.47040139
   0.57287763  0.16682345  0.31134757
   0.66683750  0.07286358  0.44172340
   0.87387307  0.36579738  0.05631374
   0.97891775  0.26078331  0.18097174
   0.53975049  0.32711127  0.47943951
   0.93627354  0.47164252  0.35520991
   0.74835381  0.15956227  0.09445824
   0.84231367  0.06560240  0.22483408
   0.58188795  0.48238933  0.10758484
   0.67409868  0.39738739  0.22483408
   0.76805854  0.30342752  0.35520991
   0.95108134  0.12528320  0.48172932
   0.07287763  0.66682345  0.31134757
   0.16683750  0.57286358  0.44172340
   0.42837448  0.88254104  0.04613663
   0.47891775  0.76078331  0.18097174
   0.03975799  0.82710827  0.47943937
   0.43627354  0.97164252  0.35520991
   0.26062299  0.65941783  0.11362758
   0.34231367  0.56560240  0.22483408
   0.08013881  0.99134726  0.09445824
   0.17409868  0.89738739  0.22483408
   0.26805854  0.80342752  0.35520991
   0.45108688  0.62530514  0.48173167
   0.57287763  0.66682345  0.31134757
   0.68596561  0.57880576  0.42032584
   0.89295118  0.84741794  0.06399401
   0.97891775  0.76078331  0.18097174
   0.51946202  0.86244451  0.47266182
   0.93627354  0.97164252  0.35520991
   0.75859577  0.65791943  0.10802638
   0.84231367  0.56560240  0.22483408
   0.57472435  0.99744245  0.10401372
   0.67409868  0.89738739  0.22483408
   0.76805854  0.80342752  0.35520991
   0.86708989  0.71670560  0.47040193
 
 position of ions in cartesian coordinates  (Angst):
   5.35228144  4.81788086  6.64784004
   5.93595083  3.87237960  9.58389801
   1.34228129  2.04305577  2.03119486
   2.24633108  0.73197210  3.71178209
   6.04529988  9.59082806 10.07465644
   4.76861206  3.35453179  2.93605795
   5.35228145  2.40903053  5.87211593
   5.93595082  1.46352927  8.80817388
   1.87746436  3.73835925  5.87211593
   2.46113373  2.79285799  8.80817388
   6.92202632  4.68386050  2.93605795
   5.09788907  0.72485185  0.92107086
  10.98051296  4.81788086  6.64784004
  11.56418235  3.87237960  9.58389801
   6.98990710  2.16030030  2.01770432
   7.87456260  0.73197210  3.71178209
   6.09987242  0.36902046 10.92113881
  10.39684358  3.35453179  2.93605795
  10.98051297  2.40903053  5.87211593
  11.56418234  1.46352927  8.80817388
   7.50569588  3.73835925  5.87211593
   8.08936525  2.79285799  8.80817388
   9.51516325  2.04140186 10.46127683
  12.55025784  4.68386050  2.93605795
   8.16719425  0.12733902  1.18141237
   7.87456250  9.84929103  6.64784004
   8.45823189  8.90378977  9.58389801
   4.76861214  5.76338227  3.71178209
   2.99388452  5.40034817 10.92106186
   2.63863436  0.05714921  1.14515485
   7.29089312  8.38594195  2.93605795
   7.87456251  7.44044070  5.87211593
   8.45823188  6.49493944  8.80817388
   4.39974542  8.76976942  5.87211593
   4.98341479  7.82426816  8.80817388
   6.40931205  7.07275105 10.46111402
   9.44430738  9.71527067  2.93605795
  13.50279402  9.84929103  6.64784004
  14.08646341  8.90378977  9.58389801
  10.39684366  5.76338227  3.71178209
   9.15121552  4.55948609 10.07482802
  12.91912464  8.38594195  2.93605795
  13.50279403  7.44044070  5.87211593
  14.08646340  6.49493944  8.80817388
  10.02797694  8.76976942  5.87211593
  10.61164631  7.82426816  8.80817388
  15.07253890  9.71527067  2.93605795
  10.63524653  5.39177384  1.33208468
   1.66189560  1.67871438  7.01153346
   2.49093980  0.79306322  9.46594770
   5.97854231  3.79929667  1.33469731
   6.70645757  2.62421563  4.07547550
   2.04740022  3.64712143 10.64435666
   7.29012695  4.74605393  7.99931144
   3.60050720  1.60564642  2.12719552
   4.18417659  0.66014516  5.06325349
   3.35722191  4.83667993  2.52339289
   3.96438071  3.99883791  5.06325349
   4.54805009  3.05333666  7.99931144
   5.22527530  2.18068467 10.59341850
   7.29012712  1.67871438  7.01153346
   7.87379650  0.73321311  9.94759143
  11.68200755  3.68095327  1.26818303
  12.33468909  2.62421563  4.07547550
   7.72581463  3.29166199 10.79695655
  12.91835847  4.74605393  7.99931144
   9.22873872  1.60564642  2.12719552
   9.81240811  0.66014516  5.06325349
   8.98344312  4.85419719  2.42280593
   9.59261223  3.99883791  5.06325349
  10.17628161  3.05333666  7.99931144
  11.33781083  1.26070237 10.84852309
   4.18417666  6.71012454  7.01153346
   4.76784605  5.76462328  9.94759143
   9.27401461  8.88085190  1.03899477
   9.22873863  7.65562579  4.07547550
   4.61993341  8.32304195 10.79695358
   9.81240801  9.77746410  7.99931144
   6.26016726  6.63560311  2.55888801
   6.70645765  5.69155533  5.06325349
   5.90299239  9.97574934  2.12719552
   6.48666177  9.03024808  5.06325349
   7.07033115  8.08474683  7.99931144
   8.23203338  6.29233327 10.84857608
   9.81240818  6.71012454  7.01153346
  10.64136820  5.82441838  9.46571936
  14.32632437  8.52741450  1.44114222
  14.85697015  7.65562579  4.07547550
  10.19795993  8.67862420 10.64432348
  15.44063953  9.77746410  7.99931144
  11.85802069  6.62052502  2.43274937
  12.33468917  5.69155533  5.06325349
  11.50102381 10.03708421  2.34238445
  12.11489329  9.03024808  5.06325349
  12.69856267  8.08474683  7.99931144
  13.37583121  7.21207973 10.59343065
 


--------------------------------------------------------------------------------------------------------


 use parallel FFT for orbitals z direction half grid
 k-point  1 :   0.0000 0.0000 0.0000  plane waves:   27671

 maximum and minimum number of plane-waves per node :      4613     4610

 maximum number of plane-waves:     27671
 maximum index in each direction: 
   IXMAX=   19   IYMAX=   19   IZMAX=   38
   IXMIN=  -19   IYMIN=  -19   IZMIN=    0


 real space projection operators:
  total allocation   :      15706.61 KBytes
  max/ min on nodes  :       2638.62       2600.27


 parallel 3D FFT for wavefunctions:
    minimum data exchange during FFTs selected (reduces bandwidth)
 parallel 3D FFT for charge:
    minimum data exchange during FFTs selected (reduces bandwidth)


 total amount of memory used by VASP MPI-rank0    87640. kBytes
=======================================================================

   base      :      30000. kBytes
   nonlr-proj:       3210. kBytes
   fftplans  :      11274. kBytes
   grid      :      19113. kBytes
   one-center:        124. kBytes
   wavefun   :      23919. kBytes
 
     INWAV:  cpu time    0.0000: real time    0.0000
 Broyden mixing: mesh for mixing (old mesh)
   NGX = 39   NGY = 39   NGZ = 77
  (NGX  =120   NGY  =120   NGZ  =240)
  gives a total of 117117 points

 initial charge density was supplied:
 charge density of overlapping atoms calculated
 number of electron    1056.0000000 magnetization 
 keeping initial charge density in first step


--------------------------------------------------------------------------------------------------------


 Maximum index for non-local projection operator          321
 Maximum index for augmentation-charges          493 (set IRDMAX)


--------------------------------------------------------------------------------------------------------


 First call to EWALD:  gamma=   0.130
 Maximum number of real-space cells 4x 4x 2
 Maximum number of reciprocal cells 2x 2x 4

    FEWALD:  cpu time    0.0116: real time    0.0116


--------------------------------------- Iteration      1(   1)  ---------------------------------------


    POTLOK:  cpu time    0.3689: real time    0.3693
    SETDIJ:  cpu time    0.0235: real time    0.0235
     EDDAV:  cpu time   13.4515: real time   13.4543
       DOS:  cpu time    0.0015: real time    0.0015
    --------------------------------------------
      LOOP:  cpu time   13.8455: real time   13.8487

 eigenvalue-minimisations  :  1540
 total energy-change (2. order) : 0.1340284E+05  (-0.6855722E+05)
 number of electron    1056.0000000 magnetization 
 augmentation part     1056.0000000 magnetization 

 Free energy of the ion-electron system (eV)
  ---------------------------------------------------
  alpha Z        PSCENC =      2592.50432107
  Ewald energy   TEWEN  =    349772.29928460
  -Hartree energ DENC   =   -512980.42360308
  -exchange      EXHF   =         0.00000000
  -V(xc)+E(xc)   XCENC  =      4906.47893746
  PAW double counting   =    150306.04444553  -156855.34918313
  entropy T*S    EENTRO =        -0.46169610
  eigenvalues    EBANDS =     -5675.06006744
  atomic energy  EATOM  =    181336.80673834
  Solvation  Ediel_sol  =         0.00000000
  ---------------------------------------------------
  free energy    TOTEN  =     13402.83917726 eV

  energy without entropy =    13403.30087336  energy(sigma->0) =    13403.07002531


--------------------------------------------------------------------------------------------------------




--------------------------------------- Iteration      1(   2)  ---------------------------------------


     EDDAV:  cpu time   12.2091: real time   12.2117
       DOS:  cpu time    0.0016: real time    0.0016
    --------------------------------------------
      LOOP:  cpu time   12.2107: real time   12.2133

 eigenvalue-minimisations  :  1342
 total energy-change (2. order) :-0.1256502E+05  (-0.1213132E+05)
 number of electron    1056.0000000 magnetization 
 augmentation part     1056.0000000 magnetization 

 Free energy of the ion-electron system (eV)
  ---------------------------------------------------
  alpha Z        PSCENC =      2592.50432107
  Ewald energy   TEWEN  =    349772.29928460
  -Hartree energ DENC   =   -512980.42360308
  -exchange      EXHF   =         0.00000000
  -V(xc)+E(xc)   XCENC  =      4906.47893746
  PAW double counting   =    150306.04444553  -156855.34918313
  entropy T*S    EENTRO =        -0.90708300
  eigenvalues    EBANDS =    -18239.63844768
  atomic energy  EATOM  =    181336.80673834
  Solvation  Ediel_sol  =         0.00000000
  ---------------------------------------------------
  free energy    TOTEN  =       837.81541012 eV

  energy without entropy =      838.72249312  energy(sigma->0) =      838.26895162


--------------------------------------------------------------------------------------------------------




--------------------------------------- Iteration      1(   3)  ---------------------------------------


     EDDAV:  cpu time   12.8627: real time   12.8659
       DOS:  cpu time    0.0016: real time    0.0015
    --------------------------------------------
      LOOP:  cpu time   12.8643: real time   12.8675

 eigenvalue-minimisations  :  1408
 total energy-change (2. order) :-0.1289036E+04  (-0.1222404E+04)
 number of electron    1056.0000000 magnetization 
 augmentation part     1056.0000000 magnetization 

 Free energy of the ion-electron system (eV)
  ---------------------------------------------------
  alpha Z        PSCENC =      2592.50432107
  Ewald energy   TEWEN  =    349772.29928460
  -Hartree energ DENC   =   -512980.42360308
  -exchange      EXHF   =         0.00000000
  -V(xc)+E(xc)   XCENC  =      4906.47893746
  PAW double counting   =    150306.04444553  -156855.34918313
  entropy T*S    EENTRO =        -1.44127393
  eigenvalues    EBANDS =    -19528.14073178
  atomic energy  EATOM  =    181336.80673834
  Solvation  Ediel_sol  =         0.00000000
  ---------------------------------------------------
  free energy    TOTEN  =      -451.22106491 eV

  energy without entropy =     -449.77979098  energy(sigma->0) =     -450.50042794


--------------------------------------------------------------------------------------------------------




--------------------------------------- Iteration      1(   4)  ---------------------------------------


     EDDAV:  cpu time   12.7889: real time   12.7913
       DOS:  cpu time    0.0015: real time    0.0015
    --------------------------------------------
      LOOP:  cpu time   12.7905: real time   12.7928

 eigenvalue-minimisations  :  1440
 total energy-change (2. order) :-0.8232416E+02  (-0.8125397E+02)
 number of electron    1056.0000000 magnetization 
 augmentation part     1056.0000000 magnetization 

 Free energy of the ion-electron system (eV)
  ---------------------------------------------------
  alpha Z        PSCENC =      2592.50432107
  Ewald energy   TEWEN  =    349772.29928460
  -Hartree energ DENC   =   -512980.42360308
  -exchange      EXHF   =         0.00000000
  -V(xc)+E(xc)   XCENC  =      4906.47893746
  PAW double counting   =    150306.04444553  -156855.34918313
  entropy T*S    EENTRO =        -1.51237696
  eigenvalues    EBANDS =    -19610.39379251
  atomic energy  EATOM  =    181336.80673834
  Solvation  Ediel_sol  =         0.00000000
  ---------------------------------------------------
  free energy    TOTEN  =      -533.54522866 eV

  energy without entropy =     -532.03285171  energy(sigma->0) =     -532.78904018


--------------------------------------------------------------------------------------------------------




--------------------------------------- Iteration      1(   5)  ---------------------------------------


     EDDAV:  cpu time   14.6261: real time   14.6290
       DOS:  cpu time    0.0016: real time    0.0016
    CHARGE:  cpu time    0.4006: real time    0.4006
    MIXING:  cpu time    0.0110: real time    0.0110
    --------------------------------------------
      LOOP:  cpu time   15.0394: real time   15.0422

 eigenvalue-minimisations  :  1680
 total energy-change (2. order) :-0.3601976E+01  (-0.3596550E+01)
 number of electron    1055.9998683 magnetization 
 augmentation part      381.9596012 magnetization 

 Broyden mixing:
  rms(total) = 0.11094E+02    rms(broyden)= 0.11081E+02
  rms(prec ) = 0.11446E+02
  weight for this iteration     100.00

 Free energy of the ion-electron system (eV)
  ---------------------------------------------------
  alpha Z        PSCENC =      2592.50432107
  Ewald energy   TEWEN  =    349772.29928460
  -Hartree energ DENC   =   -512980.42360308
  -exchange      EXHF   =         0.00000000
  -V(xc)+E(xc)   XCENC  =      4906.47893746
  PAW double counting   =    150306.04444553  -156855.34918313
  entropy T*S    EENTRO =        -1.48816232
  eigenvalues    EBANDS =    -19614.01998338
  atomic energy  EATOM  =    181336.80673834
  Solvation  Ediel_sol  =         0.00000000
  ---------------------------------------------------
  free energy    TOTEN  =      -537.14720490 eV

  energy without entropy =     -535.65904258  energy(sigma->0) =     -536.40312374


--------------------------------------------------------------------------------------------------------




--------------------------------------- Iteration      1(   6)  ---------------------------------------


    POTLOK:  cpu time    0.3581: real time    0.3581
    SETDIJ:  cpu time    0.0233: real time    0.0233
     EDDAV:  cpu time   13.9454: real time   13.9480
       DOS:  cpu time    0.0017: real time    0.0017
    CHARGE:  cpu time    0.6680: real time    0.6680
    MIXING:  cpu time    0.0112: real time    0.0112
    --------------------------------------------
      LOOP:  cpu time   15.0076: real time   15.0103

 eigenvalue-minimisations  :  1600
 total energy-change (2. order) :-0.1087285E+03  (-0.1237947E+03)
 number of electron    1055.9998701 magnetization 
 augmentation part      456.8807542 magnetization 

 Broyden mixing:
  rms(total) = 0.19341E+02    rms(broyden)= 0.19337E+02
  rms(prec ) = 0.20207E+02
  weight for this iteration     100.00

 eigenvalues of (default mixing * dielectric matrix)
  average eigenvalue GAMMA=   0.2209
  0.2209

 Free energy of the ion-electron system (eV)
  ---------------------------------------------------
  alpha Z        PSCENC =      2592.50432107
  Ewald energy   TEWEN  =    349772.29928460
  -Hartree energ DENC   =   -509227.83939397
  -exchange      EXHF   =         0.00000000
  -V(xc)+E(xc)   XCENC  =      4806.71397385
  PAW double counting   =    156364.31146947  -162603.52629114
  entropy T*S    EENTRO =        -1.21589849
  eigenvalues    EBANDS =    -23685.92987623
  atomic energy  EATOM  =    181336.80673834
  Solvation  Ediel_sol  =         0.00000000
  ---------------------------------------------------
  free energy    TOTEN  =      -645.87567249 eV

  energy without entropy =     -644.65977401  energy(sigma->0) =     -645.26772325


--------------------------------------------------------------------------------------------------------




--------------------------------------- Iteration      1(   7)  ---------------------------------------


    POTLOK:  cpu time    0.3576: real time    0.3578
    SETDIJ:  cpu time    0.0232: real time    0.0233
     EDDAV:  cpu time   13.1687: real time   13.1712
       DOS:  cpu time    0.0014: real time    0.0014
    CHARGE:  cpu time    0.3958: real time    0.3958
    MIXING:  cpu time    0.0115: real time    0.0115
    --------------------------------------------
      LOOP:  cpu time   13.9582: real time   13.9609

 eigenvalue-minimisations  :  1456
 total energy-change (2. order) : 0.1293725E+03  (-0.2767960E+02)
 number of electron    1055.9998592 magnetization 
 augmentation part      445.5859531 magnetization 

 Broyden mixing:
  rms(total) = 0.94560E+01    rms(broyden)= 0.94542E+01
  rms(prec ) = 0.99169E+01
  weight for this iteration     100.00

 eigenvalues of (default mixing * dielectric matrix)
  average eigenvalue GAMMA=   0.4042
  0.4042  0.4042

 Free energy of the ion-electron system (eV)
  ---------------------------------------------------
  alpha Z        PSCENC =      2592.50432107
  Ewald energy   TEWEN  =    349772.29928460
  -Hartree energ DENC   =   -510644.48446432
  -exchange      EXHF   =         0.00000000
  -V(xc)+E(xc)   XCENC  =      4834.94663390
  PAW double counting   =    161474.01235683  -167868.48471072
  entropy T*S    EENTRO =        -0.86282885
  eigenvalues    EBANDS =    -22013.24049294
  atomic energy  EATOM  =    181336.80673834
  Solvation  Ediel_sol  =         0.00000000
  ---------------------------------------------------
  free energy    TOTEN  =      -516.50316209 eV

  energy without entropy =     -515.64033324  energy(sigma->0) =     -516.07174767


--------------------------------------------------------------------------------------------------------




--------------------------------------- Iteration      1(   8)  ---------------------------------------


    POTLOK:  cpu time    0.3583: real time    0.3586
    SETDIJ:  cpu time    0.0247: real time    0.0247
     EDDAV:  cpu time   14.9725: real time   14.9750
       DOS:  cpu time    0.0016: real time    0.0015
    CHARGE:  cpu time    0.3955: real time    0.3955
    MIXING:  cpu time    0.0121: real time    0.0121
    --------------------------------------------
      LOOP:  cpu time   15.7646: real time   15.7674

 eigenvalue-minimisations  :  1728
 total energy-change (2. order) :-0.1237257E+03  (-0.2507146E+02)
 number of electron    1055.9998943 magnetization 
 augmentation part      410.1967478 magnetization 

 Broyden mixing:
  rms(total) = 0.17880E+02    rms(broyden)= 0.17876E+02
  rms(prec ) = 0.21906E+02
  weight for this iteration     100.00

 eigenvalues of (default mixing * dielectric matrix)
  average eigenvalue GAMMA=   0.4029
  0.5328  0.5328  0.1430

 Free energy of the ion-electron system (eV)
  ---------------------------------------------------
  alpha Z        PSCENC =      2592.50432107
  Ewald energy   TEWEN  =    349772.29928460
  -Hartree energ DENC   =   -511678.05349853
  -exchange      EXHF   =         0.00000000
  -V(xc)+E(xc)   XCENC  =      4869.28766903
  PAW double counting   =    168698.91899404  -175273.16465298
  entropy T*S    EENTRO =        -1.13328742
  eigenvalues    EBANDS =    -20957.69440391
  atomic energy  EATOM  =    181336.80673834
  Solvation  Ediel_sol  =         0.00000000
  ---------------------------------------------------
  free energy    TOTEN  =      -640.22883577 eV

  energy without entropy =     -639.09554834  energy(sigma->0) =     -639.66219206


--------------------------------------------------------------------------------------------------------




--------------------------------------- Iteration      1(   9)  ---------------------------------------


    POTLOK:  cpu time    0.3536: real time    0.3537
    SETDIJ:  cpu time    0.0232: real time    0.0232
     EDDAV:  cpu time   14.8941: real time   14.8973
       DOS:  cpu time    0.0016: real time    0.0016
    CHARGE:  cpu time    0.3966: real time    0.3966
    MIXING:  cpu time    0.0125: real time    0.0125
    --------------------------------------------
      LOOP:  cpu time   15.6817: real time   15.6850

 eigenvalue-minimisations  :  1688
 total energy-change (2. order) : 0.7729878E+02  (-0.2735307E+02)
 number of electron    1055.9998800 magnetization 
 augmentation part      408.2088670 magnetization 

 Broyden mixing:
  rms(total) = 0.12373E+02    rms(broyden)= 0.12364E+02
  rms(prec ) = 0.14212E+02
  weight for this iteration     100.00

 eigenvalues of (default mixing * dielectric matrix)
  average eigenvalue GAMMA=   0.4250
  0.9494  0.3686  0.2789  0.1032

 Free energy of the ion-electron system (eV)
  ---------------------------------------------------
  alpha Z        PSCENC =      2592.50432107
  Ewald energy   TEWEN  =    349772.29928460
  -Hartree energ DENC   =   -511925.43413470
  -exchange      EXHF   =         0.00000000
  -V(xc)+E(xc)   XCENC  =      4871.93632799
  PAW double counting   =    172912.11695754  -179531.64676936
  entropy T*S    EENTRO =        -1.15001491
  eigenvalues    EBANDS =    -20590.36276708
  atomic energy  EATOM  =    181336.80673834
  Solvation  Ediel_sol  =         0.00000000
  ---------------------------------------------------
  free energy    TOTEN  =      -562.93005650 eV

  energy without entropy =     -561.78004160  energy(sigma->0) =     -562.35504905


--------------------------------------------------------------------------------------------------------




--------------------------------------- Iteration      1(  10)  ---------------------------------------


    POTLOK:  cpu time    0.3530: real time    0.3535
    SETDIJ:  cpu time    0.0235: real time    0.0235
     EDDAV:  cpu time   15.0213: real time   15.0238
       DOS:  cpu time    0.0015: real time    0.0015
    CHARGE:  cpu time    0.3990: real time    0.3990
    MIXING:  cpu time    0.0132: real time    0.0132
    --------------------------------------------
      LOOP:  cpu time   15.8116: real time   15.8146

 eigenvalue-minimisations  :  1728
 total energy-change (2. order) : 0.4119480E+02  (-0.1540265E+02)
 number of electron    1055.9998532 magnetization 
 augmentation part      408.3069330 magnetization 

 Broyden mixing:
  rms(total) = 0.82021E+01    rms(broyden)= 0.81988E+01
  rms(prec ) = 0.87748E+01
  weight for this iteration     100.00

 eigenvalues of (default mixing * dielectric matrix)
  average eigenvalue GAMMA=   0.5336
  1.6190  0.3891  0.3891  0.1577  0.1129

 Free energy of the ion-electron system (eV)
  ---------------------------------------------------
  alpha Z        PSCENC =      2592.50432107
  Ewald energy   TEWEN  =    349772.29928460
  -Hartree energ DENC   =   -512027.33472978
  -exchange      EXHF   =         0.00000000
  -V(xc)+E(xc)   XCENC  =      4869.84549937
  PAW double counting   =    177591.77059079  -184245.80962394
  entropy T*S    EENTRO =        -1.17003234
  eigenvalues    EBANDS =    -20410.64730241
  atomic energy  EATOM  =    181336.80673834
  Solvation  Ediel_sol  =         0.00000000
  ---------------------------------------------------
  free energy    TOTEN  =      -521.73525430 eV

  energy without entropy =     -520.56522196  energy(sigma->0) =     -521.15023813


--------------------------------------------------------------------------------------------------------




--------------------------------------- Iteration      1(  11)  ---------------------------------------


    POTLOK:  cpu time    0.3602: real time    0.3603
    SETDIJ:  cpu time    0.0245: real time    0.0245
     EDDAV:  cpu time   15.2791: real time   15.2819
       DOS:  cpu time    0.0015: real time    0.0015
    CHARGE:  cpu time    0.3924: real time    0.3925
    MIXING:  cpu time    0.0135: real time    0.0135
    --------------------------------------------
      LOOP:  cpu time   16.0711: real time   16.0741

 eigenvalue-minimisations  :  1760
 total energy-change (2. order) :-0.5117379E+01  (-0.9530694E+01)
 number of electron    1055.9998542 magnetization 
 augmentation part      407.7121617 magnetization 

 Broyden mixing:
  rms(total) = 0.10502E+02    rms(broyden)= 0.10498E+02
  rms(prec ) = 0.12670E+02
  weight for this iteration     100.00

 eigenvalues of (default mixing * dielectric matrix)
  average eigenvalue GAMMA=   0.5482
  2.0356  0.3900  0.3900  0.1858  0.1858  0.1021

 Free energy of the ion-electron system (eV)
  ---------------------------------------------------
  alpha Z        PSCENC =      2592.50432107
  Ewald energy   TEWEN  =    349772.29928460
  -Hartree energ DENC   =   -511868.84680664
  -exchange      EXHF   =         0.00000000
  -V(xc)+E(xc)   XCENC  =      4867.40329524
  PAW double counting   =    184011.04637779  -190711.36466511
  entropy T*S    EENTRO =        -1.44269350
  eigenvalues    EBANDS =    -20525.25848528
  atomic energy  EATOM  =    181336.80673834
  Solvation  Ediel_sol  =         0.00000000
  ---------------------------------------------------
  free energy    TOTEN  =      -526.85263348 eV

  energy without entropy =     -525.40993998  energy(sigma->0) =     -526.13128673


--------------------------------------------------------------------------------------------------------




--------------------------------------- Iteration      1(  12)  ---------------------------------------


    POTLOK:  cpu time    0.3530: real time    0.3530
    SETDIJ:  cpu time    0.0240: real time    0.0240
     EDDAV:  cpu time   14.7104: real time   14.7131
       DOS:  cpu time    0.0015: real time    0.0015
    CHARGE:  cpu time    0.5348: real time    0.5349
    MIXING:  cpu time    0.0138: real time    0.0138
    --------------------------------------------
      LOOP:  cpu time   15.6375: real time   15.6403

 eigenvalue-minimisations  :  1720
 total energy-change (2. order) : 0.7331805E+01  (-0.1057645E+02)
 number of electron    1055.9998632 magnetization 
 augmentation part      412.8661255 magnetization 

 Broyden mixing:
  rms(total) = 0.74969E+01    rms(broyden)= 0.74929E+01
  rms(prec ) = 0.84778E+01
  weight for this iteration     100.00

 eigenvalues of (default mixing * dielectric matrix)
  average eigenvalue GAMMA=   0.5729
  2.3620  0.4300  0.4300  0.3680  0.1921  0.1289  0.0995

 Free energy of the ion-electron system (eV)
  ---------------------------------------------------
  alpha Z        PSCENC =      2592.50432107
  Ewald energy   TEWEN  =    349772.29928460
  -Hartree energ DENC   =   -511885.79078586
  -exchange      EXHF   =         0.00000000
  -V(xc)+E(xc)   XCENC  =      4862.89948013
  PAW double counting   =    187953.42201272  -194669.57303486
  entropy T*S    EENTRO =        -1.22074667
  eigenvalues    EBANDS =    -20480.86809808
  atomic energy  EATOM  =    181336.80673834
  Solvation  Ediel_sol  =         0.00000000
  ---------------------------------------------------
  free energy    TOTEN  =      -519.52082861 eV

  energy without entropy =     -518.30008194  energy(sigma->0) =     -518.91045527


--------------------------------------------------------------------------------------------------------




--------------------------------------- Iteration      1(  13)  ---------------------------------------


    POTLOK:  cpu time    0.3545: real time    0.3545
    SETDIJ:  cpu time    0.0232: real time    0.0232
     EDDAV:  cpu time   14.8796: real time   14.8821
       DOS:  cpu time    0.0017: real time    0.0016
    CHARGE:  cpu time    0.4910: real time    0.4911
    MIXING:  cpu time    0.0278: real time    0.0278
    --------------------------------------------
      LOOP:  cpu time   15.7777: real time   15.7803

 eigenvalue-minimisations  :  1744
 total energy-change (2. order) : 0.7409431E+01  (-0.6385622E+01)
 number of electron    1055.9998558 magnetization 
 augmentation part      415.7323228 magnetization 

 Broyden mixing:
  rms(total) = 0.86306E+01    rms(broyden)= 0.86272E+01
  rms(prec ) = 0.94065E+01
  weight for this iteration     100.00

 eigenvalues of (default mixing * dielectric matrix)
  average eigenvalue GAMMA=   0.5380
  2.4238  0.4382  0.4382  0.4325  0.1993  0.1014  0.1352  0.1352

 Free energy of the ion-electron system (eV)
  ---------------------------------------------------
  alpha Z        PSCENC =      2592.50432107
  Ewald energy   TEWEN  =    349772.29928460
  -Hartree energ DENC   =   -511666.84862720
  -exchange      EXHF   =         0.00000000
  -V(xc)+E(xc)   XCENC  =      4861.11987746
  PAW double counting   =    190754.83274693  -197488.72318680
  entropy T*S    EENTRO =        -1.35515470
  eigenvalues    EBANDS =    -20672.74739767
  atomic energy  EATOM  =    181336.80673834
  Solvation  Ediel_sol  =         0.00000000
  ---------------------------------------------------
  free energy    TOTEN  =      -512.11139797 eV

  energy without entropy =     -510.75624327  energy(sigma->0) =     -511.43382062


--------------------------------------------------------------------------------------------------------




--------------------------------------- Iteration      1(  14)  ---------------------------------------


    POTLOK:  cpu time    0.4170: real time    0.4170
    SETDIJ:  cpu time    0.0241: real time    0.0241
     EDDAV:  cpu time   14.8415: real time   14.8446
       DOS:  cpu time    0.0015: real time    0.0015
    CHARGE:  cpu time    0.3942: real time    0.3942
    MIXING:  cpu time    0.0158: real time    0.0158
    --------------------------------------------
      LOOP:  cpu time   15.6941: real time   15.6973

 eigenvalue-minimisations  :  1736
 total energy-change (2. order) : 0.2245267E+02  (-0.5051583E+01)
 number of electron    1055.9998632 magnetization 
 augmentation part      419.9941727 magnetization 

 Broyden mixing:
  rms(total) = 0.47499E+01    rms(broyden)= 0.47467E+01
  rms(prec ) = 0.52824E+01
  weight for this iteration     100.00

 eigenvalues of (default mixing * dielectric matrix)
  average eigenvalue GAMMA=   0.4951
  2.2522  0.4573  0.4573  0.3698  0.3698  0.1673  0.1673  0.1007  0.1142

 Free energy of the ion-electron system (eV)
  ---------------------------------------------------
  alpha Z        PSCENC =      2592.50432107
  Ewald energy   TEWEN  =    349772.29928460
  -Hartree energ DENC   =   -511660.40913208
  -exchange      EXHF   =         0.00000000
  -V(xc)+E(xc)   XCENC  =      4860.23191299
  PAW double counting   =    191251.37796090  -197983.36641365
  entropy T*S    EENTRO =        -1.10623457
  eigenvalues    EBANDS =    -20657.99716545
  atomic energy  EATOM  =    181336.80673834
  Solvation  Ediel_sol  =         0.00000000
  ---------------------------------------------------
  free energy    TOTEN  =      -489.65872784 eV

  energy without entropy =     -488.55249327  energy(sigma->0) =     -489.10561056


--------------------------------------------------------------------------------------------------------




--------------------------------------- Iteration      1(  15)  ---------------------------------------


    POTLOK:  cpu time    0.3543: real time    0.3547
    SETDIJ:  cpu time    0.0234: real time    0.0234
     EDDAV:  cpu time   15.0301: real time   15.0391
       DOS:  cpu time    0.0016: real time    0.0016
    CHARGE:  cpu time    0.4044: real time    0.4044
    MIXING:  cpu time    0.0160: real time    0.0160
    --------------------------------------------
      LOOP:  cpu time   15.8298: real time   15.8391

 eigenvalue-minimisations  :  1728
 total energy-change (2. order) : 0.6234868E+01  (-0.2039908E+01)
 number of electron    1055.9998673 magnetization 
 augmentation part      418.4397413 magnetization 

 Broyden mixing:
  rms(total) = 0.42274E+01    rms(broyden)= 0.42260E+01
  rms(prec ) = 0.47242E+01
  weight for this iteration     100.00

 eigenvalues of (default mixing * dielectric matrix)
  average eigenvalue GAMMA=   0.4722
  2.0818  0.5451  0.5451  0.4088  0.4088  0.1881  0.1881  0.1009  0.1280  0.1280

 Free energy of the ion-electron system (eV)
  ---------------------------------------------------
  alpha Z        PSCENC =      2592.50432107
  Ewald energy   TEWEN  =    349772.29928460
  -Hartree energ DENC   =   -511727.98682294
  -exchange      EXHF   =         0.00000000
  -V(xc)+E(xc)   XCENC  =      4862.30518005
  PAW double counting   =    190086.76499936  -196813.60122879
  entropy T*S    EENTRO =        -1.14197726
  eigenvalues    EBANDS =    -20591.37435379
  atomic energy  EATOM  =    181336.80673834
  Solvation  Ediel_sol  =         0.00000000
  ---------------------------------------------------
  free energy    TOTEN  =      -483.42385936 eV

  energy without entropy =     -482.28188210  energy(sigma->0) =     -482.85287073


--------------------------------------------------------------------------------------------------------




--------------------------------------- Iteration      1(  16)  ---------------------------------------


    POTLOK:  cpu time    0.3532: real time    0.3533
    SETDIJ:  cpu time    0.0235: real time    0.0235
     EDDAV:  cpu time   15.1941: real time   15.2029
       DOS:  cpu time    0.0016: real time    0.0016
    CHARGE:  cpu time    0.3969: real time    0.3971
    MIXING:  cpu time    0.0170: real time    0.0170
    --------------------------------------------
      LOOP:  cpu time   15.9862: real time   15.9953

 eigenvalue-minimisations  :  1760
 total energy-change (2. order) : 0.4787962E+01  (-0.1028193E+01)
 number of electron    1055.9998640 magnetization 
 augmentation part      416.8408391 magnetization 

 Broyden mixing:
  rms(total) = 0.34263E+01    rms(broyden)= 0.34254E+01
  rms(prec ) = 0.37948E+01
  weight for this iteration     100.00

 eigenvalues of (default mixing * dielectric matrix)
  average eigenvalue GAMMA=   0.4588
  2.0661  0.5962  0.5962  0.3864  0.3864  0.3231  0.1942  0.1396  0.1396  0.1008
  0.1186

 Free energy of the ion-electron system (eV)
  ---------------------------------------------------
  alpha Z        PSCENC =      2592.50432107
  Ewald energy   TEWEN  =    349772.29928460
  -Hartree energ DENC   =   -511794.69536520
  -exchange      EXHF   =         0.00000000
  -V(xc)+E(xc)   XCENC  =      4864.19585442
  PAW double counting   =    188954.14907614  -195674.08880226
  entropy T*S    EENTRO =        -1.24897853
  eigenvalues    EBANDS =    -20528.55802586
  atomic energy  EATOM  =    181336.80673834
  Solvation  Ediel_sol  =         0.00000000
  ---------------------------------------------------
  free energy    TOTEN  =      -478.63589727 eV

  energy without entropy =     -477.38691874  energy(sigma->0) =     -478.01140801


--------------------------------------------------------------------------------------------------------




--------------------------------------- Iteration      1(  17)  ---------------------------------------


    POTLOK:  cpu time    0.3663: real time    0.3663
    SETDIJ:  cpu time    0.0233: real time    0.0233
     EDDAV:  cpu time   15.0402: real time   15.0476
       DOS:  cpu time    0.0014: real time    0.0014
    CHARGE:  cpu time    0.3899: real time    0.3899
    MIXING:  cpu time    0.0172: real time    0.0173
    --------------------------------------------
      LOOP:  cpu time   15.8383: real time   15.8458

 eigenvalue-minimisations  :  1736
 total energy-change (2. order) : 0.1464522E+01  (-0.5510518E+00)
 number of electron    1055.9998635 magnetization 
 augmentation part      416.4422979 magnetization 

 Broyden mixing:
  rms(total) = 0.28702E+01    rms(broyden)= 0.28695E+01
  rms(prec ) = 0.31542E+01
  weight for this iteration     100.00

 eigenvalues of (default mixing * dielectric matrix)
  average eigenvalue GAMMA=   0.4729
  2.0669  0.7577  0.7577  0.4331  0.4331  0.3865  0.1899  0.1526  0.1526  0.1008
  0.1222  0.1222

 Free energy of the ion-electron system (eV)
  ---------------------------------------------------
  alpha Z        PSCENC =      2592.50432107
  Ewald energy   TEWEN  =    349772.29928460
  -Hartree energ DENC   =   -511808.03585635
  -exchange      EXHF   =         0.00000000
  -V(xc)+E(xc)   XCENC  =      4864.43725515
  PAW double counting   =    188612.42390706  -195327.91862765
  entropy T*S    EENTRO =        -1.29478962
  eigenvalues    EBANDS =    -20518.39360765
  atomic energy  EATOM  =    181336.80673834
  Solvation  Ediel_sol  =         0.00000000
  ---------------------------------------------------
  free energy    TOTEN  =      -477.17137504 eV

  energy without entropy =     -475.87658542  energy(sigma->0) =     -476.52398023


--------------------------------------------------------------------------------------------------------




--------------------------------------- Iteration      1(  18)  ---------------------------------------


    POTLOK:  cpu time    0.3590: real time    0.3594
    SETDIJ:  cpu time    0.0240: real time    0.0240
     EDDAV:  cpu time   14.7944: real time   14.7971
       DOS:  cpu time    0.0017: real time    0.0017
    CHARGE:  cpu time    0.3965: real time    0.3965
    MIXING:  cpu time    0.0180: real time    0.0180
    --------------------------------------------
      LOOP:  cpu time   15.5936: real time   15.5968

 eigenvalue-minimisations  :  1696
 total energy-change (2. order) : 0.1740511E+01  (-0.2538771E+00)
 number of electron    1055.9998652 magnetization 
 augmentation part      416.4370340 magnetization 

 Broyden mixing:
  rms(total) = 0.24086E+01    rms(broyden)= 0.24080E+01
  rms(prec ) = 0.26681E+01
  weight for this iteration     100.00

 eigenvalues of (default mixing * dielectric matrix)
  average eigenvalue GAMMA=   0.5018
  2.1158  1.0064  1.0064  0.4520  0.4520  0.3996  0.2597  0.1746  0.1746  0.1316
  0.1316  0.1008  0.1185

 Free energy of the ion-electron system (eV)
  ---------------------------------------------------
  alpha Z        PSCENC =      2592.50432107
  Ewald energy   TEWEN  =    349772.29928460
  -Hartree energ DENC   =   -511819.50848597
  -exchange      EXHF   =         0.00000000
  -V(xc)+E(xc)   XCENC  =      4864.43483268
  PAW double counting   =    188074.26958302  -194781.62038715
  entropy T*S    EENTRO =        -1.27003550
  eigenvalues    EBANDS =    -20513.34671540
  atomic energy  EATOM  =    181336.80673834
  Solvation  Ediel_sol  =         0.00000000
  ---------------------------------------------------
  free energy    TOTEN  =      -475.43086429 eV

  energy without entropy =     -474.16082880  energy(sigma->0) =     -474.79584655


--------------------------------------------------------------------------------------------------------




--------------------------------------- Iteration      1(  19)  ---------------------------------------


    POTLOK:  cpu time    0.3578: real time    0.3578
    SETDIJ:  cpu time    0.0232: real time    0.0232
     EDDAV:  cpu time   14.9999: real time   15.0056
       DOS:  cpu time    0.0016: real time    0.0015
    CHARGE:  cpu time    0.3933: real time    0.3934
    MIXING:  cpu time    0.0202: real time    0.0212
    --------------------------------------------
      LOOP:  cpu time   15.7960: real time   15.8028

 eigenvalue-minimisations  :  1720
 total energy-change (2. order) : 0.8179487E+00  (-0.2292853E+00)
 number of electron    1055.9998628 magnetization 
 augmentation part      416.6685218 magnetization 

 Broyden mixing:
  rms(total) = 0.20870E+01    rms(broyden)= 0.20864E+01
  rms(prec ) = 0.23160E+01
  weight for this iteration     100.00

 eigenvalues of (default mixing * dielectric matrix)
  average eigenvalue GAMMA=   0.5059
  2.1015  1.1564  1.1564  0.4625  0.4625  0.3762  0.3762  0.1855  0.1855  0.1371
  0.1371  0.1008  0.1222  0.1222

 Free energy of the ion-electron system (eV)
  ---------------------------------------------------
  alpha Z        PSCENC =      2592.50432107
  Ewald energy   TEWEN  =    349772.29928460
  -Hartree energ DENC   =   -511832.52857918
  -exchange      EXHF   =         0.00000000
  -V(xc)+E(xc)   XCENC  =      4864.00247909
  PAW double counting   =    187434.88272082  -194130.12695295
  entropy T*S    EENTRO =        -1.26782080
  eigenvalues    EBANDS =    -20511.18510655
  atomic energy  EATOM  =    181336.80673834
  Solvation  Ediel_sol  =         0.00000000
  ---------------------------------------------------
  free energy    TOTEN  =      -474.61291556 eV

  energy without entropy =     -473.34509475  energy(sigma->0) =     -473.97900516


--------------------------------------------------------------------------------------------------------




--------------------------------------- Iteration      1(  20)  ---------------------------------------


    POTLOK:  cpu time    0.3582: real time    0.3582
    SETDIJ:  cpu time    0.0232: real time    0.0232
     EDDAV:  cpu time   15.0767: real time   15.0838
       DOS:  cpu time    0.0017: real time    0.0017
    CHARGE:  cpu time    0.3942: real time    0.3942
    MIXING:  cpu time    0.0206: real time    0.0206
    --------------------------------------------
      LOOP:  cpu time   15.8745: real time   15.8816

 eigenvalue-minimisations  :  1736
 total energy-change (2. order) : 0.8558804E+00  (-0.8270284E-01)
 number of electron    1055.9998622 magnetization 
 augmentation part      416.5114446 magnetization 

 Broyden mixing:
  rms(total) = 0.17384E+01    rms(broyden)= 0.17382E+01
  rms(prec ) = 0.19337E+01
  weight for this iteration     100.00

 eigenvalues of (default mixing * dielectric matrix)
  average eigenvalue GAMMA=   0.5173
  2.0626  1.3411  1.3411  0.4811  0.4811  0.4250  0.4250  0.2047  0.2047  0.1561
  0.1561  0.1008  0.1308  0.1308  0.1192

 Free energy of the ion-electron system (eV)
  ---------------------------------------------------
  alpha Z        PSCENC =      2592.50432107
  Ewald energy   TEWEN  =    349772.29928460
  -Hartree energ DENC   =   -511848.65681871
  -exchange      EXHF   =         0.00000000
  -V(xc)+E(xc)   XCENC  =      4864.21602591
  PAW double counting   =    186846.94457869  -193534.33820036
  entropy T*S    EENTRO =        -1.27322377
  eigenvalues    EBANDS =    -20502.25974095
  atomic energy  EATOM  =    181336.80673834
  Solvation  Ediel_sol  =         0.00000000
  ---------------------------------------------------
  free energy    TOTEN  =      -473.75703518 eV

  energy without entropy =     -472.48381141  energy(sigma->0) =     -473.12042330


--------------------------------------------------------------------------------------------------------




--------------------------------------- Iteration      1(  21)  ---------------------------------------


    POTLOK:  cpu time    0.3588: real time    0.3590
    SETDIJ:  cpu time    0.0232: real time    0.0232
     EDDAV:  cpu time   14.8302: real time   14.8344
       DOS:  cpu time    0.0020: real time    0.0020
    CHARGE:  cpu time    0.4055: real time    0.4055
    MIXING:  cpu time    0.0223: real time    0.0223
    --------------------------------------------
      LOOP:  cpu time   15.6421: real time   15.6464

 eigenvalue-minimisations  :  1736
 total energy-change (2. order) : 0.8798575E+00  (-0.5408760E-01)
 number of electron    1055.9998630 magnetization 
 augmentation part      416.2047669 magnetization 

 Broyden mixing:
  rms(total) = 0.13958E+01    rms(broyden)= 0.13956E+01
  rms(prec ) = 0.15559E+01
  weight for this iteration     100.00

 eigenvalues of (default mixing * dielectric matrix)
  average eigenvalue GAMMA=   0.5521
  1.9892  1.5961  1.5961  0.5827  0.5827  0.4467  0.4467  0.4113  0.2094  0.1727
  0.1727  0.1008  0.1347  0.1347  0.1360  0.1217

 Free energy of the ion-electron system (eV)
  ---------------------------------------------------
  alpha Z        PSCENC =      2592.50432107
  Ewald energy   TEWEN  =    349772.29928460
  -Hartree energ DENC   =   -511875.53606053
  -exchange      EXHF   =         0.00000000
  -V(xc)+E(xc)   XCENC  =      4864.55873651
  PAW double counting   =    186018.35357076  -192694.84590416
  entropy T*S    EENTRO =        -1.31968971
  eigenvalues    EBANDS =    -20485.69817456
  atomic energy  EATOM  =    181336.80673834
  Solvation  Ediel_sol  =         0.00000000
  ---------------------------------------------------
  free energy    TOTEN  =      -472.87717767 eV

  energy without entropy =     -471.55748796  energy(sigma->0) =     -472.21733282


--------------------------------------------------------------------------------------------------------




--------------------------------------- Iteration      1(  22)  ---------------------------------------


    POTLOK:  cpu time    0.3599: real time    0.3599
    SETDIJ:  cpu time    0.0236: real time    0.0236
     EDDAV:  cpu time   15.6287: real time   15.6340
       DOS:  cpu time    0.0046: real time    0.0046
    CHARGE:  cpu time    0.3941: real time    0.3941
    MIXING:  cpu time    0.0215: real time    0.0215
    --------------------------------------------
      LOOP:  cpu time   16.4324: real time   16.4377

 eigenvalue-minimisations  :  1832
 total energy-change (2. order) : 0.8190744E+00  (-0.9843405E-01)
 number of electron    1055.9998640 magnetization 
 augmentation part      415.7054185 magnetization 

 Broyden mixing:
  rms(total) = 0.99578E+00    rms(broyden)= 0.99520E+00
  rms(prec ) = 0.10880E+01
  weight for this iteration     100.00

 eigenvalues of (default mixing * dielectric matrix)
  average eigenvalue GAMMA=   0.5665
  1.9916  1.7135  1.7135  0.7532  0.7532  0.4580  0.4580  0.4184  0.2279  0.1788
  0.1788  0.1008  0.1350  0.1350  0.1211  0.1471  0.1471

 Free energy of the ion-electron system (eV)
  ---------------------------------------------------
  alpha Z        PSCENC =      2592.50432107
  Ewald energy   TEWEN  =    349772.29928460
  -Hartree energ DENC   =   -511917.83129345
  -exchange      EXHF   =         0.00000000
  -V(xc)+E(xc)   XCENC  =      4865.04587107
  PAW double counting   =    184847.90112814  -191507.97421285
  entropy T*S    EENTRO =        -1.34823734
  eigenvalues    EBANDS =    -20459.46170286
  atomic energy  EATOM  =    181336.80673834
  Solvation  Ediel_sol  =         0.00000000
  ---------------------------------------------------
  free energy    TOTEN  =      -472.05810327 eV

  energy without entropy =     -470.70986593  energy(sigma->0) =     -471.38398460


--------------------------------------------------------------------------------------------------------




--------------------------------------- Iteration      1(  23)  ---------------------------------------


    POTLOK:  cpu time    0.3650: real time    0.3650
    SETDIJ:  cpu time    0.0231: real time    0.0231
     EDDAV:  cpu time   14.8749: real time   14.8775
       DOS:  cpu time    0.0067: real time    0.0067
    CHARGE:  cpu time    0.6233: real time    0.6233
    MIXING:  cpu time    0.0225: real time    0.0225
    --------------------------------------------
      LOOP:  cpu time   15.9156: real time   15.9182

 eigenvalue-minimisations  :  1744
 total energy-change (2. order) : 0.3967750E+00  (-0.8992779E-01)
 number of electron    1055.9998641 magnetization 
 augmentation part      415.5119424 magnetization 

 Broyden mixing:
  rms(total) = 0.54482E+00    rms(broyden)= 0.54409E+00
  rms(prec ) = 0.57953E+00
  weight for this iteration     100.00

 eigenvalues of (default mixing * dielectric matrix)
  average eigenvalue GAMMA=   0.5520
  2.0075  1.7183  1.7183  0.7806  0.7806  0.4582  0.4582  0.4026  0.2831  0.1891
  0.1891  0.1008  0.1628  0.1628  0.1343  0.1343  0.1213  0.1346

 Free energy of the ion-electron system (eV)
  ---------------------------------------------------
  alpha Z        PSCENC =      2592.50432107
  Ewald energy   TEWEN  =    349772.29928460
  -Hartree energ DENC   =   -511948.87728360
  -exchange      EXHF   =         0.00000000
  -V(xc)+E(xc)   XCENC  =      4865.17445021
  PAW double counting   =    184224.44962441  -190873.56253114
  entropy T*S    EENTRO =        -1.38884028
  eigenvalues    EBANDS =    -20439.06709189
  atomic energy  EATOM  =    181336.80673834
  Solvation  Ediel_sol  =         0.00000000
  ---------------------------------------------------
  free energy    TOTEN  =      -471.66132827 eV

  energy without entropy =     -470.27248799  energy(sigma->0) =     -470.96690813


--------------------------------------------------------------------------------------------------------




[...]
   -.112E+03 0.330E+03 -.570E+04   0.115E+03 -.332E+03 0.571E+04   -.286E+01 0.277E+01 -.207E+01   0.764E-02 0.140E+00 -.143E+00
   -.806E+03 -.365E+03 0.389E+04   0.812E+03 0.366E+03 -.389E+04   -.516E+01 -.149E+01 0.828E+00   0.234E+00 0.955E-02 0.395E+00
   -.318E+03 0.240E+03 0.634E+04   0.321E+03 -.243E+03 -.635E+04   -.341E+01 0.281E+01 0.566E+01   0.234E+00 -.102E+00 -.191E+00
   0.175E+03 -.385E+03 -.722E+03   -.176E+03 0.386E+03 0.720E+03   0.706E+00 -.105E+01 0.154E+01   -.127E-01 -.161E-01 0.266E+00
   -.168E+03 -.395E+03 -.455E+04   0.168E+03 0.395E+03 0.455E+04   -.381E+00 -.407E+00 -.338E+01   -.259E+00 0.304E-01 -.714E-01
   0.292E+03 -.580E+03 0.307E+04   -.294E+03 0.584E+03 -.307E+04   0.188E+01 -.315E+01 0.225E+01   0.468E-01 -.506E-01 0.377E+00
   0.690E+02 0.275E+03 -.595E+04   -.700E+02 -.277E+03 0.595E+04   0.104E+01 0.247E+01 0.178E+01   0.629E-01 0.853E-01 -.168E+00
   0.582E+03 0.358E+03 0.627E+04   -.583E+03 -.362E+03 -.627E+04   0.507E+00 0.465E+01 0.486E+01   -.959E-01 -.973E-01 -.809E-01
   0.407E+03 0.930E+03 0.397E+04   -.408E+03 -.932E+03 -.397E+04   0.122E+01 0.281E+01 -.911E+00   -.125E-01 -.124E+00 0.330E+00
   0.246E+03 0.479E+03 0.502E+03   -.247E+03 -.479E+03 -.504E+03   0.499E+00 0.367E+00 0.146E+01   -.299E-01 -.468E-01 0.366E+00
   0.304E+02 0.128E+03 -.290E+04   -.327E+02 -.127E+03 0.290E+04   0.226E+01 -.400E-01 0.865E+00   -.131E+00 -.221E+00 0.271E-01
   -.479E+03 0.857E+02 0.507E+03   0.480E+03 -.850E+02 -.508E+03   -.865E+00 -.679E+00 0.103E+01   -.183E-02 -.554E-01 0.463E+00
   -.389E+02 0.197E+03 -.265E+04   0.390E+02 -.197E+03 0.265E+04   -.865E+00 -.513E+00 0.296E+01   -.164E-01 -.108E-01 0.866E-01
   -.109E+03 0.331E+03 -.569E+04   0.112E+03 -.334E+03 0.570E+04   -.289E+01 0.251E+01 -.201E+01   -.152E+00 -.722E-02 -.607E-01
   -.417E+03 0.498E+03 0.327E+04   0.416E+03 -.501E+03 -.326E+04   0.105E+01 0.282E+01 -.334E+01   0.104E+00 -.892E-01 0.499E+00
   0.278E+03 -.300E+03 -.779E+03   -.278E+03 0.301E+03 0.778E+03   0.724E+00 -.124E+01 0.162E+00   0.747E-01 0.189E-01 0.303E+00
   0.482E+03 -.302E+03 -.447E+04   -.484E+03 0.306E+03 0.447E+04   0.147E+01 -.320E+01 -.846E+00   0.197E+00 -.243E-01 -.901E-01
   0.333E+03 -.588E+03 0.253E+04   -.335E+03 0.591E+03 -.253E+04   0.196E+01 -.292E+01 -.118E+01   -.992E-01 0.621E-01 0.598E+00
   -.231E+03 -.302E+03 -.519E+04   0.231E+03 0.300E+03 0.520E+04   0.455E+00 0.247E+01 -.354E+01   -.295E-01 -.272E+00 -.683E-01
   0.121E+03 0.912E+03 0.383E+04   -.122E+03 -.916E+03 -.383E+04   0.314E+00 0.350E+01 0.376E+00   0.969E-01 0.177E+00 0.115E+00
   0.220E+03 0.499E+03 0.432E+03   -.221E+03 -.499E+03 -.434E+03   0.832E+00 0.370E+00 0.969E+00   0.900E-01 -.622E-01 0.480E+00
   0.338E+03 0.379E+03 -.289E+04   -.339E+03 -.382E+03 0.289E+04   0.171E+01 0.256E+01 0.145E+01   0.815E-01 0.465E-01 -.987E-01
   -.528E+03 0.525E+02 0.345E+03   0.529E+03 -.522E+02 -.347E+03   -.724E+00 -.317E+00 0.146E+01   0.391E-03 0.120E-01 0.330E+00
   -.619E+03 -.418E+01 -.327E+04   0.623E+03 0.700E+01 0.327E+04   -.344E+01 -.212E+01 -.599E+00   0.120E+00 -.120E+00 -.132E+00
   -.770E+03 0.299E+03 0.384E+04   0.774E+03 -.298E+03 -.384E+04   -.220E+01 -.464E-01 0.413E+00   -.100E+00 0.327E-01 0.103E+00
   0.266E+03 -.520E+03 0.620E+04   -.269E+03 0.524E+03 -.621E+04   0.160E+01 -.261E+01 0.365E+01   -.293E-01 0.718E-02 -.835E-01
   -.982E+02 0.853E+02 -.265E+03   0.996E+02 -.869E+02 0.263E+03   -.164E+01 0.178E+01 0.740E+00   -.424E-01 0.346E-01 0.775E-01
   -.261E+03 -.133E+03 -.164E+04   0.264E+03 0.133E+03 0.164E+04   -.146E+01 0.292E+00 0.725E+00   -.683E-01 0.659E-02 0.462E-02
   0.804E+02 -.345E+03 0.247E+04   -.811E+02 0.347E+03 -.247E+04   0.669E+00 -.185E+01 0.190E+01   -.360E-01 0.147E+00 0.263E-02
   -.501E+02 0.205E+01 0.784E+03   0.508E+02 -.343E+01 -.783E+03   -.692E+00 0.138E+01 -.293E+00   0.930E-02 0.415E-01 0.236E+00
   -.889E+02 0.133E+03 -.228E+04   0.897E+02 -.134E+03 0.229E+04   -.413E-01 0.270E+00 -.184E+01   -.728E-01 -.382E-01 -.381E-01
   0.828E+01 -.146E+03 -.705E+03   -.750E+01 0.148E+03 0.704E+03   -.105E+01 -.242E+01 -.355E+00   -.321E-01 -.876E-01 0.733E-01
   -.808E+01 -.398E+03 0.175E+04   0.936E+01 0.403E+03 -.175E+04   -.139E+01 -.264E+01 0.610E+00   0.511E-02 0.550E-01 0.128E+00
   -.666E+02 -.137E+03 0.410E+03   0.674E+02 0.140E+03 -.410E+03   -.827E+00 -.271E+01 0.205E+00   0.358E-01 -.212E-01 0.163E+00
   0.559E+02 -.222E+03 0.191E+04   -.566E+02 0.224E+03 -.191E+04   -.399E+00 -.147E+01 0.412E+01   0.651E-01 0.145E-01 0.802E-01
   0.166E+03 -.610E+02 0.479E+03   -.169E+03 0.611E+02 -.479E+03   0.266E+01 -.413E+00 0.619E+00   -.308E-02 0.245E-01 0.173E+00
   0.194E+03 -.486E+01 -.823E+03   -.197E+03 0.504E+01 0.822E+03   0.285E+01 0.141E+00 -.968E-01   0.710E-01 0.333E-01 0.670E-01
   0.340E+03 -.904E+02 -.225E+04   -.343E+03 0.896E+02 0.225E+04   0.174E+01 0.637E+00 -.137E+01   0.148E-01 0.163E+00 -.100E+00
   -.460E+02 0.137E+03 -.269E+03   0.472E+02 -.140E+03 0.268E+03   -.118E+01 0.194E+01 0.133E+01   0.151E-01 0.606E-01 0.144E+00
   -.322E+02 0.197E+03 -.175E+04   0.325E+02 -.200E+03 0.175E+04   0.921E+00 0.196E+01 -.972E+00   0.139E+00 0.122E+00 -.100E+00
   -.906E+02 0.318E+02 0.247E+04   0.915E+02 -.333E+02 -.247E+04   -.262E+00 0.656E+00 0.248E+01   0.308E-01 -.382E-01 -.871E-01
   -.538E+02 0.432E+02 0.811E+03   0.545E+02 -.443E+02 -.810E+03   -.717E+00 0.107E+01 -.748E+00   0.182E-02 0.206E-01 0.271E+00
   0.195E+03 -.163E+02 -.246E+04   -.196E+03 0.169E+02 0.247E+04   0.730E+00 0.464E+00 -.361E+01   0.312E-01 0.181E-01 -.997E-01
   -.952E+02 -.158E+03 -.786E+03   0.966E+02 0.161E+03 0.785E+03   -.112E+01 -.286E+01 -.420E+00   -.266E-01 0.482E-02 0.187E-01
   -.258E+03 -.224E+03 0.190E+04   0.261E+03 0.226E+03 -.190E+04   -.258E+01 -.551E+00 0.299E+01   -.306E-01 -.123E+00 -.127E-01
   -.847E+02 -.116E+03 0.468E+03   0.858E+02 0.118E+03 -.469E+03   -.913E+00 -.273E+01 0.605E+00   -.131E-02 0.208E-01 0.200E+00
   0.312E+03 -.128E+03 0.181E+04   -.314E+03 0.128E+03 -.181E+04   0.442E+00 0.393E+00 0.135E+01   -.159E+00 -.596E-02 0.955E-01
   0.171E+03 -.353E+02 0.476E+03   -.173E+03 0.355E+02 -.477E+03   0.264E+01 -.460E+00 0.122E+01   -.274E-01 -.343E-01 0.258E+00
   0.912E+02 0.579E+01 -.663E+03   -.934E+02 -.563E+01 0.661E+03   0.227E+01 -.470E+00 0.189E+01   -.276E-01 0.879E-02 0.732E-01
   -.128E+03 -.293E+02 -.244E+04   0.128E+03 0.318E+02 0.244E+04   -.180E-01 -.221E+01 -.262E+01   -.494E-01 0.417E-02 -.294E-01
   -.450E+02 0.139E+03 -.224E+03   0.464E+02 -.141E+03 0.223E+03   -.137E+01 0.202E+01 0.957E+00   -.192E-02 0.915E-02 0.113E+00
   -.312E+02 0.194E+03 -.175E+04   0.316E+02 -.197E+03 0.175E+04   0.883E+00 0.178E+01 -.971E+00   0.898E-01 0.230E-01 -.711E-01
   -.815E+02 0.601E+03 0.229E+04   0.826E+02 -.606E+03 -.229E+04   -.830E+00 0.223E+01 0.104E+01   -.201E-02 -.898E-01 0.491E-02
   -.533E+02 0.174E+03 0.104E+04   0.544E+02 -.176E+03 -.104E+04   -.114E+01 0.157E+01 0.113E+01   -.455E-02 0.392E-01 0.195E+00
   0.194E+03 -.133E+02 -.246E+04   -.196E+03 0.139E+02 0.246E+04   0.788E+00 0.423E+00 -.359E+01   0.459E-01 0.683E-02 -.572E-01
   -.909E+02 -.144E+03 -.795E+03   0.921E+02 0.147E+03 0.794E+03   -.968E+00 -.275E+01 -.553E-01   0.198E-01 0.525E-01 -.262E-01
   0.725E+02 -.115E+03 0.191E+04   -.738E+02 0.117E+03 -.191E+04   0.132E+01 -.137E+01 0.368E+01   -.292E-01 -.806E-01 0.719E-01
   -.491E+02 -.179E+03 0.530E+03   0.507E+02 0.182E+03 -.530E+03   -.134E+01 -.240E+01 0.468E+00   -.653E-02 -.255E-01 0.164E+00
   0.372E+03 0.248E+03 0.190E+04   -.375E+03 -.249E+03 -.190E+04   0.875E+00 0.717E+00 0.275E+01   -.789E-01 -.415E-01 0.124E-01
   0.189E+03 0.514E+02 0.505E+03   -.192E+03 -.511E+02 -.506E+03   0.265E+01 -.325E+00 0.335E+00   -.398E-01 -.345E-01 0.219E+00
   0.956E+02 0.166E+02 -.650E+03   -.977E+02 -.163E+02 0.648E+03   0.217E+01 -.599E+00 0.153E+01   -.917E-01 -.949E-02 0.346E-01
   -.127E+03 -.301E+02 -.243E+04   0.127E+03 0.328E+02 0.244E+04   0.133E-01 -.230E+01 -.263E+01   -.650E-01 -.672E-01 0.165E-01
   -.973E+02 0.853E+02 -.241E+03   0.986E+02 -.868E+02 0.239E+03   -.160E+01 0.181E+01 0.710E+00   0.153E-01 -.375E-01 0.448E-01
   -.262E+03 -.136E+03 -.164E+04   0.265E+03 0.135E+03 0.164E+04   -.154E+01 0.237E+00 0.525E+00   0.220E-01 -.114E+00 -.973E-02
   -.305E+03 0.489E+03 0.230E+04   0.307E+03 -.492E+03 -.231E+04   -.908E+00 0.108E+01 0.100E+01   0.406E-02 0.776E-01 -.129E+00
   -.113E+03 0.188E+03 0.110E+04   0.113E+03 -.189E+03 -.110E+04   -.694E+00 0.120E+01 0.161E+01   0.545E-01 -.345E-01 0.204E+00
   -.885E+02 0.136E+03 -.228E+04   0.893E+02 -.137E+03 0.229E+04   -.126E+00 0.363E+00 -.198E+01   -.361E-01 -.962E-01 -.118E-01
   0.431E+01 -.128E+03 -.707E+03   -.370E+01 0.131E+03 0.707E+03   -.955E+00 -.240E+01 -.360E+00   0.143E-01 -.162E-01 0.603E-01
   -.155E+03 -.242E+03 0.179E+04   0.155E+03 0.243E+03 -.180E+04   0.269E-01 -.650E-01 0.112E+01   0.436E-01 0.300E-01 0.597E-01
   -.102E+03 -.180E+03 0.483E+03   0.103E+03 0.182E+03 -.483E+03   -.824E+00 -.253E+01 0.123E+01   0.424E-01 -.240E-01 0.252E+00
   0.113E+03 0.265E+03 0.159E+04   -.115E+03 -.268E+03 -.159E+04   0.417E+00 0.199E+01 -.209E+01   0.892E-01 -.452E-01 0.883E-01
   0.156E+03 0.551E+02 0.444E+03   -.159E+03 -.549E+02 -.444E+03   0.276E+01 -.311E+00 0.689E+00   -.241E-01 0.278E-01 0.208E+00
   0.189E+03 0.111E+02 -.815E+03   -.192E+03 -.108E+02 0.814E+03   0.290E+01 0.682E-01 -.223E+00   0.613E-01 -.338E-01 0.213E-01
   0.339E+03 -.883E+02 -.224E+04   -.342E+03 0.877E+02 0.225E+04   0.163E+01 0.618E+00 -.139E+01   0.304E-01 0.237E-01 -.582E-01
 -----------------------------------------------------------------------------------------------
   -.702E+01 0.104E+01 -.536E+02   -.682E-12 -.568E-13 0.591E-11   0.632E+01 -.107E+01 0.425E+02   0.348E+00 0.461E-01 0.112E+02
 
 
 POSITION                                       TOTAL-FORCE (eV/Angst)
 -----------------------------------------------------------------------------------
      5.35228      4.81788      6.64784         0.204221     -0.205537     -0.140403
      5.93595      3.87238      9.58390        -0.012450      0.541906     -0.701373
      1.34228      2.04306      2.03119         0.227420     -0.385763     -0.843314
      2.24633      0.73197      3.71178         0.206687     -0.647405      1.533944
      6.04530      9.59083     10.07466         0.646971      0.446053      0.514989
      4.76861      3.35453      2.93606        -0.576523     -0.955900      1.718419
      5.35228      2.40903      5.87212        -0.142249      0.017162     -0.060879
      5.93595      1.46353      8.80817         0.231078      0.066247     -2.711935
      1.87746      3.73836      5.87212        -0.082750      0.168428      0.190167
      2.46113      2.79286      8.80817         0.114643      0.564295     -1.667111
      6.92203      4.68386      2.93606         0.759880      0.083407      1.574891
      5.09789      0.72485      0.92107         0.945173      0.832943     -1.144461
     10.98051      4.81788      6.64784         0.232829     -0.325621     -0.147716
     11.56418      3.87238      9.58390        -0.904584     -0.351022     -1.040395
      6.98991      2.16030      2.01770         0.288809     -0.470788     -0.926683
      7.87456      0.73197      3.71178         0.770113      0.303234      1.841508
      6.09987      0.36902     10.92114         0.174235     -0.056869      1.274109
     10.39684      3.35453      2.93606        -0.248728     -1.301543      1.357018
     10.98051      2.40903      5.87212        -0.081545      0.023589     -0.124393
     11.56418      1.46353      8.80817        -0.050701      0.327639     -1.972597
      7.50570      3.73836      5.87212         0.033248      0.173033     -0.003634
      8.08937      2.79286      8.80817        -0.755717     -0.509644     -2.714500
      9.51516      2.04140     10.46128        -0.332090      0.059671      0.422943
     12.55026      4.68386      2.93606         1.075838     -0.443272      1.782550
      8.16719      0.12734      1.18141        -0.760356      0.403208     -1.848837
      7.87456      9.84929      6.64784         0.019733     -0.256046     -0.004103
      8.45823      8.90379      9.58390        -0.852008     -0.367638     -1.048171
      4.76861      5.76338      3.71178        -0.206922      0.614623      2.073532
      2.99388      5.40035     10.92106         0.144273     -0.052714      1.284324
      2.63863      0.05715      1.14515        -0.588577      0.212917     -1.798587
      7.29089      8.38594      2.93606         0.244234      0.142817      0.841743
      7.87456      7.44044      5.87212         0.045694      0.085190     -0.113456
      8.45823      6.49494      8.80817        -0.128221      0.410383     -1.980795
      4.39975      8.76977      5.87212         0.034359     -0.002306     -0.061721
      4.98341      7.82427      8.80817        -0.738520     -0.505306     -2.703807
      6.40931      7.07275     10.46111        -0.323837      0.052642      0.448373
      9.44431      9.71527      2.93606         0.088925     -0.388542      3.046506
     13.50279      9.84929      6.64784         0.186858     -0.264712     -0.055285
     14.08646      8.90379      9.58390        -0.008074      0.532473     -0.696956
     10.39684      5.76338      3.71178        -0.426651      0.729430      2.290946
      9.15122      4.55949     10.07483         0.629403      0.414634      0.490069
     12.91912      8.38594      2.93606        -0.592865     -0.643582      1.563776
     13.50279      7.44044      5.87212         0.041282     -0.000667     -0.007438
     14.08646      6.49494      8.80817         0.239035      0.084904     -2.692214
     10.02798      8.76977      5.87212        -0.047812      0.006775      0.063755
     10.61165      7.82427      8.80817         0.116260      0.575554     -1.641088
     15.07254      9.71527      2.93606         1.173498      0.497451      1.505346
     10.63525      5.39177      1.33208        -0.645193      1.193498     -1.852140
      1.66190      1.67871      7.01153        -0.322365      0.258561     -1.026684
      2.49094      0.79306      9.46595         1.272827     -0.370995      1.051457
      5.97854      3.79930      1.33470        -0.042544      0.201606     -3.876388
      6.70646      2.62422      4.07548        -0.021866      0.042457      1.302916
      2.04740      3.64712     10.64436         0.759696     -0.422115      2.920031
      7.29013      4.74605      7.99931        -0.293286      0.030121     -0.626038
      3.60051      1.60565      2.12720        -0.107957      2.192339      0.329573
      4.18418      0.66015      5.06325        -0.015061      0.000896      0.018304
      3.35722      4.83668      2.52339        -1.031152      0.585544     -2.206142
      3.96438      3.99884      5.06325        -0.106453     -0.281367      0.564159
      4.54805      3.05334      7.99931        -0.116009      0.351728     -0.595531
      5.22528      2.18068     10.59342        -2.066386      0.045910      2.661631
      7.29013      1.67871      7.01153         0.064053     -0.216936     -0.082023
      7.87380      0.73321      9.94759         1.385596     -1.612634      0.200067
     11.68201      3.68095      1.26818         0.644650     -0.884943     -3.462586
     12.33469      2.62422      4.07548        -0.049952     -0.018279      0.966240
      7.72581      3.29166     10.79696        -0.396234      1.040619      3.024730
     12.91836      4.74605      7.99931         0.254334     -0.030572     -0.740331
      9.22874      1.60565      2.12720         0.715509      1.551841     -0.030318
      9.81241      0.66015      5.06325         0.182824      0.017950      0.122054
      8.98344      4.85420      2.42281        -1.545934      0.317175     -1.208928
      9.59261      3.99884      5.06325         0.098908     -0.262356      0.478461
     10.17628      3.05334      7.99931         0.034752     -0.301643     -0.181054
     11.33781      1.26070     10.84852         0.061424      0.335857      2.760292
      4.18418      6.71012      7.01153         0.018229     -0.189231     -0.204724
      4.76785      5.76462      9.94759         1.383669     -1.654140      0.144669
      9.27401      8.88085      1.03899         0.247887     -2.833348     -2.395110
      9.22874      7.65563      4.07548        -0.111395      0.133837     -0.138182
      4.61993      8.32304     10.79695        -0.393630      1.064599      3.022117
      9.81241      9.77746      7.99931         0.300214      0.026506     -0.775915
      6.26017      6.63560      2.55889         0.026432      1.221385     -2.249565
      6.70646      5.69156      5.06325         0.236886      0.060997      0.756002
      5.90299      9.97575      2.12720        -1.794145     -0.702486      0.392224
      6.48666      9.03025      5.06325         0.159071     -0.045653      0.265680
      7.07033      8.08475      7.99931         0.068362     -0.326028     -0.300858
      8.23203      6.29233     10.84858         0.097895      0.338542      2.778792
      9.81241      6.71012      7.01153        -0.338795      0.338509     -1.035669
     10.64137      5.82442      9.46572         1.254181     -0.350367      1.072104
     14.32632      8.52741      1.44114         1.322329     -2.233040     -3.185285
     14.85697      7.65563      4.07548         0.126097      0.158989      0.451254
     10.19796      8.67862     10.64432         0.676530     -0.423985      2.945698
     15.44064      9.77746      7.99931        -0.326735      0.084886     -0.602101
     11.85802      6.62053      2.43275         0.433906      1.787836     -1.277858
     12.33469      5.69156      5.06325         0.039834     -0.088252      0.744613
     11.50102     10.03708      2.34238        -0.993273     -0.697740     -0.201928
     12.11489      9.03025      5.06325        -0.005783     -0.078773      0.314380
     12.69856      8.08475      7.99931        -0.080908      0.351657     -0.644474
     13.37583      7.21208     10.59343        -2.074559      0.055308      2.645330
 -----------------------------------------------------------------------------------
    total drift:                               -0.353539      0.017512      0.094289


--------------------------------------------------------------------------------------------------------



  FREE ENERGIE OF THE ION-ELECTRON SYSTEM (eV)
  ---------------------------------------------------
  free  energy   TOTEN  =      -471.53476121 eV

  energy  without entropy=     -470.14950780  energy(sigma->0) =     -470.84213450
 


--------------------------------------------------------------------------------------------------------


    POTLOK:  cpu time    0.4416: real time    0.4421


--------------------------------------------------------------------------------------------------------


     LOOP+:  cpu time  577.7610: real time  577.9322
    4ORBIT:  cpu time    0.0000: real time    0.0000

 total amount of memory used by VASP MPI-rank0    87640. kBytes
=======================================================================

   base      :      30000. kBytes
   nonlr-proj:       3210. kBytes
   fftplans  :      11274. kBytes
   grid      :      19113. kBytes
   one-center:        124. kBytes
   wavefun   :      23919. kBytes
 
  
  
 General timing and accounting informations for this job:
 ========================================================
  
                  Total CPU time used (sec):      582.195
                            User time (sec):      581.825
                          System time (sec):        0.370
                         Elapsed time (sec):      582.615
  
                   Maximum memory used (kb):      244720.
                   Average memory used (kb):           0.
  
                          Minor page faults:       132911
                          Major page faults:            0
                 Voluntary context switches:          271
