
104 atoms
2 atom types
   0.0000000000   11.2564630382 xlo xhi
   0.0000000000   10.0628203371 ylo yhi
   0.0000000000   22.8836493875 zlo zhi
   5.0445621212    0.0000000000    0.0000000000 xy xz yz

Atoms # atomic

     1      1    5.3522814389    4.8178807436    6.6478400577
     2      1    5.9359508116    3.8723794831    9.5838980192
     3      1    1.6626616871    1.6774732269    0.7757241348
     4      1    2.2463310649    0.7319719765    3.7117820963
     5      1    0.8913888420    0.5180279029   11.7442318458
     6      1    4.7686120527    3.3545316644    2.9360579615
     7      1    5.3522814305    2.4090304139    5.8721159229
     8      1    5.9359508195    1.4635291635    8.8081738844
     9      1    1.8774643416    3.7383591286    5.8721159229
    10      1    2.4611337307    2.7928578782    8.8081738844
    11      1    3.0448031034    1.8473566177   11.7442318458
    12      1    6.9220263192    4.6838603892    2.9360579615
    13      1    3.8160759452    0.5979516220    0.0000000000
    14      1   10.9805129580    4.8178807436    6.6478400577
    15      1   11.5641823307    3.8723794831    9.5838980192
    16      1    7.8745625840    0.7319719765    3.7117820963
    17      1    6.5196203611    0.5180279029   11.7442318458
    18      1    9.8131741878    4.3000329249    0.0000000000
    19      1   10.3968435718    3.3545316644    2.9360579615
    20      1   10.9805129496    2.4090304139    5.8721159229
    21      1   11.5641823386    1.4635291635    8.8081738844
    22      1    7.5056958608    3.7383591286    5.8721159229
    23      1    8.0893652498    2.7928578782    8.8081738844
    24      1    8.6730346225    1.8473566177   11.7442318458
    25      1   12.5502578383    4.6838603892    2.9360579615
    26      1    9.4443074644    0.5979516220    0.0000000000
    27      1    7.8745624994    9.8492909121    6.6478400577
    28      1    8.4582318722    8.9037896516    9.5838980192
    29      1    4.1849427477    6.7088833954    0.7757241348
    30      1    4.7686121255    5.7633821450    3.7117820963
    31      1    3.4136699025    5.5494380715   11.7442318458
    32      1    6.7072237293    9.3314430934    0.0000000000
    33      1    7.2908931133    8.3859418329    2.9360579615
    34      1    7.8745624911    7.4404405824    5.8721159229
    35      1    8.4582318801    6.4949393320    8.8081738844
    36      1    4.3997454022    8.7697692972    5.8721159229
    37      1    4.9834147912    7.8242680467    8.8081738844
    38      1    5.5670841640    6.8787667862   11.7442318458
    39      1    9.4443073798    9.7152705577    2.9360579615
    40      1   13.5027940186    9.8492909121    6.6478400577
    41      1   14.0864633913    8.9037896516    9.5838980192
    42      1    9.8131742668    6.7088833954    0.7757241348
    43      1   10.3968436446    5.7633821450    3.7117820963
    44      1    9.0419014217    5.5494380715   11.7442318458
    45      1   12.3354552484    9.3314430934    0.0000000000
    46      1   12.9191246324    8.3859418329    2.9360579615
    47      1   13.5027940102    7.4404405824    5.8721159229
    48      1   14.0864633992    6.4949393320    8.8081738844
    49      1   10.0279769213    8.7697692972    5.8721159229
    50      1   10.6116463104    7.8242680467    8.8081738844
    51      1   11.1953156831    6.8787667862   11.7442318458
    52      1   15.0725388989    9.7152705577    2.9360579615
    53      2    1.6618955858    1.6787142544    7.0115334673
    54      2    2.2455649698    0.7332129939    9.9475914287
    55      2    6.1227881856    3.5697167654    1.1394175444
    56      2    6.7064575583    2.6242155049    4.0754755058
    57      2    5.3515153325    4.8191217610   12.8836493902
    58      2    2.2455649706    3.8005525507   10.9353694178
    59      2    7.2901269369    4.7460538113    7.9993114563
    60      2    3.6005072015    1.6056463046    2.1271955334
    61      2    4.1841765742    0.6601450441    5.0632534949
    62      2    3.3807113207    4.9443390495    2.1271955334
    63      2    3.9643806934    3.9988377890    5.0632534949
    64      2    4.5480500712    3.0533365386    7.9993114563
    65      2    5.1317194552    2.1078352781   10.9353694178
    66      2    7.2901271049    1.6787142544    7.0115334673
    67      2    7.8737964889    0.7332129939    9.9475914287
    68      2   11.7510197047    3.5697167654    1.1394175444
    69      2   12.3346890774    2.6242155049    4.0754755058
    70      2   10.9797468516    4.8191217610   12.8836493902
    71      2    7.8737964897    3.8005525507   10.9353694178
    72      2   12.9183584560    4.7460538113    7.9993114563
    73      2    9.2287387206    1.6056463046    2.1271955334
    74      2    9.8124080933    0.6601450441    5.0632534949
    75      2    9.0089428398    4.9443390495    2.1271955334
    76      2    9.5926122126    3.9988377890    5.0632534949
    77      2   10.1762815903    3.0533365386    7.9993114563
    78      2   10.7599509743    2.1078352781   10.9353694178
    79      2    4.1841766464    6.7101244229    7.0115334673
    80      2    4.7678460304    5.7646231624    9.9475914287
    81      2    8.6450692462    8.6011269339    1.1394175444
    82      2    9.2287386189    7.6556256734    4.0754755058
    83      2    7.8737963931    9.8505319296   12.8836493902
    84      2    4.7678460312    8.8319627193   10.9353694178
    85      2    9.8124079975    9.7774639798    7.9993114563
    86      2    6.1227882621    6.6370564732    2.1271955334
    87      2    6.7064576348    5.6915552127    5.0632534949
    88      2    5.9029923813    9.9757492181    2.1271955334
    89      2    6.4866617540    9.0302479576    5.0632534949
    90      2    7.0703311318    8.0847467071    7.9993114563
    91      2    7.6540005158    7.1392454466   10.9353694178
    92      2    9.8124081655    6.7101244229    7.0115334673
    93      2   10.3960775495    5.7646231624    9.9475914287
    94      2   14.2733007653    8.6011269339    1.1394175444
    95      2   14.8569701380    7.6556256734    4.0754755058
    96      2   13.5020279122    9.8505319296   12.8836493902
    97      2   10.3960775503    8.8319627193   10.9353694178
    98      2   15.4406395166    9.7774639798    7.9993114563
    99      2   11.7510197812    6.6370564732    2.1271955334
   100      2   12.3346891539    5.6915552127    5.0632534949
   101      2   11.5312239004    9.9757492181    2.1271955334
   102      2   12.1148932731    9.0302479576    5.0632534949
   103      2   12.6985626509    8.0847467071    7.9993114563
   104      2   13.2822320349    7.1392454466   10.9353694178
