<?xml version="1.0" encoding="ISO-8859-1"?>
<modeling>
 <generator>
  <i name="program" type="string">vasp </i>
  <i name="version" type="string">5.4.4.18Apr17-6-g9f103f2a35  </i>
  <i name="subversion" type="string">(build Aug 13 2019 17:33:20) gamma-only         parallel </i>
  <i name="platform" type="string">LinuxIFC </i>
  <i name="date" type="string">2020 05 11 </i>
  <i name="time" type="string">01:56:31 </i>
 </generator>
 <incar>
  <i type="string" name="SYSTEM">"Millerite NiS"</i>
  <i type="string" name="PREC">normal</i>
  <i type="int" name="NSIM">     4</i>
  <i type="int" name="NELM">   100</i>
  <i name="ENCUT">    450.00000000</i>
  <i type="string" name="LREAL">A</i>
  <i type="int" name="ISMEAR">     0</i>
  <i type="int" name="NWRITE">     2</i>
  <i type="logical" name="LWAVE"> F  </i>
  <i type="logical" name="LCHARG"> F  </i>
  <v type="int" name="KPOINT_BSE">    -1     0     0     0</v>
  <i type="int" name="NELM">   100</i>
 </incar>
 <structure name="primitive_cell" >
  <crystal>
   <varray name="basis" >
    <v>      11.25646304       0.00000000       0.00000000 </v>
    <v>       5.04456212      10.06282034       0.00000000 </v>
    <v>       0.00000000       0.00000000      22.88364939 </v>
   </varray>
   <i name="volume">   2592.07135999 </i>
   <varray name="rec_basis" >
    <v>       0.08883785      -0.04453504       0.00000000 </v>
    <v>       0.00000000       0.09937572       0.00000000 </v>
    <v>       0.00000000       0.00000000       0.04369932 </v>
   </varray>
  </crystal>
  <varray name="positions" >
   <v>       0.26092070       0.47878036       0.29050611 </v>
   <v>       0.07287764      -0.33317657       0.30639927 </v>
   <v>       0.17409868       0.39738738       0.22126075 </v>
   <v>       0.34231368      -0.43439761       0.22126075 </v>
   <v>       0.43627354       0.47164251       0.34956450 </v>
   <v>       0.26805855       0.30342751       0.34956450 </v>
   <v>       0.36819893       0.23939913       0.25660749 </v>
   <v>      -0.49969806       0.37150212       0.25660749 </v>
   <v>       0.35488056       0.38482049       0.41880986 </v>
   <v>       0.16696083      -0.42725976       0.16220237 </v>
   <v>       0.16683750      -0.42713643       0.43470302 </v>
   <v>       0.47891775       0.26078330       0.17809552 </v>
   <v>      -0.42712237       0.16682343       0.30639927 </v>
   <v>       0.00030194       0.37150212       0.25660749 </v>
   <v>       0.09426181      -0.22245774       0.38491124 </v>
   <v>      -0.03784120      -0.35456074       0.38491124 </v>
   <v>       0.36819893      -0.26060087       0.25660749 </v>
   <v>       0.26805855      -0.19657249       0.34956450 </v>
   <v>      -0.06372646       0.47164251       0.34956450 </v>
   <v>       0.46215880       0.14543926       0.38491124 </v>
   <v>       0.40634206       0.46546199       0.12830375 </v>
   <v>       0.27423906       0.33335899       0.12830375 </v>
   <v>      -0.40573819       0.27754226       0.38491124 </v>
   <v>       0.09426181       0.27754226       0.38491124 </v>
   <v>       0.46215880      -0.35456074       0.38491124 </v>
   <v>       0.00030194      -0.12849788       0.25660749 </v>
   <v>      -0.13180107      -0.26060087       0.25660749 </v>
   <v>      -0.02108225      -0.23921670       0.17809552 </v>
   <v>       0.34231368       0.06560239       0.22126075 </v>
   <v>      -0.32590132       0.39738738       0.22126075 </v>
   <v>      -0.15768632      -0.43439761       0.22126075 </v>
   <v>       0.17409868      -0.10261262       0.22126075 </v>
   <v>       0.07639026       0.49948361       0.10414163 </v>
   <v>       0.24722036      -0.33889858       0.10420998 </v>
   <v>      -0.48294631       0.38979700       0.46319637 </v>
   <v>       0.34990451       0.22264727       0.46319642 </v>
   <v>       0.07287763       0.16682343       0.30639927 </v>
   <v>      -0.42712236      -0.33317657       0.30639927 </v>
   <v>       0.17332915      -0.28699176       0.49004021 </v>
   <v>       0.02669260      -0.43362748       0.49004023 </v>
   <v>       0.01705373       0.38979692       0.46319638 </v>
   <v>       0.34990499      -0.27735306       0.46319650 </v>
   <v>      -0.06372646      -0.02835749       0.34956450 </v>
   <v>      -0.23194145      -0.19657249       0.34956450 </v>
   <v>      -0.23194145       0.30342751       0.34956450 </v>
   <v>       0.43627354      -0.02835749       0.34956450 </v>
   <v>       0.04106220      -0.29133143       0.08955745 </v>
   <v>       0.35874390       0.38064233       0.06222007 </v>
   <v>       0.47891775      -0.23921670       0.17809552 </v>
   <v>      -0.02108225       0.26078330       0.17809552 </v>
   <v>       0.27423907      -0.16664101       0.12830375 </v>
   <v>      -0.09365794       0.46546199       0.12830375 </v>
   <v>      -0.33303917       0.07274024       0.16220237 </v>
   <v>      -0.14511944      -0.11517951       0.41880986 </v>
   <v>       0.26092070      -0.02121964       0.29050611 </v>
   <v>      -0.23907930       0.47878036       0.29050611 </v>
   <v>       0.01705424      -0.11020440       0.46319656 </v>
   <v>      -0.15009500      -0.27735306       0.46319650 </v>
   <v>       0.17332821       0.21300915       0.49003968 </v>
   <v>      -0.47330741      -0.43362743       0.49004025 </v>
   <v>       0.24835381       0.15956225       0.09295701 </v>
   <v>      -0.41986118       0.49134724       0.09295701 </v>
   <v>      -0.33316250       0.07286357       0.43470302 </v>
   <v>       0.16696083       0.07274024       0.16220237 </v>
   <v>       0.35488056      -0.11517951       0.41880986 </v>
   <v>      -0.14511944       0.38482049       0.41880986 </v>
   <v>      -0.23907930      -0.02121964       0.29050611 </v>
   <v>      -0.33303917      -0.42725976       0.16220237 </v>
   <v>       0.16683750       0.07286357       0.43470302 </v>
   <v>      -0.33316250      -0.42713643       0.43470302 </v>
   <v>      -0.13180107       0.23939913       0.25660749 </v>
   <v>      -0.49969806      -0.12849788       0.25660749 </v>
   <v>      -0.32667182       0.21300923       0.49003963 </v>
   <v>      -0.47330796       0.06637226       0.49003959 </v>
   <v>       0.10488426      -0.36518300      -0.44776818 </v>
   <v>      -0.15768632       0.06560239       0.22126075 </v>
   <v>      -0.32590132      -0.10261262       0.22126075 </v>
   <v>      -0.22576093      -0.16664101       0.12830375 </v>
   <v>      -0.09365794      -0.03453801       0.12830375 </v>
   <v>      -0.03784120       0.14543926       0.38491124 </v>
   <v>      -0.22576094       0.33335899       0.12830375 </v>
   <v>       0.40634206      -0.03453801       0.12830375 </v>
   <v>      -0.40573819      -0.22245774       0.38491124 </v>
   <v>      -0.46970441      -0.30051193       0.08992898 </v>
   <v>      -0.41904588      -0.01661558       0.10677673 </v>
   <v>      -0.25701086      -0.33717853       0.10214208 </v>
   <v>      -0.22965256       0.15438982       0.09652229 </v>
   <v>       0.08013882      -0.00865276       0.09295701 </v>
   <v>      -0.11504211      -0.14525683       0.04979178 </v>
   <v>      -0.15009535       0.22264718       0.46319644 </v>
   <v>      -0.48294576      -0.11020443       0.46319656 </v>
   <v>       0.07624356       0.16211667       0.05888757 </v>
   <v>      -0.09758383       0.34006479       0.06120245 </v>
   <v>      -0.39511788       0.13481869      -0.44776887 </v>
   <v>       0.38495789      -0.14525683       0.04979178 </v>
   <v>       0.02669219       0.06637219       0.49003967 </v>
   <v>      -0.32667084      -0.28699176       0.49004022 </v>
   <v>      -0.28874239       0.02537897       0.05716730 </v>
   <v>       0.31674499       0.04489983       0.02232087 </v>
   <v>      -0.26745726      -0.48741364       0.05302009 </v>
   <v>       0.19202300      -0.08234232       0.02075764 </v>
   <v>       0.10488245       0.13481840      -0.44776879 </v>
   <v>      -0.39511578      -0.36518291      -0.44776817 </v>
   <v>      -0.07078127       0.02471197       0.03294404 </v>
  </varray>
 </structure>
 <varray name="primitive_index" >
  <v type="int" >        1 </v>
  <v type="int" >       79 </v>
  <v type="int" >       63 </v>
  <v type="int" >       87 </v>
  <v type="int" >       59 </v>
  <v type="int" >       64 </v>
  <v type="int" >        7 </v>
  <v type="int" >       22 </v>
  <v type="int" >        2 </v>
  <v type="int" >       30 </v>
  <v type="int" >       80 </v>
  <v type="int" >       56 </v>
  <v type="int" >       66 </v>
  <v type="int" >        9 </v>
  <v type="int" >       37 </v>
  <v type="int" >       48 </v>
  <v type="int" >       34 </v>
  <v type="int" >       90 </v>
  <v type="int" >       72 </v>
  <v type="int" >        8 </v>
  <v type="int" >       12 </v>
  <v type="int" >        6 </v>
  <v type="int" >       23 </v>
  <v type="int" >       10 </v>
  <v type="int" >       35 </v>
  <v type="int" >       36 </v>
  <v type="int" >       47 </v>
  <v type="int" >       95 </v>
  <v type="int" >       61 </v>
  <v type="int" >       76 </v>
  <v type="int" >      100 </v>
  <v type="int" >       89 </v>
  <v type="int" >       62 </v>
  <v type="int" >       86 </v>
  <v type="int" >       71 </v>
  <v type="int" >       65 </v>
  <v type="int" >       53 </v>
  <v type="int" >       92 </v>
  <v type="int" >       38 </v>
  <v type="int" >       31 </v>
  <v type="int" >       58 </v>
  <v type="int" >       91 </v>
  <v type="int" >       98 </v>
  <v type="int" >      103 </v>
  <v type="int" >       77 </v>
  <v type="int" >       85 </v>
  <v type="int" >       29 </v>
  <v type="int" >       55 </v>
  <v type="int" >       82 </v>
  <v type="int" >       69 </v>
  <v type="int" >       33 </v>
  <v type="int" >       25 </v>
  <v type="int" >       16 </v>
  <v type="int" >       41 </v>
  <v type="int" >       27 </v>
  <v type="int" >       14 </v>
  <v type="int" >       84 </v>
  <v type="int" >      104 </v>
  <v type="int" >       11 </v>
  <v type="int" >       44 </v>
  <v type="int" >       60 </v>
  <v type="int" >       75 </v>
  <v type="int" >       67 </v>
  <v type="int" >        4 </v>
  <v type="int" >       28 </v>
  <v type="int" >       15 </v>
  <v type="int" >       40 </v>
  <v type="int" >       43 </v>
  <v type="int" >       54 </v>
  <v type="int" >       93 </v>
  <v type="int" >       20 </v>
  <v type="int" >       49 </v>
  <v type="int" >       24 </v>
  <v type="int" >       17 </v>
  <v type="int" >       57 </v>
  <v type="int" >       74 </v>
  <v type="int" >      102 </v>
  <v type="int" >       46 </v>
  <v type="int" >       52 </v>
  <v type="int" >       21 </v>
  <v type="int" >       19 </v>
  <v type="int" >       39 </v>
  <v type="int" >       50 </v>
  <v type="int" >       42 </v>
  <v type="int" >      101 </v>
  <v type="int" >       99 </v>
  <v type="int" >       73 </v>
  <v type="int" >       88 </v>
  <v type="int" >       94 </v>
  <v type="int" >       78 </v>
  <v type="int" >       97 </v>
  <v type="int" >        3 </v>
  <v type="int" >       68 </v>
  <v type="int" >       96 </v>
  <v type="int" >       81 </v>
  <v type="int" >        5 </v>
  <v type="int" >       51 </v>
  <v type="int" >       45 </v>
  <v type="int" >       13 </v>
  <v type="int" >       18 </v>
  <v type="int" >       32 </v>
  <v type="int" >       83 </v>
  <v type="int" >       70 </v>
  <v type="int" >       26 </v>
 </varray>
 <kpoints>
  <generation param="Gamma">
   <v type="int" name="divisions">       1        1        1 </v>
   <v name="usershift">      0.00000000       0.00000000       0.00000000 </v>
   <v name="genvec1">      1.00000000       0.00000000       0.00000000 </v>
   <v name="genvec2">      0.00000000       1.00000000       0.00000000 </v>
   <v name="genvec3">      0.00000000       0.00000000       1.00000000 </v>
   <v name="shift">      0.00000000       0.00000000       0.00000000 </v>
  </generation>
  <varray name="kpointlist" >
   <v>       0.00000000       0.00000000       0.00000000 </v>
  </varray>
  <varray name="weights" >
   <v>       1.00000000 </v>
  </varray>
 </kpoints>
 <parameters>
  <separator name="general" >
   <i type="string" name="SYSTEM">"Millerite NiS"</i>
   <i type="logical" name="LCOMPAT"> F  </i>
  </separator>
  <separator name="electronic" >
   <i type="string" name="PREC">normal</i>
   <i name="ENMAX">    450.00000000</i>
   <i name="ENAUG">    703.44300000</i>
   <i name="EDIFF">      0.00010000</i>
   <i type="int" name="IALGO">    38</i>
   <i type="int" name="IWAVPR">    10</i>
   <i type="int" name="NBANDS">   686</i>
   <i name="NELECT">   1144.00000000</i>
   <i type="int" name="TURBO">     0</i>
   <i type="int" name="IRESTART">     0</i>
   <i type="int" name="NREBOOT">     0</i>
   <i type="int" name="NMIN">     0</i>
   <i name="EREF">      0.00000000</i>
   <separator name="electronic smearing" >
    <i type="int" name="ISMEAR">     0</i>
    <i name="SIGMA">      0.20000000</i>
    <i name="KSPACING">      0.50000000</i>
    <i type="logical" name="KGAMMA"> T  </i>
   </separator>
   <separator name="electronic projectors" >
    <i type="logical" name="LREAL"> T  </i>
    <v name="ROPT">     -0.00050000     -0.00050000</v>
    <i type="int" name="LMAXPAW">  -100</i>
    <i type="int" name="LMAXMIX">     2</i>
    <i type="logical" name="NLSPLINE"> F  </i>
   </separator>
   <separator name="electronic startup" >
    <i type="int" name="ISTART">     0</i>
    <i type="int" name="ICHARG">     2</i>
    <i type="int" name="INIWAV">     1</i>
   </separator>
   <separator name="electronic spin" >
    <i type="int" name="ISPIN">     1</i>
    <i type="logical" name="LNONCOLLINEAR"> F  </i>
    <v name="MAGMOM">      1.00000000      1.00000000      1.00000000      1.00000000      1.00000000      1.00000000      1.00000000      1.00000000      1.00000000      1.00000000      1.00000000      1.00000000      1.00000000      1.00000000      1.00000000      1.00000000      1.00000000      1.00000000      1.00000000      1.00000000
      1.00000000      1.00000000      1.00000000      1.00000000      1.00000000      1.00000000      1.00000000      1.00000000      1.00000000      1.00000000      1.00000000      1.00000000      1.00000000      1.00000000      1.00000000      1.00000000      1.00000000      1.00000000      1.00000000      1.00000000
      1.00000000      1.00000000      1.00000000      1.00000000      1.00000000      1.00000000      1.00000000      1.00000000      1.00000000      1.00000000      1.00000000      1.00000000      1.00000000      1.00000000      1.00000000      1.00000000      1.00000000      1.00000000      1.00000000      1.00000000
      1.00000000      1.00000000      1.00000000      1.00000000      1.00000000      1.00000000      1.00000000      1.00000000      1.00000000      1.00000000      1.00000000      1.00000000      1.00000000      1.00000000      1.00000000      1.00000000      1.00000000      1.00000000      1.00000000      1.00000000
      1.00000000      1.00000000      1.00000000      1.00000000      1.00000000      1.00000000      1.00000000      1.00000000      1.00000000      1.00000000      1.00000000      1.00000000      1.00000000      1.00000000      1.00000000      1.00000000      1.00000000      1.00000000      1.00000000      1.00000000
      1.00000000      1.00000000      1.00000000      1.00000000</v>
    <i name="NUPDOWN">     -1.00000000</i>
    <i type="logical" name="LSORBIT"> F  </i>
    <v name="SAXIS">      0.00000000      0.00000000      1.00000000</v>
    <i type="logical" name="LSPIRAL"> F  </i>
    <v name="QSPIRAL">      0.00000000      0.00000000      0.00000000</v>
    <i type="logical" name="LZEROZ"> F  </i>
   </separator>
   <separator name="electronic exchange-correlation" >
    <i type="logical" name="LASPH"> F  </i>
    <i type="logical" name="LMETAGGA"> F  </i>
   </separator>
   <separator name="electronic convergence" >
    <i type="int" name="NELM">   100</i>
    <i type="int" name="NELMDL">    -5</i>
    <i type="int" name="NELMIN">     2</i>
    <i name="ENINI">    450.00000000</i>
    <separator name="electronic convergence detail" >
     <i type="logical" name="LDIAG"> T  </i>
     <i type="logical" name="LSUBROT"> F  </i>
     <i name="WEIMIN">      0.00000000</i>
     <i name="EBREAK">      0.00000004</i>
     <i name="DEPER">      0.30000000</i>
     <i type="int" name="NRMM">     4</i>
     <i name="TIME">      0.40000000</i>
    </separator>
   </separator>
   <separator name="electronic mixer" >
    <i name="AMIX">      0.40000000</i>
    <i name="BMIX">      1.00000000</i>
    <i name="AMIN">      0.10000000</i>
    <i name="AMIX_MAG">      1.60000000</i>
    <i name="BMIX_MAG">      1.00000000</i>
    <separator name="electronic mixer details" >
     <i type="int" name="IMIX">     4</i>
     <i type="logical" name="MIXFIRST"> F  </i>
     <i type="int" name="MAXMIX">   -45</i>
     <i name="WC">    100.00000000</i>
     <i type="int" name="INIMIX">     1</i>
     <i type="int" name="MIXPRE">     1</i>
     <i type="int" name="MREMOVE">     5</i>
    </separator>
   </separator>
   <separator name="electronic dipolcorrection" >
    <i type="logical" name="LDIPOL"> F  </i>
    <i type="logical" name="LMONO"> F  </i>
    <i type="int" name="IDIPOL">     0</i>
    <i name="EPSILON">      1.00000000</i>
    <v name="DIPOL">   -100.00000000   -100.00000000   -100.00000000</v>
    <i name="EFIELD">      0.00000000</i>
   </separator>
  </separator>
  <separator name="grids" >
   <i type="int" name="NGX">    60</i>
   <i type="int" name="NGY">    60</i>
   <i type="int" name="NGZ">   120</i>
   <i type="int" name="NGXF">   120</i>
   <i type="int" name="NGYF">   120</i>
   <i type="int" name="NGZF">   240</i>
   <i type="logical" name="ADDGRID"> F  </i>
  </separator>
  <separator name="ionic" >
   <i type="int" name="NSW">     0</i>
   <i type="int" name="IBRION">    -1</i>
   <i type="int" name="MDALGO">     0</i>
   <i type="int" name="ISIF">     2</i>
   <i name="PSTRESS">      0.00000000</i>
   <i name="EDIFFG">      0.00100000</i>
   <i type="int" name="NFREE">     0</i>
   <i name="POTIM">      0.50000000</i>
   <i name="SMASS">     -3.00000000</i>
   <i name="SCALEE">      1.00000000</i>
  </separator>
  <separator name="ionic md" >
   <i name="TEBEG">      0.00010000</i>
   <i name="TEEND">      0.00010000</i>
   <i type="int" name="NBLOCK">     1</i>
   <i type="int" name="KBLOCK">     1</i>
   <i type="int" name="NPACO">   256</i>
   <i name="APACO">     16.00000000</i>
  </separator>
  <separator name="symmetry" >
   <i type="int" name="ISYM">     2</i>
   <i name="SYMPREC">      0.00001000</i>
  </separator>
  <separator name="dos" >
   <i type="int" name="LORBIT">     0</i>
   <v name="RWIGS">     -1.00000000     -1.00000000</v>
   <i type="int" name="NEDOS">   301</i>
   <i name="EMIN">     10.00000000</i>
   <i name="EMAX">    -10.00000000</i>
   <i name="EFERMI">      0.00000000</i>
  </separator>
  <separator name="writing" >
   <i type="int" name="NWRITE">     2</i>
   <i type="logical" name="LWAVE"> F  </i>
   <i type="logical" name="LDOWNSAMPLE"> F  </i>
   <i type="logical" name="LCHARG"> F  </i>
   <i type="logical" name="LPARD"> F  </i>
   <i type="logical" name="LVTOT"> F  </i>
   <i type="logical" name="LVHAR"> F  </i>
   <i type="logical" name="LELF"> F  </i>
   <i type="logical" name="LOPTICS"> F  </i>
   <v name="STM">      0.00000000      0.00000000      0.00000000      0.00000000      0.00000000      0.00000000      0.00000000</v>
  </separator>
  <separator name="performance" >
   <i type="int" name="NPAR">     2</i>
   <i type="int" name="NSIM">     4</i>
   <i type="int" name="NBLK">    -1</i>
   <i type="logical" name="LPLANE"> T  </i>
   <i type="logical" name="LSCALAPACK"> T  </i>
   <i type="logical" name="LSCAAWARE"> F  </i>
   <i type="logical" name="LSCALU"> F  </i>
   <i type="logical" name="LASYNC"> F  </i>
   <i type="logical" name="LORBITALREAL"> F  </i>
  </separator>
  <separator name="miscellaneous" >
   <i type="int" name="IDIOT">     3</i>
   <i type="int" name="ISPECIAL">     0</i>
   <i type="logical" name="LMUSIC"> F  </i>
   <v name="POMASS">     58.69000000     32.06600000</v>
   <v name="DARWINR">      0.00000000      0.00000000</v>
   <v name="DARWINV">      1.00000000      1.00000000</v>
   <i type="logical" name="LCORR"> T  </i>
  </separator>
  <i type="logical" name="GGA_COMPAT"> T  </i>
  <i type="logical" name="LBERRY"> F  </i>
  <i type="int" name="ICORELEVEL">     0</i>
  <i type="logical" name="LDAU"> F  </i>
  <i type="int" name="I_CONSTRAINED_M">     0</i>
  <separator name="electronic exchange-correlation" >
   <i type="string" name="GGA">--</i>
   <i type="int" name="VOSKOWN">     0</i>
   <i type="logical" name="LHFCALC"> F  </i>
   <i type="string" name="PRECFOCK"></i>
   <i type="logical" name="LSYMGRAD"> F  </i>
   <i type="logical" name="LHFONE"> F  </i>
   <i type="logical" name="LRHFCALC"> F  </i>
   <i type="logical" name="LTHOMAS"> F  </i>
   <i type="logical" name="LMODELHF"> F  </i>
   <i name="ENCUT4O">     -1.00000000</i>
   <i type="int" name="EXXOEP">     0</i>
   <i type="int" name="FOURORBIT">     0</i>
   <i name="AEXX">      0.00000000</i>
   <i name="HFALPHA">      0.00000000</i>
   <i name="MCALPHA">      0.00000000</i>
   <i name="ALDAX">      1.00000000</i>
   <i name="AGGAX">      1.00000000</i>
   <i name="ALDAC">      1.00000000</i>
   <i name="AGGAC">      1.00000000</i>
   <i type="int" name="NKREDX">     1</i>
   <i type="int" name="NKREDY">     1</i>
   <i type="int" name="NKREDZ">     1</i>
   <i type="logical" name="SHIFTRED"> F  </i>
   <i type="logical" name="ODDONLY"> F  </i>
   <i type="logical" name="EVENONLY"> F  </i>
   <i type="int" name="LMAXFOCK">     0</i>
   <i type="int" name="NMAXFOCKAE">     0</i>
   <i type="logical" name="LFOCKAEDFT"> F  </i>
   <i name="HFSCREEN">      0.00000000</i>
   <i name="HFSCREENC">      0.00000000</i>
   <i type="int" name="NBANDSGWLOW">     0</i>
  </separator>
  <separator name="vdW DFT" >
   <i type="logical" name="LUSE_VDW"> F  </i>
   <i name="Zab_VDW">     -0.84910000</i>
   <i name="PARAM1">      0.12340000</i>
   <i name="PARAM2">      1.00000000</i>
   <i name="PARAM3">      0.00000000</i>
  </separator>
  <separator name="model GW" >
   <i type="int" name="MODEL_GW">     0</i>
   <i name="MODEL_EPS0">     14.95425785</i>
   <i name="MODEL_ALPHA">      1.00000000</i>
  </separator>
  <separator name="linear response parameters" >
   <i type="logical" name="LEPSILON"> F  </i>
   <i type="logical" name="LRPA"> F  </i>
   <i type="logical" name="LNABLA"> F  </i>
   <i type="logical" name="LVEL"> F  </i>
   <i type="int" name="KINTER">     0</i>
   <i name="CSHIFT">      0.10000000</i>
   <i name="OMEGAMAX">     -1.00000000</i>
   <i name="DEG_THRESHOLD">      0.00200000</i>
   <i name="RTIME">     -0.10000000</i>
   <i name="WPLASMAI">      0.00000000</i>
   <v name="DFIELD">      0.00000000      0.00000000      0.00000000</v>
   <v name="WPLASMA">      0.00000000      0.00000000      0.00000000      0.00000000      0.00000000      0.00000000      0.00000000      0.00000000      0.00000000</v>
  </separator>
  <separator name="orbital magnetization" >
   <i type="logical" name="NUCIND"> F  </i>
   <v name="MAGPOS">      0.00000000      0.00000000      0.00000000</v>
   <i type="logical" name="LNICSALL"> T  </i>
   <i type="logical" name="ORBITALMAG"> F  </i>
   <i type="logical" name="LMAGBLOCH"> F  </i>
   <i type="logical" name="LCHIMAG"> F  </i>
   <i type="logical" name="LGAUGE"> T  </i>
   <i type="int" name="MAGATOM">     0</i>
   <v name="MAGDIPOL">      0.00000000      0.00000000      0.00000000</v>
   <v name="AVECCONST">      0.00000000      0.00000000      0.00000000</v>
  </separator>
  <separator name="response functions" >
   <i type="logical" name="LADDER"> F  </i>
   <i type="logical" name="LRPAFORCE"> F  </i>
   <i type="logical" name="LFXC"> F  </i>
   <i type="logical" name="LHARTREE"> T  </i>
   <i type="int" name="IBSE">     0</i>
   <v type="int" name="KPOINT">    -1     0     0     0</v>
   <i type="logical" name="LTCTE"> F  </i>
   <i type="logical" name="LTETE"> F  </i>
   <i type="logical" name="LTRIPLET"> F  </i>
   <i type="logical" name="LFXCEPS"> F  </i>
   <i type="logical" name="LFXHEG"> F  </i>
   <i type="int" name="NATURALO">     2</i>
   <i type="logical" name="L2ORDER"> F  </i>
   <i type="logical" name="LMP2LT"> F  </i>
   <i type="logical" name="LUSEW"> F  </i>
   <i name="ENCUTGW">     -2.00000000</i>
   <i name="ENCUTGWSOFT">     -2.00000000</i>
   <i name="ENCUTLF">     -1.00000000</i>
   <i type="int" name="LMAXMP2">    -1</i>
   <i name="SCISSOR">      0.00000000</i>
   <i type="int" name="NOMEGA">     0</i>
   <i type="int" name="NOMEGAR">     0</i>
   <i type="int" name="NBANDSGW">    -1</i>
   <i type="int" name="NBANDSO">    -1</i>
   <i type="int" name="NBANDSV">    -1</i>
   <i type="int" name="NELM">   100</i>
   <i type="int" name="NELMHF">     1</i>
   <i type="int" name="DIM">     3</i>
   <i type="int" name="ANTIRES">     0</i>
   <i name="OMEGAMAX">    -30.00000000</i>
   <i name="OMEGAMIN">    -30.00000000</i>
   <i name="OMEGATL">   -200.00000000</i>
   <i type="int" name="OMEGAGRID">   140</i>
   <i name="CSHIFT">     -0.10000000</i>
   <i type="logical" name="SELFENERGY"> F  </i>
   <i type="logical" name="LSPECTRAL"> F  </i>
   <i type="logical" name="LSPECTRALGW"> F  </i>
   <i type="logical" name="LSINGLES"> F  </i>
   <i type="logical" name="LFERMIGW"> F  </i>
   <i type="logical" name="ODDONLYGW"> F  </i>
   <i type="logical" name="EVENONLYGW"> F  </i>
   <i type="int" name="NKREDLFX">     1</i>
   <i type="int" name="NKREDLFY">     1</i>
   <i type="int" name="NKREDLFZ">     1</i>
   <i type="int" name="MAXMEM">  2800</i>
   <i type="int" name="TELESCOPE">     0</i>
   <i type="int" name="TAUPAR">     1</i>
   <i type="int" name="OMEGAPAR">    -1</i>
   <i name="LAMBDA">      1.00000000</i>
  </separator>
  <separator name="External order field" >
   <i name="OFIELD_KAPPA">      0.00000000</i>
   <v name="OFIELD_K">      0.00000000      0.00000000      0.00000000</v>
   <i name="OFIELD_Q6_NEAR">      0.00000000</i>
   <i name="OFIELD_Q6_FAR">      0.00000000</i>
   <i name="OFIELD_A">      0.00000000</i>
  </separator>
 </parameters>
 <atominfo>
  <atoms>     104 </atoms>
  <types>       2 </types>
  <array name="atoms" >
   <dimension dim="1">ion</dimension>
   <field type="string">element</field>
   <field type="int">atomtype</field>
   <set>
    <rc><c>Ni</c><c>   1</c></rc>
    <rc><c>Ni</c><c>   1</c></rc>
    <rc><c>Ni</c><c>   1</c></rc>
    <rc><c>Ni</c><c>   1</c></rc>
    <rc><c>Ni</c><c>   1</c></rc>
    <rc><c>Ni</c><c>   1</c></rc>
    <rc><c>Ni</c><c>   1</c></rc>
    <rc><c>Ni</c><c>   1</c></rc>
    <rc><c>Ni</c><c>   1</c></rc>
    <rc><c>Ni</c><c>   1</c></rc>
    <rc><c>Ni</c><c>   1</c></rc>
    <rc><c>Ni</c><c>   1</c></rc>
    <rc><c>Ni</c><c>   1</c></rc>
    <rc><c>Ni</c><c>   1</c></rc>
    <rc><c>Ni</c><c>   1</c></rc>
    <rc><c>Ni</c><c>   1</c></rc>
    <rc><c>Ni</c><c>   1</c></rc>
    <rc><c>Ni</c><c>   1</c></rc>
    <rc><c>Ni</c><c>   1</c></rc>
    <rc><c>Ni</c><c>   1</c></rc>
    <rc><c>Ni</c><c>   1</c></rc>
    <rc><c>Ni</c><c>   1</c></rc>
    <rc><c>Ni</c><c>   1</c></rc>
    <rc><c>Ni</c><c>   1</c></rc>
    <rc><c>Ni</c><c>   1</c></rc>
    <rc><c>Ni</c><c>   1</c></rc>
    <rc><c>Ni</c><c>   1</c></rc>
    <rc><c>Ni</c><c>   1</c></rc>
    <rc><c>Ni</c><c>   1</c></rc>
    <rc><c>Ni</c><c>   1</c></rc>
    <rc><c>Ni</c><c>   1</c></rc>
    <rc><c>Ni</c><c>   1</c></rc>
    <rc><c>Ni</c><c>   1</c></rc>
    <rc><c>Ni</c><c>   1</c></rc>
    <rc><c>Ni</c><c>   1</c></rc>
    <rc><c>Ni</c><c>   1</c></rc>
    <rc><c>Ni</c><c>   1</c></rc>
    <rc><c>Ni</c><c>   1</c></rc>
    <rc><c>Ni</c><c>   1</c></rc>
    <rc><c>Ni</c><c>   1</c></rc>
    <rc><c>Ni</c><c>   1</c></rc>
    <rc><c>Ni</c><c>   1</c></rc>
    <rc><c>Ni</c><c>   1</c></rc>
    <rc><c>Ni</c><c>   1</c></rc>
    <rc><c>Ni</c><c>   1</c></rc>
    <rc><c>Ni</c><c>   1</c></rc>
    <rc><c>Ni</c><c>   1</c></rc>
    <rc><c>Ni</c><c>   1</c></rc>
    <rc><c>Ni</c><c>   1</c></rc>
    <rc><c>Ni</c><c>   1</c></rc>
    <rc><c>Ni</c><c>   1</c></rc>
    <rc><c>Ni</c><c>   1</c></rc>
    <rc><c>S </c><c>   2</c></rc>
    <rc><c>S </c><c>   2</c></rc>
    <rc><c>S </c><c>   2</c></rc>
    <rc><c>S </c><c>   2</c></rc>
    <rc><c>S </c><c>   2</c></rc>
    <rc><c>S </c><c>   2</c></rc>
    <rc><c>S </c><c>   2</c></rc>
    <rc><c>S </c><c>   2</c></rc>
    <rc><c>S </c><c>   2</c></rc>
    <rc><c>S </c><c>   2</c></rc>
    <rc><c>S </c><c>   2</c></rc>
    <rc><c>S </c><c>   2</c></rc>
    <rc><c>S </c><c>   2</c></rc>
    <rc><c>S </c><c>   2</c></rc>
    <rc><c>S </c><c>   2</c></rc>
    <rc><c>S </c><c>   2</c></rc>
    <rc><c>S </c><c>   2</c></rc>
    <rc><c>S </c><c>   2</c></rc>
    <rc><c>S </c><c>   2</c></rc>
    <rc><c>S </c><c>   2</c></rc>
    <rc><c>S </c><c>   2</c></rc>
    <rc><c>S </c><c>   2</c></rc>
    <rc><c>S </c><c>   2</c></rc>
    <rc><c>S </c><c>   2</c></rc>
    <rc><c>S </c><c>   2</c></rc>
    <rc><c>S </c><c>   2</c></rc>
    <rc><c>S </c><c>   2</c></rc>
    <rc><c>S </c><c>   2</c></rc>
    <rc><c>S </c><c>   2</c></rc>
    <rc><c>S </c><c>   2</c></rc>
    <rc><c>S </c><c>   2</c></rc>
    <rc><c>S </c><c>   2</c></rc>
    <rc><c>S </c><c>   2</c></rc>
    <rc><c>S </c><c>   2</c></rc>
    <rc><c>S </c><c>   2</c></rc>
    <rc><c>S </c><c>   2</c></rc>
    <rc><c>S </c><c>   2</c></rc>
    <rc><c>S </c><c>   2</c></rc>
    <rc><c>S </c><c>   2</c></rc>
    <rc><c>S </c><c>   2</c></rc>
    <rc><c>S </c><c>   2</c></rc>
    <rc><c>S </c><c>   2</c></rc>
    <rc><c>S </c><c>   2</c></rc>
    <rc><c>S </c><c>   2</c></rc>
    <rc><c>S </c><c>   2</c></rc>
    <rc><c>S </c><c>   2</c></rc>
    <rc><c>S </c><c>   2</c></rc>
    <rc><c>S </c><c>   2</c></rc>
    <rc><c>S </c><c>   2</c></rc>
    <rc><c>S </c><c>   2</c></rc>
    <rc><c>S </c><c>   2</c></rc>
    <rc><c>S </c><c>   2</c></rc>
   </set>
  </array>
  <array name="atomtypes" >
   <dimension dim="1">type</dimension>
   <field type="int">atomspertype</field>
   <field type="string">element</field>
   <field>mass</field>
   <field>valence</field>
   <field type="string">pseudopotential</field>
   <set>
    <rc><c>  52</c><c>Ni</c><c>     58.69000000</c><c>     16.00000000</c><c>  PAW_PBE Ni_pv 06Sep2000               </c></rc>
    <rc><c>  52</c><c>S </c><c>     32.06600000</c><c>      6.00000000</c><c>  PAW_PBE S 06Sep2000                   </c></rc>
   </set>
  </array>
 </atominfo>
 <structure name="initialpos" >
  <crystal>
   <varray name="basis" >
    <v>      11.25646304       0.00000000       0.00000000 </v>
    <v>       5.04456212      10.06282034       0.00000000 </v>
    <v>       0.00000000       0.00000000      22.88364939 </v>
   </varray>
   <i name="volume">   2592.07135999 </i>
   <varray name="rec_basis" >
    <v>       0.08883785      -0.04453504       0.00000000 </v>
    <v>       0.00000000       0.09937572       0.00000000 </v>
    <v>       0.00000000       0.00000000       0.04369932 </v>
   </varray>
  </crystal>
  <varray name="positions" >
   <v>       0.26092070       0.47878036       0.29050611 </v>
   <v>       0.35488056       0.38482049       0.41880986 </v>
   <v>       0.07624356       0.16211667       0.05888757 </v>
   <v>       0.16696083       0.07274024       0.16220237 </v>
   <v>       0.02669219       0.06637219       0.49003967 </v>
   <v>       0.27423906       0.33335899       0.12830375 </v>
   <v>       0.36819893       0.23939913       0.25660749 </v>
   <v>       0.46215880       0.14543926       0.38491124 </v>
   <v>       0.00030194       0.37150212       0.25660749 </v>
   <v>       0.09426181       0.27754226       0.38491124 </v>
   <v>       0.17332821       0.21300915       0.49003968 </v>
   <v>       0.40634206       0.46546199       0.12830375 </v>
   <v>       0.31674499       0.04489983       0.02232087 </v>
   <v>       0.76092070       0.47878036       0.29050611 </v>
   <v>       0.85488056       0.38482049       0.41880986 </v>
   <v>       0.66696083       0.07274024       0.16220237 </v>
   <v>       0.52669204       0.06637226       0.49003959 </v>
   <v>       0.73254274       0.51258636       0.05302009 </v>
   <v>       0.77423906       0.33335899       0.12830375 </v>
   <v>       0.86819893       0.23939913       0.25660749 </v>
   <v>       0.96215880       0.14543926       0.38491124 </v>
   <v>       0.50030194       0.37150212       0.25660749 </v>
   <v>       0.59426181       0.27754226       0.38491124 </v>
   <v>       0.67332818       0.21300923       0.49003963 </v>
   <v>       0.90634206       0.46546199       0.12830375 </v>
   <v>       0.92921873       0.02471197       0.03294404 </v>
   <v>       0.26092070       0.97878036       0.29050611 </v>
   <v>       0.35488056       0.88482049       0.41880986 </v>
   <v>       0.04106220       0.70866857       0.08955745 </v>
   <v>       0.16696083       0.57274024       0.16220237 </v>
   <v>       0.02669260       0.56637252       0.49004023 </v>
   <v>       0.19202300       0.91765768       0.02075764 </v>
   <v>       0.27423907       0.83335899       0.12830375 </v>
   <v>       0.36819893       0.73939913       0.25660749 </v>
   <v>       0.46215880       0.64543926       0.38491124 </v>
   <v>       0.00030194       0.87150212       0.25660749 </v>
   <v>       0.09426181       0.77754226       0.38491124 </v>
   <v>       0.17332915       0.71300824       0.49004021 </v>
   <v>       0.40634206       0.96546199       0.12830375 </v>
   <v>       0.76092070       0.97878036       0.29050611 </v>
   <v>       0.85488056       0.88482049       0.41880986 </v>
   <v>       0.53029559       0.69948807       0.08992898 </v>
   <v>       0.66696083       0.57274024       0.16220237 </v>
   <v>       0.52669259       0.56637257       0.49004025 </v>
   <v>       0.71125761       0.02537897       0.05716730 </v>
   <v>       0.77423907       0.83335899       0.12830375 </v>
   <v>       0.86819893       0.73939913       0.25660749 </v>
   <v>       0.96215880       0.64543926       0.38491124 </v>
   <v>       0.50030194       0.87150212       0.25660749 </v>
   <v>       0.59426181       0.77754226       0.38491124 </v>
   <v>       0.67332916       0.71300824       0.49004022 </v>
   <v>       0.90634206       0.96546199       0.12830375 </v>
   <v>       0.07287763       0.16682343       0.30639927 </v>
   <v>       0.16683750       0.07286357       0.43470302 </v>
   <v>       0.35874390       0.38064233       0.06222007 </v>
   <v>       0.47891775       0.26078330       0.17809552 </v>
   <v>       0.10488426       0.63481700       0.55223182 </v>
   <v>       0.01705373       0.38979692       0.46319638 </v>
   <v>       0.43627354       0.47164251       0.34956450 </v>
   <v>       0.24835381       0.15956225       0.09295701 </v>
   <v>       0.34231368       0.06560239       0.22126075 </v>
   <v>       0.07639026       0.49948361       0.10414163 </v>
   <v>       0.17409868       0.39738738       0.22126075 </v>
   <v>       0.26805855       0.30342751       0.34956450 </v>
   <v>       0.34990451       0.22264727       0.46319642 </v>
   <v>       0.57287763       0.16682343       0.30639927 </v>
   <v>       0.66683750       0.07286357       0.43470302 </v>
   <v>       0.90241617       0.34006479       0.06120245 </v>
   <v>       0.97891775       0.26078330       0.17809552 </v>
   <v>       0.60488422       0.63481709       0.55223183 </v>
   <v>       0.51705369       0.38979700       0.46319637 </v>
   <v>       0.93627354       0.47164251       0.34956450 </v>
   <v>       0.77034744       0.15438982       0.09652229 </v>
   <v>       0.84231368       0.06560239       0.22126075 </v>
   <v>       0.58013882       0.49134724       0.09295701 </v>
   <v>       0.67409868       0.39738738       0.22126075 </v>
   <v>       0.76805855       0.30342751       0.34956450 </v>
   <v>       0.84990465       0.22264718       0.46319644 </v>
   <v>       0.07287764       0.66682343       0.30639927 </v>
   <v>       0.16683750       0.57286357       0.43470302 </v>
   <v>       0.38495789       0.85474317       0.04979178 </v>
   <v>       0.47891775       0.76078330       0.17809552 </v>
   <v>       0.10488245       0.13481840       0.55223121 </v>
   <v>       0.01705424       0.88979560       0.46319656 </v>
   <v>       0.43627354       0.97164251       0.34956450 </v>
   <v>       0.24722036       0.66110142       0.10420998 </v>
   <v>       0.34231368       0.56560239       0.22126075 </v>
   <v>       0.08013882       0.99134724       0.09295701 </v>
   <v>       0.17409868       0.89738738       0.22126075 </v>
   <v>       0.26805855       0.80342751       0.34956450 </v>
   <v>       0.34990499       0.72264694       0.46319650 </v>
   <v>       0.57287764       0.66682343       0.30639927 </v>
   <v>       0.66683750       0.57286357       0.43470302 </v>
   <v>       0.88495789       0.85474317       0.04979178 </v>
   <v>       0.97891775       0.76078330       0.17809552 </v>
   <v>       0.60488212       0.13481869       0.55223113 </v>
   <v>       0.51705424       0.88979557       0.46319656 </v>
   <v>       0.93627354       0.97164251       0.34956450 </v>
   <v>       0.74298914       0.66282147       0.10214208 </v>
   <v>       0.84231368       0.56560239       0.22126075 </v>
   <v>       0.58095412       0.98338442       0.10677673 </v>
   <v>       0.67409868       0.89738738       0.22126075 </v>
   <v>       0.76805855       0.80342751       0.34956450 </v>
   <v>       0.84990500       0.72264694       0.46319650 </v>
  </varray>
 </structure>
 <calculation>
  <scstep>
   <time name="dav">   15.72   15.72</time>
   <time name="total">   16.12   16.13</time>
   <energy>
    <i name="alphaZ">   2994.23548884 </i>
    <i name="ewald"> 340692.38851274 </i>
    <i name="hartreedc">-518236.86121230 </i>
    <i name="XCdc">   5313.89618677 </i>
    <i name="pawpsdc"> 162831.54814933 </i>
    <i name="pawaedc">-169926.62828172 </i>
    <i name="eentropy">     -0.53976638 </i>
    <i name="bandstr">  -5225.59157749 </i>
    <i name="atom"> 196448.20729987 </i>
    <i name="e_fr_energy">  14890.65479966 </i>
    <i name="e_wo_entrp">  14891.19456604 </i>
    <i name="e_0_energy">  14890.92468285 </i>
   </energy>
  </scstep>
  <scstep>
   <time name="dav">   13.85   13.85</time>
   <time name="total">   13.85   13.85</time>
   <energy>
    <i name="e_fr_energy">   1010.11789444 </i>
    <i name="e_wo_entrp">   1011.01056023 </i>
    <i name="e_0_energy">   1010.56422734 </i>
   </energy>
  </scstep>
  <scstep>
   <time name="dav">   14.90   14.90</time>
   <time name="total">   14.90   14.90</time>
   <energy>
    <i name="e_fr_energy">   -483.60660686 </i>
    <i name="e_wo_entrp">   -481.97967637 </i>
    <i name="e_0_energy">   -482.79314161 </i>
   </energy>
  </scstep>
  <scstep>
   <time name="dav">   15.01   15.02</time>
   <time name="total">   15.02   15.02</time>
   <energy>
    <i name="e_fr_energy">   -581.96762079 </i>
    <i name="e_wo_entrp">   -580.29359560 </i>
    <i name="e_0_energy">   -581.13060820 </i>
   </energy>
  </scstep>
  <scstep>
   <time name="dav">   16.92   16.92</time>
   <time name="total">   17.36   17.37</time>
   <energy>
    <i name="e_fr_energy">   -586.01161858 </i>
    <i name="e_wo_entrp">   -584.35877280 </i>
    <i name="e_0_energy">   -585.18519569 </i>
   </energy>
  </scstep>
  <scstep>
   <time name="dav">   16.05   16.05</time>
   <time name="total">   16.87   16.88</time>
   <energy>
    <i name="e_fr_energy">   -696.39876326 </i>
    <i name="e_wo_entrp">   -695.23441248 </i>
    <i name="e_0_energy">   -695.81658787 </i>
   </energy>
  </scstep>
  <scstep>
   <time name="dav">   14.84   14.84</time>
   <time name="total">   15.78   15.79</time>
   <energy>
    <i name="e_fr_energy">   -556.44573974 </i>
    <i name="e_wo_entrp">   -555.40101144 </i>
    <i name="e_0_energy">   -555.92337559 </i>
   </energy>
  </scstep>
  <scstep>
   <time name="dav">   17.12   17.12</time>
   <time name="total">   17.97   17.97</time>
   <energy>
    <i name="e_fr_energy">   -660.71161602 </i>
    <i name="e_wo_entrp">   -659.57211038 </i>
    <i name="e_0_energy">   -660.14186320 </i>
   </energy>
  </scstep>
  <scstep>
   <time name="dav">   17.08   17.09</time>
   <time name="total">   17.98   17.98</time>
   <energy>
    <i name="e_fr_energy">   -625.82433934 </i>
    <i name="e_wo_entrp">   -624.31378828 </i>
    <i name="e_0_energy">   -625.06906381 </i>
   </energy>
  </scstep>
  <scstep>
   <time name="dav">   17.55   17.55</time>
   <time name="total">   18.37   18.37</time>
   <energy>
    <i name="e_fr_energy">   -614.18968173 </i>
    <i name="e_wo_entrp">   -612.28897905 </i>
    <i name="e_0_energy">   -613.23933039 </i>
   </energy>
  </scstep>
  <scstep>
   <time name="dav">   17.04   17.05</time>
   <time name="total">   17.87   17.87</time>
   <energy>
    <i name="e_fr_energy">   -599.36887649 </i>
    <i name="e_wo_entrp">   -597.73441331 </i>
    <i name="e_0_energy">   -598.55164490 </i>
   </energy>
  </scstep>
  <scstep>
   <time name="dav">   17.17   17.17</time>
   <time name="total">   18.23   18.28</time>
   <energy>
    <i name="e_fr_energy">   -557.20544748 </i>
    <i name="e_wo_entrp">   -555.57051882 </i>
    <i name="e_0_energy">   -556.38798315 </i>
   </energy>
  </scstep>
  <scstep>
   <time name="dav">   17.45   17.45</time>
   <time name="total">   18.28   18.28</time>
   <energy>
    <i name="e_fr_energy">   -577.59225100 </i>
    <i name="e_wo_entrp">   -576.25777235 </i>
    <i name="e_0_energy">   -576.92501167 </i>
   </energy>
  </scstep>
  <scstep>
   <time name="dav">   17.23   17.23</time>
   <time name="total">   18.05   18.05</time>
   <energy>
    <i name="e_fr_energy">   -539.94061608 </i>
    <i name="e_wo_entrp">   -538.35924364 </i>
    <i name="e_0_energy">   -539.14992986 </i>
   </energy>
  </scstep>
  <scstep>
   <time name="dav">   17.43   17.43</time>
   <time name="total">   18.26   18.26</time>
   <energy>
    <i name="e_fr_energy">   -528.20288260 </i>
    <i name="e_wo_entrp">   -526.81269621 </i>
    <i name="e_0_energy">   -527.50778941 </i>
   </energy>
  </scstep>
  <scstep>
   <time name="dav">   17.60   17.60</time>
   <time name="total">   18.43   18.44</time>
   <energy>
    <i name="e_fr_energy">   -525.28106193 </i>
    <i name="e_wo_entrp">   -523.95256566 </i>
    <i name="e_0_energy">   -524.61681379 </i>
   </energy>
  </scstep>
  <scstep>
   <time name="dav">   16.95   16.95</time>
   <time name="total">   17.80   17.80</time>
   <energy>
    <i name="e_fr_energy">   -522.50426039 </i>
    <i name="e_wo_entrp">   -521.20608915 </i>
    <i name="e_0_energy">   -521.85517477 </i>
   </energy>
  </scstep>
  <scstep>
   <time name="dav">   17.51   17.51</time>
   <time name="total">   18.34   18.35</time>
   <energy>
    <i name="e_fr_energy">   -520.93602230 </i>
    <i name="e_wo_entrp">   -519.54563924 </i>
    <i name="e_0_energy">   -520.24083077 </i>
   </energy>
  </scstep>
  <scstep>
   <time name="dav">   17.28   17.29</time>
   <time name="total">   18.12   18.12</time>
   <energy>
    <i name="e_fr_energy">   -519.59785624 </i>
    <i name="e_wo_entrp">   -518.15564363 </i>
    <i name="e_0_energy">   -518.87674994 </i>
   </energy>
  </scstep>
  <scstep>
   <time name="dav">   17.21   17.21</time>
   <time name="total">   18.05   18.05</time>
   <energy>
    <i name="e_fr_energy">   -518.72434127 </i>
    <i name="e_wo_entrp">   -517.27897810 </i>
    <i name="e_0_energy">   -518.00165968 </i>
   </energy>
  </scstep>
  <scstep>
   <time name="dav">   18.39   18.39</time>
   <time name="total">   19.23   19.23</time>
   <energy>
    <i name="e_fr_energy">   -517.63668482 </i>
    <i name="e_wo_entrp">   -516.21211990 </i>
    <i name="e_0_energy">   -516.92440236 </i>
   </energy>
  </scstep>
  <scstep>
   <time name="dav">   19.01   19.01</time>
   <time name="total">   20.12   20.12</time>
   <energy>
    <i name="e_fr_energy">   -515.43693622 </i>
    <i name="e_wo_entrp">   -513.97048562 </i>
    <i name="e_0_energy">   -514.70371092 </i>
   </energy>
  </scstep>
  <scstep>
   <time name="dav">   17.38   17.39</time>
   <time name="total">   18.23   18.23</time>
   <energy>
    <i name="e_fr_energy">   -514.61470940 </i>
    <i name="e_wo_entrp">   -513.10280945 </i>
    <i name="e_0_energy">   -513.85875943 </i>
   </energy>
  </scstep>
  <scstep>
   <time name="dav">   17.29   17.29</time>
   <time name="total">   18.14   18.14</time>
   <energy>
    <i name="e_fr_energy">   -514.34120504 </i>
    <i name="e_wo_entrp">   -512.87983597 </i>
    <i name="e_0_energy">   -513.61052050 </i>
   </energy>
  </scstep>
  <scstep>
   <time name="dav">   16.83   16.89</time>
   <time name="total">   17.83   17.88</time>
   <energy>
    <i name="e_fr_energy">   -514.25980592 </i>
    <i name="e_wo_entrp">   -512.79735947 </i>
    <i name="e_0_energy">   -513.52858270 </i>
   </energy>
  </scstep>
  <scstep>
   <time name="dav">   16.96   16.96</time>
   <time name="total">   17.87   17.91</time>
   <energy>
    <i name="e_fr_energy">   -514.17399069 </i>
    <i name="e_wo_entrp">   -512.69715957 </i>
    <i name="e_0_energy">   -513.43557513 </i>
   </energy>
  </scstep>
  <scstep>
   <time name="dav">   16.52   16.53</time>
   <time name="total">   17.37   17.38</time>
   <energy>
    <i name="e_fr_energy">   -514.21380932 </i>
    <i name="e_wo_entrp">   -512.73685299 </i>
    <i name="e_0_energy">   -513.47533116 </i>
   </energy>
  </scstep>
  <scstep>
   <time name="dav">   15.28   15.28</time>
   <time name="total">   16.13   16.14</time>
   <energy>
    <i name="e_fr_energy">   -514.16444386 </i>
    <i name="e_wo_entrp">   -512.69217709 </i>
    <i name="e_0_energy">   -513.42831047 </i>
   </energy>
  </scstep>
  <scstep>
   <time name="dav">   14.95   14.95</time>
   <time name="total">   15.81   15.81</time>
   <energy>
    <i name="e_fr_energy">   -514.13607519 </i>
    <i name="e_wo_entrp">   -512.67267903 </i>
    <i name="e_0_energy">   -513.40437711 </i>
   </energy>
  </scstep>
  <scstep>
   <time name="dav">   17.56   17.56</time>
   <time name="total">   18.43   18.43</time>
   <energy>
    <i name="e_fr_energy">   -514.12461839 </i>
    <i name="e_wo_entrp">   -512.67487988 </i>
    <i name="e_0_energy">   -513.39974913 </i>
   </energy>
  </scstep>
  <scstep>
   <time name="dav">   16.30   16.31</time>
   <time name="total">   17.17   17.17</time>
   <energy>
    <i name="e_fr_energy">   -514.11996299 </i>
    <i name="e_wo_entrp">   -512.66456795 </i>
    <i name="e_0_energy">   -513.39226547 </i>
   </energy>
  </scstep>
  <scstep>
   <time name="dav">   17.06   17.06</time>
   <time name="total">   17.94   17.95</time>
   <energy>
    <i name="e_fr_energy">   -514.11916549 </i>
    <i name="e_wo_entrp">   -512.66668778 </i>
    <i name="e_0_energy">   -513.39292663 </i>
   </energy>
  </scstep>
  <scstep>
   <time name="dav">   17.24   17.25</time>
   <time name="total">   18.11   18.12</time>
   <energy>
    <i name="e_fr_energy">   -514.11845997 </i>
    <i name="e_wo_entrp">   -512.66638831 </i>
    <i name="e_0_energy">   -513.39242414 </i>
   </energy>
  </scstep>
  <scstep>
   <time name="dav">   16.99   16.99</time>
   <time name="total">   17.86   17.86</time>
   <energy>
    <i name="e_fr_energy">   -514.11769991 </i>
    <i name="e_wo_entrp">   -512.66751299 </i>
    <i name="e_0_energy">   -513.39260645 </i>
   </energy>
  </scstep>
  <scstep>
   <time name="dav">   16.24   16.24</time>
   <time name="total">   17.12   17.12</time>
   <energy>
    <i name="e_fr_energy">   -514.11641920 </i>
    <i name="e_wo_entrp">   -512.66674936 </i>
    <i name="e_0_energy">   -513.39158428 </i>
   </energy>
  </scstep>
  <scstep>
   <time name="dav">   16.61   16.61</time>
   <time name="total">   17.69   17.70</time>
   <energy>
    <i name="e_fr_energy">   -514.11547203 </i>
    <i name="e_wo_entrp">   -512.66264570 </i>
    <i name="e_0_energy">   -513.38905886 </i>
   </energy>
  </scstep>
  <scstep>
   <time name="dav">   15.00   15.00</time>
   <time name="total">   15.39   15.39</time>
   <energy>
    <i name="alphaZ">   2994.23548884 </i>
    <i name="ewald"> 340692.38851274 </i>
    <i name="hartreedc">-517101.55828076 </i>
    <i name="XCdc">   5268.79937795 </i>
    <i name="pawpsdc"> 199157.81964557 </i>
    <i name="pawaedc">-206362.76856654 </i>
    <i name="eentropy">     -1.45260510 </i>
    <i name="bandstr"> -21609.78631317 </i>
    <i name="atom"> 196448.20729987 </i>
    <i name="e_fr_energy">   -514.11544060 </i>
    <i name="e_wo_entrp">   -512.66283550 </i>
    <i name="e_0_energy">   -513.38913805 </i>
   </energy>
  </scstep>
  <structure>
   <crystal>
    <varray name="basis" >
     <v>      11.25646304       0.00000000       0.00000000 </v>
     <v>       5.04456212      10.06282034       0.00000000 </v>
     <v>       0.00000000       0.00000000      22.88364939 </v>
    </varray>
    <i name="volume">   2592.07135999 </i>
    <varray name="rec_basis" >
     <v>       0.08883785      -0.04453504       0.00000000 </v>
     <v>       0.00000000       0.09937572       0.00000000 </v>
     <v>       0.00000000       0.00000000       0.04369932 </v>
    </varray>
   </crystal>
   <varray name="positions" >
    <v>       0.26092070       0.47878036       0.29050611 </v>
    <v>       0.35488056       0.38482049       0.41880986 </v>
    <v>       0.07624356       0.16211667       0.05888757 </v>
    <v>       0.16696083       0.07274024       0.16220237 </v>
    <v>       0.02669219       0.06637219       0.49003967 </v>
    <v>       0.27423906       0.33335899       0.12830375 </v>
    <v>       0.36819893       0.23939913       0.25660749 </v>
    <v>       0.46215880       0.14543926       0.38491124 </v>
    <v>       0.00030194       0.37150212       0.25660749 </v>
    <v>       0.09426181       0.27754226       0.38491124 </v>
    <v>       0.17332821       0.21300915       0.49003968 </v>
    <v>       0.40634206       0.46546199       0.12830375 </v>
    <v>       0.31674499       0.04489983       0.02232087 </v>
    <v>       0.76092070       0.47878036       0.29050611 </v>
    <v>       0.85488056       0.38482049       0.41880986 </v>
    <v>       0.66696083       0.07274024       0.16220237 </v>
    <v>       0.52669204       0.06637226       0.49003959 </v>
    <v>       0.73254274       0.51258636       0.05302009 </v>
    <v>       0.77423906       0.33335899       0.12830375 </v>
    <v>       0.86819893       0.23939913       0.25660749 </v>
    <v>       0.96215880       0.14543926       0.38491124 </v>
    <v>       0.50030194       0.37150212       0.25660749 </v>
    <v>       0.59426181       0.27754226       0.38491124 </v>
    <v>       0.67332818       0.21300923       0.49003963 </v>
    <v>       0.90634206       0.46546199       0.12830375 </v>
    <v>       0.92921873       0.02471197       0.03294404 </v>
    <v>       0.26092070       0.97878036       0.29050611 </v>
    <v>       0.35488056       0.88482049       0.41880986 </v>
    <v>       0.04106220       0.70866857       0.08955745 </v>
    <v>       0.16696083       0.57274024       0.16220237 </v>
    <v>       0.02669260       0.56637252       0.49004023 </v>
    <v>       0.19202300       0.91765768       0.02075764 </v>
    <v>       0.27423907       0.83335899       0.12830375 </v>
    <v>       0.36819893       0.73939913       0.25660749 </v>
    <v>       0.46215880       0.64543926       0.38491124 </v>
    <v>       0.00030194       0.87150212       0.25660749 </v>
    <v>       0.09426181       0.77754226       0.38491124 </v>
    <v>       0.17332915       0.71300824       0.49004021 </v>
    <v>       0.40634206       0.96546199       0.12830375 </v>
    <v>       0.76092070       0.97878036       0.29050611 </v>
    <v>       0.85488056       0.88482049       0.41880986 </v>
    <v>       0.53029559       0.69948807       0.08992898 </v>
    <v>       0.66696083       0.57274024       0.16220237 </v>
    <v>       0.52669259       0.56637257       0.49004025 </v>
    <v>       0.71125761       0.02537897       0.05716730 </v>
    <v>       0.77423907       0.83335899       0.12830375 </v>
    <v>       0.86819893       0.73939913       0.25660749 </v>
    <v>       0.96215880       0.64543926       0.38491124 </v>
    <v>       0.50030194       0.87150212       0.25660749 </v>
    <v>       0.59426181       0.77754226       0.38491124 </v>
    <v>       0.67332916       0.71300824       0.49004022 </v>
    <v>       0.90634206       0.96546199       0.12830375 </v>
    <v>       0.07287763       0.16682343       0.30639927 </v>
    <v>       0.16683750       0.07286357       0.43470302 </v>
    <v>       0.35874390       0.38064233       0.06222007 </v>
    <v>       0.47891775       0.26078330       0.17809552 </v>
    <v>       0.10488426       0.63481700       0.55223182 </v>
    <v>       0.01705373       0.38979692       0.46319638 </v>
    <v>       0.43627354       0.47164251       0.34956450 </v>
    <v>       0.24835381       0.15956225       0.09295701 </v>
    <v>       0.34231368       0.06560239       0.22126075 </v>
    <v>       0.07639026       0.49948361       0.10414163 </v>
    <v>       0.17409868       0.39738738       0.22126075 </v>
    <v>       0.26805855       0.30342751       0.34956450 </v>
    <v>       0.34990451       0.22264727       0.46319642 </v>
    <v>       0.57287763       0.16682343       0.30639927 </v>
    <v>       0.66683750       0.07286357       0.43470302 </v>
    <v>       0.90241617       0.34006479       0.06120245 </v>
    <v>       0.97891775       0.26078330       0.17809552 </v>
    <v>       0.60488422       0.63481709       0.55223183 </v>
    <v>       0.51705369       0.38979700       0.46319637 </v>
    <v>       0.93627354       0.47164251       0.34956450 </v>
    <v>       0.77034744       0.15438982       0.09652229 </v>
    <v>       0.84231368       0.06560239       0.22126075 </v>
    <v>       0.58013882       0.49134724       0.09295701 </v>
    <v>       0.67409868       0.39738738       0.22126075 </v>
    <v>       0.76805855       0.30342751       0.34956450 </v>
    <v>       0.84990465       0.22264718       0.46319644 </v>
    <v>       0.07287764       0.66682343       0.30639927 </v>
    <v>       0.16683750       0.57286357       0.43470302 </v>
    <v>       0.38495789       0.85474317       0.04979178 </v>
    <v>       0.47891775       0.76078330       0.17809552 </v>
    <v>       0.10488245       0.13481840       0.55223121 </v>
    <v>       0.01705424       0.88979560       0.46319656 </v>
    <v>       0.43627354       0.97164251       0.34956450 </v>
    <v>       0.24722036       0.66110142       0.10420998 </v>
    <v>       0.34231368       0.56560239       0.22126075 </v>
    <v>       0.08013882       0.99134724       0.09295701 </v>
    <v>       0.17409868       0.89738738       0.22126075 </v>
    <v>       0.26805855       0.80342751       0.34956450 </v>
    <v>       0.34990499       0.72264694       0.46319650 </v>
    <v>       0.57287764       0.66682343       0.30639927 </v>
    <v>       0.66683750       0.57286357       0.43470302 </v>
    <v>       0.88495789       0.85474317       0.04979178 </v>
    <v>       0.97891775       0.76078330       0.17809552 </v>
    <v>       0.60488212       0.13481869       0.55223113 </v>
    <v>       0.51705424       0.88979557       0.46319656 </v>
    <v>       0.93627354       0.97164251       0.34956450 </v>
    <v>       0.74298914       0.66282147       0.10214208 </v>
    <v>       0.84231368       0.56560239       0.22126075 </v>
    <v>       0.58095412       0.98338442       0.10677673 </v>
    <v>       0.67409868       0.89738738       0.22126075 </v>
    <v>       0.76805855       0.80342751       0.34956450 </v>
    <v>       0.84990500       0.72264694       0.46319650 </v>
   </varray>
  </structure>
  <varray name="forces" >
   <v>       0.10254096      -0.24241982       0.00671699 </v>
   <v>      -0.58248027       0.93411771      -0.82373132 </v>
   <v>      -0.30512317       0.25839239      -1.52714483 </v>
   <v>       0.14928640       0.11223801       0.43298904 </v>
   <v>      -1.23680821      -1.13285041       0.54696425 </v>
   <v>      -1.39865077      -0.53802903       1.98270385 </v>
   <v>       0.03584693       0.11014555      -0.00280638 </v>
   <v>       0.08275160      -0.00984426      -1.19966749 </v>
   <v>      -0.13529751      -0.09693601       0.05153355 </v>
   <v>      -0.08793396      -0.11802992      -1.22544045 </v>
   <v>       1.57139993       0.58572976       0.57492970 </v>
   <v>       1.07465744       0.64466456       2.05305288 </v>
   <v>       0.46507963       0.22351820      -1.17156431 </v>
   <v>       0.10176069      -0.12728658      -0.01821311 </v>
   <v>      -0.55935566       0.89205112      -0.82912200 </v>
   <v>       0.20194759       0.68680639       1.52651406 </v>
   <v>      -1.23779128      -1.10465309       0.55283127 </v>
   <v>       0.13866025       0.55725026      -1.97867922 </v>
   <v>      -0.29082062      -0.50323260       1.22346467 </v>
   <v>       0.12064963       0.11198664       0.04377857 </v>
   <v>       0.06750369       0.03806094      -1.19736819 </v>
   <v>      -0.14167593      -0.02213400      -0.01298432 </v>
   <v>      -0.10633050      -0.08142337      -1.20970869 </v>
   <v>       1.60923916       0.61462374       0.55209361 </v>
   <v>       1.17915632       0.19267527       1.66306948 </v>
   <v>       0.04628906       0.38146343      -1.11282867 </v>
   <v>       0.07179322      -0.16346828      -0.00719023 </v>
   <v>      -0.57183184       0.89119397      -0.84959973 </v>
   <v>      -0.04157050      -0.68428067      -0.64638987 </v>
   <v>       0.68387855      -0.94478012       3.53138827 </v>
   <v>      -1.24842430      -1.10831764       0.56314077 </v>
   <v>      -0.47196428      -0.07699501      -0.81835462 </v>
   <v>       0.04618490      -0.19845108       0.73566252 </v>
   <v>      -0.06439651      -0.06351861       0.01935771 </v>
   <v>       0.09368593       0.02709049      -1.21732210 </v>
   <v>       0.09200591       0.07916733       0.04958379 </v>
   <v>      -0.08603382      -0.07201267      -1.18138135 </v>
   <v>       1.56585980       0.60560259       0.53394395 </v>
   <v>      -0.25073588       0.08524734       0.72698847 </v>
   <v>       0.07632733      -0.19404897      -0.06212957 </v>
   <v>      -0.55837693       0.87652059      -0.81006339 </v>
   <v>       0.22803438       0.00872556      -0.84083227 </v>
   <v>       0.03489298      -0.99333450       2.60499113 </v>
   <v>      -1.23376132      -1.11702011       0.56507563 </v>
   <v>      -0.85140064       0.74193938      -1.44602760 </v>
   <v>      -0.13087136      -0.93386368       1.06825777 </v>
   <v>      -0.22641566      -0.05279666       0.01939991 </v>
   <v>       0.13356997       0.05567894      -1.21791743 </v>
   <v>       0.22258730       0.08673851       0.07057174 </v>
   <v>      -0.10744122      -0.05615920      -1.20419053 </v>
   <v>       1.58672927       0.58421210       0.55338987 </v>
   <v>       0.69775506      -0.98340550       2.45615130 </v>
   <v>       0.09487748      -0.11443802      -0.01194787 </v>
   <v>       0.79167400      -1.26501743      -2.05639005 </v>
   <v>       0.52725003      -0.81830669      -4.25583802 </v>
   <v>       0.25654086      -0.14172982      -0.07520081 </v>
   <v>       0.17618298      -0.28055827       2.88413619 </v>
   <v>       0.15094226       0.89583343       1.40302943 </v>
   <v>      -0.09777140       0.12644643      -0.68027841 </v>
   <v>       1.21942799       1.84709808       1.20499439 </v>
   <v>      -0.03954748      -0.02915183       0.14760504 </v>
   <v>      -1.47069554      -0.79665351      -2.05391024 </v>
   <v>      -0.20626580      -0.21676075       0.23957262 </v>
   <v>      -0.04782366       0.15714979      -0.68096412 </v>
   <v>      -0.85168162       0.26811486       1.38140103 </v>
   <v>       0.11498023      -0.14542978       0.05326874 </v>
   <v>       0.79305739      -1.27443560      -2.03249594 </v>
   <v>       0.68451423      -1.02847272      -2.34520114 </v>
   <v>      -0.00692357       0.01736481       0.81968914 </v>
   <v>       0.16548422      -0.26744426       2.88534947 </v>
   <v>       0.15276834       0.87191553       1.38679391 </v>
   <v>      -0.16200275       0.18527732      -0.66819316 </v>
   <v>      -0.22922332       1.79331912      -0.52704820 </v>
   <v>       0.01638020      -0.01625856       0.09133809 </v>
   <v>      -2.01928806      -0.82577746      -0.02469517 </v>
   <v>      -0.09878361      -0.06082136      -0.01562132 </v>
   <v>      -0.10660681       0.17686943      -0.67202449 </v>
   <v>      -0.85959373       0.27454990       1.39885689 </v>
   <v>       0.05424419      -0.14489515      -0.03716345 </v>
   <v>       0.76533782      -1.27772202      -1.99924153 </v>
   <v>      -0.00878148      -0.39284815      -2.01442313 </v>
   <v>      -0.35401376       0.33641369       1.14351850 </v>
   <v>       0.18133580      -0.25974726       2.90202950 </v>
   <v>       0.15668616       0.92003559       1.39493455 </v>
   <v>      -0.16295868       0.13101476      -0.59035687 </v>
   <v>       1.07296189       0.94003530      -1.92109174 </v>
   <v>       0.32705344       0.03024388       0.28726835 </v>
   <v>      -0.98405753      -0.83435874       1.47461847 </v>
   <v>       0.00052485       0.06133230      -0.01433173 </v>
   <v>      -0.05495590       0.22882127      -0.59390604 </v>
   <v>      -0.85012449       0.28111484       1.39146370 </v>
   <v>       0.07295567      -0.11849809      -0.02235141 </v>
   <v>       0.77131372      -1.26274773      -2.04282732 </v>
   <v>       0.17572889      -0.19454765      -3.07486831 </v>
   <v>      -0.21949571       0.64535563       0.86183003 </v>
   <v>       0.17252163      -0.27891432       2.89493630 </v>
   <v>       0.13626834       0.90758227       1.37408043 </v>
   <v>      -0.11644040       0.14186424      -0.62308685 </v>
   <v>       1.26666389       1.37718660      -1.07801619 </v>
   <v>       0.07531756      -0.09329644       0.32981247 </v>
   <v>      -1.23060767       0.42346424      -1.29861674 </v>
   <v>       0.16873096      -0.16097224       0.56818908 </v>
   <v>      -0.05777115       0.22820498      -0.59744452 </v>
   <v>      -0.86089259       0.26664656       1.39093136 </v>
  </varray>
  <varray name="stress" >
   <v>      64.14251269       5.62498523       2.17891175 </v>
   <v>       5.62498486      60.13497295      -3.38240601 </v>
   <v>       2.17891162      -3.38240620      72.16578944 </v>
  </varray>
  <energy>
   <i name="e_fr_energy">   -514.11544060 </i>
   <i name="e_wo_entrp">   -513.38913805 </i>
   <i name="e_0_energy">     -1.45260510 </i>
  </energy>
  <time name="totalsc">  659.12  659.40</time>
  <eigenvalues>
   <array>
    <dimension dim="1">band</dimension>
    <dimension dim="2">kpoint</dimension>
    <dimension dim="3">spin</dimension>
    <field>eigene</field>
    <field>occ</field>
    <set>
     <set comment="spin 1">
      <set comment="kpoint 1">
       <r>  -62.6911    1.0000 </r>
       <r>  -62.6462    1.0000 </r>
       <r>  -62.6432    1.0000 </r>
       <r>  -62.6394    1.0000 </r>
       <r>  -62.6382    1.0000 </r>
       <r>  -62.6318    1.0000 </r>
       <r>  -62.6302    1.0000 </r>
       <r>  -62.6271    1.0000 </r>
       <r>  -62.6265    1.0000 </r>
       <r>  -62.6248    1.0000 </r>
       <r>  -62.5586    1.0000 </r>
       <r>  -62.5541    1.0000 </r>
       <r>  -62.5440    1.0000 </r>
       <r>  -62.5422    1.0000 </r>
       <r>  -62.5388    1.0000 </r>
       <r>  -62.5333    1.0000 </r>
       <r>  -62.5323    1.0000 </r>
       <r>  -62.5236    1.0000 </r>
       <r>  -62.5199    1.0000 </r>
       <r>  -62.5168    1.0000 </r>
       <r>  -62.5147    1.0000 </r>
       <r>  -62.4409    1.0000 </r>
       <r>  -62.4391    1.0000 </r>
       <r>  -62.4382    1.0000 </r>
       <r>  -62.4366    1.0000 </r>
       <r>  -62.4362    1.0000 </r>
       <r>  -62.4356    1.0000 </r>
       <r>  -62.4351    1.0000 </r>
       <r>  -62.4331    1.0000 </r>
       <r>  -62.4327    1.0000 </r>
       <r>  -62.4203    1.0000 </r>
       <r>  -62.4174    1.0000 </r>
       <r>  -62.4161    1.0000 </r>
       <r>  -62.4116    1.0000 </r>
       <r>  -62.4091    1.0000 </r>
       <r>  -62.4090    1.0000 </r>
       <r>  -62.4057    1.0000 </r>
       <r>  -62.3992    1.0000 </r>
       <r>  -62.3974    1.0000 </r>
       <r>  -62.3466    1.0000 </r>
       <r>  -62.3345    1.0000 </r>
       <r>  -62.3176    1.0000 </r>
       <r>  -62.3145    1.0000 </r>
       <r>  -62.3104    1.0000 </r>
       <r>  -62.2932    1.0000 </r>
       <r>  -62.2828    1.0000 </r>
       <r>  -62.2705    1.0000 </r>
       <r>  -62.2686    1.0000 </r>
       <r>  -62.2678    1.0000 </r>
       <r>  -62.2670    1.0000 </r>
       <r>  -62.2604    1.0000 </r>
       <r>  -62.2573    1.0000 </r>
       <r>  -62.2570    1.0000 </r>
       <r>  -62.2567    1.0000 </r>
       <r>  -62.2506    1.0000 </r>
       <r>  -62.2481    1.0000 </r>
       <r>  -62.2400    1.0000 </r>
       <r>  -62.2375    1.0000 </r>
       <r>  -62.2338    1.0000 </r>
       <r>  -62.2305    1.0000 </r>
       <r>  -62.2301    1.0000 </r>
       <r>  -62.2301    1.0000 </r>
       <r>  -62.2230    1.0000 </r>
       <r>  -62.2225    1.0000 </r>
       <r>  -62.2197    1.0000 </r>
       <r>  -62.2045    1.0000 </r>
       <r>  -62.1999    1.0000 </r>
       <r>  -62.1965    1.0000 </r>
       <r>  -62.1926    1.0000 </r>
       <r>  -62.1699    1.0000 </r>
       <r>  -62.1668    1.0000 </r>
       <r>  -62.1607    1.0000 </r>
       <r>  -62.1552    1.0000 </r>
       <r>  -62.1500    1.0000 </r>
       <r>  -62.1306    1.0000 </r>
       <r>  -62.1259    1.0000 </r>
       <r>  -62.1224    1.0000 </r>
       <r>  -62.1222    1.0000 </r>
       <r>  -62.1137    1.0000 </r>
       <r>  -62.0848    1.0000 </r>
       <r>  -62.0750    1.0000 </r>
       <r>  -62.0705    1.0000 </r>
       <r>  -62.0629    1.0000 </r>
       <r>  -62.0598    1.0000 </r>
       <r>  -62.0573    1.0000 </r>
       <r>  -62.0537    1.0000 </r>
       <r>  -62.0536    1.0000 </r>
       <r>  -62.0510    1.0000 </r>
       <r>  -62.0467    1.0000 </r>
       <r>  -62.0436    1.0000 </r>
       <r>  -62.0421    1.0000 </r>
       <r>  -62.0393    1.0000 </r>
       <r>  -62.0386    1.0000 </r>
       <r>  -62.0344    1.0000 </r>
       <r>  -62.0338    1.0000 </r>
       <r>  -62.0314    1.0000 </r>
       <r>  -62.0305    1.0000 </r>
       <r>  -62.0302    1.0000 </r>
       <r>  -62.0295    1.0000 </r>
       <r>  -62.0275    1.0000 </r>
       <r>  -62.0269    1.0000 </r>
       <r>  -62.0253    1.0000 </r>
       <r>  -62.0246    1.0000 </r>
       <r>  -62.0234    1.0000 </r>
       <r>  -62.0223    1.0000 </r>
       <r>  -62.0212    1.0000 </r>
       <r>  -62.0133    1.0000 </r>
       <r>  -62.0110    1.0000 </r>
       <r>  -62.0061    1.0000 </r>
       <r>  -62.0013    1.0000 </r>
       <r>  -61.9977    1.0000 </r>
       <r>  -61.9972    1.0000 </r>
       <r>  -61.9949    1.0000 </r>
       <r>  -61.9941    1.0000 </r>
       <r>  -61.9922    1.0000 </r>
       <r>  -61.9920    1.0000 </r>
       <r>  -61.9840    1.0000 </r>
       <r>  -61.9805    1.0000 </r>
       <r>  -61.9690    1.0000 </r>
       <r>  -61.9684    1.0000 </r>
       <r>  -61.9678    1.0000 </r>
       <r>  -61.9662    1.0000 </r>
       <r>  -61.9588    1.0000 </r>
       <r>  -61.9545    1.0000 </r>
       <r>  -61.9479    1.0000 </r>
       <r>  -61.9455    1.0000 </r>
       <r>  -61.9358    1.0000 </r>
       <r>  -61.9309    1.0000 </r>
       <r>  -61.9253    1.0000 </r>
       <r>  -61.9063    1.0000 </r>
       <r>  -61.8997    1.0000 </r>
       <r>  -61.8874    1.0000 </r>
       <r>  -61.8718    1.0000 </r>
       <r>  -61.8575    1.0000 </r>
       <r>  -61.8515    1.0000 </r>
       <r>  -61.8439    1.0000 </r>
       <r>  -61.8354    1.0000 </r>
       <r>  -61.8162    1.0000 </r>
       <r>  -61.8143    1.0000 </r>
       <r>  -61.8092    1.0000 </r>
       <r>  -61.8009    1.0000 </r>
       <r>  -61.7891    1.0000 </r>
       <r>  -61.7792    1.0000 </r>
       <r>  -61.7770    1.0000 </r>
       <r>  -61.7700    1.0000 </r>
       <r>  -61.7493    1.0000 </r>
       <r>  -61.7243    1.0000 </r>
       <r>  -61.6138    1.0000 </r>
       <r>  -61.5564    1.0000 </r>
       <r>  -61.4433    1.0000 </r>
       <r>  -61.4276    1.0000 </r>
       <r>  -61.3861    1.0000 </r>
       <r>  -61.3761    1.0000 </r>
       <r>  -61.3634    1.0000 </r>
       <r>  -61.2314    1.0000 </r>
       <r>  -61.1506    1.0000 </r>
       <r>  -14.1021    1.0000 </r>
       <r>  -13.9618    1.0000 </r>
       <r>  -13.4528    1.0000 </r>
       <r>  -13.4042    1.0000 </r>
       <r>  -13.3380    1.0000 </r>
       <r>  -13.3193    1.0000 </r>
       <r>  -13.2212    1.0000 </r>
       <r>  -13.1623    1.0000 </r>
       <r>  -13.1250    1.0000 </r>
       <r>  -13.0421    1.0000 </r>
       <r>  -13.0242    1.0000 </r>
       <r>  -12.9708    1.0000 </r>
       <r>  -12.9167    1.0000 </r>
       <r>  -12.8155    1.0000 </r>
       <r>  -12.7134    1.0000 </r>
       <r>  -12.5863    1.0000 </r>
       <r>  -12.5691    1.0000 </r>
       <r>  -12.4899    1.0000 </r>
       <r>  -12.4559    1.0000 </r>
       <r>  -12.3911    1.0000 </r>
       <r>  -12.3730    1.0000 </r>
       <r>  -12.3234    1.0000 </r>
       <r>  -12.2594    1.0000 </r>
       <r>  -12.2113    1.0000 </r>
       <r>  -12.1801    1.0000 </r>
       <r>  -12.1382    1.0000 </r>
       <r>  -12.1109    1.0000 </r>
       <r>  -12.0884    1.0000 </r>
       <r>  -12.0649    1.0000 </r>
       <r>  -12.0058    1.0000 </r>
       <r>  -11.9447    1.0000 </r>
       <r>  -11.8898    1.0000 </r>
       <r>  -11.8336    1.0000 </r>
       <r>  -11.7707    1.0000 </r>
       <r>  -11.6709    1.0000 </r>
       <r>  -11.6162    1.0000 </r>
       <r>  -11.6097    1.0000 </r>
       <r>  -11.5312    1.0000 </r>
       <r>  -11.4991    1.0000 </r>
       <r>  -11.4777    1.0000 </r>
       <r>  -11.4535    1.0000 </r>
       <r>  -11.4370    1.0000 </r>
       <r>  -11.3798    1.0000 </r>
       <r>  -11.3494    1.0000 </r>
       <r>  -11.2505    1.0000 </r>
       <r>  -11.1849    1.0000 </r>
       <r>  -11.0943    1.0000 </r>
       <r>  -10.9304    1.0000 </r>
       <r>  -10.9113    1.0000 </r>
       <r>  -10.9023    1.0000 </r>
       <r>  -10.8968    1.0000 </r>
       <r>  -10.8707    1.0000 </r>
       <r>   -6.0355    1.0000 </r>
       <r>   -5.9217    1.0000 </r>
       <r>   -5.8871    1.0000 </r>
       <r>   -5.8065    1.0000 </r>
       <r>   -5.7591    1.0000 </r>
       <r>   -5.7235    1.0000 </r>
       <r>   -5.6368    1.0000 </r>
       <r>   -5.6200    1.0000 </r>
       <r>   -5.5822    1.0000 </r>
       <r>   -5.3689    1.0000 </r>
       <r>   -5.3145    1.0000 </r>
       <r>   -5.1946    1.0000 </r>
       <r>   -5.1631    1.0000 </r>
       <r>   -5.1003    1.0000 </r>
       <r>   -5.0460    1.0000 </r>
       <r>   -5.0308    1.0000 </r>
       <r>   -5.0121    1.0000 </r>
       <r>   -4.9779    1.0000 </r>
       <r>   -4.9415    1.0000 </r>
       <r>   -4.9144    1.0000 </r>
       <r>   -4.8727    1.0000 </r>
       <r>   -4.8618    1.0000 </r>
       <r>   -4.8444    1.0000 </r>
       <r>   -4.8160    1.0000 </r>
       <r>   -4.8068    1.0000 </r>
       <r>   -4.7863    1.0000 </r>
       <r>   -4.7486    1.0000 </r>
       <r>   -4.7406    1.0000 </r>
       <r>   -4.7153    1.0000 </r>
       <r>   -4.6790    1.0000 </r>
       <r>   -4.6452    1.0000 </r>
       <r>   -4.5958    1.0000 </r>
       <r>   -4.5909    1.0000 </r>
       <r>   -4.5674    1.0000 </r>
       <r>   -4.5450    1.0000 </r>
       <r>   -4.5107    1.0000 </r>
       <r>   -4.4653    1.0000 </r>
       <r>   -4.4282    1.0000 </r>
       <r>   -4.3909    1.0000 </r>
       <r>   -4.3559    1.0000 </r>
       <r>   -4.3365    1.0000 </r>
       <r>   -4.3190    1.0000 </r>
       <r>   -4.2877    1.0000 </r>
       <r>   -4.2340    1.0000 </r>
       <r>   -4.1680    1.0000 </r>
       <r>   -4.1302    1.0000 </r>
       <r>   -4.1089    1.0000 </r>
       <r>   -4.0700    1.0000 </r>
       <r>   -4.0364    1.0000 </r>
       <r>   -4.0102    1.0000 </r>
       <r>   -3.9859    1.0000 </r>
       <r>   -3.9501    1.0000 </r>
       <r>   -3.9224    1.0000 </r>
       <r>   -3.8798    1.0000 </r>
       <r>   -3.8470    1.0000 </r>
       <r>   -3.8289    1.0000 </r>
       <r>   -3.7900    1.0000 </r>
       <r>   -3.7792    1.0000 </r>
       <r>   -3.7553    1.0000 </r>
       <r>   -3.7182    1.0000 </r>
       <r>   -3.6762    1.0000 </r>
       <r>   -3.6567    1.0000 </r>
       <r>   -3.6101    1.0000 </r>
       <r>   -3.5688    1.0000 </r>
       <r>   -3.5345    1.0000 </r>
       <r>   -3.5190    1.0000 </r>
       <r>   -3.5084    1.0000 </r>
       <r>   -3.4924    1.0000 </r>
       <r>   -3.4703    1.0000 </r>
       <r>   -3.4250    1.0000 </r>
       <r>   -3.4200    1.0000 </r>
       <r>   -3.3821    1.0000 </r>
       <r>   -3.3557    1.0000 </r>
       <r>   -3.3347    1.0000 </r>
       <r>   -3.3262    1.0000 </r>
       <r>   -3.3010    1.0000 </r>
       <r>   -3.2785    1.0000 </r>
       <r>   -3.2496    1.0000 </r>
       <r>   -3.2281    1.0000 </r>
       <r>   -3.1873    1.0000 </r>
       <r>   -3.1654    1.0000 </r>
       <r>   -3.1435    1.0000 </r>
       <r>   -3.1249    1.0000 </r>
       <r>   -3.0912    1.0000 </r>
       <r>   -3.0832    1.0000 </r>
       <r>   -3.0256    1.0000 </r>
       <r>   -3.0138    1.0000 </r>
       <r>   -3.0077    1.0000 </r>
       <r>   -2.9933    1.0000 </r>
       <r>   -2.9637    1.0000 </r>
       <r>   -2.9352    1.0000 </r>
       <r>   -2.9184    1.0000 </r>
       <r>   -2.8995    1.0000 </r>
       <r>   -2.8594    1.0000 </r>
       <r>   -2.8478    1.0000 </r>
       <r>   -2.8238    1.0000 </r>
       <r>   -2.8111    1.0000 </r>
       <r>   -2.7863    1.0000 </r>
       <r>   -2.7711    1.0000 </r>
       <r>   -2.7401    1.0000 </r>
       <r>   -2.6984    1.0000 </r>
       <r>   -2.6917    1.0000 </r>
       <r>   -2.6781    1.0000 </r>
       <r>   -2.6424    1.0000 </r>
       <r>   -2.6261    1.0000 </r>
       <r>   -2.5925    1.0000 </r>
       <r>   -2.5854    1.0000 </r>
       <r>   -2.5653    1.0000 </r>
       <r>   -2.5542    1.0000 </r>
       <r>   -2.5153    1.0000 </r>
       <r>   -2.5053    1.0000 </r>
       <r>   -2.4905    1.0000 </r>
       <r>   -2.4741    1.0000 </r>
       <r>   -2.4436    1.0000 </r>
       <r>   -2.4296    1.0000 </r>
       <r>   -2.4162    1.0000 </r>
       <r>   -2.3892    1.0000 </r>
       <r>   -2.3641    1.0000 </r>
       <r>   -2.3606    1.0000 </r>
       <r>   -2.3309    1.0000 </r>
       <r>   -2.2855    1.0000 </r>
       <r>   -2.2354    1.0000 </r>
       <r>   -2.2139    1.0000 </r>
       <r>   -2.1949    1.0000 </r>
       <r>   -2.1925    1.0000 </r>
       <r>   -2.1450    1.0000 </r>
       <r>   -2.1256    1.0000 </r>
       <r>   -2.1118    1.0000 </r>
       <r>   -2.1044    1.0000 </r>
       <r>   -2.0893    1.0000 </r>
       <r>   -2.0437    1.0000 </r>
       <r>   -2.0210    1.0000 </r>
       <r>   -2.0115    1.0000 </r>
       <r>   -1.9943    1.0000 </r>
       <r>   -1.9818    1.0000 </r>
       <r>   -1.9434    1.0000 </r>
       <r>   -1.9397    1.0000 </r>
       <r>   -1.9272    1.0000 </r>
       <r>   -1.9176    1.0000 </r>
       <r>   -1.8252    1.0000 </r>
       <r>   -1.7582    1.0000 </r>
       <r>   -1.7419    1.0000 </r>
       <r>   -1.6997    1.0000 </r>
       <r>   -1.6630    1.0000 </r>
       <r>   -1.6429    1.0000 </r>
       <r>   -1.5955    1.0000 </r>
       <r>   -1.5864    1.0000 </r>
       <r>   -1.5585    1.0000 </r>
       <r>   -1.5141    1.0000 </r>
       <r>   -1.5047    1.0000 </r>
       <r>   -1.4991    1.0000 </r>
       <r>   -1.4713    1.0000 </r>
       <r>   -1.4171    1.0000 </r>
       <r>   -1.3803    1.0000 </r>
       <r>   -1.3016    1.0000 </r>
       <r>   -1.2805    1.0000 </r>
       <r>   -1.2467    1.0000 </r>
       <r>   -1.2113    1.0000 </r>
       <r>   -1.1875    1.0000 </r>
       <r>   -1.1802    1.0000 </r>
       <r>   -1.1714    1.0000 </r>
       <r>   -1.1537    1.0000 </r>
       <r>   -1.1377    1.0000 </r>
       <r>   -1.1179    1.0000 </r>
       <r>   -1.1067    1.0000 </r>
       <r>   -1.0606    1.0000 </r>
       <r>   -1.0514    1.0000 </r>
       <r>   -1.0425    1.0000 </r>
       <r>   -1.0277    1.0000 </r>
       <r>   -1.0016    1.0000 </r>
       <r>   -0.9679    1.0000 </r>
       <r>   -0.9564    1.0000 </r>
       <r>   -0.9100    1.0000 </r>
       <r>   -0.8976    1.0000 </r>
       <r>   -0.8880    1.0000 </r>
       <r>   -0.8697    1.0000 </r>
       <r>   -0.8616    1.0000 </r>
       <r>   -0.8489    1.0000 </r>
       <r>   -0.8373    1.0000 </r>
       <r>   -0.8357    1.0000 </r>
       <r>   -0.7861    1.0000 </r>
       <r>   -0.7600    1.0000 </r>
       <r>   -0.7522    1.0000 </r>
       <r>   -0.7218    1.0000 </r>
       <r>   -0.7098    1.0000 </r>
       <r>   -0.6876    1.0000 </r>
       <r>   -0.6818    1.0000 </r>
       <r>   -0.6485    1.0000 </r>
       <r>   -0.6421    1.0000 </r>
       <r>   -0.6354    1.0000 </r>
       <r>   -0.6311    1.0000 </r>
       <r>   -0.6202    1.0000 </r>
       <r>   -0.6146    1.0000 </r>
       <r>   -0.6049    1.0000 </r>
       <r>   -0.5778    1.0000 </r>
       <r>   -0.5477    1.0000 </r>
       <r>   -0.5458    1.0000 </r>
       <r>   -0.5391    1.0000 </r>
       <r>   -0.5291    1.0000 </r>
       <r>   -0.5053    1.0000 </r>
       <r>   -0.4903    1.0000 </r>
       <r>   -0.4832    1.0000 </r>
       <r>   -0.4710    1.0000 </r>
       <r>   -0.4518    1.0000 </r>
       <r>   -0.4355    1.0000 </r>
       <r>   -0.4280    1.0000 </r>
       <r>   -0.4146    1.0000 </r>
       <r>   -0.4061    1.0000 </r>
       <r>   -0.4024    1.0000 </r>
       <r>   -0.3971    1.0000 </r>
       <r>   -0.3715    1.0000 </r>
       <r>   -0.3600    1.0000 </r>
       <r>   -0.3451    1.0000 </r>
       <r>   -0.3343    1.0000 </r>
       <r>   -0.3254    1.0000 </r>
       <r>   -0.3140    1.0000 </r>
       <r>   -0.3025    1.0000 </r>
       <r>   -0.2924    1.0000 </r>
       <r>   -0.2862    1.0000 </r>
       <r>   -0.2745    1.0000 </r>
       <r>   -0.2578    1.0000 </r>
       <r>   -0.2402    1.0000 </r>
       <r>   -0.2104    1.0000 </r>
       <r>   -0.2004    1.0000 </r>
       <r>   -0.1831    1.0000 </r>
       <r>   -0.1762    1.0000 </r>
       <r>   -0.1683    1.0000 </r>
       <r>   -0.1393    1.0000 </r>
       <r>   -0.1348    1.0000 </r>
       <r>   -0.1185    1.0000 </r>
       <r>   -0.1040    1.0000 </r>
       <r>   -0.1022    1.0000 </r>
       <r>   -0.0879    1.0000 </r>
       <r>   -0.0809    1.0000 </r>
       <r>   -0.0615    1.0000 </r>
       <r>   -0.0569    1.0000 </r>
       <r>   -0.0503    1.0000 </r>
       <r>   -0.0330    1.0000 </r>
       <r>   -0.0298    1.0000 </r>
       <r>   -0.0127    1.0000 </r>
       <r>    0.0078    1.0000 </r>
       <r>    0.0115    1.0000 </r>
       <r>    0.0163    1.0000 </r>
       <r>    0.0197    1.0000 </r>
       <r>    0.0268    1.0000 </r>
[...]
       <r>   -55.5702     0.0000   312.0000 </r>
       <r>   -55.3100     0.0000   312.0000 </r>
       <r>   -55.0497     0.0000   312.0000 </r>
       <r>   -54.7895     0.0000   312.0000 </r>
       <r>   -54.5293     0.0000   312.0000 </r>
       <r>   -54.2690     0.0000   312.0000 </r>
       <r>   -54.0088     0.0000   312.0000 </r>
       <r>   -53.7486     0.0000   312.0000 </r>
       <r>   -53.4883     0.0000   312.0000 </r>
       <r>   -53.2281     0.0000   312.0000 </r>
       <r>   -52.9679     0.0000   312.0000 </r>
       <r>   -52.7076     0.0000   312.0000 </r>
       <r>   -52.4474     0.0000   312.0000 </r>
       <r>   -52.1872     0.0000   312.0000 </r>
       <r>   -51.9269     0.0000   312.0000 </r>
       <r>   -51.6667     0.0000   312.0000 </r>
       <r>   -51.4065     0.0000   312.0000 </r>
       <r>   -51.1463     0.0000   312.0000 </r>
       <r>   -50.8860     0.0000   312.0000 </r>
       <r>   -50.6258     0.0000   312.0000 </r>
       <r>   -50.3656     0.0000   312.0000 </r>
       <r>   -50.1053     0.0000   312.0000 </r>
       <r>   -49.8451     0.0000   312.0000 </r>
       <r>   -49.5849     0.0000   312.0000 </r>
       <r>   -49.3246     0.0000   312.0000 </r>
       <r>   -49.0644     0.0000   312.0000 </r>
       <r>   -48.8042     0.0000   312.0000 </r>
       <r>   -48.5439     0.0000   312.0000 </r>
       <r>   -48.2837     0.0000   312.0000 </r>
       <r>   -48.0235     0.0000   312.0000 </r>
       <r>   -47.7632     0.0000   312.0000 </r>
       <r>   -47.5030     0.0000   312.0000 </r>
       <r>   -47.2428     0.0000   312.0000 </r>
       <r>   -46.9826     0.0000   312.0000 </r>
       <r>   -46.7223     0.0000   312.0000 </r>
       <r>   -46.4621     0.0000   312.0000 </r>
       <r>   -46.2019     0.0000   312.0000 </r>
       <r>   -45.9416     0.0000   312.0000 </r>
       <r>   -45.6814     0.0000   312.0000 </r>
       <r>   -45.4212     0.0000   312.0000 </r>
       <r>   -45.1609     0.0000   312.0000 </r>
       <r>   -44.9007     0.0000   312.0000 </r>
       <r>   -44.6405     0.0000   312.0000 </r>
       <r>   -44.3802     0.0000   312.0000 </r>
       <r>   -44.1200     0.0000   312.0000 </r>
       <r>   -43.8598     0.0000   312.0000 </r>
       <r>   -43.5995     0.0000   312.0000 </r>
       <r>   -43.3393     0.0000   312.0000 </r>
       <r>   -43.0791     0.0000   312.0000 </r>
       <r>   -42.8189     0.0000   312.0000 </r>
       <r>   -42.5586     0.0000   312.0000 </r>
       <r>   -42.2984     0.0000   312.0000 </r>
       <r>   -42.0382     0.0000   312.0000 </r>
       <r>   -41.7779     0.0000   312.0000 </r>
       <r>   -41.5177     0.0000   312.0000 </r>
       <r>   -41.2575     0.0000   312.0000 </r>
       <r>   -40.9972     0.0000   312.0000 </r>
       <r>   -40.7370     0.0000   312.0000 </r>
       <r>   -40.4768     0.0000   312.0000 </r>
       <r>   -40.2165     0.0000   312.0000 </r>
       <r>   -39.9563     0.0000   312.0000 </r>
       <r>   -39.6961     0.0000   312.0000 </r>
       <r>   -39.4358     0.0000   312.0000 </r>
       <r>   -39.1756     0.0000   312.0000 </r>
       <r>   -38.9154     0.0000   312.0000 </r>
       <r>   -38.6552     0.0000   312.0000 </r>
       <r>   -38.3949     0.0000   312.0000 </r>
       <r>   -38.1347     0.0000   312.0000 </r>
       <r>   -37.8745     0.0000   312.0000 </r>
       <r>   -37.6142     0.0000   312.0000 </r>
       <r>   -37.3540     0.0000   312.0000 </r>
       <r>   -37.0938     0.0000   312.0000 </r>
       <r>   -36.8335     0.0000   312.0000 </r>
       <r>   -36.5733     0.0000   312.0000 </r>
       <r>   -36.3131     0.0000   312.0000 </r>
       <r>   -36.0528     0.0000   312.0000 </r>
       <r>   -35.7926     0.0000   312.0000 </r>
       <r>   -35.5324     0.0000   312.0000 </r>
       <r>   -35.2721     0.0000   312.0000 </r>
       <r>   -35.0119     0.0000   312.0000 </r>
       <r>   -34.7517     0.0000   312.0000 </r>
       <r>   -34.4915     0.0000   312.0000 </r>
       <r>   -34.2312     0.0000   312.0000 </r>
       <r>   -33.9710     0.0000   312.0000 </r>
       <r>   -33.7108     0.0000   312.0000 </r>
       <r>   -33.4505     0.0000   312.0000 </r>
       <r>   -33.1903     0.0000   312.0000 </r>
       <r>   -32.9301     0.0000   312.0000 </r>
       <r>   -32.6698     0.0000   312.0000 </r>
       <r>   -32.4096     0.0000   312.0000 </r>
       <r>   -32.1494     0.0000   312.0000 </r>
       <r>   -31.8891     0.0000   312.0000 </r>
       <r>   -31.6289     0.0000   312.0000 </r>
       <r>   -31.3687     0.0000   312.0000 </r>
       <r>   -31.1084     0.0000   312.0000 </r>
       <r>   -30.8482     0.0000   312.0000 </r>
       <r>   -30.5880     0.0000   312.0000 </r>
       <r>   -30.3278     0.0000   312.0000 </r>
       <r>   -30.0675     0.0000   312.0000 </r>
       <r>   -29.8073     0.0000   312.0000 </r>
       <r>   -29.5471     0.0000   312.0000 </r>
       <r>   -29.2868     0.0000   312.0000 </r>
       <r>   -29.0266     0.0000   312.0000 </r>
       <r>   -28.7664     0.0000   312.0000 </r>
       <r>   -28.5061     0.0000   312.0000 </r>
       <r>   -28.2459     0.0000   312.0000 </r>
       <r>   -27.9857     0.0000   312.0000 </r>
       <r>   -27.7254     0.0000   312.0000 </r>
       <r>   -27.4652     0.0000   312.0000 </r>
       <r>   -27.2050     0.0000   312.0000 </r>
       <r>   -26.9447     0.0000   312.0000 </r>
       <r>   -26.6845     0.0000   312.0000 </r>
       <r>   -26.4243     0.0000   312.0000 </r>
       <r>   -26.1641     0.0000   312.0000 </r>
       <r>   -25.9038     0.0000   312.0000 </r>
       <r>   -25.6436     0.0000   312.0000 </r>
       <r>   -25.3834     0.0000   312.0000 </r>
       <r>   -25.1231     0.0000   312.0000 </r>
       <r>   -24.8629     0.0000   312.0000 </r>
       <r>   -24.6027     0.0000   312.0000 </r>
       <r>   -24.3424     0.0000   312.0000 </r>
       <r>   -24.0822     0.0000   312.0000 </r>
       <r>   -23.8220     0.0000   312.0000 </r>
       <r>   -23.5617     0.0000   312.0000 </r>
       <r>   -23.3015     0.0000   312.0000 </r>
       <r>   -23.0413     0.0000   312.0000 </r>
       <r>   -22.7810     0.0000   312.0000 </r>
       <r>   -22.5208     0.0000   312.0000 </r>
       <r>   -22.2606     0.0000   312.0000 </r>
       <r>   -22.0004     0.0000   312.0000 </r>
       <r>   -21.7401     0.0000   312.0000 </r>
       <r>   -21.4799     0.0000   312.0000 </r>
       <r>   -21.2197     0.0000   312.0000 </r>
       <r>   -20.9594     0.0000   312.0000 </r>
       <r>   -20.6992     0.0000   312.0000 </r>
       <r>   -20.4390     0.0000   312.0000 </r>
       <r>   -20.1787     0.0000   312.0000 </r>
       <r>   -19.9185     0.0000   312.0000 </r>
       <r>   -19.6583     0.0000   312.0000 </r>
       <r>   -19.3980     0.0000   312.0000 </r>
       <r>   -19.1378     0.0000   312.0000 </r>
       <r>   -18.8776     0.0000   312.0000 </r>
       <r>   -18.6173     0.0000   312.0000 </r>
       <r>   -18.3571     0.0000   312.0000 </r>
       <r>   -18.0969     0.0000   312.0000 </r>
       <r>   -17.8367     0.0000   312.0000 </r>
       <r>   -17.5764     0.0000   312.0000 </r>
       <r>   -17.3162     0.0000   312.0000 </r>
       <r>   -17.0560     0.0000   312.0000 </r>
       <r>   -16.7957     0.0000   312.0000 </r>
       <r>   -16.5355     0.0000   312.0000 </r>
       <r>   -16.2753     0.0000   312.0000 </r>
       <r>   -16.0150     0.0000   312.0000 </r>
       <r>   -15.7548     0.0000   312.0000 </r>
       <r>   -15.4946     0.0000   312.0000 </r>
       <r>   -15.2343     0.0000   312.0000 </r>
       <r>   -14.9741     0.0000   312.0000 </r>
       <r>   -14.7139     0.0001   312.0000 </r>
       <r>   -14.4536     0.0515   312.0134 </r>
       <r>   -14.1934     2.3305   312.6199 </r>
       <r>   -13.9332     8.8733   314.9290 </r>
       <r>   -13.6730     4.7514   316.1655 </r>
       <r>   -13.4127    13.1677   319.5921 </r>
       <r>   -13.1525    31.7337   327.8502 </r>
       <r>   -12.8923    33.5885   336.5910 </r>
       <r>   -12.6320    25.7767   343.2989 </r>
       <r>   -12.3718    36.0987   352.6929 </r>
       <r>   -12.1116    47.1367   364.9594 </r>
       <r>   -11.8513    42.3091   375.9695 </r>
       <r>   -11.5911    37.7351   385.7894 </r>
       <r>   -11.3309    45.8251   397.7145 </r>
       <r>   -11.0706    30.3016   405.5999 </r>
       <r>   -10.8104    29.7652   413.3458 </r>
       <r>   -10.5502     9.9365   415.9315 </r>
       <r>   -10.2899     0.2627   415.9999 </r>
       <r>   -10.0297     0.0003   416.0000 </r>
       <r>    -9.7695     0.0000   416.0000 </r>
       <r>    -9.5093     0.0000   416.0000 </r>
       <r>    -9.2490     0.0000   416.0000 </r>
       <r>    -8.9888     0.0000   416.0000 </r>
       <r>    -8.7286     0.0000   416.0000 </r>
       <r>    -8.4683     0.0000   416.0000 </r>
       <r>    -8.2081     0.0000   416.0000 </r>
       <r>    -7.9479     0.0000   416.0000 </r>
       <r>    -7.6876     0.0000   416.0000 </r>
       <r>    -7.4274     0.0000   416.0000 </r>
       <r>    -7.1672     0.0000   416.0000 </r>
       <r>    -6.9069     0.0000   416.0000 </r>
       <r>    -6.6467     0.0001   416.0000 </r>
       <r>    -6.3865     0.0559   416.0146 </r>
       <r>    -6.1262     3.0136   416.7988 </r>
       <r>    -5.8660    19.4616   421.8633 </r>
       <r>    -5.6058    32.5993   430.3467 </r>
       <r>    -5.3456    23.3434   436.4213 </r>
       <r>    -5.0853    34.9036   445.5044 </r>
       <r>    -4.8251    66.8753   462.9074 </r>
       <r>    -4.5649    74.3565   482.2573 </r>
       <r>    -4.3046    62.1486   498.4303 </r>
       <r>    -4.0444    56.9248   513.2439 </r>
       <r>    -3.7842    64.4920   530.0268 </r>
       <r>    -3.5239    70.0031   548.2438 </r>
       <r>    -3.2637    81.2600   569.3901 </r>
       <r>    -3.0035    84.2079   591.3037 </r>
       <r>    -2.7432    89.5942   614.6189 </r>
       <r>    -2.4830    94.2208   639.1381 </r>
       <r>    -2.2228    88.2450   662.1022 </r>
       <r>    -1.9625    86.3363   684.5696 </r>
       <r>    -1.7023    66.3383   701.8329 </r>
       <r>    -1.4421    64.0300   718.4955 </r>
       <r>    -1.1819    71.5013   737.1024 </r>
       <r>    -0.9216    98.7713   762.8057 </r>
       <r>    -0.6614   118.7283   793.7026 </r>
       <r>    -0.4012   148.9513   832.4643 </r>
       <r>    -0.1409   161.9688   874.6137 </r>
       <r>     0.1193   190.2880   924.1326 </r>
       <r>     0.3795   188.4510   973.1734 </r>
       <r>     0.6398   174.6282  1018.6171 </r>
       <r>     0.9000   145.7818  1056.5541 </r>
       <r>     1.1602   100.8554  1082.7998 </r>
       <r>     1.4205    80.5995  1103.7743 </r>
       <r>     1.6807    70.4362  1122.1040 </r>
       <r>     1.9409    74.6807  1141.5382 </r>
       <r>     2.2012    65.1288  1158.4868 </r>
       <r>     2.4614    63.1567  1174.9222 </r>
       <r>     2.7216    74.4394  1194.2936 </r>
       <r>     2.9818    72.1726  1213.0752 </r>
       <r>     3.2421    68.3728  1230.8679 </r>
       <r>     3.5023    42.1277  1241.8309 </r>
       <r>     3.7625    22.0829  1247.5775 </r>
       <r>     4.0228     8.4043  1249.7646 </r>
       <r>     4.2830     0.9895  1250.0221 </r>
       <r>     4.5432     2.6452  1250.7105 </r>
       <r>     4.8035     7.8203  1252.7455 </r>
       <r>     5.0637     9.7944  1255.2944 </r>
       <r>     5.3239     9.4650  1257.7574 </r>
       <r>     5.5842    15.6289  1261.8246 </r>
       <r>     5.8444    17.5493  1266.3915 </r>
       <r>     6.1046    23.3679  1272.4725 </r>
       <r>     6.3649    31.2045  1280.5929 </r>
       <r>     6.6251    34.0960  1289.4658 </r>
       <r>     6.8853    29.9051  1297.2480 </r>
       <r>     7.1455    38.4483  1307.2534 </r>
       <r>     7.4058    50.0051  1320.2663 </r>
       <r>     7.6660    58.0372  1335.3694 </r>
       <r>     7.9262    62.5396  1351.6442 </r>
       <r>     8.1865    53.8122  1365.6478 </r>
       <r>     8.4467    22.6257  1371.5357 </r>
       <r>     8.7069     1.7713  1371.9967 </r>
       <r>     8.9672     0.0128  1372.0000 </r>
       <r>     9.2274     0.0000  1372.0000 </r>
       <r>     9.4876     0.0000  1372.0000 </r>
       <r>     9.7479     0.0000  1372.0000 </r>
       <r>    10.0081     0.0000  1372.0000 </r>
       <r>    10.2683     0.0000  1372.0000 </r>
       <r>    10.5286     0.0000  1372.0000 </r>
       <r>    10.7888     0.0000  1372.0000 </r>
       <r>    11.0490     0.0000  1372.0000 </r>
       <r>    11.3092     0.0000  1372.0000 </r>
       <r>    11.5695     0.0000  1372.0000 </r>
       <r>    11.8297     0.0000  1372.0000 </r>
      </set>
     </set>
    </array>
   </total>
  </dos>
 </calculation>
 <structure name="finalpos" >
  <crystal>
   <varray name="basis" >
    <v>      11.25646304       0.00000000       0.00000000 </v>
    <v>       5.04456212      10.06282034       0.00000000 </v>
    <v>       0.00000000       0.00000000      22.88364939 </v>
   </varray>
   <i name="volume">   2592.07135999 </i>
   <varray name="rec_basis" >
    <v>       0.08883785      -0.04453504       0.00000000 </v>
    <v>       0.00000000       0.09937572       0.00000000 </v>
    <v>       0.00000000       0.00000000       0.04369932 </v>
   </varray>
  </crystal>
  <varray name="positions" >
   <v>       0.26092070       0.47878036       0.29050611 </v>
   <v>       0.35488056       0.38482049       0.41880986 </v>
   <v>       0.07624356       0.16211667       0.05888757 </v>
   <v>       0.16696083       0.07274024       0.16220237 </v>
   <v>       0.02669219       0.06637219       0.49003967 </v>
   <v>       0.27423906       0.33335899       0.12830375 </v>
   <v>       0.36819893       0.23939913       0.25660749 </v>
   <v>       0.46215880       0.14543926       0.38491124 </v>
   <v>       0.00030194       0.37150212       0.25660749 </v>
   <v>       0.09426181       0.27754226       0.38491124 </v>
   <v>       0.17332821       0.21300915       0.49003968 </v>
   <v>       0.40634206       0.46546199       0.12830375 </v>
   <v>       0.31674499       0.04489983       0.02232087 </v>
   <v>       0.76092070       0.47878036       0.29050611 </v>
   <v>       0.85488056       0.38482049       0.41880986 </v>
   <v>       0.66696083       0.07274024       0.16220237 </v>
   <v>       0.52669204       0.06637226       0.49003959 </v>
   <v>       0.73254274       0.51258636       0.05302009 </v>
   <v>       0.77423906       0.33335899       0.12830375 </v>
   <v>       0.86819893       0.23939913       0.25660749 </v>
   <v>       0.96215880       0.14543926       0.38491124 </v>
   <v>       0.50030194       0.37150212       0.25660749 </v>
   <v>       0.59426181       0.27754226       0.38491124 </v>
   <v>       0.67332818       0.21300923       0.49003963 </v>
   <v>       0.90634206       0.46546199       0.12830375 </v>
   <v>       0.92921873       0.02471197       0.03294404 </v>
   <v>       0.26092070       0.97878036       0.29050611 </v>
   <v>       0.35488056       0.88482049       0.41880986 </v>
   <v>       0.04106220       0.70866857       0.08955745 </v>
   <v>       0.16696083       0.57274024       0.16220237 </v>
   <v>       0.02669260       0.56637252       0.49004023 </v>
   <v>       0.19202300       0.91765768       0.02075764 </v>
   <v>       0.27423907       0.83335899       0.12830375 </v>
   <v>       0.36819893       0.73939913       0.25660749 </v>
   <v>       0.46215880       0.64543926       0.38491124 </v>
   <v>       0.00030194       0.87150212       0.25660749 </v>
   <v>       0.09426181       0.77754226       0.38491124 </v>
   <v>       0.17332915       0.71300824       0.49004021 </v>
   <v>       0.40634206       0.96546199       0.12830375 </v>
   <v>       0.76092070       0.97878036       0.29050611 </v>
   <v>       0.85488056       0.88482049       0.41880986 </v>
   <v>       0.53029559       0.69948807       0.08992898 </v>
   <v>       0.66696083       0.57274024       0.16220237 </v>
   <v>       0.52669259       0.56637257       0.49004025 </v>
   <v>       0.71125761       0.02537897       0.05716730 </v>
   <v>       0.77423907       0.83335899       0.12830375 </v>
   <v>       0.86819893       0.73939913       0.25660749 </v>
   <v>       0.96215880       0.64543926       0.38491124 </v>
   <v>       0.50030194       0.87150212       0.25660749 </v>
   <v>       0.59426181       0.77754226       0.38491124 </v>
   <v>       0.67332916       0.71300824       0.49004022 </v>
   <v>       0.90634206       0.96546199       0.12830375 </v>
   <v>       0.07287763       0.16682343       0.30639927 </v>
   <v>       0.16683750       0.07286357       0.43470302 </v>
   <v>       0.35874390       0.38064233       0.06222007 </v>
   <v>       0.47891775       0.26078330       0.17809552 </v>
   <v>       0.10488426       0.63481700       0.55223182 </v>
   <v>       0.01705373       0.38979692       0.46319638 </v>
   <v>       0.43627354       0.47164251       0.34956450 </v>
   <v>       0.24835381       0.15956225       0.09295701 </v>
   <v>       0.34231368       0.06560239       0.22126075 </v>
   <v>       0.07639026       0.49948361       0.10414163 </v>
   <v>       0.17409868       0.39738738       0.22126075 </v>
   <v>       0.26805855       0.30342751       0.34956450 </v>
   <v>       0.34990451       0.22264727       0.46319642 </v>
   <v>       0.57287763       0.16682343       0.30639927 </v>
   <v>       0.66683750       0.07286357       0.43470302 </v>
   <v>       0.90241617       0.34006479       0.06120245 </v>
   <v>       0.97891775       0.26078330       0.17809552 </v>
   <v>       0.60488422       0.63481709       0.55223183 </v>
   <v>       0.51705369       0.38979700       0.46319637 </v>
   <v>       0.93627354       0.47164251       0.34956450 </v>
   <v>       0.77034744       0.15438982       0.09652229 </v>
   <v>       0.84231368       0.06560239       0.22126075 </v>
   <v>       0.58013882       0.49134724       0.09295701 </v>
   <v>       0.67409868       0.39738738       0.22126075 </v>
   <v>       0.76805855       0.30342751       0.34956450 </v>
   <v>       0.84990465       0.22264718       0.46319644 </v>
   <v>       0.07287764       0.66682343       0.30639927 </v>
   <v>       0.16683750       0.57286357       0.43470302 </v>
   <v>       0.38495789       0.85474317       0.04979178 </v>
   <v>       0.47891775       0.76078330       0.17809552 </v>
   <v>       0.10488245       0.13481840       0.55223121 </v>
   <v>       0.01705424       0.88979560       0.46319656 </v>
   <v>       0.43627354       0.97164251       0.34956450 </v>
   <v>       0.24722036       0.66110142       0.10420998 </v>
   <v>       0.34231368       0.56560239       0.22126075 </v>
   <v>       0.08013882       0.99134724       0.09295701 </v>
   <v>       0.17409868       0.89738738       0.22126075 </v>
   <v>       0.26805855       0.80342751       0.34956450 </v>
   <v>       0.34990499       0.72264694       0.46319650 </v>
   <v>       0.57287764       0.66682343       0.30639927 </v>
   <v>       0.66683750       0.57286357       0.43470302 </v>
   <v>       0.88495789       0.85474317       0.04979178 </v>
   <v>       0.97891775       0.76078330       0.17809552 </v>
   <v>       0.60488212       0.13481869       0.55223113 </v>
   <v>       0.51705424       0.88979557       0.46319656 </v>
   <v>       0.93627354       0.97164251       0.34956450 </v>
   <v>       0.74298914       0.66282147       0.10214208 </v>
   <v>       0.84231368       0.56560239       0.22126075 </v>
   <v>       0.58095412       0.98338442       0.10677673 </v>
   <v>       0.67409868       0.89738738       0.22126075 </v>
   <v>       0.76805855       0.80342751       0.34956450 </v>
   <v>       0.84990500       0.72264694       0.46319650 </v>
  </varray>
 </structure>
</modeling>
