
72 atoms
2 atom types
   0.0000000000   16.8846940542 xlo xhi
   0.0000000000    9.5784100000 ylo yhi
   0.0000000000   16.1643112181 zlo zhi
   0.0000000000    0.0000000000    0.0000000000 xy xz yz

Atoms # atomic

     1      1   13.1708432080    1.3917138259    1.5660279060
     2      1   13.7545125861    1.3917138259    4.6505714732
     3      1    4.4366614835    6.1809188259    0.0237561224
     4      1    5.0203308784    6.1809188259    3.1082996896
     5      1    7.3480553917    1.3917138259    0.5378467170
     6      1    7.9317247697    1.3917138259    3.6223902841
     7      1   16.0822371162    6.1809188259    2.0801185005
     8      1   16.6659064942    6.1809188259    5.1646620515
     9      1    2.1089369702    1.3917138259    2.5942090951
    10      1    2.6926063482    1.3917138259    5.6787526461
    11      1   10.2594492998    6.1809188259    1.0519373115
    12      1   10.8431186779    6.1809188259    4.1364808786
    13      1   15.3242574679    0.1263771297    1.1585504486
    14      1   15.9079268459    0.1263771297    4.2430940157
    15      1    7.1737451382    4.9155821297    2.7008222322
    16      1    7.7574145162    4.9155821297    5.7853657832
    17      1    9.5014696515    0.1263771297    0.1303692595
    18      1   10.0851390464    0.1263771297    3.2149128267
    19      1    1.3509573218    4.9155821297    1.6726410431
    20      1    1.9346266999    4.9155821297    4.7571845941
    21      1    4.2623512300    0.1263771297    2.1867316376
    22      1    4.8460206080    0.1263771297    5.2712751886
    23      1   12.4128635597    4.9155821297    0.6444598541
    24      1   12.9965329377    4.9155821297    3.7290034212
    25      1   15.3242574679    2.6570505221    1.1585504486
    26      1   15.9079268459    2.6570505221    4.2430940157
    27      1    7.1737451382    7.4462555221    2.7008222322
    28      1    7.7574145162    7.4462555221    5.7853657832
    29      1    9.5014696515    2.6570505221    0.1303692595
    30      1   10.0851390464    2.6570505221    3.2149128267
    31      1    1.3509573218    7.4462555221    1.6726410431
    32      1    1.9346266999    7.4462555221    4.7571845941
    33      1    4.2623512300    2.6570505221    2.1867316376
    34      1    4.8460206080    2.6570505221    5.2712751886
    35      1   12.4128635597    7.4462555221    0.6444598541
    36      1   12.9965329377    7.4462555221    3.7290034212
    37      2    0.4394944200    1.3917138259    5.6502206324
    38      2   16.7405190961    1.3917138259    2.5656770652
    39      2    8.0063373716    6.1809188259    1.0234052817
    40      2    8.5900067496    6.1809188259    4.1079488488
    41      2   10.9177312798    1.3917138259    1.5374958762
    42      2   11.5014006578    1.3917138259    4.6220394433
    43      2    2.7672189501    6.1809188259    3.0797676598
    44      2    3.3508883282    6.1809188259    6.1643112107
    45      2    5.0949434634    1.3917138259    0.5093146871
    46      2    5.6786128414    1.3917138259    3.5938582543
    47      2   13.8291251880    6.1809188259    2.0515864707
    48      2   14.4127945660    6.1809188259    5.1361300379
    49      2   13.4147728541    3.0029460640    0.0000000000
    50      2   13.9984422322    3.0029460640    3.0845435671
    51      2    5.2642605076    7.7921510640    1.5422717836
    52      2    5.8479298856    7.7921510640    4.6268153346
    53      2    8.1756544158    3.0029460640    2.0563623781
    54      2    8.7593237938    3.0029460640    5.1409059291
    55      2    0.0251420861    7.7921510640    3.5986341455
    56      2   16.3261667454    7.7921510640    0.5140905945
    57      2    2.3528665994    3.0029460640    1.0281811890
    58      2    2.9365359774    3.0029460640    4.1127247400
    59      2   11.0870483240    7.7921510640    2.5704529726
    60      2   11.6707177020    7.7921510640    5.6549965236
    61      2    5.2642605076    4.5696865877    1.5422717836
    62      2    5.8479298856    4.5696865877    4.6268153346
    63      2   13.4147728541    9.3588915877    0.0000000000
    64      2   13.9984422322    9.3588915877    3.0845435671
    65      2    0.0251420861    4.5696865877    3.5986341455
    66      2   16.3261667454    4.5696865877    0.5140905945
    67      2    8.1756544158    9.3588915877    2.0563623781
    68      2    8.7593237938    9.3588915877    5.1409059291
    69      2   11.0870483240    4.5696865877    2.5704529726
    70      2   11.6707177020    4.5696865877    5.6549965236
    71      2    2.3528665994    9.3588915877    1.0281811890
    72      2    2.9365359774    9.3588915877    4.1127247400
