 vasp.5.4.4.18Apr17-6-g9f103f2a35 (build Aug 13 2019 17:33:20) gamma-only       
  
 executed on             LinuxIFC date 2020.05.11  16:19:55
 running on   12 total cores
 distrk:  each k-point on   12 cores,    1 groups
 distr:  one band on NCORES_PER_BAND=   6 cores,    2 groups


--------------------------------------------------------------------------------------------------------


 INCAR:
 POTCAR:    PAW_PBE Ni_pv 06Sep2000               
 POTCAR:    PAW_PBE S 06Sep2000                   
 POTCAR:    PAW_PBE Ni_pv 06Sep2000               
   VRHFIN =Ni:                                                                  
   LEXCH  = PE                                                                  
   EATOM  =  3501.1230 eV,  257.3253 Ry                                         
                                                                                
   TITEL  = PAW_PBE Ni_pv 06Sep2000                                             
   LULTRA =        F    use ultrasoft PP ?                                      
   IUNSCR =        1    unscreen: 0-lin 1-nonlin 2-no                           
   RPACOR =    1.500    partial core radius                                     
   POMASS =   58.690; ZVAL   =   16.000    mass and valenz                      
   RCORE  =    2.000    outmost cutoff radius                                   
   RWIGS  =    2.000; RWIGS  =    1.058    wigner-seitz radius (au A)           
   ENMAX  =  367.986; ENMIN  =  275.989 eV                                      
   RCLOC  =    1.301    cutoff for local pot                                    
   LCOR   =        T    correct aug charges                                     
   LPAW   =        T    paw PP                                                  
   EAUG   =  703.443                                                            
   DEXC   =    0.000                                                            
   RMAX   =    2.041    core radius for proj-oper                               
   RAUG   =    1.300    factor for augmentation sphere                          
   RDEP   =    2.103    radius for radial grids                                 
   RDEPT  =    1.618    core radius for aug-charge                              
                                                                                
   Atomic configuration                                                         
    8 entries                                                                   
     n  l   j            E        occ.                                          
     1  0  0.50     -8206.4253   2.0000                                         
     2  0  0.50      -976.1748   2.0000                                         
     2  1  1.50      -839.0571   6.0000                                         
     3  0  0.50      -105.9991   2.0000                                         
     3  1  1.50       -66.4603   6.0000                                         
     3  2  2.50        -4.6458   9.0000                                         
     4  0  0.50        -4.4926   1.0000                                         
     4  3  2.50        -1.3606   0.0000                                         
   Description                                                                  
     l       E           TYP  RCUT    TYP  RCUT                                 
     1    -66.4602962     23  1.700                                             
     1     -1.3605826     23  1.700                                             
     2     -4.6457867     23  2.000                                             
     2     -6.0063693     23  2.000                                             
     0     -4.4925576     23  1.900                                             
     0     16.3626226     23  1.900                                             
  local pseudopotential read in
  partial core-charges read in
  partial kinetic energy density read in
  atomic valenz-charges read in
  non local Contribution for L=           1  read in
    real space projection operators read in
  non local Contribution for L=           1  read in
    real space projection operators read in
  non local Contribution for L=           2  read in
    real space projection operators read in
  non local Contribution for L=           2  read in
    real space projection operators read in
  non local Contribution for L=           0  read in
    real space projection operators read in
  non local Contribution for L=           0  read in
    real space projection operators read in
    PAW grid and wavefunctions read in
 
   number of l-projection  operators is LMAX  =           6
   number of lm-projection operators is LMMAX =          18
 
 POTCAR:    PAW_PBE S 06Sep2000                   
   VRHFIN =S : s2p4                                                             
   LEXCH  = PE                                                                  
   EATOM  =   276.8230 eV,   20.3459 Ry                                         
                                                                                
   TITEL  = PAW_PBE S 06Sep2000                                                 
   LULTRA =        F    use ultrasoft PP ?                                      
   IUNSCR =        1    unscreen: 0-lin 1-nonlin 2-no                           
   RPACOR =    1.500    partial core radius                                     
   POMASS =   32.066; ZVAL   =    6.000    mass and valenz                      
   RCORE  =    1.900    outmost cutoff radius                                   
   RWIGS  =    2.200; RWIGS  =    1.164    wigner-seitz radius (au A)           
   ENMAX  =  258.689; ENMIN  =  194.016 eV                                      
   ICORE  =        2    local potential                                         
   LCOR   =        T    correct aug charges                                     
   LPAW   =        T    paw PP                                                  
   EAUG   =  335.092                                                            
   DEXC   =    0.000                                                            
   RMAX   =    1.942    core radius for proj-oper                               
   RAUG   =    1.300    factor for augmentation sphere                          
   RDEP   =    1.954    radius for radial grids                                 
   RDEPT  =    1.744    core radius for aug-charge                              
                                                                                
   Atomic configuration                                                         
    6 entries                                                                   
     n  l   j            E        occ.                                          
     1  0  0.50     -2405.8406   2.0000                                         
     2  0  0.50      -211.7007   2.0000                                         
     2  1  1.50      -156.4958   6.0000                                         
     3  0  0.50       -17.2562   2.0000                                         
     3  1  0.50        -7.0085   4.0000                                         
     3  2  1.50        -6.8029   0.0000                                         
   Description                                                                  
     l       E           TYP  RCUT    TYP  RCUT                                 
     0    -17.2561641     23  1.900                                             
     0    -15.8743224     23  1.900                                             
     1     -7.0085400     23  1.900                                             
     1     -2.7779785     23  1.900                                             
     2     -6.8029130     23  1.900                                             
  local pseudopotential read in
  partial core-charges read in
  partial kinetic energy density read in
  atomic valenz-charges read in
  non local Contribution for L=           0  read in
    real space projection operators read in
  non local Contribution for L=           0  read in
    real space projection operators read in
  non local Contribution for L=           1  read in
    real space projection operators read in
  non local Contribution for L=           1  read in
    real space projection operators read in
    PAW grid and wavefunctions read in
 
   number of l-projection  operators is LMAX  =           4
   number of lm-projection operators is LMMAX =           8
 
 Optimization of the real space projectors (new method)

 maximal supplied QI-value         = 18.90
 optimisation between [QCUT,QGAM] = [ 10.77, 21.73] = [ 32.49,132.25] Ry 
 Optimized for a Real-space Cutoff    1.38 Angstroem

   l    n(q)    QCUT    max X(q) W(low)/X(q) W(high)/X(q)  e(spline) 
   1      8    10.771     2.836    0.40E-04    0.29E-04    0.12E-06
   1      8    10.771     4.023    0.10E-03    0.48E-04    0.29E-06
   2      8    10.771    73.368    0.42E-03    0.97E-04    0.44E-06
   2      8    10.771    69.010    0.42E-03    0.99E-04    0.45E-06
   0      9    10.771    54.797    0.10E-03    0.56E-04    0.74E-07
   0      9    10.771    24.266    0.89E-04    0.49E-04    0.67E-07
 Optimization of the real space projectors (new method)

 maximal supplied QI-value         = 19.84
 optimisation between [QCUT,QGAM] = [ 10.71, 21.63] = [ 32.15,130.99] Ry 
 Optimized for a Real-space Cutoff    1.19 Angstroem

   l    n(q)    QCUT    max X(q) W(low)/X(q) W(high)/X(q)  e(spline) 
   0      8    10.715   187.594    0.41E-03    0.53E-04    0.66E-07
   0      8    10.715   164.243    0.41E-03    0.53E-04    0.65E-07
   1      7    10.715    67.533    0.19E-03    0.59E-03    0.68E-07
   1      7    10.715    50.729    0.19E-03    0.58E-03    0.67E-07
  PAW_PBE Ni_pv 06Sep2000               :
 energy of atom  1       EATOM=-3501.1230
 kinetic energy error for atom=    0.0925 (will be added to EATOM!!)
  PAW_PBE S 06Sep2000                   :
 energy of atom  2       EATOM= -276.8230
 kinetic energy error for atom=    0.0033 (will be added to EATOM!!)
 
 
 POSCAR: Type_036 Type_136                       
  positions in cartesian coordinates
  No initial velocities read in
 exchange correlation table for  LEXCH =        8
   RHO(1)=    0.500       N(1)  =     2000
   RHO(2)=  100.500       N(2)  =     4000
 


--------------------------------------------------------------------------------------------------------


 ion  position               nearest neighbor table
   1  0.780  0.145  0.097-  49 2.08  63 2.08  41 2.25  50 2.36  64 2.36
   2  0.799  0.145  0.262-  64 2.04  50 2.04  42 2.06
   3  0.349  0.645  0.050-  39 2.02  51 2.05  61 2.05   4 2.46
   4  0.297  0.645  0.192-  52 2.15  62 2.15  61 2.15  51 2.15  43 2.25   3 2.46  27 2.53  15 2.53

   5  0.394  0.145  0.103-  45 2.03  46 2.17  67 2.25  53 2.25   6 2.34
   6  0.470  0.145  0.224-  54 2.10  68 2.10  46 2.25  53 2.26  67 2.26   5 2.34  30 2.53  18 2.53

   7  0.952  0.645  0.129-  56 2.07  66 2.07  47 2.25  55 2.36  65 2.36
   8  0.974  0.645  0.297-  44 2.05  65 2.06  55 2.06  48 2.10
   9  0.125  0.145  0.160-  57 2.09  71 2.09  38 2.25  10 2.36  58 2.36  72 2.36  33 2.53  21 2.53

  10  0.109  0.145  0.306-  37 2.02  72 2.12  58 2.12   9 2.36
  11  0.568  0.645  0.136-  39 2.02  40 2.16  69 2.23  59 2.23  12 2.30
  12  0.642  0.645  0.256-  70 2.03  60 2.03  40 2.25  59 2.26  69 2.26  11 2.30  36 2.53  24 2.53

  13  0.913  0.997  0.095-  63 2.06  64 2.11  56 2.11  38 2.20  14 2.54
  14  0.944  0.013  0.248-  37 2.06  38 2.09  64 2.18  55 2.19  26 2.53  13 2.54
  15  0.425  0.513  0.167-  39 2.15  61 2.15  62 2.17  53 2.25  40 2.36  16 2.45   4 2.53  27 2.53

  16  0.467  0.465  0.309-  54 2.00  62 2.04  40 2.07  15 2.45
  17  0.567  0.018  0.042-  67 1.99  41 2.01  29 2.45
  18  0.597  0.013  0.199-  68 2.07  42 2.11  59 2.25  41 2.26  67 2.26  30 2.53   6 2.53
  19  0.081  0.507  0.125-  66 2.09  65 2.10  57 2.10  43 2.20  20 2.52
  20  0.113  0.509  0.277-  44 2.05  43 2.09  65 2.10  58 2.17  19 2.52
  21  0.252  0.013  0.135-  45 2.06  71 2.09  51 2.13  46 2.36  72 2.36  22 2.49   9 2.53  33 2.53

  22  0.292  0.972  0.281-  52 2.03  46 2.05  72 2.05  21 2.49
  23  0.774  0.432  0.095-  49 2.02  50 2.14  47 2.25  69 2.27  24 2.34
  24  0.770  0.513  0.231-  70 2.02  48 2.11  50 2.25  69 2.26  47 2.26  23 2.34  12 2.53  36 2.53

  25  0.913  0.293  0.095-  49 2.06  50 2.11  66 2.11  38 2.20  26 2.54
  26  0.944  0.277  0.248-  37 2.06  38 2.09  50 2.18  65 2.19  14 2.53  25 2.54
  27  0.425  0.777  0.167-  39 2.15  51 2.15  52 2.17  67 2.25  40 2.36  28 2.45   4 2.53  15 2.53

  28  0.467  0.826  0.309-  68 2.00  52 2.04  40 2.07  27 2.45
  29  0.567  0.273  0.042-  53 1.99  41 2.01  17 2.45
  30  0.597  0.277  0.199-  54 2.07  42 2.11  69 2.25  41 2.26  53 2.26  18 2.53   6 2.53
  31  0.081  0.784  0.125-  56 2.09  55 2.10  71 2.10  43 2.20  32 2.52
  32  0.113  0.782  0.277-  44 2.05  43 2.09  55 2.10  72 2.17  31 2.52
  33  0.252  0.277  0.135-  45 2.06  57 2.09  61 2.13  46 2.36  58 2.36  34 2.49   9 2.53  21 2.53

  34  0.292  0.318  0.281-  62 2.03  46 2.05  58 2.05  33 2.49
  35  0.774  0.859  0.095-  63 2.02  64 2.14  47 2.25  59 2.27  36 2.34
  36  0.770  0.777  0.231-  60 2.02  48 2.11  64 2.25  59 2.26  47 2.26  35 2.34  12 2.53  24 2.53

  37  0.993  0.145  0.335-  10 2.02  14 2.06  26 2.06
  38  0.991  0.145  0.159-  14 2.09  26 2.09  13 2.20  25 2.20   9 2.25
  39  0.467  0.645  0.069-   3 2.02  11 2.02  15 2.15  27 2.15
  40  0.509  0.645  0.254-  28 2.07  16 2.07  11 2.16  12 2.25  27 2.36  15 2.36
  41  0.647  0.145  0.095-  17 2.01  29 2.01   1 2.25  18 2.26  30 2.26  42 2.75
  42  0.677  0.145  0.262-   2 2.06  18 2.11  30 2.11  41 2.75
  43  0.164  0.645  0.191-  32 2.09  20 2.09  31 2.20  19 2.20   4 2.25
  44  0.076  0.645  0.366-   8 2.05  20 2.05  32 2.05
  45  0.289  0.145  0.042-   5 2.03  21 2.06  33 2.06
  46  0.336  0.145  0.222-  22 2.05  34 2.05   5 2.17   6 2.25  33 2.36  21 2.36
  47  0.819  0.645  0.127-  35 2.25  23 2.25   7 2.25  24 2.26  36 2.26  48 2.74
  48  0.850  0.645  0.293-   8 2.10  24 2.11  36 2.11  47 2.74
  49  0.820  0.294  0.013-  23 2.02  25 2.06   1 2.08
  50  0.829  0.314  0.191-   2 2.04  25 2.11  23 2.14  26 2.18  24 2.25   1 2.36
  51  0.312  0.821  0.111-   3 2.05  21 2.13   4 2.15  27 2.15
  52  0.352  0.788  0.278-  22 2.03  28 2.04   4 2.15  27 2.17  62 2.74
  53  0.484  0.314  0.127-  29 1.99   5 2.25  15 2.25   6 2.26  30 2.26
  54  0.527  0.286  0.304-  16 2.00  30 2.07   6 2.10  68 2.69
  55  0.001  0.814  0.223-   8 2.06  32 2.10  31 2.10  14 2.19   7 2.36  56 2.70
  56  0.977  0.820  0.058-   7 2.07  31 2.09  13 2.11  55 2.70
  57  0.140  0.324  0.088-   9 2.09  33 2.09  19 2.10  58 2.74
  58  0.174  0.314  0.254-  34 2.05  10 2.12  20 2.17   9 2.36  33 2.36  57 2.74
  59  0.657  0.814  0.159-  11 2.23  18 2.25  36 2.26  12 2.26  35 2.27
  60  0.695  0.791  0.328-  36 2.02  12 2.03  70 2.79
  61  0.312  0.469  0.111-   3 2.05  33 2.13   4 2.15  15 2.15
  62  0.352  0.502  0.278-  34 2.03  16 2.04   4 2.15  15 2.17  52 2.74
  63  0.820  0.997  0.013-  35 2.02  13 2.06   1 2.08
  64  0.829  0.977  0.191-   2 2.04  13 2.11  35 2.14  14 2.18  36 2.25   1 2.36
  65  0.001  0.477  0.223-   8 2.06  20 2.10  19 2.10  26 2.19   7 2.36  66 2.70
  66  0.977  0.471  0.058-   7 2.07  19 2.09  25 2.11  65 2.70
  67  0.484  0.977  0.127-  17 1.99   5 2.25  27 2.25   6 2.26  18 2.26
  68  0.527  0.005  0.304-  28 2.00  18 2.07   6 2.10  54 2.69
  69  0.657  0.477  0.159-  11 2.23  30 2.25  24 2.26  12 2.26  23 2.27
  70  0.695  0.500  0.328-  24 2.02  12 2.03  60 2.79
  71  0.140  0.967  0.088-   9 2.09  21 2.09  31 2.10  72 2.74
  72  0.174  0.977  0.254-  22 2.05  10 2.12  32 2.17   9 2.36  21 2.36  71 2.74
 
  LATTYP: Found a simple orthorhombic cell.
 ALAT       =     9.5784100000
 B/A-ratio  =     1.6875777105
 C/A-ratio  =     1.7627867312
  
  Lattice vectors:
  
 A1 = (   0.0000000000,   9.5784100000,   0.0000000000)
 A2 = (   0.0000000000,   0.0000000000, -16.1643112181)
 A3 = ( -16.8846940542,   0.0000000000,   0.0000000000)


Analysis of symmetry for initial positions (statically):
=====================================================================
 Subroutine PRICEL returns:
 Original cell was already a primitive cell.
 

 Routine SETGRP: Setting up the symmetry group for a 
 simple orthorhombic supercell.


 Subroutine GETGRP returns: Found  2 space group operations
 (whereof  1 operations were pure point group operations)
 out of a pool of  8 trial point group operations.


The static configuration has the point symmetry C_1 .
 The point group associated with its full space group is C_1h.


Analysis of symmetry for dynamics (positions and initial velocities):
=====================================================================
 Subroutine PRICEL returns:
 Original cell was already a primitive cell.
 

 Routine SETGRP: Setting up the symmetry group for a 
 simple orthorhombic supercell.


 Subroutine GETGRP returns: Found  2 space group operations
 (whereof  1 operations were pure point group operations)
 out of a pool of  8 trial point group operations.


The dynamic configuration has the point symmetry C_1 .
 The point group associated with its full space group is C_1h.


 Subroutine INISYM returns: Found  2 space group operations
 (whereof  1 operations are pure point group operations),
 and found     1 'primitive' translations

 
 
 KPOINTS: gamma-point-only calculation. no periodi

Automatic generation of k-mesh.
Space group operators:
 irot       det(A)        alpha          n_x          n_y          n_z        tau_x        tau_y        tau_z
    1     1.000000     0.000000     1.000000     0.000000     0.000000     0.000000     0.000000     0.000000
    2    -1.000000   180.000000     0.000000     1.000000     0.000000     0.000000     0.290594     0.000000
 
 Subroutine IBZKPT returns following result:
 ===========================================
 
 Found      1 irreducible k-points:
 
 Following reciprocal coordinates:
            Coordinates               Weight
  0.000000  0.000000  0.000000      1.000000
 
 Following cartesian coordinates:
            Coordinates               Weight
  0.000000  0.000000  0.000000      1.000000
 


--------------------------------------------------------------------------------------------------------




 Dimension of arrays:
   k-points           NKPTS =      1   k-points in BZ     NKDIM =      1   number of bands    NBANDS=    476
   number of dos      NEDOS =    301   number of ions     NIONS =     72
   non local maximal  LDIM  =      6   non local SUM 2l+1 LMDIM =     18
   total plane-waves  NPLWV = 378000
   max r-space proj   IRMAX =   1644   max aug-charges    IRDMAX=   4754
   dimension x,y,z NGX =    90 NGY =   50 NGZ =   84
   dimension x,y,z NGXF=   180 NGYF=  100 NGZF=  168
   support grid    NGXF=   180 NGYF=  100 NGZF=  168
   ions per type =              36  36
   NGX,Y,Z   is equivalent  to a cutoff of   8.86,  8.68,  8.64 a.u.
   NGXF,Y,Z  is equivalent  to a cutoff of  17.72, 17.36, 17.28 a.u.

 SYSTEM =  "Millerite NiS"                         
 POSCAR =  Type_036 Type_136                       

 Startparameter for this run:
   NWRITE =      2    write-flag & timer
   PREC   = normal    normal or accurate (medium, high low for compatibility)
   ISTART =      0    job   : 0-new  1-cont  2-samecut
   ICHARG =      2    charge: 1-file 2-atom 10-const
   ISPIN  =      1    spin polarized calculation?
   LNONCOLLINEAR =      F non collinear calculations
   LSORBIT =      F    spin-orbit coupling
   INIWAV =      1    electr: 0-lowe 1-rand  2-diag
   LASPH  =      F    aspherical Exc in radial PAW
   METAGGA=      F    non-selfconsistent MetaGGA calc.

 Electronic Relaxation 1
   ENCUT  =  450.0 eV  33.07 Ry    5.75 a.u.  29.20 16.57 27.96*2*pi/ulx,y,z
   ENINI  =  450.0     initial cutoff
   ENAUG  =  703.4 eV  augmentation charge cutoff
   NELM   =    100;   NELMIN=  2; NELMDL= -5     # of ELM steps 
   EDIFF  = 0.1E-03   stopping-criterion for ELM
   LREAL  =      T    real-space projection
   NLSPLINE    = F    spline interpolate recip. space projectors
   LCOMPAT=      F    compatible to vasp.4.4
   GGA_COMPAT  = T    GGA compatible to vasp.4.4-vasp.4.6
   LMAXPAW     = -100 max onsite density
   LMAXMIX     =    2 max onsite mixed and CHGCAR
   VOSKOWN=      0    Vosko Wilk Nusair interpolation
   ROPT   =   -0.00050  -0.00050
 Ionic relaxation
   EDIFFG = 0.1E-02   stopping-criterion for IOM
   NSW    =      0    number of steps for IOM
   NBLOCK =      1;   KBLOCK =      1    inner block; outer block 
   IBRION =     -1    ionic relax: 0-MD 1-quasi-New 2-CG
   NFREE  =      0    steps in history (QN), initial steepest desc. (CG)
   ISIF   =      2    stress and relaxation
   IWAVPR =     10    prediction:  0-non 1-charg 2-wave 3-comb
   ISYM   =      2    0-nonsym 1-usesym 2-fastsym
   LCORR  =      T    Harris-Foulkes like correction to forces

   POTIM  = 0.5000    time-step for ionic-motion
   TEIN   =    0.0    initial temperature
   TEBEG  =    0.0;   TEEND  =   0.0 temperature during run
   SMASS  =  -3.00    Nose mass-parameter (am)
   estimated Nose-frequenzy (Omega)   =  0.10E-29 period in steps =****** mass=  -0.652E-26a.u.
   SCALEE = 1.0000    scale energy and forces
   NPACO  =    256;   APACO  = 16.0  distance and # of slots for P.C.
   PSTRESS=    0.0 pullay stress

  Mass of Ions in am
   POMASS =  58.69 32.07
  Ionic Valenz
   ZVAL   =  16.00  6.00
  Atomic Wigner-Seitz radii
   RWIGS  =  -1.00 -1.00
  virtual crystal weights 
   VCA    =   1.00  1.00
   NELECT =     792.0000    total number of electrons
   NUPDOWN=      -1.0000    fix difference up-down

 DOS related values:
   EMIN   =  10.00;   EMAX   =-10.00  energy-range for DOS
   EFERMI =   0.00
   ISMEAR =     0;   SIGMA  =   0.20  broadening in eV -4-tet -1-fermi 0-gaus

 Electronic relaxation 2 (details)
   IALGO  =     38    algorithm
   LDIAG  =      T    sub-space diagonalisation (order eigenvalues)
   LSUBROT=      F    optimize rotation matrix (better conditioning)
   TURBO    =      0    0=normal 1=particle mesh
   IRESTART =      0    0=no restart 2=restart with 2 vectors
   NREBOOT  =      0    no. of reboots
   NMIN     =      0    reboot dimension
   EREF     =   0.00    reference energy to select bands
   IMIX   =      4    mixing-type and parameters
     AMIX     =   0.40;   BMIX     =  1.00
     AMIX_MAG =   1.60;   BMIX_MAG =  1.00
     AMIN     =   0.10
     WC   =   100.;   INIMIX=   1;  MIXPRE=   1;  MAXMIX= -45

 Intra band minimization:
   WEIMIN = 0.0000     energy-eigenvalue tresh-hold
   EBREAK =  0.53E-07  absolut break condition
   DEPER  =   0.30     relativ break condition  

   TIME   =   0.40     timestep for ELM

  volume/ion in A,a.u.               =      36.31       245.02
  Fermi-wavevector in a.u.,A,eV,Ry     =   1.099517  2.077786 16.448595  1.208938
  Thomas-Fermi vector in A             =   2.235913
 
 Write flags
   LWAVE        =      F    write WAVECAR
   LDOWNSAMPLE  =      F    k-point downsampling of WAVECAR
   LCHARG       =      F    write CHGCAR
   LVTOT        =      F    write LOCPOT, total local potential
   LVHAR        =      F    write LOCPOT, Hartree potential only
   LELF         =      F    write electronic localiz. function (ELF)
   LORBIT       =      0    0 simple, 1 ext, 2 COOP (PROOUT), +10 PAW based schemes


 Dipole corrections
   LMONO  =      F    monopole corrections only (constant potential shift)
   LDIPOL =      F    correct potential (dipole corrections)
   IDIPOL =      0    1-x, 2-y, 3-z, 4-all directions 
   EPSILON=  1.0000000 bulk dielectric constant

 Exchange correlation treatment:
   GGA     =    --    GGA type
   LEXCH   =     8    internal setting for exchange type
   VOSKOWN=      0    Vosko Wilk Nusair interpolation
   LHFCALC =     F    Hartree Fock is set to
   LHFONE  =     F    Hartree Fock one center treatment
   AEXX    =    0.0000 exact exchange contribution

 Linear response parameters
   LEPSILON=     F    determine dielectric tensor
   LRPA    =     F    only Hartree local field effects (RPA)
   LNABLA  =     F    use nabla operator in PAW spheres
   LVEL    =     F    velocity operator in full k-point grid
   LINTERFAST=   F  fast interpolation
   KINTER  =     0    interpolate to denser k-point grid
   CSHIFT  =0.1000    complex shift for real part using Kramers Kronig
   OMEGAMAX=  -1.0    maximum frequency
   DEG_THRESHOLD= 0.2000000E-02 threshold for treating states as degnerate
   RTIME   =   -0.100 relaxation time in fs
  (WPLASMAI=    0.000 imaginary part of plasma frequency in eV, 0.658/RTIME)
   DFIELD  = 0.0000000 0.0000000 0.0000000 field for delta impulse in time
 
 Orbital magnetization related:
   ORBITALMAG=     F  switch on orbital magnetization
   LCHIMAG   =     F  perturbation theory with respect to B field
   DQ        =  0.001000  dq finite difference perturbation B field
   LLRAUG    =     F  two centre corrections for induced B field



--------------------------------------------------------------------------------------------------------


 Static calculation
 charge density and potential will be updated during run
 non-spin polarized calculation
 Variant of blocked Davidson
 Davidson routine will perform the subspace rotation
 perform sub-space diagonalisation
    after iterative eigenvector-optimisation
 modified Broyden-mixing scheme, WC =      100.0
 initial mixing is a Kerker type mixing with AMIX =  0.4000 and BMIX =      1.0000
 Hartree-type preconditioning will be used
 using additional bands           80
 real space projection scheme for non local part
 use partial core corrections
 calculate Harris-corrections to forces 
   (improved forces if not selfconsistent)
 use gradient corrections 
 use of overlap-Matrix (Vanderbilt PP)
 Gauss-broadening in eV      SIGMA  =   0.20


--------------------------------------------------------------------------------------------------------


  energy-cutoff  :      450.00
  volume of cell :     2614.23
      direct lattice vectors                 reciprocal lattice vectors
    16.884694054  0.000000000  0.000000000     0.059225237  0.000000000  0.000000000
     0.000000000  9.578410000  0.000000000     0.000000000  0.104401461  0.000000000
     0.000000000  0.000000000 16.164311218     0.000000000  0.000000000  0.061864684

  length of vectors
    16.884694054  9.578410000 16.164311218     0.059225237  0.104401461  0.061864684


 
 k-points in units of 2pi/SCALE and weight: gamma-point-only calculation. no periodi
   0.00000000  0.00000000  0.00000000       1.000
 
 k-points in reciprocal lattice and weights: gamma-point-only calculation. no periodi
   0.00000000  0.00000000  0.00000000       1.000
 
 position of ions in fractional coordinates (direct lattice) 
   0.78004630  0.14529696  0.09688182
   0.79854412  0.14529696  0.26153934
   0.34917742  0.64529696  0.05018873
   0.29733028  0.64529696  0.19229398
   0.39401059  0.14529696  0.10256181
   0.46975828  0.14529696  0.22409803
   0.95247430  0.64529696  0.12868587
   0.97398283  0.64529696  0.29690556
   0.12490229  0.14529696  0.16048993
   0.10915224  0.14529696  0.30555277
   0.56832561  0.64529696  0.13619419
   0.64218627  0.64529696  0.25590208
   0.91292881  0.99747783  0.09517029
   0.94366641  0.01334424  0.24845886
   0.42486675  0.51319396  0.16708551
   0.46714404  0.46495659  0.30930369
   0.56680110  0.01765151  0.04249251
   0.59729475  0.01319396  0.19888957
   0.08097002  0.50678308  0.12456185
   0.11285390  0.50881279  0.27662138
   0.25243876  0.01319396  0.13528146
   0.29249186  0.97246699  0.28131524
   0.77357251  0.43178889  0.09452216
   0.76972274  0.51319396  0.23069362
   0.91292881  0.29311609  0.09517029
   0.94366641  0.27724967  0.24845886
   0.42486675  0.77739996  0.16708551
   0.46714404  0.82563732  0.30930369
   0.56680110  0.27294240  0.04249251
   0.59729475  0.27739996  0.19888957
   0.08097002  0.78381083  0.12456185
   0.11285390  0.78178112  0.27662138
   0.25243876  0.27739996  0.13528146
   0.29249186  0.31812692  0.28131524
   0.77357251  0.85880502  0.09452216
   0.76972274  0.77739996  0.23069362
   0.99280416  0.14529696  0.33521494
   0.99146120  0.14529696  0.15872480
   0.46729182  0.64529696  0.06923281
   0.50874518  0.64529696  0.25413696
   0.64660522  0.14529696  0.09511670
   0.67661560  0.14529696  0.26237567
   0.16388920  0.64529696  0.19052885
   0.07560038  0.64529696  0.36597089
   0.28882057  0.14529696  0.04203545
   0.33631719  0.14529696  0.22233290
   0.81903321  0.64529696  0.12692075
   0.84963621  0.64529696  0.29349528
   0.81969562  0.29408513  0.01318958
   0.82906105  0.31351196  0.19082431
   0.31185594  0.82136622  0.11087830
   0.35188584  0.78826464  0.27762738
   0.48420507  0.31351196  0.12721621
   0.52726456  0.28565065  0.30362624
   0.00148905  0.81351196  0.22262836
   0.97699839  0.81973422  0.05755587
   0.14004841  0.32408853  0.08849679
   0.17391704  0.31351196  0.25443241
   0.65663306  0.81351196  0.15902026
   0.69542481  0.79069410  0.32804783
   0.31185594  0.46922769  0.11087830
   0.35188584  0.50232928  0.27762738
   0.81969562  0.99650878  0.01318958
   0.82906105  0.97708196  0.19082431
   0.00148905  0.47708196  0.22262836
   0.97699839  0.47085969  0.05755587
   0.48420507  0.97708196  0.12721621
   0.52726456  0.00494327  0.30362624
   0.65663306  0.47708196  0.15902026
   0.69542481  0.49989981  0.32804783
   0.14004841  0.96650538  0.08849679
   0.17391704  0.97708196  0.25443241
 
 position of ions in cartesian coordinates  (Angst):
  13.17084321  1.39171383  1.56602791
  13.48317309  1.39171383  4.22760331
   5.89575392  6.18091883  0.81126620
   5.02033088  6.18091883  3.10829969
   6.65274820  1.39171383  1.65784105
   7.93172477  1.39171383  3.62239028
  16.08223712  6.18091883  2.08011850
  16.44540212  6.18091883  4.79927382
   2.10893697  1.39171383  2.59420910
   1.84300219  1.39171383  4.93905003
   9.59600412  6.18091883  2.20148527
  10.84311868  6.18091883  4.13648088
  15.41452364  9.55425161  1.53836212
  15.93351866  0.12781665  4.01616642
   7.17374514  4.91558213  2.70082223
   7.88758427  4.45354488  4.99968113
   9.57026318  0.16907341  0.68686208
  10.08513905  0.12637713  3.21491283
   1.36715395  4.85417614  2.01345644
   1.90550350  4.87361754  4.47139412
   4.26235123  0.12637713  2.18673164
   4.93863555  9.31468759  4.54726714
  13.06153524  4.13585104  1.52788555
  12.99653294  4.91558213  3.72900342
  15.41452364  2.80758604  1.53836212
  15.93351866  2.65561101  4.01616642
   7.17374514  7.44625552  2.70082223
   7.88758427  7.90829277  4.99968113
   9.57026318  2.61435424  0.68686208
  10.08513905  2.65705052  3.21491283
   1.36715395  7.50766151  2.01345644
   1.90550350  7.48822011  4.47139412
   4.26235123  2.65705052  2.18673164
   4.93863555  3.04715006  4.54726714
  13.06153524  8.22598661  1.52788555
  12.99653294  7.44625552  3.72900342
  16.76319455  1.39171383  5.41851860
  16.74051910  1.39171383  2.56567707
   7.89007947  6.18091883  1.11910072
   8.59000675  6.18091883  4.10794885
  10.91773128  1.39171383  1.53749588
  11.42444732  1.39171383  4.24112200
   2.76721895  6.18091883  3.07976766
   1.27648933  6.18091883  5.91566739
   4.87664699  1.39171383  0.67947411
   5.67861284  1.39171383  3.59385825
  13.82912519  6.18091883  2.05158647
  14.34584751  6.18091883  4.74414898
  13.84030973  2.81686794  0.21320040
  13.99844223  3.00294606  3.08454357
   5.26559218  7.86738245  1.79227132
   5.94148478  7.55032188  4.48765539
   8.17565442  3.00294606  2.05636238
   8.90270070  2.73607902  4.90790903
   0.02514209  7.79215106  3.59863415
  16.49631886  7.85175046  0.93035096
   2.36467459  3.10425281  1.43048957
   2.93653598  3.00294606  4.11272474
  11.08704832  7.79215106  2.57045297
  11.74203512  7.57359232  5.30266726
   5.26559218  4.49445521  1.79227132
   5.94148478  4.81151577  4.48765539
  13.84030973  9.54496971  0.21320040
  13.99844223  9.35889159  3.08454357
   0.02514209  4.56968659  3.59863415
  16.49631886  4.51008719  0.93035096
   8.17565442  9.35889159  2.05636238
   8.90270070  0.04734864  4.90790903
  11.08704832  4.56968659  2.57045297
  11.74203512  4.78824533  5.30266726
   2.36467459  9.25758484  1.43048957
   2.93653598  9.35889159  4.11272474
 


--------------------------------------------------------------------------------------------------------


 use parallel FFT for orbitals z direction half grid
 k-point  1 :   0.0000 0.0000 0.0000  plane waves:   28369

 maximum and minimum number of plane-waves per node :      4733     4722

 maximum number of plane-waves:     28369
 maximum index in each direction: 
   IXMAX=   29   IYMAX=   16   IZMAX=   27
   IXMIN=  -29   IYMIN=  -16   IZMIN=    0


 real space projection operators:
  total allocation   :      10066.98 KBytes
  max/ min on nodes  :       1681.41       1671.73


 parallel 3D FFT for wavefunctions:
    minimum data exchange during FFTs selected (reduces bandwidth)
 parallel 3D FFT for charge:
    minimum data exchange during FFTs selected (reduces bandwidth)


 total amount of memory used by VASP MPI-rank0    77172. kBytes
=======================================================================

   base      :      30000. kBytes
   nonlr-proj:       2063. kBytes
   fftplans  :       9935. kBytes
   grid      :      16773. kBytes
   one-center:         93. kBytes
   wavefun   :      18308. kBytes
 
     INWAV:  cpu time    0.0000: real time    0.0000
 Broyden mixing: mesh for mixing (old mesh)
   NGX = 59   NGY = 33   NGZ = 55
  (NGX  =180   NGY  =100   NGZ  =168)
  gives a total of 107085 points

 initial charge density was supplied:
 charge density of overlapping atoms calculated
 number of electron     792.0000000 magnetization 
 keeping initial charge density in first step


--------------------------------------------------------------------------------------------------------


 Maximum index for non-local projection operator          266
 Maximum index for augmentation-charges          427 (set IRDMAX)


--------------------------------------------------------------------------------------------------------


 First call to EWALD:  gamma=   0.129
 Maximum number of real-space cells 2x 4x 2
 Maximum number of reciprocal cells 3x 2x 3

    FEWALD:  cpu time    0.0080: real time    0.0079


--------------------------------------- Iteration      1(   1)  ---------------------------------------


    POTLOK:  cpu time    0.3988: real time    0.3988
    SETDIJ:  cpu time    0.0365: real time    0.0365
     EDDAV:  cpu time    8.4390: real time    8.4409
       DOS:  cpu time    0.0011: real time    0.0011
    --------------------------------------------
      LOOP:  cpu time    8.8754: real time    8.8774

 eigenvalue-minimisations  :  1160
 total energy-change (2. order) : 0.8900564E+04  (-0.5058066E+05)
 number of electron     792.0000000 magnetization 
 augmentation part      792.0000000 magnetization 

 Free energy of the ion-electron system (eV)
  ---------------------------------------------------
  alpha Z        PSCENC =      1422.94265788
  Ewald energy   TEWEN  =    150133.20416644
  -Hartree energ DENC   =   -270445.51001311
  -exchange      EXHF   =         0.00000000
  -V(xc)+E(xc)   XCENC  =      3681.07961349
  PAW double counting   =    112729.53333415  -117641.51188735
  entropy T*S    EENTRO =        -0.44389367
  eigenvalues    EBANDS =     -6981.33501135
  atomic energy  EATOM  =    136002.60505376
  Solvation  Ediel_sol  =         0.00000000
  ---------------------------------------------------
  free energy    TOTEN  =      8900.56402025 eV

  energy without entropy =     8901.00791392  energy(sigma->0) =     8900.78596709


--------------------------------------------------------------------------------------------------------




--------------------------------------- Iteration      1(   2)  ---------------------------------------


     EDDAV:  cpu time    7.4474: real time    7.4491
       DOS:  cpu time    0.0011: real time    0.0011
    --------------------------------------------
      LOOP:  cpu time    7.4485: real time    7.4502

 eigenvalue-minimisations  :  1012
 total energy-change (2. order) :-0.8412433E+04  (-0.8132034E+04)
 number of electron     792.0000000 magnetization 
 augmentation part      792.0000000 magnetization 

 Free energy of the ion-electron system (eV)
  ---------------------------------------------------
  alpha Z        PSCENC =      1422.94265788
  Ewald energy   TEWEN  =    150133.20416644
  -Hartree energ DENC   =   -270445.51001311
  -exchange      EXHF   =         0.00000000
  -V(xc)+E(xc)   XCENC  =      3681.07961349
  PAW double counting   =    112729.53333415  -117641.51188735
  entropy T*S    EENTRO =        -0.81651093
  eigenvalues    EBANDS =    -15393.39490332
  atomic energy  EATOM  =    136002.60505376
  Solvation  Ediel_sol  =         0.00000000
  ---------------------------------------------------
  free energy    TOTEN  =       488.13151102 eV

  energy without entropy =      488.94802195  energy(sigma->0) =      488.53976648


--------------------------------------------------------------------------------------------------------




--------------------------------------- Iteration      1(   3)  ---------------------------------------


     EDDAV:  cpu time    8.2599: real time    8.2616
       DOS:  cpu time    0.0011: real time    0.0011
    --------------------------------------------
      LOOP:  cpu time    8.2610: real time    8.2626

 eigenvalue-minimisations  :  1112
 total energy-change (2. order) :-0.8391567E+03  (-0.8066110E+03)
 number of electron     792.0000000 magnetization 
 augmentation part      792.0000000 magnetization 

 Free energy of the ion-electron system (eV)
  ---------------------------------------------------
  alpha Z        PSCENC =      1422.94265788
  Ewald energy   TEWEN  =    150133.20416644
  -Hartree energ DENC   =   -270445.51001311
  -exchange      EXHF   =         0.00000000
  -V(xc)+E(xc)   XCENC  =      3681.07961349
  PAW double counting   =    112729.53333415  -117641.51188735
  entropy T*S    EENTRO =        -1.19957433
  eigenvalues    EBANDS =    -16232.16853056
  atomic energy  EATOM  =    136002.60505376
  Solvation  Ediel_sol  =         0.00000000
  ---------------------------------------------------
  free energy    TOTEN  =      -351.02517961 eV

  energy without entropy =     -349.82560529  energy(sigma->0) =     -350.42539245


--------------------------------------------------------------------------------------------------------




--------------------------------------- Iteration      1(   4)  ---------------------------------------


     EDDAV:  cpu time    7.8521: real time    7.8538
       DOS:  cpu time    0.0011: real time    0.0011
    --------------------------------------------
      LOOP:  cpu time    7.8533: real time    7.8550

 eigenvalue-minimisations  :  1080
 total energy-change (2. order) :-0.4231720E+02  (-0.4188334E+02)
 number of electron     792.0000000 magnetization 
 augmentation part      792.0000000 magnetization 

 Free energy of the ion-electron system (eV)
  ---------------------------------------------------
  alpha Z        PSCENC =      1422.94265788
  Ewald energy   TEWEN  =    150133.20416644
  -Hartree energ DENC   =   -270445.51001311
  -exchange      EXHF   =         0.00000000
  -V(xc)+E(xc)   XCENC  =      3681.07961349
  PAW double counting   =    112729.53333415  -117641.51188735
  entropy T*S    EENTRO =        -1.23249152
  eigenvalues    EBANDS =    -16274.45281823
  atomic energy  EATOM  =    136002.60505376
  Solvation  Ediel_sol  =         0.00000000
  ---------------------------------------------------
  free energy    TOTEN  =      -393.34238448 eV

  energy without entropy =     -392.10989296  energy(sigma->0) =     -392.72613872


--------------------------------------------------------------------------------------------------------




--------------------------------------- Iteration      1(   5)  ---------------------------------------


     EDDAV:  cpu time    8.8570: real time    8.8590
       DOS:  cpu time    0.0012: real time    0.0012
    CHARGE:  cpu time    0.3823: real time    0.3823
    MIXING:  cpu time    0.0092: real time    0.0092
    --------------------------------------------
      LOOP:  cpu time    9.2497: real time    9.2517

 eigenvalue-minimisations  :  1232
 total energy-change (2. order) :-0.1680543E+01  (-0.1678524E+01)
 number of electron     791.9998596 magnetization 
 augmentation part      285.9813551 magnetization 

 Broyden mixing:
  rms(total) = 0.98382E+01    rms(broyden)= 0.98306E+01
  rms(prec ) = 0.10369E+02
  weight for this iteration     100.00

 Free energy of the ion-electron system (eV)
  ---------------------------------------------------
  alpha Z        PSCENC =      1422.94265788
  Ewald energy   TEWEN  =    150133.20416644
  -Hartree energ DENC   =   -270445.51001311
  -exchange      EXHF   =         0.00000000
  -V(xc)+E(xc)   XCENC  =      3681.07961349
  PAW double counting   =    112729.53333415  -117641.51188735
  entropy T*S    EENTRO =        -1.22741266
  eigenvalues    EBANDS =    -16276.13843972
  atomic energy  EATOM  =    136002.60505376
  Solvation  Ediel_sol  =         0.00000000
  ---------------------------------------------------
  free energy    TOTEN  =      -395.02292710 eV

  energy without entropy =     -393.79551444  energy(sigma->0) =     -394.40922077


--------------------------------------------------------------------------------------------------------




--------------------------------------- Iteration      1(   6)  ---------------------------------------


    POTLOK:  cpu time    0.3165: real time    0.3165
    SETDIJ:  cpu time    0.0189: real time    0.0189
     EDDAV:  cpu time    8.6777: real time    8.6791
       DOS:  cpu time    0.0011: real time    0.0011
    CHARGE:  cpu time    0.2941: real time    0.2942
    MIXING:  cpu time    0.0102: real time    0.0102
    --------------------------------------------
      LOOP:  cpu time    9.3186: real time    9.3200

 eigenvalue-minimisations  :  1200
 total energy-change (2. order) :-0.7085511E+02  (-0.1002290E+03)
 number of electron     791.9998228 magnetization 
 augmentation part      345.7800004 magnetization 

 Broyden mixing:
  rms(total) = 0.16454E+02    rms(broyden)= 0.16452E+02
  rms(prec ) = 0.17251E+02
  weight for this iteration     100.00

 eigenvalues of (default mixing * dielectric matrix)
  average eigenvalue GAMMA=   0.2217
  0.2217

 Free energy of the ion-electron system (eV)
  ---------------------------------------------------
  alpha Z        PSCENC =      1422.94265788
  Ewald energy   TEWEN  =    150133.20416644
  -Hartree energ DENC   =   -267785.95429282
  -exchange      EXHF   =         0.00000000
  -V(xc)+E(xc)   XCENC  =      3606.83986433
  PAW double counting   =    117805.30334933  -122484.15087258
  entropy T*S    EENTRO =        -1.05077924
  eigenvalues    EBANDS =    -19165.61718279
  atomic energy  EATOM  =    136002.60505376
  Solvation  Ediel_sol  =         0.00000000
  ---------------------------------------------------
  free energy    TOTEN  =      -465.87803570 eV

  energy without entropy =     -464.82725645  energy(sigma->0) =     -465.35264608


--------------------------------------------------------------------------------------------------------




--------------------------------------- Iteration      1(   7)  ---------------------------------------


    POTLOK:  cpu time    0.3120: real time    0.3124
    SETDIJ:  cpu time    0.0170: real time    0.0170
     EDDAV:  cpu time    7.7810: real time    7.7823
       DOS:  cpu time    0.0013: real time    0.0013
    CHARGE:  cpu time    0.2967: real time    0.2967
    MIXING:  cpu time    0.0099: real time    0.0099
    --------------------------------------------
      LOOP:  cpu time    8.4180: real time    8.4197

 eigenvalue-minimisations  :  1080
 total energy-change (2. order) : 0.9845917E+02  (-0.2112919E+02)
 number of electron     791.9998359 magnetization 
 augmentation part      332.6867127 magnetization 

 Broyden mixing:
  rms(total) = 0.73828E+01    rms(broyden)= 0.73816E+01
  rms(prec ) = 0.78497E+01
  weight for this iteration     100.00

 eigenvalues of (default mixing * dielectric matrix)
  average eigenvalue GAMMA=   0.5002
  0.5002  0.5002

 Free energy of the ion-electron system (eV)
  ---------------------------------------------------
  alpha Z        PSCENC =      1422.94265788
  Ewald energy   TEWEN  =    150133.20416644
  -Hartree energ DENC   =   -268779.67795044
  -exchange      EXHF   =         0.00000000
  -V(xc)+E(xc)   XCENC  =      3631.67529161
  PAW double counting   =    122286.95340106  -127101.91902561
  entropy T*S    EENTRO =        -1.02288867
  eigenvalues    EBANDS =    -17962.17956952
  atomic energy  EATOM  =    136002.60505376
  Solvation  Ediel_sol  =         0.00000000
  ---------------------------------------------------
  free energy    TOTEN  =      -367.41886349 eV

  energy without entropy =     -366.39597482  energy(sigma->0) =     -366.90741915


--------------------------------------------------------------------------------------------------------




--------------------------------------- Iteration      1(   8)  ---------------------------------------


    POTLOK:  cpu time    0.3125: real time    0.3125
    SETDIJ:  cpu time    0.0168: real time    0.0168
     EDDAV:  cpu time    9.1712: real time    9.1734
       DOS:  cpu time    0.0012: real time    0.0012
    CHARGE:  cpu time    0.2903: real time    0.2903
    MIXING:  cpu time    0.0105: real time    0.0105
    --------------------------------------------
      LOOP:  cpu time    9.8023: real time    9.8046

 eigenvalue-minimisations  :  1296
 total energy-change (2. order) :-0.8945432E+02  (-0.2439590E+02)
 number of electron     791.9998281 magnetization 
 augmentation part      304.4976957 magnetization 

 Broyden mixing:
  rms(total) = 0.14861E+02    rms(broyden)= 0.14859E+02
  rms(prec ) = 0.18607E+02
  weight for this iteration     100.00

 eigenvalues of (default mixing * dielectric matrix)
  average eigenvalue GAMMA=   0.4647
  0.7542  0.4765  0.1633

 Free energy of the ion-electron system (eV)
  ---------------------------------------------------
  alpha Z        PSCENC =      1422.94265788
  Ewald energy   TEWEN  =    150133.20416644
  -Hartree energ DENC   =   -269817.74699545
  -exchange      EXHF   =         0.00000000
  -V(xc)+E(xc)   XCENC  =      3658.70606667
  PAW double counting   =    129520.64417332  -134476.24288137
  entropy T*S    EENTRO =        -0.82494196
  eigenvalues    EBANDS =    -16900.16048211
  atomic energy  EATOM  =    136002.60505376
  Solvation  Ediel_sol  =         0.00000000
  ---------------------------------------------------
  free energy    TOTEN  =      -456.87318281 eV

  energy without entropy =     -456.04824085  energy(sigma->0) =     -456.46071183


--------------------------------------------------------------------------------------------------------




--------------------------------------- Iteration      1(   9)  ---------------------------------------


    POTLOK:  cpu time    0.3117: real time    0.3118
    SETDIJ:  cpu time    0.0168: real time    0.0168
     EDDAV:  cpu time    8.9951: real time    8.9967
       DOS:  cpu time    0.0011: real time    0.0011
    CHARGE:  cpu time    0.2980: real time    0.2980
    MIXING:  cpu time    0.0109: real time    0.0109
    --------------------------------------------
      LOOP:  cpu time    9.6336: real time    9.6353

 eigenvalue-minimisations  :  1256
 total energy-change (2. order) : 0.8803611E+02  (-0.1539369E+02)
 number of electron     791.9998550 magnetization 
 augmentation part      304.3170527 magnetization 

 Broyden mixing:
  rms(total) = 0.77227E+01    rms(broyden)= 0.77178E+01
  rms(prec ) = 0.90752E+01
  weight for this iteration     100.00

 eigenvalues of (default mixing * dielectric matrix)
  average eigenvalue GAMMA=   0.4920
  1.1498  0.3487  0.3487  0.1207

 Free energy of the ion-electron system (eV)
  ---------------------------------------------------
  alpha Z        PSCENC =      1422.94265788
  Ewald energy   TEWEN  =    150133.20416644
  -Hartree energ DENC   =   -269860.92407010
  -exchange      EXHF   =         0.00000000
  -V(xc)+E(xc)   XCENC  =      3658.36978120
  PAW double counting   =    132878.44768926  -137856.51243907
  entropy T*S    EENTRO =        -1.02669563
  eigenvalues    EBANDS =    -16745.94321374
  atomic energy  EATOM  =    136002.60505376
  Solvation  Ediel_sol  =         0.00000000
  ---------------------------------------------------
  free energy    TOTEN  =      -368.83706998 eV

  energy without entropy =     -367.81037435  energy(sigma->0) =     -368.32372217


--------------------------------------------------------------------------------------------------------




--------------------------------------- Iteration      1(  10)  ---------------------------------------


    POTLOK:  cpu time    0.3120: real time    0.3125
    SETDIJ:  cpu time    0.0169: real time    0.0169
     EDDAV:  cpu time    9.6529: real time    9.6547
       DOS:  cpu time    0.0012: real time    0.0012
    CHARGE:  cpu time    0.2953: real time    0.2953
    MIXING:  cpu time    0.0112: real time    0.0112
    --------------------------------------------
      LOOP:  cpu time   10.2896: real time   10.2918

 eigenvalue-minimisations  :  1384
 total energy-change (2. order) :-0.6360514E+01  (-0.1085282E+02)
 number of electron     791.9998524 magnetization 
 augmentation part      304.5084077 magnetization 

 Broyden mixing:
  rms(total) = 0.67152E+01    rms(broyden)= 0.67129E+01
  rms(prec ) = 0.74025E+01
  weight for this iteration     100.00

 eigenvalues of (default mixing * dielectric matrix)
  average eigenvalue GAMMA=   0.5757
  1.7857  0.4082  0.4082  0.1382  0.1382

 Free energy of the ion-electron system (eV)
  ---------------------------------------------------
  alpha Z        PSCENC =      1422.94265788
  Ewald energy   TEWEN  =    150133.20416644
  -Hartree energ DENC   =   -269807.46078433
  -exchange      EXHF   =         0.00000000
  -V(xc)+E(xc)   XCENC  =      3656.46386786
  PAW double counting   =    135889.78188701  -140883.17907139
  entropy T*S    EENTRO =        -1.05025574
  eigenvalues    EBANDS =    -16788.50510562
  atomic energy  EATOM  =    136002.60505376
  Solvation  Ediel_sol  =         0.00000000
  ---------------------------------------------------
  free energy    TOTEN  =      -375.19758413 eV

  energy without entropy =     -374.14732839  energy(sigma->0) =     -374.67245626


--------------------------------------------------------------------------------------------------------




--------------------------------------- Iteration      1(  11)  ---------------------------------------


    POTLOK:  cpu time    0.3126: real time    0.3127
    SETDIJ:  cpu time    0.0168: real time    0.0168
     EDDAV:  cpu time    8.9057: real time    8.9069
       DOS:  cpu time    0.0012: real time    0.0012
    CHARGE:  cpu time    0.5489: real time    0.5490
    MIXING:  cpu time    0.0114: real time    0.0114
    --------------------------------------------
      LOOP:  cpu time    9.7966: real time    9.7980

 eigenvalue-minimisations  :  1280
 total energy-change (2. order) : 0.5650318E+01  (-0.4850234E+01)
 number of electron     791.9998491 magnetization 
 augmentation part      308.1849799 magnetization 

 Broyden mixing:
  rms(total) = 0.55161E+01    rms(broyden)= 0.55138E+01
  rms(prec ) = 0.65567E+01
  weight for this iteration     100.00

 eigenvalues of (default mixing * dielectric matrix)
  average eigenvalue GAMMA=   0.5432
  1.9328  0.4087  0.4087  0.1929  0.1929  0.1232

 Free energy of the ion-electron system (eV)
  ---------------------------------------------------
  alpha Z        PSCENC =      1422.94265788
  Ewald energy   TEWEN  =    150133.20416644
  -Hartree energ DENC   =   -269674.64974767
  -exchange      EXHF   =         0.00000000
  -V(xc)+E(xc)   XCENC  =      3652.86697642
  PAW double counting   =    140816.62867808  -145832.95810210
  entropy T*S    EENTRO =        -0.93229221
  eigenvalues    EBANDS =    -16889.25465676
  atomic energy  EATOM  =    136002.60505376
  Solvation  Ediel_sol  =         0.00000000
  ---------------------------------------------------
  free energy    TOTEN  =      -369.54726616 eV

  energy without entropy =     -368.61497396  energy(sigma->0) =     -369.08112006


--------------------------------------------------------------------------------------------------------




--------------------------------------- Iteration      1(  12)  ---------------------------------------


    POTLOK:  cpu time    0.3121: real time    0.3121
    SETDIJ:  cpu time    0.0168: real time    0.0168
     EDDAV:  cpu time    9.0734: real time    9.0752
       DOS:  cpu time    0.0012: real time    0.0012
    CHARGE:  cpu time    0.3025: real time    0.3025
    MIXING:  cpu time    0.0120: real time    0.0120
    --------------------------------------------
      LOOP:  cpu time    9.7180: real time    9.7198

 eigenvalue-minimisations  :  1320
 total energy-change (2. order) : 0.1067113E+02  (-0.3774735E+01)
 number of electron     791.9998506 magnetization 
 augmentation part      309.4174305 magnetization 

 Broyden mixing:
  rms(total) = 0.42404E+01    rms(broyden)= 0.42378E+01
  rms(prec ) = 0.50125E+01
  weight for this iteration     100.00

 eigenvalues of (default mixing * dielectric matrix)
  average eigenvalue GAMMA=   0.5844
  2.2261  0.4498  0.4498  0.4633  0.2401  0.1373  0.1242

 Free energy of the ion-electron system (eV)
  ---------------------------------------------------
  alpha Z        PSCENC =      1422.94265788
  Ewald energy   TEWEN  =    150133.20416644
  -Hartree energ DENC   =   -269663.21601590
  -exchange      EXHF   =         0.00000000
  -V(xc)+E(xc)   XCENC  =      3652.55488855
  PAW double counting   =    142036.06929238  -147060.39196179
  entropy T*S    EENTRO =        -0.94228654
  eigenvalues    EBANDS =    -16881.70193001
  atomic energy  EATOM  =    136002.60505376
  Solvation  Ediel_sol  =         0.00000000
  ---------------------------------------------------
  free energy    TOTEN  =      -358.87613523 eV

  energy without entropy =     -357.93384870  energy(sigma->0) =     -358.40499196


--------------------------------------------------------------------------------------------------------




--------------------------------------- Iteration      1(  13)  ---------------------------------------


    POTLOK:  cpu time    0.3151: real time    0.3153
    SETDIJ:  cpu time    0.0168: real time    0.0168
     EDDAV:  cpu time    9.2887: real time    9.2902
       DOS:  cpu time    0.0014: real time    0.0014
    CHARGE:  cpu time    0.3022: real time    0.3022
    MIXING:  cpu time    0.0130: real time    0.0130
    --------------------------------------------
      LOOP:  cpu time    9.9372: real time    9.9389

 eigenvalue-minimisations  :  1312
 total energy-change (2. order) : 0.3535081E+01  (-0.2657374E+01)
 number of electron     791.9998465 magnetization 
 augmentation part      311.1520441 magnetization 

 Broyden mixing:
  rms(total) = 0.45303E+01    rms(broyden)= 0.45276E+01
  rms(prec ) = 0.56352E+01
  weight for this iteration     100.00

 eigenvalues of (default mixing * dielectric matrix)
  average eigenvalue GAMMA=   0.5321
  2.2346  0.4556  0.4556  0.4491  0.2730  0.1366  0.1366  0.1155

 Free energy of the ion-electron system (eV)
  ---------------------------------------------------
  alpha Z        PSCENC =      1422.94265788
  Ewald energy   TEWEN  =    150133.20416644
  -Hartree energ DENC   =   -269621.03751599
  -exchange      EXHF   =         0.00000000
  -V(xc)+E(xc)   XCENC  =      3651.02637980
  PAW double counting   =    143503.85433025  -148531.19947510
  entropy T*S    EENTRO =        -1.00692516
  eigenvalues    EBANDS =    -16915.72972613
  atomic energy  EATOM  =    136002.60505376
  Solvation  Ediel_sol  =         0.00000000
  ---------------------------------------------------
  free energy    TOTEN  =      -355.34105424 eV

  energy without entropy =     -354.33412909  energy(sigma->0) =     -354.83759167


--------------------------------------------------------------------------------------------------------




--------------------------------------- Iteration      1(  14)  ---------------------------------------


    POTLOK:  cpu time    0.3175: real time    0.3178
    SETDIJ:  cpu time    0.0170: real time    0.0170
     EDDAV:  cpu time    9.3317: real time    9.3336
       DOS:  cpu time    0.0012: real time    0.0012
    CHARGE:  cpu time    0.2944: real time    0.2944
    MIXING:  cpu time    0.0136: real time    0.0136
    --------------------------------------------
      LOOP:  cpu time    9.9754: real time    9.9776

 eigenvalue-minimisations  :  1320
 total energy-change (2. order) : 0.7821232E+01  (-0.1752390E+01)
 number of electron     791.9998454 magnetization 
 augmentation part      312.7438048 magnetization 

 Broyden mixing:
  rms(total) = 0.21663E+01    rms(broyden)= 0.21629E+01
  rms(prec ) = 0.25952E+01
  weight for this iteration     100.00

 eigenvalues of (default mixing * dielectric matrix)
  average eigenvalue GAMMA=   0.4971
  2.1987  0.4671  0.4671  0.3921  0.3921  0.1621  0.1621  0.1162  0.1162

 Free energy of the ion-electron system (eV)
  ---------------------------------------------------
  alpha Z        PSCENC =      1422.94265788
  Ewald energy   TEWEN  =    150133.20416644
  -Hartree energ DENC   =   -269617.24977661
  -exchange      EXHF   =         0.00000000
  -V(xc)+E(xc)   XCENC  =      3650.85820020
  PAW double counting   =    143519.04350392  -148545.08206838
  entropy T*S    EENTRO =        -1.07838109
  eigenvalues    EBANDS =    -16912.76317809
  atomic energy  EATOM  =    136002.60505376
  Solvation  Ediel_sol  =         0.00000000
  ---------------------------------------------------
  free energy    TOTEN  =      -347.51982196 eV

  energy without entropy =     -346.44144087  energy(sigma->0) =     -346.98063141


--------------------------------------------------------------------------------------------------------




--------------------------------------- Iteration      1(  15)  ---------------------------------------


    POTLOK:  cpu time    0.3166: real time    0.3166
    SETDIJ:  cpu time    0.0167: real time    0.0167
     EDDAV:  cpu time    9.1923: real time    9.1941
       DOS:  cpu time    0.0012: real time    0.0012
    CHARGE:  cpu time    0.2954: real time    0.2954
    MIXING:  cpu time    0.0137: real time    0.0137
    --------------------------------------------
      LOOP:  cpu time    9.8360: real time    9.8378

 eigenvalue-minimisations  :  1296
 total energy-change (2. order) : 0.1378032E+01  (-0.3820722E+00)
 number of electron     791.9998474 magnetization 
 augmentation part      312.5956872 magnetization 

 Broyden mixing:
  rms(total) = 0.16969E+01    rms(broyden)= 0.16965E+01
  rms(prec ) = 0.20527E+01
  weight for this iteration     100.00

 eigenvalues of (default mixing * dielectric matrix)
  average eigenvalue GAMMA=   0.4797
  2.1357  0.5328  0.5328  0.4155  0.4155  0.1957  0.1957  0.1312  0.1312  0.1107

 Free energy of the ion-electron system (eV)
  ---------------------------------------------------
  alpha Z        PSCENC =      1422.94265788
  Ewald energy   TEWEN  =    150133.20416644
  -Hartree energ DENC   =   -269636.81189153
  -exchange      EXHF   =         0.00000000
  -V(xc)+E(xc)   XCENC  =      3651.31096982
  PAW double counting   =    143285.91227972  -148310.96836312
  entropy T*S    EENTRO =        -1.06751192
  eigenvalues    EBANDS =    -16893.26915083
  atomic energy  EATOM  =    136002.60505376
  Solvation  Ediel_sol  =         0.00000000
  ---------------------------------------------------
  free energy    TOTEN  =      -346.14178978 eV

  energy without entropy =     -345.07427786  energy(sigma->0) =     -345.60803382


--------------------------------------------------------------------------------------------------------




--------------------------------------- Iteration      1(  16)  ---------------------------------------


    POTLOK:  cpu time    0.3142: real time    0.3143
    SETDIJ:  cpu time    0.0169: real time    0.0169
     EDDAV:  cpu time    9.0853: real time    9.0879
       DOS:  cpu time    0.0012: real time    0.0011
    CHARGE:  cpu time    0.3862: real time    0.3862
    MIXING:  cpu time    0.0142: real time    0.0143
    --------------------------------------------
      LOOP:  cpu time    9.8179: real time    9.8206

 eigenvalue-minimisations  :  1304
 total energy-change (2. order) : 0.7984973E+00  (-0.1003501E+00)
 number of electron     791.9998464 magnetization 
 augmentation part      312.1052696 magnetization 

 Broyden mixing:
  rms(total) = 0.15432E+01    rms(broyden)= 0.15431E+01
  rms(prec ) = 0.18741E+01
  weight for this iteration     100.00

 eigenvalues of (default mixing * dielectric matrix)
  average eigenvalue GAMMA=   0.5073
  2.1568  0.6750  0.6750  0.4408  0.4408  0.4058  0.2472  0.1510  0.1510  0.1239
  0.1127

 Free energy of the ion-electron system (eV)
  ---------------------------------------------------
  alpha Z        PSCENC =      1422.94265788
  Ewald energy   TEWEN  =    150133.20416644
  -Hartree energ DENC   =   -269660.01225325
  -exchange      EXHF   =         0.00000000
  -V(xc)+E(xc)   XCENC  =      3651.78678603
  PAW double counting   =    142911.22222259  -147933.93544072
  entropy T*S    EENTRO =        -1.08854858
  eigenvalues    EBANDS =    -16872.06793666
  atomic energy  EATOM  =    136002.60505376
  Solvation  Ediel_sol  =         0.00000000
  ---------------------------------------------------
  free energy    TOTEN  =      -345.34329249 eV

  energy without entropy =     -344.25474391  energy(sigma->0) =     -344.79901820


--------------------------------------------------------------------------------------------------------




--------------------------------------- Iteration      1(  17)  ---------------------------------------


    POTLOK:  cpu time    0.3153: real time    0.3175
    SETDIJ:  cpu time    0.0168: real time    0.0168
     EDDAV:  cpu time    8.4636: real time    8.4978
       DOS:  cpu time    0.0014: real time    0.0014
    CHARGE:  cpu time    0.3063: real time    0.3063
    MIXING:  cpu time    0.0173: real time    0.0173
    --------------------------------------------
      LOOP:  cpu time    9.1207: real time    9.1570

 eigenvalue-minimisations  :  1200
 total energy-change (2. order) :-0.1583251E+00  (-0.1183358E+00)
 number of electron     791.9998478 magnetization 
 augmentation part      311.9556761 magnetization 

 Broyden mixing:
  rms(total) = 0.15848E+01    rms(broyden)= 0.15845E+01
  rms(prec ) = 0.18711E+01
  weight for this iteration     100.00

 eigenvalues of (default mixing * dielectric matrix)
  average eigenvalue GAMMA=   0.5272
  2.1509  0.9523  0.9523  0.4563  0.4563  0.4409  0.2432  0.1543  0.1543  0.1112
  0.1273  0.1273

 Free energy of the ion-electron system (eV)
  ---------------------------------------------------
  alpha Z        PSCENC =      1422.94265788
  Ewald energy   TEWEN  =    150133.20416644
  -Hartree energ DENC   =   -269667.63245578
  -exchange      EXHF   =         0.00000000
  -V(xc)+E(xc)   XCENC  =      3651.76830337
  PAW double counting   =    142783.88230311  -147804.37497919
  entropy T*S    EENTRO =        -1.06547821
  eigenvalues    EBANDS =    -16866.83118901
  atomic energy  EATOM  =    136002.60505376
  Solvation  Ediel_sol  =         0.00000000
  ---------------------------------------------------
  free energy    TOTEN  =      -345.50161764 eV

  energy without entropy =     -344.43613942  energy(sigma->0) =     -344.96887853


--------------------------------------------------------------------------------------------------------




--------------------------------------- Iteration      1(  18)  ---------------------------------------


    POTLOK:  cpu time    0.3180: real time    0.3182
    SETDIJ:  cpu time    0.0168: real time    0.0168
     EDDAV:  cpu time    9.2138: real time    9.2208
       DOS:  cpu time    0.0014: real time    0.0014
    CHARGE:  cpu time    0.3045: real time    0.3046
    MIXING:  cpu time    0.0154: real time    0.0154
    --------------------------------------------
      LOOP:  cpu time    9.8699: real time    9.8771

 eigenvalue-minimisations  :  1304
 total energy-change (2. order) : 0.8749925E+00  (-0.3796483E-01)
 number of electron     791.9998469 magnetization 
 augmentation part      311.8634456 magnetization 

 Broyden mixing:
  rms(total) = 0.13290E+01    rms(broyden)= 0.13289E+01
  rms(prec ) = 0.15933E+01
  weight for this iteration     100.00

 eigenvalues of (default mixing * dielectric matrix)
  average eigenvalue GAMMA=   0.5433
  2.1336  1.1812  1.1812  0.4656  0.4656  0.4322  0.2943  0.1921  0.1921  0.1448
  0.1448  0.1227  0.1126

 Free energy of the ion-electron system (eV)
  ---------------------------------------------------
  alpha Z        PSCENC =      1422.94265788
  Ewald energy   TEWEN  =    150133.20416644
  -Hartree energ DENC   =   -269681.87823703
  -exchange      EXHF   =         0.00000000
  -V(xc)+E(xc)   XCENC  =      3651.97038166
  PAW double counting   =    142463.54932459  -147480.56211404
  entropy T*S    EENTRO =        -1.07764271
  eigenvalues    EBANDS =    -16855.38021574
  atomic energy  EATOM  =    136002.60505376
  Solvation  Ediel_sol  =         0.00000000
  ---------------------------------------------------
  free energy    TOTEN  =      -344.62662518 eV

  energy without entropy =     -343.54898247  energy(sigma->0) =     -344.08780382


--------------------------------------------------------------------------------------------------------




--------------------------------------- Iteration      1(  19)  ---------------------------------------


    POTLOK:  cpu time    0.3187: real time    0.3188
    SETDIJ:  cpu time    0.0167: real time    0.0167
     EDDAV:  cpu time    9.4745: real time    9.4764
       DOS:  cpu time    0.0014: real time    0.0014
    CHARGE:  cpu time    0.3052: real time    0.3053
    MIXING:  cpu time    0.0164: real time    0.0165
    --------------------------------------------
      LOOP:  cpu time   10.1330: real time   10.1351

 eigenvalue-minimisations  :  1352
 total energy-change (2. order) : 0.6150982E+00  (-0.4208386E-01)
 number of electron     791.9998473 magnetization 
 augmentation part      311.7202484 magnetization 

 Broyden mixing:
  rms(total) = 0.11508E+01    rms(broyden)= 0.11506E+01
  rms(prec ) = 0.13552E+01
  weight for this iteration     100.00

 eigenvalues of (default mixing * dielectric matrix)
  average eigenvalue GAMMA=   0.5976
  2.0513  1.6314  1.6314  0.4876  0.4876  0.4910  0.4910  0.2118  0.2118  0.1123
  0.1226  0.1526  0.1420  0.1420

 Free energy of the ion-electron system (eV)
  ---------------------------------------------------
  alpha Z        PSCENC =      1422.94265788
  Ewald energy   TEWEN  =    150133.20416644
  -Hartree energ DENC   =   -269697.33521571
  -exchange      EXHF   =         0.00000000
  -V(xc)+E(xc)   XCENC  =      3652.10385128
  PAW double counting   =    142072.51066425  -147085.01876201
  entropy T*S    EENTRO =        -1.07629228
  eigenvalues    EBANDS =    -16843.94765057
  atomic energy  EATOM  =    136002.60505376
  Solvation  Ediel_sol  =         0.00000000
  ---------------------------------------------------
  free energy    TOTEN  =      -344.01152695 eV

  energy without entropy =     -342.93523467  energy(sigma->0) =     -343.47338081


--------------------------------------------------------------------------------------------------------




--------------------------------------- Iteration      1(  20)  ---------------------------------------


    POTLOK:  cpu time    0.3194: real time    0.3195
    SETDIJ:  cpu time    0.0168: real time    0.0168
     EDDAV:  cpu time    9.9661: real time    9.9691
       DOS:  cpu time    0.0012: real time    0.0012
    CHARGE:  cpu time    0.3100: real time    0.3100
    MIXING:  cpu time    0.0171: real time    0.0171
    --------------------------------------------
      LOOP:  cpu time   10.6306: real time   10.6338

 eigenvalue-minimisations  :  1440
 total energy-change (2. order) : 0.8750525E+00  (-0.1038924E+00)
 number of electron     791.9998469 magnetization 
 augmentation part      311.5825812 magnetization 

 Broyden mixing:
  rms(total) = 0.65307E+00    rms(broyden)= 0.65213E+00
  rms(prec ) = 0.75760E+00
  weight for this iteration     100.00

 eigenvalues of (default mixing * dielectric matrix)
  average eigenvalue GAMMA=   0.5811
  2.0145  1.7016  1.7016  0.5295  0.5295  0.4852  0.4852  0.2271  0.2109  0.1657
  0.1125  0.1221  0.1403  0.1403  0.1499

 Free energy of the ion-electron system (eV)
  ---------------------------------------------------
  alpha Z        PSCENC =      1422.94265788
  Ewald energy   TEWEN  =    150133.20416644
  -Hartree energ DENC   =   -269731.46503841
  -exchange      EXHF   =         0.00000000
  -V(xc)+E(xc)   XCENC  =      3652.42417766
  PAW double counting   =    141188.83199912  -146191.30351075
  entropy T*S    EENTRO =        -1.08809127
  eigenvalues    EBANDS =    -16819.28788888
  atomic energy  EATOM  =    136002.60505376
  Solvation  Ediel_sol  =         0.00000000
  ---------------------------------------------------
  free energy    TOTEN  =      -343.13647444 eV

  energy without entropy =     -342.04838318  energy(sigma->0) =     -342.59242881


--------------------------------------------------------------------------------------------------------




--------------------------------------- Iteration      1(  21)  ---------------------------------------


    POTLOK:  cpu time    0.3192: real time    0.3192
    SETDIJ:  cpu time    0.0168: real time    0.0168
     EDDAV:  cpu time    8.9861: real time    8.9899
       DOS:  cpu time    0.0011: real time    0.0012
    CHARGE:  cpu time    0.2952: real time    0.2952
    MIXING:  cpu time    0.0184: real time    0.0184
    --------------------------------------------
      LOOP:  cpu time    9.6369: real time    9.6407

 eigenvalue-minimisations  :  1256
 total energy-change (2. order) : 0.1489987E+00  (-0.5190069E-01)
 number of electron     791.9998458 magnetization 
 augmentation part      311.5509475 magnetization 

 Broyden mixing:
  rms(total) = 0.41095E+00    rms(broyden)= 0.41076E+00
  rms(prec ) = 0.45031E+00
  weight for this iteration     100.00

 eigenvalues of (default mixing * dielectric matrix)
  average eigenvalue GAMMA=   0.5601
  1.9926  1.7129  1.7129  0.5201  0.5201  0.4487  0.4487  0.2632  0.2632  0.2058
  0.2058  0.1496  0.1419  0.1419  0.1123  0.1222

 Free energy of the ion-electron system (eV)
  ---------------------------------------------------
  alpha Z        PSCENC =      1422.94265788
  Ewald energy   TEWEN  =    150133.20416644
  -Hartree energ DENC   =   -269741.72931546
  -exchange      EXHF   =         0.00000000
  -V(xc)+E(xc)   XCENC  =      3652.46299434
  PAW double counting   =    140964.53099121  -145964.19603114
  entropy T*S    EENTRO =        -1.10396322
  eigenvalues    EBANDS =    -16811.70402961
  atomic energy  EATOM  =    136002.60505376
  Solvation  Ediel_sol  =         0.00000000
  ---------------------------------------------------
  free energy    TOTEN  =      -342.98747579 eV

  energy without entropy =     -341.88351257  energy(sigma->0) =     -342.43549418


--------------------------------------------------------------------------------------------------------




--------------------------------------- Iteration      1(  22)  ---------------------------------------


    POTLOK:  cpu time    0.3208: real time    0.3211
    SETDIJ:  cpu time    0.0168: real time    0.0168
     EDDAV:  cpu time    7.7258: real time    7.7268
       DOS:  cpu time    0.0015: real time    0.0015
    CHARGE:  cpu time    0.3004: real time    0.3004
    MIXING:  cpu time    0.0191: real time    0.0191
    --------------------------------------------
      LOOP:  cpu time    8.3844: real time    8.3857

 eigenvalue-minimisations  :  1056
 total energy-change (2. order) : 0.9251807E-02  (-0.1043907E-01)
 number of electron     791.9998459 magnetization 
 augmentation part      311.5794380 magnetization 

 Broyden mixing:
  rms(total) = 0.39233E+00    rms(broyden)= 0.39230E+00
  rms(prec ) = 0.42846E+00
  weight for this iteration     100.00

 eigenvalues of (default mixing * dielectric matrix)
  average eigenvalue GAMMA=   0.5783
  1.9124  1.7532  1.7532  0.6854  0.6854  0.4735  0.4735  0.4955  0.3467  0.2108
  0.2108  0.1652  0.1124  0.1220  0.1417  0.1417  0.1475

 Free energy of the ion-electron system (eV)
  ---------------------------------------------------
  alpha Z        PSCENC =      1422.94265788
  Ewald energy   TEWEN  =    150133.20416644
  -Hartree energ DENC   =   -269744.00628687
  -exchange      EXHF   =         0.00000000
  -V(xc)+E(xc)   XCENC  =      3652.43848938
  PAW double counting   =    140893.71788720  -145892.58312920
  entropy T*S    EENTRO =        -1.10563535
  eigenvalues    EBANDS =    -16810.19142724
  atomic energy  EATOM  =    136002.60505376
  Solvation  Ediel_sol  =         0.00000000
  ---------------------------------------------------
  free energy    TOTEN  =      -342.97822398 eV

  energy without entropy =     -341.87258864  energy(sigma->0) =     -342.42540631


--------------------------------------------------------------------------------------------------------




--------------------------------------- Iteration      1(  23)  ---------------------------------------


    POTLOK:  cpu time    0.3197: real time    0.3197
    SETDIJ:  cpu time    0.0167: real time    0.0167
     EDDAV:  cpu time    8.5260: real time    8.5273
       DOS:  cpu time    0.0012: real time    0.0012
    CHARGE:  cpu time    0.2958: real time    0.2958
    MIXING:  cpu time    0.0191: real time    0.0192
    --------------------------------------------
      LOOP:  cpu time    9.1785: real time    9.1799

 eigenvalue-minimisations  :  1176
 total energy-change (2. order) :-0.8440054E-02  (-0.8533267E-02)
 number of electron     791.9998458 magnetization 
 augmentation part      311.6143599 magnetization 

 Broyden mixing:
  rms(total) = 0.39166E+00    rms(broyden)= 0.39152E+00
  rms(prec ) = 0.44759E+00
  weight for this iteration     100.00

 eigenvalues of (default mixing * dielectric matrix)
  average eigenvalue GAMMA=   0.6079
  1.9162  1.7018  1.7018  1.0813  1.0813  0.5279  0.5279  0.4765  0.4765  0.2321
  0.1966  0.1966  0.1124  0.1607  0.1221  0.1481  0.1415  0.1415

 Free energy of the ion-electron system (eV)
  ---------------------------------------------------
  alpha Z        PSCENC =      1422.94265788
  Ewald energy   TEWEN  =    150133.20416644
  -Hartree energ DENC   =   -269751.73695197
  -exchange      EXHF   =         0.00000000
  -V(xc)+E(xc)   XCENC  =      3652.42847203
  PAW double counting   =    140670.04233164  -145666.52767802
  entropy T*S    EENTRO =        -1.11554889
  eigenvalues    EBANDS =    -16804.82916691
  atomic energy  EATOM  =    136002.60505376
  Solvation  Ediel_sol  =         0.00000000
  ---------------------------------------------------
  free energy    TOTEN  =      -342.98666404 eV

  energy without entropy =     -341.87111515  energy(sigma->0) =     -342.42888959


--------------------------------------------------------------------------------------------------------




--------------------------------------- Iteration      1(  24)  ---------------------------------------


    POTLOK:  cpu time    0.3205: real time    0.3205
    SETDIJ:  cpu time    0.0167: real time    0.0167
     EDDAV:  cpu time    8.7750: real time    8.7768
       DOS:  cpu time    0.0011: real time    0.0011
    CHARGE:  cpu time    0.2929: real time    0.2930
    MIXING:  cpu time    0.0216: real time    0.0216
    --------------------------------------------
      LOOP:  cpu time    9.4278: real time    9.4297

 eigenvalue-minimisations  :  1216
 total energy-change (2. order) : 0.2601161E-01  (-0.1467384E-01)
 number of electron     791.9998456 magnetization 
 augmentation part      311.9072930 magnetization 

 Broyden mixing:
  rms(total) = 0.33060E+00    rms(broyden)= 0.33037E+00
  rms(prec ) = 0.39795E+00
  weight for this iteration     100.00

 eigenvalues of (default mixing * dielectric matrix)
  average eigenvalue GAMMA=   0.6267
  1.8571  1.5161  1.5161  1.5662  1.5662  0.5957  0.5957  0.4725  0.4725  0.3255
  0.2122  0.1979  0.1979  0.1124  0.1220  0.1424  0.1424  0.1546  0.1427

 Free energy of the ion-electron system (eV)
  ---------------------------------------------------
  alpha Z        PSCENC =      1422.94265788
  Ewald energy   TEWEN  =    150133.20416644
  -Hartree energ DENC   =   -269753.81564591
  -exchange      EXHF   =         0.00000000
  -V(xc)+E(xc)   XCENC  =      3652.33276496
  PAW double counting   =    140637.06865498  -145633.01350313
  entropy T*S    EENTRO =        -1.09001837
  eigenvalues    EBANDS =    -16803.19478305
  atomic energy  EATOM  =    136002.60505376
  Solvation  Ediel_sol  =         0.00000000
  ---------------------------------------------------
  free energy    TOTEN  =      -342.96065242 eV

  energy without entropy =     -341.87063405  energy(sigma->0) =     -342.41564324


--------------------------------------------------------------------------------------------------------




--------------------------------------- Iteration      1(  25)  ---------------------------------------


    POTLOK:  cpu time    0.3223: real time    0.3223
    SETDIJ:  cpu time    0.0176: real time    0.0176
     EDDAV:  cpu time    9.0050: real time    9.0065
       DOS:  cpu time    0.0012: real time    0.0012
    CHARGE:  cpu time    0.3021: real time    0.3021
    MIXING:  cpu time    0.0207: real time    0.0207
    --------------------------------------------
      LOOP:  cpu time    9.6688: real time    9.6703

 eigenvalue-minimisations  :  1312
 total energy-change (2. order) : 0.1071617E-02  (-0.1661067E-01)
 number of electron     791.9998454 magnetization 
 augmentation part      312.0847009 magnetization 

 Broyden mixing:
  rms(total) = 0.33312E+00    rms(broyden)= 0.33288E+00
  rms(prec ) = 0.38626E+00
  weight for this iteration     100.00

 eigenvalues of (default mixing * dielectric matrix)
  average eigenvalue GAMMA=   0.6469
  2.2875  2.2875  1.5921  1.5921  0.8507  0.8507  0.4712  0.4712  0.4625  0.4625
  0.2206  0.2037  0.2037  0.1124  0.1700  0.1220  0.1428  0.1428  0.1415  0.1501

 Free energy of the ion-electron system (eV)
  ---------------------------------------------------
  alpha Z        PSCENC =      1422.94265788
  Ewald energy   TEWEN  =    150133.20416644
  -Hartree energ DENC   =   -269764.01088572
  -exchange      EXHF   =         0.00000000
  -V(xc)+E(xc)   XCENC  =      3652.25284446
  PAW double counting   =    140584.06244552  -145579.12222067
  entropy T*S    EENTRO =        -1.11310067
  eigenvalues    EBANDS =    -16793.78054182
  atomic energy  EATOM  =    136002.60505376
  Solvation  Ediel_sol  =         0.00000000
  ---------------------------------------------------
  free energy    TOTEN  =      -342.95958081 eV

  energy without entropy =     -341.84648014  energy(sigma->0) =     -342.40303047


[...]
    FORCOR:  cpu time    0.4241: real time    0.4242
    FORHAR:  cpu time    0.1838: real time    0.1838
    MIXING:  cpu time    0.0363: real time    0.0363
    OFIELD:  cpu time    0.0001: real time    0.0001

  FORCE on cell =-STRESS in cart. coord.  units (eV):
  Direction    XX          YY          ZZ          XY          YZ          ZX
  --------------------------------------------------------------------------------------
  Alpha Z  1422.94266  1422.94266  1422.94266
  Ewald  201161.38536201063.45975************     0.00000     0.00000  1194.70272
  Hartree234993.14760235289.24994************    -0.00003     0.00022   906.18099
  E(xc)   -5052.93736 -5053.77870 -5061.62125    -0.00003     0.00002     0.67360
  Local  ************************439919.96110     0.00020    -0.00039 -2086.76621
  n-local  -574.53835  -587.27814  -594.16604    -0.03465    -0.00774    -0.68037
  augment  5776.59761  5798.23360  5808.63495     0.00188     0.00003    -6.87185
  Kinetic 11063.83110 11089.82371 11204.49577     0.00062    -0.00062   -11.52163
  Fock        0.00000     0.00000     0.00000     0.00000     0.00000     0.00000
  -------------------------------------------------------------------------------------
  Total     112.05846   111.37934   145.73208     0.00000     0.00000    -4.28275
  in kB      68.67702    68.26080    89.31449     0.00000     0.00000    -2.62476
  external pressure =       75.42 kB  Pullay stress =        0.00 kB


 VOLUME and BASIS-vectors are now :
 -----------------------------------------------------------------------------
  energy-cutoff  :      450.00
  volume of cell :     2614.23
      direct lattice vectors                 reciprocal lattice vectors
    16.884694054  0.000000000  0.000000000     0.059225237  0.000000000  0.000000000
     0.000000000  9.578410000  0.000000000     0.000000000  0.104401461  0.000000000
     0.000000000  0.000000000 16.164311218     0.000000000  0.000000000  0.061864684

  length of vectors
    16.884694054  9.578410000 16.164311218     0.059225237  0.104401461  0.061864684


 FORCES acting on ions
    electron-ion (+dipol)            ewald-force                    non-local-force                 convergence-correction
 -----------------------------------------------------------------------------------------------
   0.474E+03 -.893E-03 0.212E+04   -.478E+03 -.216E-06 -.212E+04   0.420E+01 0.000E+00 0.593E+01   -.253E+00 -.170E-05 -.282E+00
   0.356E+03 -.729E-03 -.283E+04   -.360E+03 -.434E-07 0.283E+04   0.380E+01 0.000E+00 0.144E+01   0.249E-01 -.341E-06 0.588E-02
   0.454E+03 -.109E-02 0.393E+04   -.458E+03 0.191E-07 -.393E+04   0.348E+01 0.000E+00 0.395E+01   -.797E-01 0.471E-05 -.199E+00
   0.838E+03 -.837E-03 -.451E+03   -.845E+03 0.224E-07 0.452E+03   0.502E+01 0.000E+00 -.234E+00   -.145E+00 0.424E-05 0.799E-03
   0.678E+02 -.814E-03 0.261E+04   -.683E+02 0.413E-07 -.261E+04   0.121E+01 0.000E+00 0.630E+01   0.229E+00 -.405E-05 -.201E+00
   0.266E+03 -.803E-03 -.156E+04   -.268E+03 -.976E-07 0.156E+04   0.187E+01 0.000E+00 -.436E+01   0.468E-01 -.476E-05 -.221E+00
   0.406E+03 -.849E-03 0.170E+04   -.411E+03 0.196E-07 -.170E+04   0.468E+01 0.000E+00 0.591E+01   0.983E-01 0.203E-05 -.747E-01
   0.603E+03 -.695E-03 -.306E+04   -.608E+03 0.149E-07 0.307E+04   0.312E+01 0.000E+00 -.361E+01   0.202E+00 0.537E-07 0.135E+00
   0.397E+03 -.765E-03 0.112E+04   -.402E+03 0.497E-08 -.112E+04   0.427E+01 0.000E+00 0.289E+01   0.129E-01 -.641E-06 0.477E+00
   -.482E+02 -.905E-03 -.329E+04   0.448E+02 0.179E-07 0.329E+04   0.446E+01 0.000E+00 -.375E+00   -.627E-02 0.824E-06 0.274E+00
   -.339E+03 -.799E-03 0.194E+04   0.343E+03 0.540E-06 -.194E+04   -.252E+01 0.000E+00 0.379E+01   -.175E-01 0.634E-05 -.321E+00
   0.165E+03 -.842E-03 -.217E+04   -.168E+03 0.181E-06 0.218E+04   0.230E+01 0.000E+00 -.603E+01   -.548E-01 0.471E-05 -.100E+00
   -.596E+03 0.209E+03 0.254E+04   0.602E+03 -.211E+03 -.255E+04   -.513E+01 0.321E+01 0.602E+01   0.198E-01 -.260E-01 -.127E+00
   0.137E+02 0.455E+03 -.213E+04   -.126E+02 -.457E+03 0.213E+04   -.238E+01 0.126E+01 -.324E+01   0.385E+00 0.664E-01 0.173E+00
   -.134E+03 0.512E+03 0.679E+03   0.136E+03 -.518E+03 -.681E+03   -.659E+00 0.518E+01 0.194E+01   -.989E-01 -.143E+00 -.151E+00
   -.148E+03 0.138E+03 -.347E+04   0.151E+03 -.142E+03 0.347E+04   -.327E+01 0.464E+01 0.173E+01   -.142E+00 -.795E-01 0.894E-01
   0.111E+02 0.666E+03 0.363E+04   -.127E+02 -.661E+03 -.363E+04   0.172E+01 -.550E+01 -.168E+01   0.685E-02 0.239E+00 -.323E+00
   -.425E+03 0.456E+03 -.761E+03   0.429E+03 -.461E+03 0.764E+03   -.241E+01 0.481E+01 -.329E+01   -.119E+00 0.160E+00 -.455E+00
   -.453E+03 0.216E+03 0.220E+04   0.457E+03 -.219E+03 -.220E+04   -.325E+01 0.331E+01 0.453E+01   0.982E-01 -.251E-01 0.244E-02
   -.433E+03 0.396E+03 -.253E+04   0.435E+03 -.400E+03 0.253E+04   -.160E+01 0.314E+01 -.311E+01   0.424E-01 -.156E+00 0.935E-01
   0.117E+03 0.505E+03 0.170E+04   -.118E+03 -.508E+03 -.170E+04   0.133E+01 0.227E+01 0.428E+01   -.594E-01 -.508E-02 0.350E-01
   -.600E+01 0.107E+03 -.292E+04   0.712E+01 -.110E+03 0.291E+04   -.100E+01 0.366E+01 0.137E+01   -.252E+00 0.573E-01 0.112E+00
   0.349E+03 -.473E+03 0.262E+04   -.351E+03 0.475E+03 -.262E+04   0.126E+01 -.182E+01 0.765E+01   -.111E+00 -.475E-01 -.272E+00
   -.196E+03 0.318E+03 -.160E+04   0.199E+03 -.321E+03 0.160E+04   -.179E+01 0.281E+01 -.530E+01   0.906E-01 -.815E-01 -.209E+00
   -.596E+03 -.209E+03 0.254E+04   0.602E+03 0.211E+03 -.255E+04   -.513E+01 -.321E+01 0.602E+01   0.198E-01 0.260E-01 -.127E+00
   0.137E+02 -.455E+03 -.213E+04   -.126E+02 0.457E+03 0.213E+04   -.238E+01 -.126E+01 -.324E+01   0.385E+00 -.664E-01 0.173E+00
   -.134E+03 -.512E+03 0.679E+03   0.136E+03 0.518E+03 -.681E+03   -.659E+00 -.518E+01 0.194E+01   -.989E-01 0.143E+00 -.151E+00
   -.148E+03 -.138E+03 -.347E+04   0.151E+03 0.142E+03 0.347E+04   -.327E+01 -.464E+01 0.173E+01   -.142E+00 0.795E-01 0.894E-01
   0.111E+02 -.666E+03 0.363E+04   -.127E+02 0.661E+03 -.363E+04   0.172E+01 0.550E+01 -.168E+01   0.685E-02 -.239E+00 -.323E+00
   -.425E+03 -.456E+03 -.761E+03   0.429E+03 0.461E+03 0.764E+03   -.241E+01 -.481E+01 -.329E+01   -.119E+00 -.160E+00 -.455E+00
   -.453E+03 -.216E+03 0.220E+04   0.457E+03 0.219E+03 -.220E+04   -.325E+01 -.331E+01 0.453E+01   0.982E-01 0.251E-01 0.244E-02
   -.433E+03 -.396E+03 -.253E+04   0.435E+03 0.400E+03 0.253E+04   -.160E+01 -.314E+01 -.311E+01   0.424E-01 0.156E+00 0.935E-01
   0.117E+03 -.505E+03 0.170E+04   -.118E+03 0.508E+03 -.170E+04   0.133E+01 -.227E+01 0.428E+01   -.594E-01 0.507E-02 0.350E-01
   -.600E+01 -.107E+03 -.292E+04   0.712E+01 0.110E+03 0.291E+04   -.100E+01 -.366E+01 0.137E+01   -.252E+00 -.573E-01 0.112E+00
   0.349E+03 0.473E+03 0.262E+04   -.351E+03 -.475E+03 -.262E+04   0.126E+01 0.182E+01 0.765E+01   -.111E+00 0.475E-01 -.272E+00
   -.196E+03 -.318E+03 -.160E+04   0.199E+03 0.321E+03 0.160E+04   -.179E+01 -.281E+01 -.530E+01   0.906E-01 0.815E-01 -.209E+00
   0.918E+02 -.239E-04 -.157E+04   -.910E+02 -.285E-08 0.157E+04   -.122E+01 0.000E+00 -.134E+01   0.282E+00 0.305E-06 0.591E-01
   -.276E+03 -.102E-04 0.456E+03   0.277E+03 0.121E-07 -.460E+03   0.507E-01 0.000E+00 0.134E+01   0.904E-01 -.198E-06 0.526E-01
   -.222E+03 -.368E-04 0.144E+04   0.223E+03 0.123E-06 -.145E+04   -.467E+00 0.000E+00 0.180E+01   -.732E-02 0.185E-05 -.139E+00
   -.134E+03 0.736E-05 -.816E+03   0.135E+03 0.496E-07 0.821E+03   0.108E+01 0.000E+00 -.383E+01   -.532E-01 0.183E-05 0.388E-02
   -.260E+03 0.505E-04 0.827E+03   0.262E+03 -.496E-06 -.830E+03   0.326E+00 0.000E+00 0.189E+01   -.199E+00 -.167E-05 -.202E+00
   -.828E+02 -.219E-05 -.108E+04   0.843E+02 -.466E-07 0.109E+04   -.526E+00 0.000E+00 -.250E+01   -.847E-01 -.110E-05 -.589E-01
   -.289E+03 -.249E-04 0.134E+03   0.291E+03 -.256E-08 -.134E+03   0.294E+00 0.000E+00 -.139E+01   0.174E-01 0.674E-06 0.667E-02
   -.753E+02 -.180E-04 -.172E+04   0.756E+02 0.771E-08 0.172E+04   0.256E+00 0.000E+00 -.730E+00   0.226E-01 -.593E-07 0.613E-01
   0.103E+03 0.690E-05 0.165E+04   -.103E+03 0.269E-07 -.165E+04   0.490E+00 0.000E+00 0.192E+01   0.265E-01 -.110E-05 -.650E-01
   -.734E+02 0.204E-05 -.518E+03   0.742E+02 0.128E-07 0.523E+03   0.495E+00 0.000E+00 -.445E+01   -.291E-01 -.127E-05 0.446E-02
   -.378E+02 -.415E-04 0.757E+03   0.392E+02 0.226E-08 -.760E+03   -.906E+00 0.000E+00 0.183E+01   -.201E-01 0.805E-06 -.996E-01
   -.373E+02 0.336E-05 -.123E+04   0.393E+02 0.180E-07 0.123E+04   -.114E+01 0.000E+00 -.168E+01   0.823E-01 0.145E-06 0.370E-01
   0.686E+01 -.101E+03 0.170E+04   -.655E+01 0.102E+03 -.170E+04   -.540E+00 -.126E+00 0.262E+01   -.680E-01 0.191E-01 -.663E-01
   0.755E+02 -.139E+03 -.308E+03   -.760E+02 0.140E+03 0.312E+03   -.234E+00 0.902E+00 -.224E+01   0.376E-02 0.349E-01 -.799E-01
   0.223E+03 -.161E+03 0.922E+03   -.223E+03 0.162E+03 -.927E+03   -.231E-01 0.412E+00 0.254E+01   -.230E-01 -.282E-02 -.312E-01
   0.199E+03 0.645E+02 -.112E+04   -.200E+03 -.638E+02 0.113E+04   -.159E+00 -.237E+00 -.296E+01   -.816E-01 -.759E-02 0.187E-01
   0.123E+03 -.203E+03 0.635E+03   -.123E+03 0.205E+03 -.638E+03   -.103E+01 -.813E+00 0.305E+01   0.110E+00 -.873E-01 -.179E+00
   -.144E+03 0.518E+02 -.140E+04   0.145E+03 -.506E+02 0.140E+04   -.817E+00 -.893E+00 -.247E+01   -.244E-01 -.477E-01 -.147E-01
   0.148E+03 -.181E+03 -.392E+03   -.149E+03 0.184E+03 0.393E+03   -.317E+00 -.120E+01 -.866E+00   0.739E-01 0.234E-01 0.367E-01
   -.572E+02 -.268E+02 0.142E+04   0.570E+02 0.262E+02 -.143E+04   0.398E+00 0.121E+01 0.379E+01   0.256E-01 0.373E-02 -.469E-01
   0.673E+02 -.786E+02 0.123E+04   -.686E+02 0.783E+02 -.124E+04   0.664E+00 0.105E+01 0.373E+01   0.918E-02 0.162E-01 0.115E-02
   0.336E+02 -.125E+03 -.725E+03   -.338E+02 0.127E+03 0.727E+03   -.318E+00 -.157E+01 -.951E+00   -.108E+00 -.148E+00 0.127E+00
   0.435E+02 -.440E+02 0.397E+03   -.454E+02 0.463E+02 -.399E+03   0.149E+01 -.152E+01 0.804E+00   -.116E-01 0.102E+00 -.145E+00
   0.928E+01 -.246E+03 -.153E+04   -.102E+02 0.249E+03 0.153E+04   0.519E+00 -.239E+01 -.717E+00   0.521E-02 0.451E-01 0.625E-01
   0.223E+03 0.161E+03 0.922E+03   -.223E+03 -.162E+03 -.927E+03   -.231E-01 -.412E+00 0.254E+01   -.230E-01 0.282E-02 -.312E-01
   0.199E+03 -.645E+02 -.112E+04   -.200E+03 0.638E+02 0.113E+04   -.159E+00 0.237E+00 -.296E+01   -.816E-01 0.759E-02 0.187E-01
   0.686E+01 0.101E+03 0.170E+04   -.655E+01 -.102E+03 -.170E+04   -.540E+00 0.126E+00 0.262E+01   -.680E-01 -.191E-01 -.663E-01
   0.755E+02 0.139E+03 -.308E+03   -.760E+02 -.140E+03 0.312E+03   -.234E+00 -.902E+00 -.224E+01   0.376E-02 -.349E-01 -.799E-01
   0.148E+03 0.181E+03 -.392E+03   -.149E+03 -.184E+03 0.393E+03   -.317E+00 0.120E+01 -.866E+00   0.739E-01 -.234E-01 0.367E-01
   -.572E+02 0.268E+02 0.142E+04   0.570E+02 -.262E+02 -.143E+04   0.398E+00 -.121E+01 0.379E+01   0.256E-01 -.373E-02 -.469E-01
   0.123E+03 0.203E+03 0.635E+03   -.123E+03 -.205E+03 -.638E+03   -.103E+01 0.813E+00 0.305E+01   0.110E+00 0.873E-01 -.179E+00
   -.144E+03 -.518E+02 -.140E+04   0.145E+03 0.506E+02 0.140E+04   -.817E+00 0.893E+00 -.247E+01   -.244E-01 0.477E-01 -.147E-01
   0.435E+02 0.440E+02 0.397E+03   -.454E+02 -.463E+02 -.399E+03   0.149E+01 0.152E+01 0.804E+00   -.116E-01 -.102E+00 -.145E+00
   0.928E+01 0.246E+03 -.153E+04   -.102E+02 -.249E+03 0.153E+04   0.519E+00 0.239E+01 -.717E+00   0.521E-02 -.451E-01 0.625E-01
   0.673E+02 0.786E+02 0.123E+04   -.686E+02 -.783E+02 -.124E+04   0.664E+00 -.105E+01 0.373E+01   0.918E-02 -.162E-01 0.115E-02
   0.336E+02 0.125E+03 -.725E+03   -.338E+02 -.127E+03 0.727E+03   -.318E+00 0.157E+01 -.951E+00   -.108E+00 0.148E+00 0.127E+00
 -----------------------------------------------------------------------------------------------
   0.707E+00 -.103E-01 -.393E+02   -.185E-12 0.000E+00 0.375E-11   -.435E+00 -.133E-14 0.429E+02   -.269E+00 0.996E-06 -.354E+01
 
 
 POSITION                                       TOTAL-FORCE (eV/Angst)
 -----------------------------------------------------------------------------------
     13.17084      1.39171      1.56603         0.193472     -0.000000      0.995322
     13.48317      1.39171      4.22760         0.191721     -0.000000      0.713383
      5.89575      6.18092      0.81127        -0.633220     -0.000000     -2.049550
      5.02033      6.18092      3.10830        -1.410901     -0.000000      0.767079
      6.65275      1.39171      1.65784         0.878530     -0.000000     -0.181673
      7.93172      1.39171      3.62239        -0.319052     -0.000000     -0.843216
     16.08224      6.18092      2.08012        -0.227729     -0.000000      1.735927
     16.44540      6.18092      4.79927        -1.912678     -0.000000      0.702523
      2.10894      1.39171      2.59421        -0.433912     -0.000000      0.594153
      1.84300      1.39171      4.93905         1.034942     -0.000000      1.085090
      9.59600      6.18092      2.20149         0.646928     -0.000000     -0.576680
     10.84312      6.18092      4.13648        -0.707333     -0.000000     -1.282621
     15.41452      9.55425      1.53836         0.757389      0.638024      0.072729
     15.93352      0.12782      4.01617        -0.947892     -0.899475     -0.000306
      7.17375      4.91558      2.70082         0.828538     -0.769980     -0.059888
      7.88758      4.45354      4.99968        -0.174731      0.623324      0.835194
      9.57026      0.16907      0.68686         0.108722     -0.448972     -1.230540
     10.08514      0.12638      3.21491         0.733572     -0.474602     -1.591803
      1.36715      4.85418      2.01346         0.657600      0.432957     -0.667751
      1.90550      4.87362      4.47139         0.933914     -1.294199      0.770673
      4.26235      0.12638      2.18673         0.156947     -0.440189      1.131415
      4.93864      9.31469      4.54727        -0.135071      0.236839      0.961760
     13.06154      4.13585      1.52789        -0.823154      0.844329      0.226023
     12.99653      4.91558      3.72900         0.638739      0.105550     -1.228323
     15.41452      2.80759      1.53836         0.757389     -0.638024      0.072729
     15.93352      2.65561      4.01617        -0.947892      0.899475     -0.000306
      7.17375      7.44626      2.70082         0.828538      0.769980     -0.059888
      7.88758      7.90829      4.99968        -0.174731     -0.623324      0.835194
      9.57026      2.61435      0.68686         0.108722      0.448972     -1.230540
     10.08514      2.65705      3.21491         0.733572      0.474602     -1.591803
      1.36715      7.50766      2.01346         0.657600     -0.432957     -0.667751
      1.90550      7.48822      4.47139         0.933914      1.294199      0.770673
      4.26235      2.65705      2.18673         0.156947      0.440189      1.131415
      4.93864      3.04715      4.54727        -0.135071     -0.236839      0.961760
     13.06154      8.22599      1.52789        -0.823154     -0.844329      0.226023
     12.99653      7.44626      3.72900         0.638739     -0.105550     -1.228323
     16.76319      1.39171      5.41852        -0.159764     -0.000000      3.196486
     16.74052      1.39171      2.56568         1.883629     -0.000000     -2.438930
      7.89008      6.18092      1.11910         1.458022     -0.000000     -3.216691
      8.59001      6.18092      4.10795         1.312732     -0.000000      1.171333
     10.91773      1.39171      1.53750         2.118838     -0.000000     -1.047289
     11.42445      1.39171      4.24112         0.843593     -0.000000      2.558202
      2.76722      6.18092      3.07977         2.013847     -0.000000     -1.866850
      1.27649      6.18092      5.91567         0.584048     -0.000000      4.198391
      4.87665      1.39171      0.67947         0.246629     -0.000000     -4.015838
      5.67861      1.39171      3.59386         1.224540     -0.000000      0.926007
     13.82913      6.18092      2.05159         0.549828     -0.000000     -1.797237
     14.34585      6.18092      4.74415         0.949592     -0.000000      2.532799
     13.84031      2.81687      0.21320        -0.294757      0.890718     -3.900606
     13.99844      3.00295      3.08454        -0.759725      1.257788      1.726348
      5.26559      7.86738      1.79227        -0.978816      0.629929     -1.614343
      5.94148      7.55032      4.48766        -1.027486      0.467894      1.964001
      8.17565      3.00295      2.05636        -1.723822      0.934278     -0.039424
      8.90270      2.73608      4.90791         0.220161      0.226166      2.927785
      0.02514      7.79215      3.59863        -1.451588      1.559842      0.470280
     16.49632      7.85175      0.93035         0.240092      0.579884     -2.819957
      2.36467      3.10425      1.43049        -0.632884      0.730152     -2.850908
      2.93654      3.00295      4.11272        -0.606558     -0.085197      1.204686
     11.08705      7.79215      2.57045        -0.450838      0.891184     -1.018903
     11.74204      7.57359      5.30267        -0.431502      1.203580      3.801796
      5.26559      4.49446      1.79227        -0.978816     -0.629929     -1.614343
      5.94148      4.81152      4.48766        -1.027486     -0.467894      1.964001
     13.84031      9.54497      0.21320        -0.294757     -0.890718     -3.900606
     13.99844      9.35889      3.08454        -0.759725     -1.257788      1.726348
      0.02514      4.56969      3.59863        -1.451588     -1.559842      0.470280
     16.49632      4.51009      0.93035         0.240092     -0.579884     -2.819957
      8.17565      9.35889      2.05636        -1.723822     -0.934278     -0.039424
      8.90270      0.04735      4.90791         0.220161     -0.226166      2.927785
     11.08705      4.56969      2.57045        -0.450838     -0.891184     -1.018903
     11.74204      4.78825      5.30267        -0.431502     -1.203580      3.801796
      2.36467      9.25758      1.43049        -0.632884     -0.730152     -2.850908
      2.93654      9.35889      4.11272        -0.606558      0.085197      1.204686
 -----------------------------------------------------------------------------------
    total drift:                                0.003190     -0.010273     -0.010179


--------------------------------------------------------------------------------------------------------



  FREE ENERGIE OF THE ION-ELECTRON SYSTEM (eV)
  ---------------------------------------------------
  free  energy   TOTEN  =      -342.90573598 eV

  energy  without entropy=     -341.79556426  energy(sigma->0) =     -342.35065012
 


--------------------------------------------------------------------------------------------------------


    POTLOK:  cpu time    0.3375: real time    0.3378


--------------------------------------------------------------------------------------------------------


     LOOP+:  cpu time  325.7311: real time  325.8362
    4ORBIT:  cpu time    0.0000: real time    0.0000

 total amount of memory used by VASP MPI-rank0    77172. kBytes
=======================================================================

   base      :      30000. kBytes
   nonlr-proj:       2063. kBytes
   fftplans  :       9935. kBytes
   grid      :      16773. kBytes
   one-center:         93. kBytes
   wavefun   :      18308. kBytes
 
  
  
 General timing and accounting informations for this job:
 ========================================================
  
                  Total CPU time used (sec):      328.907
                            User time (sec):      328.547
                          System time (sec):        0.360
                         Elapsed time (sec):      329.251
  
                   Maximum memory used (kb):      210760.
                   Average memory used (kb):           0.
  
                          Minor page faults:       116091
                          Major page faults:            0
                 Voluntary context switches:          247
