LAMMPS (5 Jun 2019)
OMP_NUM_THREADS environment is not set. Defaulting to 1 thread. (../comm.cpp:88)
  using 1 OpenMP thread(s) per MPI task
Reading data file ...
  triclinic box = (0 0 0) to (11.4528 8.70073 20.5008) with tilt (-4.0054 0 0)
  1 by 1 by 1 MPI processor grid
  reading atoms ...
  72 atoms
  read_data CPU = 0.000807066 secs
44 atoms in group bulk
WARNING: Using 'neigh_modify every 1 delay 0 check yes' setting during minimization (../min.cpp:168)
Neighbor list info ...
  update every 1 steps, delay 0 steps, check yes
  max neighbors/atom: 2000, page size: 100000
  master list distance cutoff = 8.5
  ghost atom cutoff = 8.5
  binsize = 4.25, bins = 4 3 5
  1 neighbor lists, perpetual/occasional/extra = 1 0 0
  (1) pair eam/alloy, perpetual
      attributes: half, newton on
      pair build: half/bin/newton/tri
      stencil: half/bin/3d/newton/tri
      bin: standard
Setting up cg style minimization ...
  Unit style    : metal
  Current step  : 0
Per MPI rank memory allocation (min/avg/max) = 4.118 | 4.118 | 4.118 Mbytes
Step Temp E_pair E_mol TotEng Press 
       0            0   -305.97341            0   -305.97341   -123231.42 
      16            0   -322.10361            0   -322.10361   -49490.419 
Loop time of 0.0123417 on 1 procs for 16 steps with 72 atoms

98.5% CPU use with 1 MPI tasks x 1 OpenMP threads

Minimization stats:
  Stopping criterion = energy tolerance
  Energy initial, next-to-last, final = 
        -305.973409676     -322.101337845     -322.103613976
  Force two-norm initial, final = 12.3953 0.204297
  Force max component initial, final = 3.08774 0.0869425
  Final line search alpha, max atom move = 0.554634 0.0482213
  Iterations, force evaluations = 16 27

MPI task timing breakdown:
Section |  min time  |  avg time  |  max time  |%varavg| %total
---------------------------------------------------------------
Pair    | 0.011854   | 0.011854   | 0.011854   |   0.0 | 96.05
Neigh   | 0          | 0          | 0          |   0.0 |  0.00
Comm    | 0.00024782 | 0.00024782 | 0.00024782 |   0.0 |  2.01
Output  | 0          | 0          | 0          |   0.0 |  0.00
Modify  | 1.9792e-05 | 1.9792e-05 | 1.9792e-05 |   0.0 |  0.16
Other   |            | 0.0002199  |            |       |  1.78

Nlocal:    72 ave 72 max 72 min
Histogram: 1 0 0 0 0 0 0 0 0 0
Nghost:    962 ave 962 max 962 min
Histogram: 1 0 0 0 0 0 0 0 0 0
Neighs:    4498 ave 4498 max 4498 min
Histogram: 1 0 0 0 0 0 0 0 0 0

Total # of neighbors = 4498
Ave neighs/atom = 62.4722
Neighbor list builds = 0
Dangerous builds = 0
System init for write_data ...
Total wall time: 0:00:00
