       N       E                     dE             d eps       ncg     rms          rms(c)
DAV:   1     0.133613436782E+05    0.13361E+05   -0.67851E+05  1552   0.166E+03
DAV:   2     0.871369742574E+03   -0.12490E+05   -0.12049E+05  1352   0.535E+02
DAV:   3    -0.455997829597E+03   -0.13274E+04   -0.12419E+04  1464   0.186E+02
DAV:   4    -0.544907169571E+03   -0.88909E+02   -0.87844E+02  1472   0.427E+01
DAV:   5    -0.548527403366E+03   -0.36202E+01   -0.36150E+01  1664   0.920E+00    0.967E+01
DAV:   6    -0.675714067768E+03   -0.12719E+03   -0.13117E+03  1552   0.119E+02    0.187E+02
DAV:   7    -0.518653173152E+03    0.15706E+03   -0.24287E+02  1504   0.705E+01    0.891E+01
DAV:   8    -0.730614427465E+03   -0.21196E+03   -0.17081E+02  1568   0.124E+02    0.202E+02
DAV:   9    -0.571280781417E+03    0.15933E+03   -0.22550E+02  1768   0.652E+01    0.127E+02
DAV:  10    -0.524662428561E+03    0.46618E+02   -0.98523E+01  1840   0.544E+01    0.877E+01
DAV:  11    -0.512643049468E+03    0.12019E+02   -0.10278E+02  1768   0.512E+01    0.929E+01
DAV:  12    -0.505920476044E+03    0.67226E+01   -0.73753E+01  1744   0.377E+01    0.572E+01
DAV:  13    -0.504907169858E+03    0.10133E+01   -0.43509E+01  1624   0.421E+01    0.827E+01
DAV:  14    -0.498043102360E+03    0.68641E+01   -0.23645E+01  1696   0.246E+01    0.479E+01
DAV:  15    -0.492292105329E+03    0.57510E+01   -0.12482E+01  1696   0.196E+01    0.415E+01
DAV:  16    -0.487198556624E+03    0.50935E+01   -0.93945E+00  1744   0.161E+01    0.344E+01
DAV:  17    -0.485500272695E+03    0.16983E+01   -0.73969E+00  1768   0.152E+01    0.282E+01
DAV:  18    -0.483056581129E+03    0.24437E+01   -0.34447E+00  1728   0.113E+01    0.211E+01
DAV:  19    -0.481844219059E+03    0.12124E+01   -0.17723E+00  1744   0.734E+00    0.170E+01
DAV:  20    -0.481523259361E+03    0.32096E+00   -0.12306E+00  1720   0.573E+00    0.164E+01
DAV:  21    -0.481097079782E+03    0.42618E+00   -0.45379E-01  1744   0.331E+00    0.144E+01
DAV:  22    -0.480871436811E+03    0.22564E+00   -0.48732E-01  1888   0.440E+00    0.126E+01
DAV:  23    -0.480884930839E+03   -0.13494E-01   -0.90883E-01  1776   0.567E+00    0.119E+01
DAV:  24    -0.480392336325E+03    0.49259E+00   -0.80770E-01  1768   0.459E+00    0.711E+00
DAV:  25    -0.480396982632E+03   -0.46463E-02   -0.58140E-01  1720   0.452E+00    0.784E+00
DAV:  26    -0.480397950066E+03   -0.96743E-03   -0.46121E-01  1760   0.362E+00    0.783E+00
DAV:  27    -0.480306932442E+03    0.91018E-01   -0.17448E-01  1760   0.185E+00    0.612E+00
DAV:  28    -0.480242244514E+03    0.64688E-01   -0.71599E-02  1744   0.142E+00    0.491E+00
DAV:  29    -0.480206141063E+03    0.36103E-01   -0.71776E-02  1680   0.171E+00    0.393E+00
DAV:  30    -0.480189528674E+03    0.16612E-01   -0.86171E-02  1760   0.175E+00    0.369E+00
DAV:  31    -0.480166734280E+03    0.22794E-01   -0.72459E-02  1640   0.171E+00    0.296E+00
DAV:  32    -0.480144305429E+03    0.22429E-01   -0.43596E-02  1768   0.112E+00    0.216E+00
DAV:  33    -0.480134480713E+03    0.98247E-02   -0.27618E-02  1728   0.990E-01    0.163E+00
DAV:  34    -0.480131223058E+03    0.32577E-02   -0.10967E-02  1736   0.526E-01    0.140E+00
DAV:  35    -0.480128170403E+03    0.30527E-02   -0.51576E-03  1480   0.459E-01    0.113E+00
DAV:  36    -0.480126100315E+03    0.20701E-02   -0.30369E-03  1672   0.317E-01    0.942E-01
DAV:  37    -0.480124435875E+03    0.16644E-02   -0.26253E-03  1672   0.317E-01    0.675E-01
DAV:  38    -0.480123755646E+03    0.68023E-03   -0.20771E-03  1672   0.268E-01    0.436E-01
DAV:  39    -0.480123577641E+03    0.17801E-03   -0.13539E-03  1592   0.228E-01    0.291E-01
DAV:  40    -0.480123816564E+03   -0.23892E-03   -0.62071E-04  1216   0.134E-01    0.248E-01
DAV:  41    -0.480123852043E+03   -0.35479E-04   -0.27363E-04   936   0.107E-01
   1 F= -.48012385E+03 E0= -.47944885E+03  d E =-.135001E+01
