 vasp.6.1.0 28Jan20 (build Mar 31 2020 17:42:31) gamma-only                     
  
 executed on             LinuxIFC date 2020.04.12  20:31:50
 running on   48 total cores
 distrk:  each k-point on   48 cores,    1 groups
 distr:  one band on NCORE=   6 cores,    8 groups


--------------------------------------------------------------------------------------------------------


 INCAR:
 POTCAR:    PAW_PBE Ni_pv 06Sep2000               
 POTCAR:    PAW_PBE S 06Sep2000                   
 POTCAR:    PAW_PBE Ni_pv 06Sep2000               
   VRHFIN =Ni:                                                                                      
   LEXCH  = PE                                                                                      
   EATOM  =  3501.1230 eV,  257.3253 Ry                                                             
                                                                                                    
   TITEL  = PAW_PBE Ni_pv 06Sep2000                                                                 
   LULTRA =        F    use ultrasoft PP ?                                                          
   IUNSCR =        1    unscreen: 0-lin 1-nonlin 2-no                                               
   RPACOR =    1.500    partial core radius                                                         
   POMASS =   58.690; ZVAL   =   16.000    mass and valenz                                          
   RCORE  =    2.000    outmost cutoff radius                                                       
   RWIGS  =    2.000; RWIGS  =    1.058    wigner-seitz radius (au A)                               
   ENMAX  =  367.986; ENMIN  =  275.989 eV                                                          
   RCLOC  =    1.301    cutoff for local pot                                                        
   LCOR   =        T    correct aug charges                                                         
   LPAW   =        T    paw PP                                                                      
   EAUG   =  703.443                                                                                
   DEXC   =    0.000                                                                                
   RMAX   =    2.041    core radius for proj-oper                                                   
   RAUG   =    1.300    factor for augmentation sphere                                              
   RDEP   =    2.103    radius for radial grids                                                     
   RDEPT  =    1.618    core radius for aug-charge                                                  
                                                                                                    
   Atomic configuration                                                                             
    8 entries                                                                                       
     n  l   j            E        occ.                                                              
     1  0  0.50     -8206.4253   2.0000                                                             
     2  0  0.50      -976.1748   2.0000                                                             
     2  1  1.50      -839.0571   6.0000                                                             
     3  0  0.50      -105.9991   2.0000                                                             
     3  1  1.50       -66.4603   6.0000                                                             
     3  2  2.50        -4.6458   9.0000                                                             
     4  0  0.50        -4.4926   1.0000                                                             
     4  3  2.50        -1.3606   0.0000                                                             
   Description                                                                                      
     l       E           TYP  RCUT    TYP  RCUT                                                     
     1    -66.4602962     23  1.700                                                                 
     1     -1.3605826     23  1.700                                                                 
     2     -4.6457867     23  2.000                                                                 
     2     -6.0063693     23  2.000                                                                 
     0     -4.4925576     23  1.900                                                                 
     0     16.3626226     23  1.900                                                                 
  local pseudopotential read in
  partial core-charges read in
  partial kinetic energy density read in
  atomic valenz-charges read in
  non local Contribution for L=           1  read in
    real space projection operators read in
  non local Contribution for L=           1  read in
    real space projection operators read in
  non local Contribution for L=           2  read in
    real space projection operators read in
  non local Contribution for L=           2  read in
    real space projection operators read in
  non local Contribution for L=           0  read in
    real space projection operators read in
  non local Contribution for L=           0  read in
    real space projection operators read in
    PAW grid and wavefunctions read in
 
   number of l-projection  operators is LMAX  =           6
   number of lm-projection operators is LMMAX =          18
 
 POTCAR:    PAW_PBE S 06Sep2000                   
   VRHFIN =S : s2p4                                                                                 
   LEXCH  = PE                                                                                      
   EATOM  =   276.8230 eV,   20.3459 Ry                                                             
                                                                                                    
   TITEL  = PAW_PBE S 06Sep2000                                                                     
   LULTRA =        F    use ultrasoft PP ?                                                          
   IUNSCR =        1    unscreen: 0-lin 1-nonlin 2-no                                               
   RPACOR =    1.500    partial core radius                                                         
   POMASS =   32.066; ZVAL   =    6.000    mass and valenz                                          
   RCORE  =    1.900    outmost cutoff radius                                                       
   RWIGS  =    2.200; RWIGS  =    1.164    wigner-seitz radius (au A)                               
   ENMAX  =  258.689; ENMIN  =  194.016 eV                                                          
   ICORE  =        2    local potential                                                             
   LCOR   =        T    correct aug charges                                                         
   LPAW   =        T    paw PP                                                                      
   EAUG   =  335.092                                                                                
   DEXC   =    0.000                                                                                
   RMAX   =    1.942    core radius for proj-oper                                                   
   RAUG   =    1.300    factor for augmentation sphere                                              
   RDEP   =    1.954    radius for radial grids                                                     
   RDEPT  =    1.744    core radius for aug-charge                                                  
                                                                                                    
   Atomic configuration                                                                             
    6 entries                                                                                       
     n  l   j            E        occ.                                                              
     1  0  0.50     -2405.8406   2.0000                                                             
     2  0  0.50      -211.7007   2.0000                                                             
     2  1  1.50      -156.4958   6.0000                                                             
     3  0  0.50       -17.2562   2.0000                                                             
     3  1  0.50        -7.0085   4.0000                                                             
     3  2  1.50        -6.8029   0.0000                                                             
   Description                                                                                      
     l       E           TYP  RCUT    TYP  RCUT                                                     
     0    -17.2561641     23  1.900                                                                 
     0    -15.8743224     23  1.900                                                                 
     1     -7.0085400     23  1.900                                                                 
     1     -2.7779785     23  1.900                                                                 
     2     -6.8029130     23  1.900                                                                 
  local pseudopotential read in
  partial core-charges read in
  partial kinetic energy density read in
  atomic valenz-charges read in
  non local Contribution for L=           0  read in
    real space projection operators read in
  non local Contribution for L=           0  read in
    real space projection operators read in
  non local Contribution for L=           1  read in
    real space projection operators read in
  non local Contribution for L=           1  read in
    real space projection operators read in
    PAW grid and wavefunctions read in
 
   number of l-projection  operators is LMAX  =           4
   number of lm-projection operators is LMMAX =           8
 
 Optimization of the real space projectors (new method)

 maximal supplied QI-value         = 18.90
 optimisation between [QCUT,QGAM] = [ 10.77, 21.73] = [ 32.49,132.25] Ry 
 Optimized for a Real-space Cutoff    1.38 Angstroem

   l    n(q)    QCUT    max X(q) W(low)/X(q) W(high)/X(q)  e(spline) 
   1      8    10.771     2.836    0.40E-04    0.29E-04    0.12E-06
   1      8    10.771     4.023    0.10E-03    0.48E-04    0.29E-06
   2      8    10.771    73.368    0.42E-03    0.97E-04    0.44E-06
   2      8    10.771    69.010    0.42E-03    0.99E-04    0.45E-06
   0      9    10.771    54.797    0.10E-03    0.56E-04    0.74E-07
   0      9    10.771    24.266    0.89E-04    0.49E-04    0.67E-07
 Optimization of the real space projectors (new method)

 maximal supplied QI-value         = 19.84
 optimisation between [QCUT,QGAM] = [ 10.71, 21.63] = [ 32.15,130.99] Ry 
 Optimized for a Real-space Cutoff    1.19 Angstroem

   l    n(q)    QCUT    max X(q) W(low)/X(q) W(high)/X(q)  e(spline) 
   0      8    10.715   187.594    0.41E-03    0.53E-04    0.66E-07
   0      8    10.715   164.243    0.41E-03    0.53E-04    0.65E-07
   1      7    10.715    67.533    0.19E-03    0.59E-03    0.68E-07
   1      7    10.715    50.729    0.19E-03    0.58E-03    0.67E-07
  PAW_PBE Ni_pv 06Sep2000               :
 energy of atom  1       EATOM=-3501.1230
 kinetic energy error for atom=    0.0925 (will be added to EATOM!!)
  PAW_PBE S 06Sep2000                   :
 energy of atom  2       EATOM= -276.8230
 kinetic energy error for atom=    0.0033 (will be added to EATOM!!)
 
 
 POSCAR: Structure 9 made from 0-21-10.xsd file
  positions in direct lattice
  No initial velocities read in
 exchange correlation table for  LEXCH =        8
   RHO(1)=    0.500       N(1)  =     2000
   RHO(2)=  100.500       N(2)  =     4000
 


--------------------------------------------------------------------------------------------------------


 ion  position               nearest neighbor table
   1  0.638  0.429  0.080-  46 2.25  66 2.26  67 2.36  55 2.36  29 2.53  16 2.53
   2  0.729  0.611  0.200-  47 2.25  55 2.26  67 2.26  68 2.36  56 2.36  17 2.53  30 2.53
   3  0.820  0.793  0.320-  48 2.25  56 2.26  68 2.26  69 2.36  54 2.36  27 2.53  18 2.53
   4  0.911  0.975  0.440-  44 2.25  54 2.26  69 2.26  53 2.36  19 2.53  28 2.53
   5  0.456  0.066  0.280-  49 2.25  74 2.26  57 2.26  70 2.36  58 2.36  31 2.53  23 2.53
   6  0.547  0.248  0.400-  50 2.25  70 2.26  58 2.26  71 2.36  59 2.36  20 2.53  32 2.53
   7  0.638  0.430  0.520-  51 2.25  59 2.26  71 2.26  33 2.53
   8  0.274  0.702  0.040-  72 2.26  73 2.36  60 2.36  21 2.53
   9  0.365  0.884  0.160-  52 2.25  60 2.26  73 2.26  74 2.36  57 2.36  22 2.53  34 2.53
  10  0.002  0.156  0.120-  42 2.25  61 2.26  78 2.26  77 2.36  62 2.36  26 2.53  35 2.53
  11  0.093  0.339  0.240-  43 2.25  62 2.26  77 2.26  75 2.36  63 2.36  36 2.53  24 2.53
  12  0.184  0.521  0.360-  40 2.25  75 2.26  63 2.26  76 2.36  64 2.36  25 2.53  37 2.53
  13  0.275  0.703  0.480-  41 2.25  76 2.26  64 2.26  65 2.36  38 2.53
  14  0.911  0.974  0.000-  78 2.36  61 2.36  39 2.53
  15  0.595  0.079  0.023-  60 2.25  66 2.36  42 2.36
  16  0.686  0.261  0.143-  57 2.25  42 2.26  66 2.26  67 2.36  43 2.36  29 2.53   1 2.53
  17  0.777  0.443  0.264-  58 2.25  67 2.26  43 2.26  68 2.36  40 2.36   2 2.53  30 2.53
  18  0.868  0.625  0.384-  59 2.25  40 2.26  68 2.26  69 2.36  41 2.36  27 2.53   3 2.53
  19  0.959  0.807  0.504-  69 2.26  41 2.26   4 2.53  28 2.53
  20  0.596  0.080  0.464-  65 2.25  70 2.26  44 2.26  71 2.36  45 2.36   6 2.53  32 2.53
  21  0.322  0.534  0.103-  62 2.25  46 2.26  72 2.26  47 2.36  73 2.36   8 2.53
  22  0.413  0.716  0.224-  63 2.25  47 2.26  73 2.26  74 2.36  48 2.36   9 2.53  34 2.53
  23  0.504  0.898  0.344-  64 2.25  48 2.26  74 2.26  70 2.36  44 2.36  31 2.53   5 2.53
  24  0.141  0.171  0.304-  54 2.25  49 2.26  77 2.26  50 2.36  75 2.36  36 2.53  11 2.53
  25  0.232  0.353  0.424-  53 2.25  50 2.26  75 2.26  76 2.36  51 2.36  12 2.53  37 2.53
  26  0.050  0.988  0.184-  56 2.25  52 2.26  78 2.26  77 2.36  49 2.36  10 2.53  35 2.53
  27  0.084  0.793  0.320-  74 2.25  56 2.26  40 2.26  54 2.36  41 2.36  18 2.53   3 2.53
  28  0.175  0.975  0.440-  70 2.25  54 2.26  41 2.26  53 2.36   4 2.53  19 2.53
  29  0.902  0.429  0.080-  72 2.25  42 2.26  43 2.36  55 2.36  16 2.53   1 2.53
  30  0.993  0.611  0.200-  73 2.25  55 2.26  43 2.26  40 2.36  56 2.36   2 2.53  17 2.53
  31  0.721  0.066  0.280-  77 2.25  48 2.26  57 2.26  44 2.36  58 2.36  23 2.53   5 2.53
  32  0.812  0.248  0.400-  75 2.25  44 2.26  58 2.26  45 2.36  59 2.36   6 2.53  20 2.53
  33  0.903  0.430  0.520-  76 2.25  59 2.26  45 2.26   7 2.53
  34  0.630  0.884  0.160-  78 2.25  47 2.26  60 2.26  48 2.36  57 2.36   9 2.53  22 2.53
  35  0.266  0.156  0.120-  66 2.25  61 2.26  52 2.26  49 2.36  62 2.36  10 2.53  26 2.53
  36  0.357  0.339  0.240-  67 2.25  62 2.26  49 2.26  50 2.36  63 2.36  24 2.53  11 2.53
  37  0.448  0.521  0.360-  68 2.25  50 2.26  63 2.26  51 2.36  64 2.36  12 2.53  25 2.53
  38  0.539  0.703  0.480-  69 2.25  51 2.26  64 2.26  65 2.36  13 2.53
  39  0.175  0.974  0.000-  52 2.36  61 2.36  14 2.53
  40  0.013  0.579  0.311-  12 2.25  18 2.26  27 2.26  30 2.36  17 2.36
  41  0.104  0.761  0.431-  13 2.25  28 2.26  19 2.26  27 2.36  18 2.36
  42  0.831  0.215  0.071-  10 2.25  29 2.26  16 2.26  15 2.36
  43  0.922  0.397  0.191-  11 2.25  30 2.26  17 2.26  29 2.36  16 2.36
  44  0.741  0.034  0.391-   4 2.25  32 2.26  20 2.26  31 2.36  23 2.36
  45  0.832  0.216  0.511-  33 2.26  32 2.36  20 2.36
  46  0.468  0.488  0.031-   1 2.25  21 2.26
  47  0.559  0.670  0.151-   2 2.25  34 2.26  22 2.26  21 2.36
  48  0.650  0.852  0.271-   3 2.25  31 2.26  23 2.26  34 2.36  22 2.36
  49  0.286  0.125  0.231-   5 2.25  24 2.26  36 2.26  35 2.36  26 2.36
  50  0.377  0.307  0.351-   6 2.25  37 2.26  25 2.26  36 2.36  24 2.36
  51  0.468  0.489  0.471-   7 2.25  38 2.26  37 2.36  25 2.36
  52  0.195  0.942  0.111-   9 2.25  26 2.26  35 2.26  39 2.36
  53  0.134  0.157  0.471-  25 2.25  28 2.36   4 2.36
  54  0.043  0.975  0.350-  24 2.25  28 2.26   4 2.26  27 2.36   3 2.36
  55  0.861  0.611  0.110-  30 2.26   2 2.26  29 2.36   1 2.36
  56  0.952  0.793  0.230-  26 2.25  27 2.26   3 2.26  30 2.36   2 2.36
  57  0.588  0.066  0.190-  16 2.25   5 2.26  31 2.26   9 2.36  34 2.36
  58  0.680  0.248  0.310-  17 2.25   6 2.26  32 2.26   5 2.36  31 2.36
  59  0.771  0.430  0.430-  18 2.25  33 2.26   7 2.26   6 2.36  32 2.36
  60  0.497  0.884  0.070-  15 2.25   9 2.26  34 2.26   8 2.36
  61  0.134  0.156  0.030-  10 2.26  35 2.26  39 2.36  14 2.36
  62  0.225  0.339  0.150-  21 2.25  36 2.26  11 2.26  35 2.36  10 2.36
  63  0.316  0.521  0.270-  22 2.25  12 2.26  37 2.26  36 2.36  11 2.36
  64  0.407  0.703  0.390-  23 2.25  13 2.26  38 2.26  12 2.36  37 2.36
  65  0.498  0.885  0.511-  20 2.25  13 2.36  38 2.36
  66  0.495  0.215  0.071-  35 2.25   1 2.26  16 2.26  15 2.36
  67  0.586  0.397  0.191-  36 2.25  17 2.26   2 2.26   1 2.36  16 2.36
  68  0.677  0.579  0.311-  37 2.25  18 2.26   3 2.26  17 2.36   2 2.36
  69  0.768  0.761  0.431-  38 2.25  19 2.26   4 2.26  18 2.36   3 2.36
  70  0.404  0.034  0.391-  28 2.25   6 2.26  20 2.26   5 2.36  23 2.36
  71  0.495  0.216  0.511-   7 2.26   6 2.36  20 2.36
  72  0.131  0.488  0.031-  29 2.25   8 2.26  21 2.26
  73  0.222  0.670  0.151-  30 2.25   9 2.26  22 2.26   8 2.36  21 2.36
  74  0.313  0.852  0.271-  27 2.25   5 2.26  23 2.26   9 2.36  22 2.36
  75  0.041  0.307  0.351-  32 2.25  12 2.26  25 2.26  11 2.36  24 2.36
  76  0.132  0.489  0.471-  33 2.25  13 2.26  12 2.36  25 2.36
  77  0.950  0.125  0.231-  31 2.25  24 2.26  11 2.26  26 2.36  10 2.36
  78  0.859  0.942  0.111-  34 2.25  26 2.26  10 2.26  14 2.36
 
  LATTYP: Found a base centered orthorhombic cell.
 ALAT       =     9.5784100000
 B/A-ratio  =     2.1722506660
 C/A-ratio  =     2.1764395278
  
  Lattice vectors:
  
 A1 = (   8.7007307979,   7.4473846003,   0.0000000000)
 A2 = (   0.0000000000, -11.4527836704,   0.0000000000)
 A3 = (   0.0000000000,   0.0000000000, -20.8468301371)


Analysis of symmetry for initial positions (statically):
=====================================================================
 Subroutine PRICEL returns:
 Original cell was already a primitive cell.
 

 Routine SETGRP: Setting up the symmetry group for a 
 base centered orthorhombic supercell.


 Subroutine GETGRP returns: Found  1 space group operations
 (whereof  1 operations were pure point group operations)
 out of a pool of  8 trial point group operations.


The static configuration has the point symmetry C_1 .


Analysis of symmetry for dynamics (positions and initial velocities):
=====================================================================
 Subroutine PRICEL returns:
 Original cell was already a primitive cell.
 

 Routine SETGRP: Setting up the symmetry group for a 
 base centered orthorhombic supercell.


 Subroutine GETGRP returns: Found  1 space group operations
 (whereof  1 operations were pure point group operations)
 out of a pool of  8 trial point group operations.


The dynamic configuration has the point symmetry C_1 .


 Subroutine INISYM returns: Found  1 space group operations
 (whereof  1 operations are pure point group operations),
 and found     1 'primitive' translations


----------------------------------------------------------------------------------------

                                     Primitive cell                                     

  volume of cell :    2077.3363

  direct lattice vectors                    reciprocal lattice vectors
     8.700730798 -4.005399070  0.000000000     0.114932874  0.000000000  0.000000000
     0.000000000 11.452783670  0.000000000     0.040195645  0.087315017  0.000000000
     0.000000000  0.000000000 20.846830137     0.000000000  0.000000000  0.047968923

  length of vectors
     9.578410000 11.452783670 20.846830137     0.114932874  0.096122849  0.047968923

  position of ions in fractional coordinates (direct lattice)
     0.637935914  0.429045576  0.080047810
     0.728992922  0.611159592  0.200119525
     0.820049929  0.793273607  0.320191240
     0.911106937  0.975387622  0.440262955
     0.456364260  0.065902268  0.280167335
     0.547421268  0.248016283  0.400239050
     0.638478275  0.430130299  0.520310765
     0.274250245  0.701674238  0.040023905
     0.365307253  0.883788253  0.160095620
     0.001621584  0.156416915  0.120071715
     0.092678591  0.338530930  0.240143430
     0.183735599  0.520644945  0.360215145
     0.274792606  0.702758960  0.480286860
     0.910564576  0.974302900  0.000000000
     0.594994522  0.078956792  0.023423430
     0.686051530  0.261070807  0.143495145
     0.777108537  0.443184823  0.263566860
     0.868165545  0.625298838  0.383638575
     0.959222552  0.807412853  0.503710290
     0.595536883  0.080041514  0.463686385
     0.322365861  0.533699469  0.103471240
     0.413422868  0.715813484  0.223542955
     0.504479876  0.897927499  0.343614670
     0.140794207  0.170556161  0.303590765
     0.231851214  0.352670176  0.423662480
     0.049737199  0.988442146  0.183519050
     0.084255929  0.793273607  0.320191240
     0.175312937  0.975387622  0.440262955
     0.902141914  0.429045576  0.080047810
     0.993198922  0.611159592  0.200119525
     0.720570260  0.065902268  0.280167335
     0.811627268  0.248016283  0.400239050
     0.902684275  0.430130299  0.520310765
     0.629513253  0.883788253  0.160095620
     0.265827584  0.156416915  0.120071715
     0.356884591  0.338530930  0.240143430
     0.447941599  0.520644945  0.360215145
     0.538998606  0.702758960  0.480286860
     0.174770576  0.974302900  0.000000000
     0.013407097  0.579351942  0.311152161
     0.104464105  0.761465957  0.431223876
     0.831293082  0.215123912  0.071008731
     0.922350090  0.397237927  0.191080446
     0.740778436  0.034094619  0.391199971
     0.831835443  0.216208634  0.511271686
     0.467607413  0.487752574  0.030984826
     0.558664420  0.669866589  0.151056541
     0.649721428  0.851980604  0.271128256
     0.286035759  0.124609265  0.231104351
     0.377092766  0.306723281  0.351176066
     0.468149774  0.488837296  0.471247781
     0.194978751  0.942495250  0.111032636
     0.134252494  0.157472736  0.470504137
     0.043195487  0.975358721  0.350432422
     0.861081472  0.611130691  0.110288992
     0.952138479  0.793244706  0.230360707
     0.588452810  0.065873368  0.190336802
     0.679509817  0.247987383  0.310408517
     0.770566825  0.430101398  0.430480232
     0.497395802  0.883759353  0.070265087
     0.133710133  0.156388014  0.030241182
     0.224767141  0.338502029  0.150312897
     0.315824148  0.520616044  0.270384612
     0.406881156  0.702730060  0.390456327
     0.497938163  0.884844075  0.510528042
     0.494863082  0.215123912  0.071008731
     0.585920090  0.397237927  0.191080446
     0.676977097  0.579351942  0.311152161
     0.768034105  0.761465957  0.431223876
     0.404348436  0.034094619  0.391199971
     0.495405443  0.216208634  0.511271686
     0.131177413  0.487752574  0.030984826
     0.222234420  0.669866589  0.151056541
     0.313291428  0.851980604  0.271128256
     0.040662766  0.306723281  0.351176066
     0.131719774  0.488837296  0.471247781
     0.949605759  0.124609265  0.231104351
     0.858548751  0.942495250  0.111032636

  ion indices of the primitive-cell ions
   primitive index   ion index
                 1           1
                 2           2
                 3           3
                 4           4
                 5           5
                 6           6
                 7           7
                 8           8
                 9           9
                10          10
                11          11
                12          12
                13          13
                14          14
                15          15
                16          16
                17          17
                18          18
                19          19
                20          20
                21          21
                22          22
                23          23
                24          24
                25          25
                26          26
                27          27
                28          28
                29          29
                30          30
                31          31
                32          32
                33          33
                34          34
                35          35
                36          36
                37          37
                38          38
                39          39
                40          40
                41          41
                42          42
                43          43
                44          44
                45          45
                46          46
                47          47
                48          48
                49          49
                50          50
                51          51
                52          52
                53          53
                54          54
                55          55
                56          56
                57          57
                58          58
                59          59
                60          60
                61          61
                62          62
                63          63
                64          64
                65          65
                66          66
                67          67
                68          68
                69          69
                70          70
                71          71
                72          72
                73          73
                74          74
                75          75
                76          76
                77          77
                78          78

----------------------------------------------------------------------------------------

 
 
 KPOINTS: gamma-point-only calculation. no periodi

Automatic generation of k-mesh.
Space group operators:
 irot       det(A)        alpha          n_x          n_y          n_z        tau_x        tau_y        tau_z
    1     1.000000     0.000000     1.000000     0.000000     0.000000     0.000000     0.000000     0.000000
 
 Subroutine IBZKPT returns following result:
 ===========================================
 
 Found      1 irreducible k-points:
 
 Following reciprocal coordinates:
            Coordinates               Weight
  0.000000  0.000000  0.000000      1.000000
 
 Following cartesian coordinates:
            Coordinates               Weight
  0.000000  0.000000  0.000000      1.000000
 


--------------------------------------------------------------------------------------------------------




 Dimension of arrays:
   k-points           NKPTS =      1   k-points in BZ     NKDIM =      1   number of bands    NBANDS=    520
   number of dos      NEDOS =    301   number of ions     NIONS =     78
   non local maximal  LDIM  =      6   non local SUM 2l+1 LMDIM =     18
   total plane-waves  NPLWV = 324000
   max r-space proj   IRMAX =   1770   max aug-charges    IRDMAX=   5113
   dimension x,y,z NGX =    50 NGY =   60 NGZ =  108
   dimension x,y,z NGXF=   100 NGYF=  120 NGZF=  216
   support grid    NGXF=   100 NGYF=  120 NGZF=  216
   ions per type =              39  39
   NGX,Y,Z   is equivalent  to a cutoff of   8.68,  8.71,  8.61 a.u.
   NGXF,Y,Z  is equivalent  to a cutoff of  17.36, 17.42, 17.23 a.u.

 SYSTEM =  "Millerite NiS"                         
 POSCAR =  Structure 9 made from 0-21-10.xsd file  

 Startparameter for this run:
   NWRITE =      2    write-flag & timer
   PREC   = normal    normal or accurate (medium, high low for compatibility)
   ISTART =      0    job   : 0-new  1-cont  2-samecut
   ICHARG =      2    charge: 1-file 2-atom 10-const
   ISPIN  =      1    spin polarized calculation?
   LNONCOLLINEAR =      F non collinear calculations
   LSORBIT =      F    spin-orbit coupling
   INIWAV =      1    electr: 0-lowe 1-rand  2-diag
   LASPH  =      F    aspherical Exc in radial PAW
   METAGGA=      F    non-selfconsistent MetaGGA calc.

 Electronic Relaxation 1
   ENCUT  =  450.0 eV  33.07 Ry    5.75 a.u.  16.57 19.81 36.06*2*pi/ulx,y,z
   ENINI  =  450.0     initial cutoff
   ENAUG  =  703.4 eV  augmentation charge cutoff
   NELM   =    100;   NELMIN=  2; NELMDL= -5     # of ELM steps 
   EDIFF  = 0.1E-03   stopping-criterion for ELM
   LREAL  =      T    real-space projection
   NLSPLINE    = F    spline interpolate recip. space projectors
   LCOMPAT=      F    compatible to vasp.4.4
   GGA_COMPAT  = T    GGA compatible to vasp.4.4-vasp.4.6
   LMAXPAW     = -100 max onsite density
   LMAXMIX     =    2 max onsite mixed and CHGCAR
   VOSKOWN=      0    Vosko Wilk Nusair interpolation
   ROPT   =   -0.00050  -0.00050
 Ionic relaxation
   EDIFFG = 0.1E-02   stopping-criterion for IOM
   NSW    =      0    number of steps for IOM
   NBLOCK =      1;   KBLOCK =      1    inner block; outer block 
   IBRION =     -1    ionic relax: 0-MD 1-quasi-New 2-CG
   NFREE  =      0    steps in history (QN), initial steepest desc. (CG)
   ISIF   =      2    stress and relaxation
   IWAVPR =     10    prediction:  0-non 1-charg 2-wave 3-comb
   ISYM   =      2    0-nonsym 1-usesym 2-fastsym
   LCORR  =      T    Harris-Foulkes like correction to forces

   POTIM  = 0.5000    time-step for ionic-motion
   TEIN   =    0.0    initial temperature
   TEBEG  =    0.0;   TEEND  =   0.0 temperature during run
   SMASS  =  -3.00    Nose mass-parameter (am)
   estimated Nose-frequenzy (Omega)   =  0.10E-29 period in steps = 0.13E+47 mass=  -0.210E-26a.u.
   SCALEE = 1.0000    scale energy and forces
   NPACO  =    256;   APACO  = 16.0  distance and # of slots for P.C.
   PSTRESS=    0.0 pullay stress

  Mass of Ions in am
   POMASS =  58.69 32.07
  Ionic Valenz
   ZVAL   =  16.00  6.00
  Atomic Wigner-Seitz radii
   RWIGS  =  -1.00 -1.00
  virtual crystal weights 
   VCA    =   1.00  1.00
   NELECT =     858.0000    total number of electrons
   NUPDOWN=      -1.0000    fix difference up-down

 DOS related values:
   EMIN   =  10.00;   EMAX   =-10.00  energy-range for DOS
   EFERMI =   0.00
   ISMEAR =     0;   SIGMA  =   0.20  broadening in eV -4-tet -1-fermi 0-gaus

 Electronic relaxation 2 (details)
   IALGO  =     38    algorithm
   LDIAG  =      T    sub-space diagonalisation (order eigenvalues)
   LSUBROT=      F    optimize rotation matrix (better conditioning)
   TURBO    =      0    0=normal 1=particle mesh
   IRESTART =      0    0=no restart 2=restart with 2 vectors
   NREBOOT  =      0    no. of reboots
   NMIN     =      0    reboot dimension
   EREF     =   0.00    reference energy to select bands
   IMIX   =      4    mixing-type and parameters
     AMIX     =   0.40;   BMIX     =  1.00
     AMIX_MAG =   1.60;   BMIX_MAG =  1.00
     AMIN     =   0.10
     WC   =   100.;   INIMIX=   1;  MIXPRE=   1;  MAXMIX= -45

 Intra band minimization:
   WEIMIN = 0.0000     energy-eigenvalue tresh-hold
   EBREAK =  0.48E-07  absolut break condition
   DEPER  =   0.30     relativ break condition  

   TIME   =   0.40     timestep for ELM

  volume/ion in A,a.u.               =      26.63       179.73
  Fermi-wavevector in a.u.,A,eV,Ry     =   1.219181  2.303919 20.223744  1.486403
  Thomas-Fermi vector in A             =   2.354442
 
 Write flags
   LWAVE        =      F    write WAVECAR
   LDOWNSAMPLE  =      F    k-point downsampling of WAVECAR
   LCHARG       =      F    write CHGCAR
   LVTOT        =      F    write LOCPOT, total local potential
   LVHAR        =      F    write LOCPOT, Hartree potential only
   LELF         =      F    write electronic localiz. function (ELF)
   LORBIT       =      0    0 simple, 1 ext, 2 COOP (PROOUT), +10 PAW based schemes


 Dipole corrections
   LMONO  =      F    monopole corrections only (constant potential shift)
   LDIPOL =      F    correct potential (dipole corrections)
   IDIPOL =      0    1-x, 2-y, 3-z, 4-all directions 
   EPSILON=  1.0000000 bulk dielectric constant

 Exchange correlation treatment:
   GGA     =    --    GGA type
   LEXCH   =     8    internal setting for exchange type
   VOSKOWN=      0    Vosko Wilk Nusair interpolation
   LHFCALC =     F    Hartree Fock is set to
   LHFONE  =     F    Hartree Fock one center treatment
   AEXX    =    0.0000 exact exchange contribution

 Linear response parameters
   LEPSILON=     F    determine dielectric tensor
   LRPA    =     F    only Hartree local field effects (RPA)
   LNABLA  =     F    use nabla operator in PAW spheres
   LVEL    =     F    velocity operator in full k-point grid
   LINTERFAST=   F  fast interpolation
   KINTER  =     0    interpolate to denser k-point grid
   CSHIFT  =0.1000    complex shift for real part using Kramers Kronig
   OMEGAMAX=  -1.0    maximum frequency
   DEG_THRESHOLD= 0.2000000E-02 threshold for treating states as degnerate
   RTIME   =   -0.100 relaxation time in fs
  (WPLASMAI=    0.000 imaginary part of plasma frequency in eV, 0.658/RTIME)
   DFIELD  = 0.0000000 0.0000000 0.0000000 field for delta impulse in time
 
 Orbital magnetization related:
   ORBITALMAG=     F  switch on orbital magnetization
   LCHIMAG   =     F  perturbation theory with respect to B field
   DQ        =  0.001000  dq finite difference perturbation B field
   LLRAUG    =     F  two centre corrections for induced B field



--------------------------------------------------------------------------------------------------------


 Static calculation
 charge density and potential will be updated during run
 non-spin polarized calculation
 Variant of blocked Davidson
 Davidson routine will perform the subspace rotation
 perform sub-space diagonalisation
    after iterative eigenvector-optimisation
 modified Broyden-mixing scheme, WC =      100.0
 initial mixing is a Kerker type mixing with AMIX =  0.4000 and BMIX =      1.0000
 Hartree-type preconditioning will be used
 using additional bands           91
 real space projection scheme for non local part
 use partial core corrections
 calculate Harris-corrections to forces 
   (improved forces if not selfconsistent)
 use gradient corrections 
 use of overlap-Matrix (Vanderbilt PP)
 Gauss-broadening in eV      SIGMA  =   0.20


--------------------------------------------------------------------------------------------------------


  energy-cutoff  :      450.00
  volume of cell :     2077.34
      direct lattice vectors                 reciprocal lattice vectors
     8.700730798 -4.005399070  0.000000000     0.114932874  0.000000000  0.000000000
     0.000000000 11.452783670  0.000000000     0.040195645  0.087315017  0.000000000
     0.000000000  0.000000000 20.846830137     0.000000000  0.000000000  0.047968923

  length of vectors
     9.578410000 11.452783670 20.846830137     0.114932874  0.096122849  0.047968923


 
 k-points in units of 2pi/SCALE and weight: gamma-point-only calculation. no periodi
   0.00000000  0.00000000  0.00000000       1.000
 
 k-points in reciprocal lattice and weights: gamma-point-only calculation. no periodi
   0.00000000  0.00000000  0.00000000       1.000
 
 position of ions in fractional coordinates (direct lattice) 
   0.63793591  0.42904558  0.08004781
   0.72899292  0.61115959  0.20011952
   0.82004993  0.79327361  0.32019124
   0.91110694  0.97538762  0.44026296
   0.45636426  0.06590227  0.28016734
   0.54742127  0.24801628  0.40023905
   0.63847827  0.43013030  0.52031076
   0.27425024  0.70167424  0.04002390
   0.36530725  0.88378825  0.16009562
   0.00162158  0.15641692  0.12007172
   0.09267859  0.33853093  0.24014343
   0.18373560  0.52064495  0.36021514
   0.27479261  0.70275896  0.48028686
   0.91056458  0.97430290  0.00000000
   0.59499452  0.07895679  0.02342343
   0.68605153  0.26107081  0.14349515
   0.77710854  0.44318482  0.26356686
   0.86816554  0.62529884  0.38363857
   0.95922255  0.80741285  0.50371029
   0.59553688  0.08004151  0.46368639
   0.32236586  0.53369947  0.10347124
   0.41342287  0.71581348  0.22354295
   0.50447988  0.89792750  0.34361467
   0.14079421  0.17055616  0.30359077
   0.23185121  0.35267018  0.42366248
   0.04973720  0.98844215  0.18351905
   0.08425593  0.79327361  0.32019124
   0.17531294  0.97538762  0.44026296
   0.90214191  0.42904558  0.08004781
   0.99319892  0.61115959  0.20011952
   0.72057026  0.06590227  0.28016734
   0.81162727  0.24801628  0.40023905
   0.90268427  0.43013030  0.52031076
   0.62951325  0.88378825  0.16009562
   0.26582758  0.15641692  0.12007172
   0.35688459  0.33853093  0.24014343
   0.44794160  0.52064495  0.36021514
   0.53899861  0.70275896  0.48028686
   0.17477058  0.97430290  0.00000000
   0.01340710  0.57935194  0.31115216
   0.10446410  0.76146596  0.43122388
   0.83129308  0.21512391  0.07100873
   0.92235009  0.39723793  0.19108045
   0.74077844  0.03409462  0.39119997
   0.83183544  0.21620863  0.51127169
   0.46760741  0.48775257  0.03098483
   0.55866442  0.66986659  0.15105654
   0.64972143  0.85198060  0.27112826
   0.28603576  0.12460926  0.23110435
   0.37709277  0.30672328  0.35117607
   0.46814977  0.48883730  0.47124778
   0.19497875  0.94249525  0.11103264
   0.13425249  0.15747274  0.47050414
   0.04319549  0.97535872  0.35043242
   0.86108147  0.61113069  0.11028899
   0.95213848  0.79324471  0.23036071
   0.58845281  0.06587337  0.19033680
   0.67950982  0.24798738  0.31040852
   0.77056683  0.43010140  0.43048023
   0.49739580  0.88375935  0.07026509
   0.13371013  0.15638801  0.03024118
   0.22476714  0.33850203  0.15031290
   0.31582415  0.52061604  0.27038461
   0.40688116  0.70273006  0.39045633
   0.49793816  0.88484407  0.51052804
   0.49486308  0.21512391  0.07100873
   0.58592009  0.39723793  0.19108045
   0.67697710  0.57935194  0.31115216
   0.76803410  0.76146596  0.43122388
   0.40434844  0.03409462  0.39119997
   0.49540544  0.21620863  0.51127169
   0.13117741  0.48775257  0.03098483
   0.22223442  0.66986659  0.15105654
   0.31329143  0.85198060  0.27112826
   0.04066277  0.30672328  0.35117607
   0.13171977  0.48883730  0.47124778
   0.94960576  0.12460926  0.23110435
   0.85854875  0.94249525  0.11103264
 
 position of ions in cartesian coordinates  (Angst):
   5.55050865  2.35857825  1.66874310
   6.34277117  4.07957102  4.17185774
   7.13503367  5.80056379  6.67497239
   7.92729619  7.52155655  9.17808704
   3.97070257 -1.07315656  5.84060084
   4.76296509  0.64783620  8.34371549
   5.55522759  2.36882898 10.84683014
   2.38617755  6.93764158  0.83437155
   3.17844007  8.65863434  3.33748620
   0.01410897  1.78491400  2.50311465
   0.80637147  3.50590676  5.00622929
   1.59863398  5.22689953  7.50934394
   2.39089649  6.94789229 10.01245859
   7.92257725  7.51130584  0.00000000
   5.17688716 -1.47891545  0.48830427
   5.96914968  0.24207731  2.99141891
   6.76141218  1.96307009  5.49453356
   7.55367470  3.68406285  7.99764821
   8.34593720  5.40505562 10.50076285
   5.18160610 -1.46866473  9.66639130
   2.80481857  4.82114064  2.15704736
   3.59708108  6.54213341  4.66016201
   4.38934359  8.26312617  7.16327666
   1.22501249  1.38940583  6.32890511
   2.01727500  3.11039860  8.83201976
   0.43274998 11.12119674  3.82579046
   0.73308816  8.74771239  6.67497239
   1.52535067 10.46870515  9.17808704
   7.84929394  1.30032778  1.66874310
   8.64155645  3.02132056  4.17185774
   6.26948785 -2.13140703  5.84060084
   7.06175037 -0.41041427  8.34371549
   7.85401287  1.31057851 10.84683014
   5.47722535  7.60038387  3.33748620
   2.31289425  0.72666353  2.50311465
   3.10515675  2.44765630  5.00622929
   3.89741927  4.16864906  7.50934394
   4.68968177  5.88964183 10.01245859
   1.52063173 10.45845444  0.00000000
   0.11665154  6.58149169  6.48653625
   0.90891406  8.30248445  8.98965089
   7.23285732 -0.86589291  1.48030695
   8.02511983  0.85509985  3.98342160
   6.44531375 -2.57663496  8.15527935
   7.23757626 -0.85564220 10.65839399
   4.06852622  3.71317042  0.64593540
   4.86078872  5.43416318  3.14905005
   5.65305124  7.15515595  5.65216470
   2.48872014  0.28143559  4.81779315
   3.28098264  2.00242837  7.32090780
   4.07324516  3.72342113  9.82402244
   1.69645762 10.01322650  2.31467850
   1.16809481  1.26576636  9.80851982
   0.37583230 10.99755727  7.30540518
   7.49203808  3.55017267  2.29917588
   8.28430059  5.27116544  4.80229053
   5.11996949 -1.60255490  3.96791898
   5.91223199  0.11843786  6.47103363
   6.70449451  1.83943062  8.97414827
   4.32770697  8.12923600  1.46480433
   1.16337587  1.25551565  0.63043278
   1.95563839  2.97650841  3.13354743
   2.74790089  4.69750118  5.63666208
   3.54016341  6.41849395  8.13977672
   4.33242591  8.13948672 10.64289137
   4.30567046  0.48164350  1.48030695
   5.09793297  2.20263626  3.98342160
   5.89019548  3.92362903  6.48653625
   6.68245799  5.64462179  8.98965089
   3.51812689 -1.22909855  8.15527935
   4.31038940  0.49189421 10.65839399
   1.14133936  5.06070683  0.64593540
   1.93360186  6.78169959  3.14905005
   2.72586438  8.50269235  5.65216470
   0.35379578  3.34996478  7.32090780
   1.14605829  5.07095754  9.82402244
   8.26226407 -2.37642707  4.81779315
   7.47000156  7.35536384  2.31467850
 


--------------------------------------------------------------------------------------------------------


 use parallel FFT for orbitals z direction half grid
 k-point   1 :   0.0000 0.0000 0.0000  plane waves:   22514

 maximum and minimum number of plane-waves per node :      3754     3751

 maximum number of plane-waves:     22514
 maximum index in each direction: 
   IXMAX=   16   IYMAX=   19   IZMAX=   36
   IXMIN=  -16   IYMIN=  -19   IZMIN=    0


 real space projection operators:
  total allocation   :      11768.30 KBytes
  max/ min on nodes  :       2115.48       1879.98


 parallel 3D FFT for wavefunctions:
    minimum data exchange during FFTs selected (reduces bandwidth)
 parallel 3D FFT for charge:
    minimum data exchange during FFTs selected (reduces bandwidth)


 total amount of memory used by VASP MPI-rank0    47145. kBytes
=======================================================================

   base      :      30000. kBytes
   nonlr-proj:       2599. kBytes
   fftplans  :       3720. kBytes
   grid      :       6724. kBytes
   one-center:        101. kBytes
   wavefun   :       4001. kBytes
 
     INWAV:  cpu time    0.0000: real time    0.0000
 Broyden mixing: mesh for mixing (old mesh)
   NGX = 33   NGY = 39   NGZ = 73
  (NGX  =100   NGY  =120   NGZ  =216)
  gives a total of  93951 points

 initial charge density was supplied:
 charge density of overlapping atoms calculated
 number of electron     858.0000000 magnetization 
 keeping initial charge density in first step


--------------------------------------------------------------------------------------------------------


 Maximum index for non-local projection operator          388
 Maximum index for augmentation-charges          579 (set IRDMAX)


--------------------------------------------------------------------------------------------------------


 First call to EWALD:  gamma=   0.139
 Maximum number of real-space cells 4x 3x 2
 Maximum number of reciprocal cells 2x 3x 4

    FEWALD:  cpu time    0.0035: real time    0.0036


--------------------------------------- Iteration      1(   1)  ---------------------------------------


    POTLOK:  cpu time    0.0469: real time    0.0501
    SETDIJ:  cpu time    0.0054: real time    0.0074
     EDDAV:  cpu time    2.3829: real time    2.3904
       DOS:  cpu time    0.0054: real time    0.0055
    --------------------------------------------
      LOOP:  cpu time    2.4406: real time    2.4533

 eigenvalue-minimisations  :  1256
 total energy-change (2. order) : 0.1066925E+05  (-0.5503088E+05)
 number of electron     858.0000000 magnetization 
 augmentation part      858.0000000 magnetization 

 Free energy of the ion-electron system (eV)
  ---------------------------------------------------
  alpha Z        PSCENC =      2101.59301765
  Ewald energy   TEWEN  =    175308.30214804
  -Hartree energ DENC   =   -308292.18010931
  -exchange      EXHF   =         0.00000000
  -V(xc)+E(xc)   XCENC  =      3956.69106977
  PAW double counting   =    122123.66111200  -127444.97121129
  entropy T*S    EENTRO =        -0.20143702
  eigenvalues    EBANDS =     -4419.80025670
  atomic energy  EATOM  =    147336.15547490
  Solvation  Ediel_sol  =         0.00000000
  ---------------------------------------------------
  free energy    TOTEN  =     10669.24980804 eV

  energy without entropy =    10669.45124506  energy(sigma->0) =    10669.35052655


--------------------------------------------------------------------------------------------------------




--------------------------------------- Iteration      1(   2)  ---------------------------------------


     EDDAV:  cpu time    2.1048: real time    2.1128
       DOS:  cpu time    0.0008: real time    0.0008
    --------------------------------------------
      LOOP:  cpu time    2.1056: real time    2.1135

 eigenvalue-minimisations  :  1096
 total energy-change (2. order) :-0.9990136E+04  (-0.9637755E+04)
 number of electron     858.0000000 magnetization 
 augmentation part      858.0000000 magnetization 

 Free energy of the ion-electron system (eV)
  ---------------------------------------------------
  alpha Z        PSCENC =      2101.59301765
  Ewald energy   TEWEN  =    175308.30214804
  -Hartree energ DENC   =   -308292.18010931
  -exchange      EXHF   =         0.00000000
  -V(xc)+E(xc)   XCENC  =      3956.69106977
  PAW double counting   =    122123.66111200  -127444.97121129
  entropy T*S    EENTRO =        -0.83041184
  eigenvalues    EBANDS =    -14409.30709648
  atomic energy  EATOM  =    147336.15547490
  Solvation  Ediel_sol  =         0.00000000
  ---------------------------------------------------
  free energy    TOTEN  =       679.11399344 eV

  energy without entropy =      679.94440528  energy(sigma->0) =      679.52919936


--------------------------------------------------------------------------------------------------------




--------------------------------------- Iteration      1(   3)  ---------------------------------------


     EDDAV:  cpu time    2.2395: real time    2.2450
       DOS:  cpu time    0.0008: real time    0.0008
    --------------------------------------------
      LOOP:  cpu time    2.2402: real time    2.2458

 eigenvalue-minimisations  :  1184
 total energy-change (2. order) :-0.1047733E+04  (-0.9851257E+03)
 number of electron     858.0000000 magnetization 
 augmentation part      858.0000000 magnetization 

 Free energy of the ion-electron system (eV)
  ---------------------------------------------------
  alpha Z        PSCENC =      2101.59301765
  Ewald energy   TEWEN  =    175308.30214804
  -Hartree energ DENC   =   -308292.18010931
  -exchange      EXHF   =         0.00000000
  -V(xc)+E(xc)   XCENC  =      3956.69106977
  PAW double counting   =    122123.66111200  -127444.97121129
  entropy T*S    EENTRO =        -1.33114435
  eigenvalues    EBANDS =    -15456.53906249
  atomic energy  EATOM  =    147336.15547490
  Solvation  Ediel_sol  =         0.00000000
  ---------------------------------------------------
  free energy    TOTEN  =      -368.61870509 eV

  energy without entropy =     -367.28756073  energy(sigma->0) =     -367.95313291


--------------------------------------------------------------------------------------------------------




--------------------------------------- Iteration      1(   4)  ---------------------------------------


     EDDAV:  cpu time    2.2947: real time    2.3018
       DOS:  cpu time    0.0012: real time    0.0012
    --------------------------------------------
      LOOP:  cpu time    2.2959: real time    2.3030

 eigenvalue-minimisations  :  1208
 total energy-change (2. order) :-0.6840840E+02  (-0.6757733E+02)
 number of electron     858.0000000 magnetization 
 augmentation part      858.0000000 magnetization 

 Free energy of the ion-electron system (eV)
  ---------------------------------------------------
  alpha Z        PSCENC =      2101.59301765
  Ewald energy   TEWEN  =    175308.30214804
  -Hartree energ DENC   =   -308292.18010931
  -exchange      EXHF   =         0.00000000
  -V(xc)+E(xc)   XCENC  =      3956.69106977
  PAW double counting   =    122123.66111200  -127444.97121129
  entropy T*S    EENTRO =        -1.46331304
  eigenvalues    EBANDS =    -15524.81529778
  atomic energy  EATOM  =    147336.15547490
  Solvation  Ediel_sol  =         0.00000000
  ---------------------------------------------------
  free energy    TOTEN  =      -437.02710907 eV

  energy without entropy =     -435.56379602  energy(sigma->0) =     -436.29545254


--------------------------------------------------------------------------------------------------------




--------------------------------------- Iteration      1(   5)  ---------------------------------------


     EDDAV:  cpu time    2.4234: real time    2.4313
       DOS:  cpu time    0.0014: real time    0.0014
    CHARGE:  cpu time    0.0460: real time    0.0463
    MIXING:  cpu time    0.0025: real time    0.0028
    --------------------------------------------
      LOOP:  cpu time    2.4734: real time    2.4819

 eigenvalue-minimisations  :  1304
 total energy-change (2. order) :-0.2712357E+01  (-0.2708100E+01)
 number of electron     857.9999844 magnetization 
 augmentation part      310.1848847 magnetization 

 Broyden mixing:
  rms(total) = 0.85686E+01    rms(broyden)= 0.85523E+01
  rms(prec ) = 0.89892E+01
  weight for this iteration     100.00

 Free energy of the ion-electron system (eV)
  ---------------------------------------------------
  alpha Z        PSCENC =      2101.59301765
  Ewald energy   TEWEN  =    175308.30214804
  -Hartree energ DENC   =   -308292.18010931
  -exchange      EXHF   =         0.00000000
  -V(xc)+E(xc)   XCENC  =      3956.69106977
  PAW double counting   =    122123.66111200  -127444.97121129
  entropy T*S    EENTRO =        -1.46158057
  eigenvalues    EBANDS =    -15527.52938707
  atomic energy  EATOM  =    147336.15547490
  Solvation  Ediel_sol  =         0.00000000
  ---------------------------------------------------
  free energy    TOTEN  =      -439.73946588 eV

  energy without entropy =     -438.27788531  energy(sigma->0) =     -439.00867560


--------------------------------------------------------------------------------------------------------




--------------------------------------- Iteration      1(   6)  ---------------------------------------


    POTLOK:  cpu time    0.0463: real time    0.0465
    SETDIJ:  cpu time    0.0063: real time    0.0063
     EDDAV:  cpu time    2.3365: real time    2.3425
       DOS:  cpu time    0.0009: real time    0.0009
    CHARGE:  cpu time    0.0444: real time    0.0446
    MIXING:  cpu time    0.0020: real time    0.0021
    --------------------------------------------
      LOOP:  cpu time    2.4365: real time    2.4428

 eigenvalue-minimisations  :  1232
 total energy-change (2. order) :-0.8927663E+02  (-0.1050023E+03)
 number of electron     857.9999792 magnetization 
 augmentation part      381.3936986 magnetization 

 Broyden mixing:
  rms(total) = 0.16276E+02    rms(broyden)= 0.16272E+02
  rms(prec ) = 0.16948E+02
  weight for this iteration     100.00

 eigenvalues of (default mixing * dielectric matrix)
  average eigenvalue GAMMA=   0.2282
  0.2282

 Free energy of the ion-electron system (eV)
  ---------------------------------------------------
  alpha Z        PSCENC =      2101.59301765
  Ewald energy   TEWEN  =    175308.30214804
  -Hartree energ DENC   =   -305329.11164613
  -exchange      EXHF   =         0.00000000
  -V(xc)+E(xc)   XCENC  =      3873.59837944
  PAW double counting   =    124134.50375483  -129196.65197917
  entropy T*S    EENTRO =        -0.96472823
  eigenvalues    EBANDS =    -18756.44051320
  atomic energy  EATOM  =    147336.15547490
  Solvation  Ediel_sol  =         0.00000000
  ---------------------------------------------------
  free energy    TOTEN  =      -529.01609186 eV

  energy without entropy =     -528.05136364  energy(sigma->0) =     -528.53372775


--------------------------------------------------------------------------------------------------------




--------------------------------------- Iteration      1(   7)  ---------------------------------------


    POTLOK:  cpu time    0.0451: real time    0.0452
    SETDIJ:  cpu time    0.0052: real time    0.0052
     EDDAV:  cpu time    2.3529: real time    2.3597
       DOS:  cpu time    0.0007: real time    0.0007
    CHARGE:  cpu time    0.0453: real time    0.0455
    MIXING:  cpu time    0.0018: real time    0.0018
    --------------------------------------------
      LOOP:  cpu time    2.4510: real time    2.4581

 eigenvalue-minimisations  :  1224
 total energy-change (2. order) : 0.1210616E+03  (-0.1908510E+02)
 number of electron     857.9999794 magnetization 
 augmentation part      359.7308425 magnetization 

 Broyden mixing:
  rms(total) = 0.65110E+01    rms(broyden)= 0.65092E+01
  rms(prec ) = 0.68667E+01
  weight for this iteration     100.00

 eigenvalues of (default mixing * dielectric matrix)
  average eigenvalue GAMMA=   0.4997
  0.4997  0.4997

 Free energy of the ion-electron system (eV)
  ---------------------------------------------------
  alpha Z        PSCENC =      2101.59301765
  Ewald energy   TEWEN  =    175308.30214804
  -Hartree energ DENC   =   -306676.48940596
  -exchange      EXHF   =         0.00000000
  -V(xc)+E(xc)   XCENC  =      3904.73736824
  PAW double counting   =    128544.84981668  -133762.50048546
  entropy T*S    EENTRO =        -0.90335655
  eigenvalues    EBANDS =    -17163.69908428
  atomic energy  EATOM  =    147336.15547490
  Solvation  Ediel_sol  =         0.00000000
  ---------------------------------------------------
  free energy    TOTEN  =      -407.95450673 eV

  energy without entropy =     -407.05115018  energy(sigma->0) =     -407.50282845


--------------------------------------------------------------------------------------------------------




--------------------------------------- Iteration      1(   8)  ---------------------------------------


    POTLOK:  cpu time    0.0469: real time    0.0492
    SETDIJ:  cpu time    0.0047: real time    0.0067
     EDDAV:  cpu time    2.5795: real time    2.5857
       DOS:  cpu time    0.0010: real time    0.0010
    CHARGE:  cpu time    0.0435: real time    0.0436
    MIXING:  cpu time    0.0018: real time    0.0018
    --------------------------------------------
      LOOP:  cpu time    2.6773: real time    2.6880

 eigenvalue-minimisations  :  1384
 total energy-change (2. order) :-0.1570934E+03  (-0.1572399E+02)
 number of electron     857.9999892 magnetization 
 augmentation part      329.8409565 magnetization 

 Broyden mixing:
  rms(total) = 0.18691E+02    rms(broyden)= 0.18688E+02
  rms(prec ) = 0.23467E+02
  weight for this iteration     100.00

 eigenvalues of (default mixing * dielectric matrix)
  average eigenvalue GAMMA=   0.4134
  0.6774  0.4664  0.0963

 Free energy of the ion-electron system (eV)
  ---------------------------------------------------
  alpha Z        PSCENC =      2101.59301765
  Ewald energy   TEWEN  =    175308.30214804
  -Hartree energ DENC   =   -307162.76972740
  -exchange      EXHF   =         0.00000000
  -V(xc)+E(xc)   XCENC  =      3928.56119878
  PAW double counting   =    134056.62212050  -139390.79574715
  entropy T*S    EENTRO =        -0.67728347
  eigenvalues    EBANDS =    -16742.03906760
  atomic energy  EATOM  =    147336.15547490
  Solvation  Ediel_sol  =         0.00000000
  ---------------------------------------------------
  free energy    TOTEN  =      -565.04786575 eV

  energy without entropy =     -564.37058228  energy(sigma->0) =     -564.70922401


--------------------------------------------------------------------------------------------------------




--------------------------------------- Iteration      1(   9)  ---------------------------------------


    POTLOK:  cpu time    0.0455: real time    0.0457
    SETDIJ:  cpu time    0.0052: real time    0.0052
     EDDAV:  cpu time    2.4616: real time    2.4675
       DOS:  cpu time    0.0013: real time    0.0013
    CHARGE:  cpu time    0.0454: real time    0.0455
    MIXING:  cpu time    0.0019: real time    0.0019
    --------------------------------------------
      LOOP:  cpu time    2.5609: real time    2.5671

 eigenvalue-minimisations  :  1304
 total energy-change (2. order) : 0.1528250E+03  (-0.1587965E+02)
 number of electron     857.9999752 magnetization 
 augmentation part      332.7980171 magnetization 

 Broyden mixing:
  rms(total) = 0.87614E+01    rms(broyden)= 0.87558E+01
  rms(prec ) = 0.10151E+02
  weight for this iteration     100.00

 eigenvalues of (default mixing * dielectric matrix)
  average eigenvalue GAMMA=   0.3867
  0.8773  0.4051  0.1850  0.0796

 Free energy of the ion-electron system (eV)
  ---------------------------------------------------
  alpha Z        PSCENC =      2101.59301765
  Ewald energy   TEWEN  =    175308.30214804
  -Hartree energ DENC   =   -307350.01650484
  -exchange      EXHF   =         0.00000000
  -V(xc)+E(xc)   XCENC  =      3928.58789594
  PAW double counting   =    135914.56056434  -141265.88616058
  entropy T*S    EENTRO =        -1.53731671
  eigenvalues    EBANDS =    -16383.98194181
  atomic energy  EATOM  =    147336.15547490
  Solvation  Ediel_sol  =         0.00000000
  ---------------------------------------------------
  free energy    TOTEN  =      -412.22282306 eV

  energy without entropy =     -410.68550635  energy(sigma->0) =     -411.45416471


--------------------------------------------------------------------------------------------------------




--------------------------------------- Iteration      1(  10)  ---------------------------------------


    POTLOK:  cpu time    0.0449: real time    0.0450
    SETDIJ:  cpu time    0.0051: real time    0.0051
     EDDAV:  cpu time    2.6488: real time    2.6552
       DOS:  cpu time    0.0010: real time    0.0010
    CHARGE:  cpu time    0.0447: real time    0.0448
    MIXING:  cpu time    0.0020: real time    0.0020
    --------------------------------------------
      LOOP:  cpu time    2.7465: real time    2.7531

 eigenvalue-minimisations  :  1440
 total energy-change (2. order) : 0.4013688E+01  (-0.8389471E+01)
 number of electron     857.9999857 magnetization 
 augmentation part      333.3976092 magnetization 

 Broyden mixing:
  rms(total) = 0.57012E+01    rms(broyden)= 0.56948E+01
  rms(prec ) = 0.64036E+01
  weight for this iteration     100.00

 eigenvalues of (default mixing * dielectric matrix)
  average eigenvalue GAMMA=   0.4932
  1.4898  0.3941  0.3941  0.0942  0.0942

 Free energy of the ion-electron system (eV)
  ---------------------------------------------------
  alpha Z        PSCENC =      2101.59301765
  Ewald energy   TEWEN  =    175308.30214804
  -Hartree energ DENC   =   -307482.77133275
  -exchange      EXHF   =         0.00000000
  -V(xc)+E(xc)   XCENC  =      3927.72630317
  PAW double counting   =    137390.56188796  -142754.31271329
  entropy T*S    EENTRO =        -1.05284061
  eigenvalues    EBANDS =    -16234.41108056
  atomic energy  EATOM  =    147336.15547490
  Solvation  Ediel_sol  =         0.00000000
  ---------------------------------------------------
  free energy    TOTEN  =      -408.20913548 eV

  energy without entropy =     -407.15629486  energy(sigma->0) =     -407.68271517


--------------------------------------------------------------------------------------------------------




--------------------------------------- Iteration      1(  11)  ---------------------------------------


    POTLOK:  cpu time    0.0454: real time    0.0455
    SETDIJ:  cpu time    0.0051: real time    0.0051
     EDDAV:  cpu time    2.6437: real time    2.6501
       DOS:  cpu time    0.0007: real time    0.0007
    CHARGE:  cpu time    0.0461: real time    0.0462
    MIXING:  cpu time    0.0024: real time    0.0024
    --------------------------------------------
      LOOP:  cpu time    2.7434: real time    2.7501

 eigenvalue-minimisations  :  1416
 total energy-change (2. order) :-0.1218390E+00  (-0.3704338E+01)
 number of electron     857.9999866 magnetization 
 augmentation part      334.5547603 magnetization 

 Broyden mixing:
  rms(total) = 0.79158E+01    rms(broyden)= 0.79124E+01
  rms(prec ) = 0.95986E+01
  weight for this iteration     100.00

 eigenvalues of (default mixing * dielectric matrix)
  average eigenvalue GAMMA=   0.4816
  1.7623  0.4063  0.4063  0.1188  0.1188  0.0770

 Free energy of the ion-electron system (eV)
  ---------------------------------------------------
  alpha Z        PSCENC =      2101.59301765
  Ewald energy   TEWEN  =    175308.30214804
  -Hartree energ DENC   =   -307395.86847964
  -exchange      EXHF   =         0.00000000
  -V(xc)+E(xc)   XCENC  =      3926.16204812
  PAW double counting   =    140654.96024159  -146045.66807764
  entropy T*S    EENTRO =        -1.18118674
  eigenvalues    EBANDS =    -16292.78616071
  atomic energy  EATOM  =    147336.15547490
  Solvation  Ediel_sol  =         0.00000000
  ---------------------------------------------------
  free energy    TOTEN  =      -408.33097443 eV

  energy without entropy =     -407.14978769  energy(sigma->0) =     -407.74038106


--------------------------------------------------------------------------------------------------------




--------------------------------------- Iteration      1(  12)  ---------------------------------------


    POTLOK:  cpu time    0.0446: real time    0.0447
    SETDIJ:  cpu time    0.0051: real time    0.0051
     EDDAV:  cpu time    2.6007: real time    2.6087
       DOS:  cpu time    0.0008: real time    0.0008
    CHARGE:  cpu time    0.0468: real time    0.0470
    MIXING:  cpu time    0.0023: real time    0.0023
    --------------------------------------------
      LOOP:  cpu time    2.7002: real time    2.7085

 eigenvalue-minimisations  :  1384
 total energy-change (2. order) : 0.1073942E+02  (-0.2288168E+01)
 number of electron     857.9999798 magnetization 
 augmentation part      337.9739575 magnetization 

 Broyden mixing:
  rms(total) = 0.35276E+01    rms(broyden)= 0.35252E+01
  rms(prec ) = 0.40181E+01
  weight for this iteration     100.00

 eigenvalues of (default mixing * dielectric matrix)
  average eigenvalue GAMMA=   0.5070
  2.0824  0.4218  0.4218  0.3205  0.0782  0.1123  0.1123

 Free energy of the ion-electron system (eV)
  ---------------------------------------------------
  alpha Z        PSCENC =      2101.59301765
  Ewald energy   TEWEN  =    175308.30214804
  -Hartree energ DENC   =   -307415.69873145
  -exchange      EXHF   =         0.00000000
  -V(xc)+E(xc)   XCENC  =      3924.06744357
  PAW double counting   =    142053.00342934  -147450.00429372
  entropy T*S    EENTRO =        -0.98602364
  eigenvalues    EBANDS =    -16254.02402346
  atomic energy  EATOM  =    147336.15547490
  Solvation  Ediel_sol  =         0.00000000
  ---------------------------------------------------
  free energy    TOTEN  =      -397.59155877 eV

  energy without entropy =     -396.60553513  energy(sigma->0) =     -397.09854695


--------------------------------------------------------------------------------------------------------




--------------------------------------- Iteration      1(  13)  ---------------------------------------


    POTLOK:  cpu time    0.0454: real time    0.0477
    SETDIJ:  cpu time    0.0047: real time    0.0064
     EDDAV:  cpu time    2.4962: real time    2.5022
       DOS:  cpu time    0.0008: real time    0.0008
    CHARGE:  cpu time    0.0465: real time    0.0466
    MIXING:  cpu time    0.0022: real time    0.0022
    --------------------------------------------
      LOOP:  cpu time    2.5957: real time    2.6059

 eigenvalue-minimisations  :  1336
 total energy-change (2. order) : 0.3770929E+01  (-0.1562646E+01)
 number of electron     857.9999830 magnetization 
 augmentation part      338.9305301 magnetization 

 Broyden mixing:
  rms(total) = 0.35312E+01    rms(broyden)= 0.35288E+01
  rms(prec ) = 0.39632E+01
  weight for this iteration     100.00

 eigenvalues of (default mixing * dielectric matrix)
  average eigenvalue GAMMA=   0.4809
  2.0815  0.4319  0.4319  0.4077  0.1842  0.0784  0.1159  0.1159

 Free energy of the ion-electron system (eV)
  ---------------------------------------------------
  alpha Z        PSCENC =      2101.59301765
  Ewald energy   TEWEN  =    175308.30214804
  -Hartree energ DENC   =   -307391.27191121
  -exchange      EXHF   =         0.00000000
  -V(xc)+E(xc)   XCENC  =      3923.33484293
  PAW double counting   =    143524.11880792  -148932.90321628
  entropy T*S    EENTRO =        -0.99931812
  eigenvalues    EBANDS =    -16262.15047557
  atomic energy  EATOM  =    147336.15547490
  Solvation  Ediel_sol  =         0.00000000
  ---------------------------------------------------
  free energy    TOTEN  =      -393.82062973 eV

  energy without entropy =     -392.82131161  energy(sigma->0) =     -393.32097067


--------------------------------------------------------------------------------------------------------




--------------------------------------- Iteration      1(  14)  ---------------------------------------


    POTLOK:  cpu time    0.0449: real time    0.0450
    SETDIJ:  cpu time    0.0051: real time    0.0051
     EDDAV:  cpu time    2.6112: real time    2.6173
       DOS:  cpu time    0.0007: real time    0.0007
    CHARGE:  cpu time    0.0466: real time    0.0467
    MIXING:  cpu time    0.0023: real time    0.0023
    --------------------------------------------
      LOOP:  cpu time    2.7107: real time    2.7170

 eigenvalue-minimisations  :  1416
 total energy-change (2. order) : 0.2597272E+01  (-0.1129406E+01)
 number of electron     857.9999808 magnetization 
 augmentation part      339.3642967 magnetization 

 Broyden mixing:
  rms(total) = 0.25989E+01    rms(broyden)= 0.25966E+01
  rms(prec ) = 0.30051E+01
  weight for this iteration     100.00

 eigenvalues of (default mixing * dielectric matrix)
  average eigenvalue GAMMA=   0.4669
  1.9789  0.5182  0.5182  0.3710  0.3710  0.1297  0.1183  0.1183  0.0784

 Free energy of the ion-electron system (eV)
  ---------------------------------------------------
  alpha Z        PSCENC =      2101.59301765
  Ewald energy   TEWEN  =    175308.30214804
  -Hartree energ DENC   =   -307400.22755228
  -exchange      EXHF   =         0.00000000
  -V(xc)+E(xc)   XCENC  =      3923.61379900
  PAW double counting   =    143526.40061504  -148935.94437414
  entropy T*S    EENTRO =        -1.00322850
  eigenvalues    EBANDS =    -16250.11325771
  atomic energy  EATOM  =    147336.15547490
  Solvation  Ediel_sol  =         0.00000000
  ---------------------------------------------------
  free energy    TOTEN  =      -391.22335799 eV

  energy without entropy =     -390.22012950  energy(sigma->0) =     -390.72174374


--------------------------------------------------------------------------------------------------------




--------------------------------------- Iteration      1(  15)  ---------------------------------------


    POTLOK:  cpu time    0.0451: real time    0.0452
    SETDIJ:  cpu time    0.0050: real time    0.0051
     EDDAV:  cpu time    2.4316: real time    2.4373
       DOS:  cpu time    0.0006: real time    0.0006
    CHARGE:  cpu time    0.0464: real time    0.0465
    MIXING:  cpu time    0.0024: real time    0.0024
    --------------------------------------------
      LOOP:  cpu time    2.5312: real time    2.5372

 eigenvalue-minimisations  :  1296
 total energy-change (2. order) : 0.2166523E+01  (-0.4315630E+00)
 number of electron     857.9999808 magnetization 
 augmentation part      338.7682140 magnetization 

 Broyden mixing:
  rms(total) = 0.19696E+01    rms(broyden)= 0.19682E+01
  rms(prec ) = 0.22525E+01
  weight for this iteration     100.00

 eigenvalues of (default mixing * dielectric matrix)
  average eigenvalue GAMMA=   0.4602
  1.9256  0.6265  0.6265  0.3892  0.3892  0.1940  0.0783  0.1159  0.1159  0.1410

 Free energy of the ion-electron system (eV)
  ---------------------------------------------------
  alpha Z        PSCENC =      2101.59301765
  Ewald energy   TEWEN  =    175308.30214804
  -Hartree energ DENC   =   -307401.43785855
  -exchange      EXHF   =         0.00000000
  -V(xc)+E(xc)   XCENC  =      3924.42405728
  PAW double counting   =    143172.05335294  -148580.35700010
  entropy T*S    EENTRO =        -1.03637139
  eigenvalues    EBANDS =    -16248.75365568
  atomic energy  EATOM  =    147336.15547490
  Solvation  Ediel_sol  =         0.00000000
  ---------------------------------------------------
  free energy    TOTEN  =      -389.05683491 eV

  energy without entropy =     -388.02046352  energy(sigma->0) =     -388.53864921


--------------------------------------------------------------------------------------------------------




--------------------------------------- Iteration      1(  16)  ---------------------------------------


    POTLOK:  cpu time    0.0457: real time    0.0458
    SETDIJ:  cpu time    0.0051: real time    0.0051
     EDDAV:  cpu time    2.3685: real time    2.3741
       DOS:  cpu time    0.0011: real time    0.0011
    CHARGE:  cpu time    0.0505: real time    0.0506
    MIXING:  cpu time    0.0025: real time    0.0025
    --------------------------------------------
      LOOP:  cpu time    2.4733: real time    2.4792

 eigenvalue-minimisations  :  1264
 total energy-change (2. order) : 0.1307489E+01  (-0.2103993E+00)
 number of electron     857.9999804 magnetization 
 augmentation part      338.6409538 magnetization 

 Broyden mixing:
  rms(total) = 0.17165E+01    rms(broyden)= 0.17158E+01
  rms(prec ) = 0.19483E+01
  weight for this iteration     100.00

 eigenvalues of (default mixing * dielectric matrix)
  average eigenvalue GAMMA=   0.4736
  1.9416  0.7665  0.7665  0.4070  0.4070  0.3088  0.0783  0.1665  0.1171  0.1171
  0.1330

 Free energy of the ion-electron system (eV)
  ---------------------------------------------------
  alpha Z        PSCENC =      2101.59301765
  Ewald energy   TEWEN  =    175308.30214804
  -Hartree energ DENC   =   -307404.60743238
  -exchange      EXHF   =         0.00000000
  -V(xc)+E(xc)   XCENC  =      3924.66965624
  PAW double counting   =    142958.98595680  -148365.14391079
  entropy T*S    EENTRO =        -1.01629271
  eigenvalues    EBANDS =    -16246.68796391
  atomic energy  EATOM  =    147336.15547490
  Solvation  Ediel_sol  =         0.00000000
  ---------------------------------------------------
  free energy    TOTEN  =      -387.74934615 eV

  energy without entropy =     -386.73305345  energy(sigma->0) =     -387.24119980


--------------------------------------------------------------------------------------------------------




--------------------------------------- Iteration      1(  17)  ---------------------------------------


    POTLOK:  cpu time    0.0451: real time    0.0452
    SETDIJ:  cpu time    0.0051: real time    0.0052
     EDDAV:  cpu time    2.6277: real time    2.6339
       DOS:  cpu time    0.0007: real time    0.0007
    CHARGE:  cpu time    0.0504: real time    0.0505
    MIXING:  cpu time    0.0026: real time    0.0026
    --------------------------------------------
      LOOP:  cpu time    2.7316: real time    2.7380

 eigenvalue-minimisations  :  1440
 total energy-change (2. order) : 0.8449029E+00  (-0.1290493E+00)
 number of electron     857.9999820 magnetization 
 augmentation part      338.3423851 magnetization 

 Broyden mixing:
  rms(total) = 0.14637E+01    rms(broyden)= 0.14631E+01
  rms(prec ) = 0.16572E+01
  weight for this iteration     100.00

 eigenvalues of (default mixing * dielectric matrix)
  average eigenvalue GAMMA=   0.4862
  1.9672  0.9284  0.9284  0.4251  0.4251  0.3769  0.0783  0.1161  0.1161  0.1680
  0.1680  0.1367

 Free energy of the ion-electron system (eV)
  ---------------------------------------------------
  alpha Z        PSCENC =      2101.59301765
  Ewald energy   TEWEN  =    175308.30214804
  -Hartree energ DENC   =   -307415.34489061
  -exchange      EXHF   =         0.00000000
  -V(xc)+E(xc)   XCENC  =      3924.89074958
  PAW double counting   =    142820.94338401  -148225.10898312
  entropy T*S    EENTRO =        -1.08059385
  eigenvalues    EBANDS =    -16237.25474983
  atomic energy  EATOM  =    147336.15547490
  Solvation  Ediel_sol  =         0.00000000
  ---------------------------------------------------
  free energy    TOTEN  =      -386.90444323 eV

  energy without entropy =     -385.82384939  energy(sigma->0) =     -386.36414631


--------------------------------------------------------------------------------------------------------




--------------------------------------- Iteration      1(  18)  ---------------------------------------


    POTLOK:  cpu time    0.0449: real time    0.0450
    SETDIJ:  cpu time    0.0050: real time    0.0050
     EDDAV:  cpu time    2.5605: real time    2.5666
       DOS:  cpu time    0.0009: real time    0.0009
    CHARGE:  cpu time    0.0504: real time    0.0505
    MIXING:  cpu time    0.0027: real time    0.0027
    --------------------------------------------
      LOOP:  cpu time    2.6644: real time    2.6707

 eigenvalue-minimisations  :  1392
 total energy-change (2. order) : 0.4845363E+00  (-0.1186576E+00)
 number of electron     857.9999818 magnetization 
 augmentation part      338.3508146 magnetization 

 Broyden mixing:
  rms(total) = 0.11994E+01    rms(broyden)= 0.11987E+01
  rms(prec ) = 0.13613E+01
  weight for this iteration     100.00

 eigenvalues of (default mixing * dielectric matrix)
  average eigenvalue GAMMA=   0.4785
  1.9568  1.0079  1.0079  0.4398  0.4398  0.4049  0.2308  0.1745  0.0783  0.1403
  0.1161  0.1161  0.1076

 Free energy of the ion-electron system (eV)
  ---------------------------------------------------
  alpha Z        PSCENC =      2101.59301765
  Ewald energy   TEWEN  =    175308.30214804
  -Hartree energ DENC   =   -307425.61241537
  -exchange      EXHF   =         0.00000000
  -V(xc)+E(xc)   XCENC  =      3924.88144792
  PAW double counting   =    142693.57124109  -148095.12843008
  entropy T*S    EENTRO =        -1.06141795
  eigenvalues    EBANDS =    -16229.12097310
  atomic energy  EATOM  =    147336.15547490
  Solvation  Ediel_sol  =         0.00000000
  ---------------------------------------------------
  free energy    TOTEN  =      -386.41990689 eV

  energy without entropy =     -385.35848895  energy(sigma->0) =     -385.88919792


--------------------------------------------------------------------------------------------------------




--------------------------------------- Iteration      1(  19)  ---------------------------------------


    POTLOK:  cpu time    0.0452: real time    0.0453
    SETDIJ:  cpu time    0.0051: real time    0.0051
     EDDAV:  cpu time    2.5703: real time    2.5764
       DOS:  cpu time    0.0009: real time    0.0008
    CHARGE:  cpu time    0.0504: real time    0.0506
    MIXING:  cpu time    0.0028: real time    0.0028
    --------------------------------------------
      LOOP:  cpu time    2.6747: real time    2.6810

 eigenvalue-minimisations  :  1400
 total energy-change (2. order) : 0.2277270E+00  (-0.3899479E-01)
 number of electron     857.9999814 magnetization 
 augmentation part      338.3306766 magnetization 

 Broyden mixing:
  rms(total) = 0.10394E+01    rms(broyden)= 0.10392E+01
  rms(prec ) = 0.11869E+01
  weight for this iteration     100.00

 eigenvalues of (default mixing * dielectric matrix)
  average eigenvalue GAMMA=   0.5249
  1.9934  1.2918  1.2918  0.5082  0.5082  0.4149  0.4149  0.1986  0.0783  0.1166
  0.1166  0.1515  0.1380  0.1258

 Free energy of the ion-electron system (eV)
  ---------------------------------------------------
  alpha Z        PSCENC =      2101.59301765
  Ewald energy   TEWEN  =    175308.30214804
  -Hartree energ DENC   =   -307429.88750100
  -exchange      EXHF   =         0.00000000
  -V(xc)+E(xc)   XCENC  =      3924.93335181
  PAW double counting   =    142585.59289974  -147985.62821893
  entropy T*S    EENTRO =        -1.08167911
  eigenvalues    EBANDS =    -16226.17167298
  atomic energy  EATOM  =    147336.15547490
  Solvation  Ediel_sol  =         0.00000000
  ---------------------------------------------------
  free energy    TOTEN  =      -386.19217989 eV

  energy without entropy =     -385.11050077  energy(sigma->0) =     -385.65134033


--------------------------------------------------------------------------------------------------------




--------------------------------------- Iteration      1(  20)  ---------------------------------------


    POTLOK:  cpu time    0.0453: real time    0.0454
    SETDIJ:  cpu time    0.0051: real time    0.0051
     EDDAV:  cpu time    2.7394: real time    2.7483
       DOS:  cpu time    0.0008: real time    0.0008
    CHARGE:  cpu time    0.0511: real time    0.0513
    MIXING:  cpu time    0.0031: real time    0.0031
    --------------------------------------------
      LOOP:  cpu time    2.8448: real time    2.8540

 eigenvalue-minimisations  :  1488
 total energy-change (2. order) : 0.2618444E+00  (-0.2734571E-01)
 number of electron     857.9999825 magnetization 
 augmentation part      338.3136353 magnetization 

 Broyden mixing:
  rms(total) = 0.86745E+00    rms(broyden)= 0.86705E+00
  rms(prec ) = 0.99695E+00
  weight for this iteration     100.00

 eigenvalues of (default mixing * dielectric matrix)
  average eigenvalue GAMMA=   0.5298
  2.0004  1.4296  1.4296  0.5632  0.5632  0.4146  0.4146  0.2410  0.0783  0.1614
  0.1614  0.1163  0.1163  0.1379  0.1191

 Free energy of the ion-electron system (eV)
  ---------------------------------------------------
  alpha Z        PSCENC =      2101.59301765
  Ewald energy   TEWEN  =    175308.30214804
  -Hartree energ DENC   =   -307439.19029922
  -exchange      EXHF   =         0.00000000
  -V(xc)+E(xc)   XCENC  =      3924.85978635
  PAW double counting   =    142342.27169306  -147737.68121592
  entropy T*S    EENTRO =        -1.06831627
  eigenvalues    EBANDS =    -16221.17262408
  atomic energy  EATOM  =    147336.15547490
  Solvation  Ediel_sol  =         0.00000000
  ---------------------------------------------------
  free energy    TOTEN  =      -385.93033549 eV

  energy without entropy =     -384.86201923  energy(sigma->0) =     -385.39617736


--------------------------------------------------------------------------------------------------------




--------------------------------------- Iteration      1(  21)  ---------------------------------------


    POTLOK:  cpu time    0.0458: real time    0.0469
    SETDIJ:  cpu time    0.0045: real time    0.0062
     EDDAV:  cpu time    2.6538: real time    2.6602
       DOS:  cpu time    0.0009: real time    0.0009
    CHARGE:  cpu time    0.0447: real time    0.0448
    MIXING:  cpu time    0.0029: real time    0.0029
    --------------------------------------------
      LOOP:  cpu time    2.7526: real time    2.7620

 eigenvalue-minimisations  :  1456
 total energy-change (2. order) : 0.1362049E+00  (-0.2803901E-01)
 number of electron     857.9999817 magnetization 
 augmentation part      338.3347997 magnetization 

 Broyden mixing:
  rms(total) = 0.72177E+00    rms(broyden)= 0.72127E+00
  rms(prec ) = 0.83233E+00
[...]
  in kB     -21.78780   -24.75604   -20.56936    -3.03694    -9.91317    -4.39291
  external pressure =      -22.37 kB  Pullay stress =        0.00 kB


 VOLUME and BASIS-vectors are now :
 -----------------------------------------------------------------------------
  energy-cutoff  :      450.00
  volume of cell :     2077.34
      direct lattice vectors                 reciprocal lattice vectors
     8.700730798 -4.005399070  0.000000000     0.114932874  0.000000000  0.000000000
     0.000000000 11.452783670  0.000000000     0.040195645  0.087315017  0.000000000
     0.000000000  0.000000000 20.846830137     0.000000000  0.000000000  0.047968923

  length of vectors
     9.578410000 11.452783670 20.846830137     0.114932874  0.096122849  0.047968923


 FORCES acting on ions
    electron-ion (+dipol)            ewald-force                    non-local-force                 convergence-correction
 -----------------------------------------------------------------------------------------------
   0.173E+03 -.575E+03 0.442E+04   -.176E+03 0.578E+03 -.443E+04   0.204E+01 -.248E+01 0.192E+01   -.477E-02 0.512E-01 0.116E-02
   0.260E+03 -.513E+03 0.200E+04   -.261E+03 0.513E+03 -.200E+04   0.148E+01 -.522E+00 0.221E+01   -.547E-01 0.847E-02 0.147E+00
   0.304E+03 -.407E+03 -.849E+03   -.304E+03 0.407E+03 0.848E+03   0.627E+00 -.150E-01 0.129E+01   -.629E-01 -.550E-01 0.146E-01
   0.193E+03 -.514E+03 -.382E+04   -.190E+03 0.514E+03 0.381E+04   -.190E+01 0.493E-01 0.793E+00   -.242E-01 0.189E+00 -.318E-01
   0.331E+03 -.382E+03 -.207E+02   -.332E+03 0.382E+03 0.195E+02   0.742E+00 -.205E+00 0.109E+01   0.844E-02 0.207E-01 0.125E+00
   0.385E+03 -.384E+03 -.269E+04   -.387E+03 0.384E+03 0.270E+04   0.152E+01 -.407E-01 -.130E+01   0.960E-01 0.178E+00 0.238E+00
   0.291E+03 -.311E+03 -.479E+04   -.293E+03 0.304E+03 0.478E+04   0.115E+01 0.612E+01 0.610E+01   -.331E-01 -.370E-01 0.598E-01
   0.102E+03 -.165E+03 0.474E+04   -.102E+03 0.158E+03 -.474E+04   0.836E+00 0.609E+01 -.457E+01   0.831E-01 -.147E+00 -.527E-01
   0.374E+03 -.281E+03 0.265E+04   -.375E+03 0.283E+03 -.266E+04   0.111E+01 -.114E+01 0.242E+01   0.476E-01 -.185E+00 0.477E-01
   0.304E+03 -.367E+03 0.340E+04   -.306E+03 0.366E+03 -.340E+04   0.202E+01 0.195E+00 0.204E+01   -.614E-01 0.108E+00 0.158E+00
   0.283E+03 -.413E+03 0.883E+03   -.284E+03 0.413E+03 -.884E+03   0.104E+01 0.105E+00 0.783E+00   0.482E-01 0.538E-01 0.132E+00
   0.265E+03 -.370E+03 -.184E+04   -.267E+03 0.371E+03 0.184E+04   0.130E+01 -.354E+00 -.122E-01   -.191E-01 -.682E-01 0.101E+00
   0.168E+03 -.189E+03 -.451E+04   -.166E+03 0.189E+03 0.450E+04   -.177E+01 0.248E+00 0.204E+01   -.517E-01 -.147E+00 0.587E-01
   0.592E+03 0.241E+03 0.455E+04   -.580E+03 -.241E+03 -.454E+04   -.101E+02 0.575E+00 -.927E+01   -.436E+00 0.138E+00 -.118E+00
   -.847E+01 0.840E+02 0.471E+04   0.728E+01 -.857E+02 -.470E+04   0.113E+01 0.196E+01 -.902E+01   0.891E-01 -.106E+00 -.886E-01
   0.134E+03 0.270E+03 0.257E+04   -.134E+03 -.271E+03 -.257E+04   0.578E+00 0.136E+01 0.179E+01   0.347E-01 -.333E-01 0.776E-01
   0.151E+03 0.299E+03 -.519E+02   -.152E+03 -.300E+03 0.513E+02   0.713E+00 0.149E+01 0.406E+00   0.828E-02 0.115E-01 0.201E+00
   0.151E+03 0.319E+03 -.273E+04   -.151E+03 -.320E+03 0.273E+04   0.580E+00 0.123E+01 0.175E-01   -.126E+00 -.240E+00 0.768E-01
   0.523E+02 0.112E+03 -.511E+04   -.510E+02 -.109E+03 0.509E+04   -.144E+01 -.303E+01 0.131E+02   -.589E-01 -.138E+00 0.174E+00
   0.174E+03 0.380E+03 -.449E+04   -.175E+03 -.380E+03 0.449E+04   0.375E+00 0.786E+00 -.329E+01   0.370E-01 0.205E+00 0.751E-01
   -.183E+03 0.228E+03 0.363E+04   0.183E+03 -.232E+03 -.364E+04   -.399E+00 0.307E+01 0.371E+01   -.240E-01 0.166E+00 -.107E-02
   0.122E+03 0.388E+03 0.907E+03   -.121E+03 -.390E+03 -.908E+03   0.864E-02 0.213E+01 0.870E+00   -.360E-01 -.568E-01 0.484E-01
   0.164E+03 0.370E+03 -.190E+04   -.165E+03 -.371E+03 0.190E+04   0.549E+00 0.121E+01 -.185E+00   -.186E-01 -.352E-01 0.562E-01
   0.168E+03 0.362E+03 -.105E+04   -.168E+03 -.364E+03 0.105E+04   0.674E+00 0.137E+01 -.214E+00   0.445E-01 0.988E-01 0.101E+00
   0.175E+03 0.383E+03 -.387E+04   -.176E+03 -.385E+03 0.387E+04   0.956E+00 0.204E+01 -.238E+01   0.984E-01 0.685E-01 0.834E-01
   0.281E+03 0.545E+03 0.180E+04   -.282E+03 -.547E+03 -.180E+04   0.960E+00 0.177E+01 0.114E+01   -.569E-01 0.295E-01 0.200E+00
   -.496E+03 -.417E+02 -.864E+03   0.497E+03 0.415E+02 0.862E+03   -.441E+00 0.448E+00 0.129E+01   0.913E-02 -.866E-01 0.302E-01
   -.515E+03 -.189E+03 -.382E+04   0.514E+03 0.191E+03 0.382E+04   0.123E+01 -.142E+01 0.757E+00   0.195E+00 0.981E-01 -.190E-01
   -.395E+03 -.190E+03 0.439E+04   0.398E+03 0.190E+03 -.439E+04   -.216E+01 -.184E+00 0.140E+01   0.122E+00 -.115E-02 -.245E-01
   -.476E+03 -.149E+03 0.192E+04   0.476E+03 0.148E+03 -.192E+04   -.969E-01 0.683E+00 0.188E+01   0.595E-01 -.585E-01 0.122E+00
   -.508E+03 0.154E+02 -.125E+02   0.509E+03 -.159E+02 0.112E+02   -.674E+00 0.505E+00 0.120E+01   0.259E-01 0.997E-02 0.981E-01
   -.541E+03 0.442E+02 -.269E+04   0.543E+03 -.454E+02 0.270E+04   -.101E+01 0.115E+01 -.131E+01   0.941E-02 0.169E+00 0.130E+00
   -.424E+03 0.193E+02 -.479E+04   0.420E+03 -.253E+02 0.478E+04   0.393E+01 0.488E+01 0.618E+01   -.241E+00 0.788E-01 0.231E-01
   -.498E+03 0.245E+03 0.280E+04   0.500E+03 -.247E+03 -.281E+04   -.139E+01 0.120E+01 0.242E+01   -.580E-01 -.426E-01 0.292E-01
   -.483E+03 -.511E+02 0.339E+04   0.484E+03 0.495E+02 -.339E+04   -.117E+01 0.122E+01 0.199E+01   0.678E-01 0.146E+00 0.263E+00
   -.517E+03 -.638E+02 0.896E+03   0.517E+03 0.628E+02 -.897E+03   -.633E+00 0.774E+00 0.716E+00   0.257E-03 0.808E-01 0.155E+00
   -.460E+03 -.390E+02 -.183E+04   0.461E+03 0.383E+02 0.183E+04   -.114E+01 0.734E+00 -.235E-01   -.277E-01 -.923E-01 0.141E+00
   -.254E+03 0.545E+01 -.450E+04   0.252E+03 -.350E+01 0.450E+04   0.137E+01 -.121E+01 0.205E+01   -.108E+00 -.204E+00 0.673E-01
   -.140E+03 0.453E+03 0.458E+04   0.133E+03 -.445E+03 -.457E+04   0.655E+01 -.610E+01 -.877E+01   0.434E-01 -.104E+00 -.672E-01
   -.990E+02 0.135E+03 -.309E+03   0.100E+03 -.137E+03 0.310E+03   -.124E+01 0.223E+01 -.603E+00   -.522E-02 -.362E-01 0.494E-01
   -.115E+03 0.117E+03 -.132E+04   0.116E+03 -.119E+03 0.132E+04   -.139E+01 0.277E+01 0.682E+00   0.309E-01 -.966E-01 -.283E-01
   -.762E+02 0.727E+02 0.167E+04   0.770E+02 -.732E+02 -.167E+04   -.155E+01 0.916E+00 0.471E+00   -.148E-01 -.652E-02 -.230E-01
   -.995E+02 0.114E+03 0.686E+03   0.101E+03 -.117E+03 -.685E+03   -.140E+01 0.246E+01 -.311E+00   0.402E-01 0.314E-02 0.558E-01
   -.114E+03 0.155E+03 -.102E+04   0.116E+03 -.157E+03 0.102E+04   -.138E+01 0.207E+01 -.109E+01   -.692E-02 0.461E-01 0.155E-01
   -.153E+03 0.235E+03 -.189E+04   0.156E+03 -.239E+03 0.189E+04   -.287E+01 0.383E+01 -.318E+01   -.110E-01 0.797E-01 0.234E-01
   -.559E+02 -.616E+02 0.185E+04   0.558E+02 0.615E+02 -.186E+04   0.482E+00 -.424E+00 0.455E+01   -.176E-01 0.612E-01 -.241E-01
   -.126E+03 0.120E+03 0.121E+04   0.128E+03 -.121E+03 -.121E+04   -.189E+01 0.149E+01 0.285E+01   -.387E-01 0.127E-01 0.153E-01
   -.967E+02 0.160E+03 0.340E+02   0.980E+02 -.163E+03 -.336E+02   -.130E+01 0.253E+01 -.489E+00   -.193E-01 -.964E-02 0.193E-01
   -.804E+02 0.148E+03 0.336E+03   0.817E+02 -.151E+03 -.336E+03   -.142E+01 0.239E+01 -.132E+00   0.392E-02 0.314E-01 0.598E-01
   -.743E+02 0.140E+03 -.683E+03   0.756E+02 -.143E+03 0.684E+03   -.152E+01 0.230E+01 -.854E+00   0.230E-01 0.391E-01 0.603E-01
   0.529E+02 0.552E+02 -.168E+04   -.530E+02 -.561E+02 0.168E+04   0.271E+00 0.149E+01 -.190E+01   0.541E-01 -.106E+00 0.650E-01
   0.106E+03 0.238E+03 0.132E+04   -.108E+03 -.241E+03 -.132E+04   0.173E+01 0.297E+01 -.471E+00   0.267E-01 -.627E-01 0.160E+00
   -.373E+02 -.811E+02 -.175E+04   0.373E+02 0.812E+02 0.175E+04   -.602E+00 -.135E+01 -.397E+01   0.552E-01 0.739E-01 0.268E-01
   -.487E+02 -.109E+03 -.528E+03   0.492E+02 0.110E+03 0.526E+03   -.625E+00 -.141E+01 0.196E+01   0.154E-01 0.211E-01 -.123E-01
   -.910E+02 -.317E+03 0.160E+04   0.934E+02 0.322E+03 -.161E+04   -.274E+01 -.570E+01 0.310E+01   0.809E-02 -.149E-01 0.234E-01
   -.310E+02 -.964E+02 0.584E+03   0.315E+02 0.976E+02 -.586E+03   -.515E+00 -.118E+01 0.139E+01   -.852E-02 -.127E-01 0.383E-01
   -.443E+02 -.796E+02 0.823E+03   0.447E+02 0.808E+02 -.825E+03   -.421E+00 -.136E+01 0.168E+01   0.593E-02 -.304E-01 0.292E-01
   -.444E+02 -.977E+02 -.169E+03   0.452E+02 0.993E+02 0.168E+03   -.827E+00 -.165E+01 0.147E+01   0.197E-01 0.353E-01 0.721E-01
   -.426E+02 -.938E+02 -.114E+04   0.432E+02 0.948E+02 0.114E+04   -.296E+00 -.682E+00 0.229E+01   -.631E-01 0.874E-02 0.120E+00
   -.756E+02 0.127E+03 0.172E+04   0.769E+02 -.127E+03 -.172E+04   -.162E+01 0.155E+01 0.706E+00   -.188E-01 -.549E-01 -.299E-01
   -.118E+03 -.264E+03 0.186E+04   0.120E+03 0.269E+03 -.186E+04   -.279E+01 -.634E+01 0.244E+01   -.296E-01 0.156E+00 0.214E-01
   -.731E+02 -.134E+03 0.118E+04   0.736E+02 0.135E+03 -.119E+04   -.576E+00 -.141E+01 0.746E+00   0.960E-02 0.532E-01 0.563E-01
   -.559E+02 -.106E+03 0.178E+03   0.564E+02 0.107E+03 -.180E+03   -.441E+00 -.914E+00 0.182E+01   -.793E-02 -.131E-01 0.459E-01
   -.402E+02 -.842E+02 -.865E+03   0.406E+02 0.851E+02 0.862E+03   -.415E+00 -.928E+00 0.270E+01   -.292E-01 -.408E-01 0.951E-02
   -.319E+02 -.687E+02 -.187E+04   0.320E+02 0.689E+02 0.187E+04   -.788E+00 -.173E+01 -.419E+01   -.112E-01 0.910E-02 0.434E-01
   0.969E+02 -.325E+02 0.167E+04   -.979E+02 0.325E+02 -.167E+04   0.174E+01 -.367E+00 0.587E+00   0.501E-01 -.106E-01 -.418E-02
   0.155E+03 -.192E+02 0.699E+03   -.157E+03 0.187E+02 -.698E+03   0.283E+01 0.481E+00 -.314E+00   -.173E-01 0.321E-01 0.748E-01
   0.170E+03 0.934E+01 -.303E+03   -.172E+03 -.983E+01 0.303E+03   0.254E+01 0.466E+00 -.383E+00   -.263E-01 -.340E-01 0.545E-01
   0.165E+03 -.115E+02 -.132E+04   -.167E+03 0.111E+02 0.132E+04   0.301E+01 0.720E+00 0.640E+00   -.863E-01 -.604E-01 -.258E-01
   0.191E+03 0.131E+02 -.102E+04   -.194E+03 -.135E+02 0.102E+04   0.246E+01 0.362E+00 -.972E+00   0.325E-01 0.277E-01 0.319E-01
   0.278E+03 0.366E+02 -.189E+04   -.283E+03 -.369E+02 0.189E+04   0.479E+01 0.295E+00 -.316E+01   0.827E-01 0.126E+00 0.371E-01
   0.538E+02 0.106E+03 0.187E+04   -.541E+02 -.108E+03 -.187E+04   0.456E+00 0.375E+01 0.376E+01   0.585E-01 0.738E-01 -.149E-01
   0.163E+03 0.136E+02 0.104E+04   -.165E+03 -.144E+02 -.104E+04   0.280E+01 0.618E+00 -.100E+01   0.285E-01 -.353E-01 -.349E-01
   0.177E+03 0.291E+02 0.206E+02   -.180E+03 -.295E+02 -.203E+02   0.275E+01 0.260E+00 -.356E+00   -.844E-03 -.303E-01 0.327E-01
   0.155E+03 0.365E+02 -.684E+03   -.158E+03 -.369E+02 0.685E+03   0.272E+01 0.315E+00 -.865E+00   0.163E-01 0.371E-01 0.439E-01
   0.720E+01 0.763E+02 -.168E+04   -.795E+01 -.770E+02 0.168E+04   0.102E+01 0.119E+01 -.189E+01   -.127E-01 -.189E-01 0.173E-01
   0.170E+03 0.406E+02 0.339E+03   -.173E+03 -.414E+02 -.339E+03   0.268E+01 0.711E+00 0.471E-01   0.800E-02 0.208E-01 0.421E-01
   0.171E+03 0.264E+03 0.135E+04   -.173E+03 -.267E+03 -.135E+04   0.128E+01 0.323E+01 -.221E+00   -.643E-01 0.178E-01 0.503E-01
 -----------------------------------------------------------------------------------------------
   -.138E+02 -.431E+02 -.328E+02   -.796E-12 0.176E-11 -.105E-10   0.141E+02 0.427E+02 0.288E+02   -.294E+00 0.363E+00 0.403E+01
 
 
 POSITION                                       TOTAL-FORCE (eV/Angst)
 -----------------------------------------------------------------------------------
      5.55051      2.35858      1.66874        -0.723610      0.517030      0.203987
      6.34277      4.07957      4.17186        -0.135840     -0.184212     -0.208395
      7.13503      5.80056      6.67497         0.171325      0.118840     -0.079322
      7.92730      7.52156      9.17809         0.680433      0.302409     -0.672847
      3.97070     -1.07316      5.84060         0.153615     -0.062000     -0.060330
      4.76297      0.64784      8.34372        -0.029160      0.107632      0.374760
      5.55523      2.36883     10.84683        -0.569958     -0.966457     -1.736292
      2.38618      6.93764      0.83437         0.147122     -0.445558      1.242993
      3.17844      8.65863      3.33749         0.055792      0.103908     -0.235173
      0.01411      1.78491      2.50311        -0.090816     -0.124390     -0.248046
      0.80637      3.50591      5.00623        -0.070823     -0.035103     -0.104096
      1.59863      5.22690      7.50934        -0.116566     -0.014822      0.127104
      2.39090      6.94789     10.01246         0.564580      0.184670     -0.877717
      7.92258      7.51131      0.00000         1.267411      0.578370      1.926700
      5.17689     -1.47892      0.48830         0.034696      0.180980      1.726552
      5.96915      0.24208      2.99142         0.000030      0.042228     -0.263266
      6.76141      1.96307      5.49453         0.005946      0.072975     -0.038979
      7.55367      3.68406      7.99765        -0.022832      0.059631      0.233609
      8.34594      5.40506     10.50076        -0.177456     -0.383013     -1.673108
      5.18161     -1.46866      9.66639         0.139417      0.336464      0.704904
      2.80482      4.82114      2.15705         0.396738     -0.059560     -0.561443
      3.59708      6.54213      4.66016         0.155084      0.046424      0.041568
      4.38934      8.26313      7.16328         0.037412      0.094052     -0.098969
      1.22501      1.38941      6.32891         0.088809      0.221227     -0.219171
      2.01727      3.11040      8.83202         0.050741      0.073000      0.494849
      0.43275     11.12120      3.82579        -0.113129     -0.280256     -0.358345
      0.73309      8.74771      6.67497        -0.028791      0.177727     -0.076227
      1.52535     10.46871      9.17809        -0.205239      0.703274     -0.670781
      7.84929      1.30033      1.66874         0.479205     -0.229856      0.446572
      8.64156      3.02132      4.17186        -0.146277     -0.144006     -0.234758
      6.26949     -2.13141      5.84060        -0.164234      0.049943     -0.060404
      7.06175     -0.41041      8.34372         0.117396      0.074682      0.372086
      7.85401      1.31058     10.84683        -0.368695     -1.037736     -1.726000
      5.47723      7.60038      3.33749        -0.067835     -0.229607     -0.233357
      2.31289      0.72666      2.50311        -0.058784     -0.239290     -0.227314
      3.10516      2.44766      5.00623         0.024517     -0.068878     -0.115592
      3.89742      4.16865      7.50934         0.064517     -0.099631      0.125912
      4.68968      5.88964     10.01246        -0.217622      0.542561     -0.860919
      1.52063     10.45845      0.00000        -0.328671      1.147151      1.877104
      0.11665      6.58149      6.48654        -0.059818      0.085602      0.070618
      0.90891      8.30248      8.98965        -0.117280      0.432125      1.383070
      7.23286     -0.86589      1.48031        -0.745080      0.420979     -0.547528
      8.02512      0.85510      3.98342        -0.187360      0.142483      0.146621
      6.44531     -2.57663      8.15528        -0.058837      0.024714      0.274108
      7.23758     -0.85564     10.65839        -0.224831      0.368002     -0.566350
      4.06853      3.71317      0.64594         0.313194     -0.409998      0.678862
      4.86079      5.43416      3.14905        -0.304502      0.116602      0.528963
      5.65305      7.15516      5.65216        -0.051817      0.016942     -0.063808
      2.48872      0.28144      4.81779        -0.096950     -0.038964      0.128688
      3.28098      2.00243      7.32091        -0.204496      0.070221      0.091878
      4.07325      3.72342      9.82402         0.180144      0.505394      0.467996
      1.69646     10.01323      2.31468         0.070471      0.048887     -0.717930
      1.16809      1.26577      9.80852        -0.534132     -1.197018      0.536556
      0.37583     10.99756      7.30541        -0.078039     -0.163820      0.137389
      7.49204      3.55017      2.29918        -0.362500     -0.789379     -1.067663
      8.28430      5.27117      4.80229        -0.016360      0.008701     -0.069818
      5.11997     -1.60255      3.96792        -0.028661     -0.145194      0.067028
      5.91223      0.11844      6.47103         0.017003      0.003456      0.216669
      6.70449      1.83943      8.97415         0.184006      0.373467      1.226933
      4.32771      8.12924      1.46480        -0.394191      0.760459     -1.384616
      1.16338      1.25552      0.63043        -0.600994     -1.239803     -1.172721
      1.95564      2.97651      3.13355        -0.006102     -0.132647     -0.296598
      2.74790      4.69750      5.63666         0.048819      0.158538      0.167261
      3.54016      6.41849      8.13978        -0.045344     -0.100941      0.484336
      4.33243      8.13949     10.64289        -0.731870     -1.575882      0.368545
      4.30567      0.48164      1.48031         0.797963     -0.290310     -0.523483
      5.09793      2.20264      3.98342         0.254936      0.038014      0.184683
      5.89020      3.92363      6.48654         0.137911     -0.050585      0.122083
      6.68246      5.64462      8.98965         0.377267      0.193544      1.379369
      3.51813     -1.22910      8.15528         0.054253     -0.001403      0.302395
      4.31039      0.49189     10.65839         0.442792      0.065027     -0.567126
      1.14134      5.06071      0.64594         0.154374      1.151906      0.019296
      1.93360      6.78170      3.14905         0.375102     -0.132092     -0.218424
      2.72586      8.50269      5.65216        -0.004425     -0.202861     -0.011249
      0.35380      3.34996      7.32091         0.170076     -0.123366      0.062855
      1.14606      5.07096      9.82402         0.251949      0.459449      0.467165
      8.26226     -2.37643      4.81779         0.034112     -0.074324      0.183897
      7.47000      7.35536      2.31468        -0.009227      0.093273     -0.747799
 -----------------------------------------------------------------------------------
    total drift:                                0.041444     -0.067587      0.012887


--------------------------------------------------------------------------------------------------------



  FREE ENERGIE OF THE ION-ELECTRON SYSTEM (eV)
  ---------------------------------------------------
  free  energy   TOTEN  =      -385.54169278 eV

  energy  without entropy=     -384.37050439  energy(sigma->0) =     -384.95609859
 


--------------------------------------------------------------------------------------------------------


    POTLOK:  cpu time    0.0508: real time    0.0511


--------------------------------------------------------------------------------------------------------


     LOOP+:  cpu time   93.3783: real time   93.6943
    4ORBIT:  cpu time    0.0000: real time    0.0000

 total amount of memory used by VASP MPI-rank0    47145. kBytes
=======================================================================

   base      :      30000. kBytes
   nonlr-proj:       2599. kBytes
   fftplans  :       3720. kBytes
   grid      :       6724. kBytes
   one-center:        101. kBytes
   wavefun   :       4001. kBytes
 
  
  
 General timing and accounting informations for this job:
 ========================================================
  
                  Total CPU time used (sec):       95.606
                            User time (sec):       94.756
                          System time (sec):        0.850
                         Elapsed time (sec):       96.358
  
                   Maximum memory used (kb):      238768.
                   Average memory used (kb):           0.
  
                          Minor page faults:       101807
                          Major page faults:            0
                 Voluntary context switches:          980
