       N       E                     dE             d eps       ncg     rms          rms(c)
DAV:   1     0.104187343943E+05    0.10419E+05   -0.53652E+05  1232   0.166E+03
DAV:   2     0.646668463878E+03   -0.97721E+04   -0.94238E+04  1072   0.530E+02
DAV:   3    -0.360769117499E+03   -0.10074E+04   -0.94850E+03  1144   0.182E+02
DAV:   4    -0.427014404436E+03   -0.66245E+02   -0.65388E+02  1176   0.414E+01
DAV:   5    -0.429629917569E+03   -0.26155E+01   -0.26120E+01  1312   0.872E+00    0.850E+01
DAV:   6    -0.523301821573E+03   -0.93672E+02   -0.10474E+03  1224   0.120E+02    0.169E+02
DAV:   7    -0.412806746459E+03    0.11050E+03   -0.23539E+02  1152   0.704E+01    0.790E+01
DAV:   8    -0.512184643159E+03   -0.99378E+02   -0.16089E+02  1320   0.909E+01    0.170E+02
DAV:   9    -0.411071388545E+03    0.10111E+03   -0.16102E+02  1288   0.587E+01    0.902E+01
DAV:  10    -0.398362221449E+03    0.12709E+02   -0.66468E+01  1368   0.395E+01    0.480E+01
DAV:  11    -0.434219327288E+03   -0.35857E+02   -0.64311E+01  1392   0.490E+01    0.123E+02
DAV:  12    -0.409932440270E+03    0.24287E+02   -0.50420E+01  1400   0.327E+01    0.595E+01
DAV:  13    -0.397053501896E+03    0.12879E+02   -0.31663E+01  1336   0.390E+01    0.467E+01
DAV:  14    -0.391835560933E+03    0.52179E+01   -0.20058E+01  1336   0.244E+01    0.407E+01
DAV:  15    -0.386887756450E+03    0.49478E+01   -0.85343E+00  1376   0.144E+01    0.319E+01
DAV:  16    -0.385026419952E+03    0.18613E+01   -0.41458E+00  1392   0.125E+01    0.320E+01
DAV:  17    -0.383389320537E+03    0.16371E+01   -0.27203E+00  1328   0.102E+01    0.280E+01
DAV:  18    -0.382257416241E+03    0.11319E+01   -0.24056E+00  1368   0.826E+00    0.265E+01
DAV:  19    -0.379751118436E+03    0.25063E+01   -0.13440E+00  1400   0.858E+00    0.215E+01
DAV:  20    -0.378205725931E+03    0.15454E+01   -0.17498E+00  1384   0.894E+00    0.172E+01
DAV:  21    -0.377063658770E+03    0.11421E+01   -0.11103E+00  1376   0.604E+00    0.119E+01
DAV:  22    -0.376898005293E+03    0.16565E+00   -0.66200E-01  1336   0.426E+00    0.103E+01
DAV:  23    -0.376812505716E+03    0.85500E-01   -0.20876E-01  1264   0.268E+00    0.917E+00
DAV:  24    -0.376863487969E+03   -0.50982E-01   -0.24281E-01  1344   0.314E+00    0.935E+00
DAV:  25    -0.376565318689E+03    0.29817E+00   -0.22587E-01  1480   0.296E+00    0.610E+00
DAV:  26    -0.376546296512E+03    0.19022E-01   -0.26547E-01  1400   0.358E+00    0.572E+00
DAV:  27    -0.376437109073E+03    0.10919E+00   -0.27561E-01  1368   0.331E+00    0.342E+00
DAV:  28    -0.376421951618E+03    0.15157E-01   -0.95940E-02  1224   0.122E+00    0.210E+00
DAV:  29    -0.376418973025E+03    0.29786E-02   -0.25779E-02  1208   0.920E-01    0.178E+00
DAV:  30    -0.376420432337E+03   -0.14593E-02   -0.29388E-02  1200   0.117E+00    0.185E+00
DAV:  31    -0.376421204380E+03   -0.77204E-03   -0.45820E-02  1280   0.119E+00    0.200E+00
DAV:  32    -0.376417412768E+03    0.37916E-02   -0.22418E-02  1328   0.957E-01    0.187E+00
DAV:  33    -0.376406824804E+03    0.10588E-01   -0.17417E-02  1416   0.644E-01    0.511E-01
DAV:  34    -0.376407390082E+03   -0.56528E-03   -0.44441E-03  1344   0.447E-01    0.475E-01
DAV:  35    -0.376407545303E+03   -0.15522E-03   -0.19698E-03  1176   0.296E-01    0.437E-01
DAV:  36    -0.376407523660E+03    0.21643E-04   -0.76424E-04   968   0.197E-01
   1 F= -.37640752E+03 E0= -.37581821E+03  d E =-.117863E+01
