LAMMPS data file via write_data, version 5 Jun 2019, timestep = 92

72 atoms
2 atom types

0.0000000000000000e+00 1.6884694054200001e+01 xlo xhi
0.0000000000000000e+00 9.5784099999999999e+00 ylo yhi
0.0000000000000000e+00 1.6173863021300001e+01 zlo zhi
0.0000000000000000e+00 0.0000000000000000e+00 0.0000000000000000e+00 xy xz yz

Masses

1 58.71
2 32.06

Atoms # atomic

1 1 1.1880679172317175e+00 8.7393750140503599e+00 4.5931501625428117e+00 0 0 0
2 1 1.6807120366999999e+00 8.8448295298000001e+00 1.9259931187999999e+00 0 0 0
3 1 1.0457311472378876e+01 4.0374532909414071e+00 3.4558334155735646e+00 0 0 0
4 1 1.2119561666774683e+01 3.5283309655909925e+00 1.4272491992830154e+00 0 0 0
5 1 4.0084365668000004e+00 4.0556245298000002e+00 4.4964460856999997e+00 0 0 0
6 1 4.5476475980970887e+00 3.9521436608078586e+00 1.8433683112626666e+00 0 0 0
7 1 1.1618989692570555e+01 5.4790005048832335e-01 5.0855092489047751e+00 0 1 0
8 1 1.2742618274500002e+01 8.8448295298000001e+00 2.9541742925999999e+00 0 0 0
9 1 6.9198304750000004e+00 8.8448295298000001e+00 3.9823554826000001e+00 0 0 0
10 1 8.9918759504368726e+00 8.2551287459880047e+00 2.0390528957248577e+00 0 0 0
11 1 1.5776082621034099e+01 3.2733322410693577e+00 4.6600568453419893e+00 0 0 0
12 1 1.5654012182700001e+01 4.0556245298000002e+00 2.4400837057000002e+00 0 0 0
13 1 6.2680523390676601e+00 6.5163538439282220e+00 4.9808070528661190e+00 0 0 0
14 1 6.9030844970528173e+00 6.8506050658221733e+00 2.6593579584291556e+00 0 0 0
15 1 1.5828322453000000e+01 5.3175622600000005e-01 4.6030592091000004e+00 0 0 0
16 1 1.6411991831000002e+01 5.3175622600000005e-01 1.5185156554000001e+00 0 0 0
17 1 1.8550223070000005e+00 5.3209612259999997e+00 4.0889686222000003e+00 0 0 0
18 1 2.1142360789511696e+00 5.3207193081772051e+00 1.4707782497301680e+00 0 0 0
19 1 9.1311267473553777e+00 3.4945144586817085e-02 4.4800834822060862e+00 0 0 0
20 1 1.0589204014700000e+01 5.3175622600000005e-01 2.5466968454000001e+00 0 0 0
21 1 4.7664161983000000e+00 5.3175622600000005e-01 3.5748780191999971e+00 0 0 0
22 1 4.2194364430946134e+00 6.8106869249360658e-01 1.3219848683294344e+00 0 0 0
23 1 1.2336445715763634e+01 5.4321457162604210e+00 4.0616844559646701e+00 0 0 0
24 1 1.3500597922900003e+01 5.3209612259999997e+00 2.0326062422999991e+00 0 0 0
25 1 1.2006379063050390e+00 1.9226680441759676e+00 4.5839248632167831e+00 0 0 0
26 1 1.6807120366999999e+00 1.7970929222000001e+00 1.9259931187999999e+00 0 0 0
27 1 9.8312243663000007e+00 6.5862979222000009e+00 3.4682648956999969e+00 0 0 0
28 1 1.0369552562784072e+01 6.6513519740122238e+00 7.8410733722642134e-01 0 0 0
29 1 4.0084365668000004e+00 6.5862979222000009e+00 4.4964460856999997e+00 0 0 0
30 1 4.5389650151081504e+00 6.6436905854139088e+00 1.8050228812745037e+00 0 0 0
31 1 1.2370416822339980e+01 3.1156475480810735e+00 5.0202926516615909e+00 0 0 0
32 1 1.2742618274500002e+01 1.7970929222000001e+00 2.9541742925999999e+00 0 0 0
33 1 6.8693151509680614e+00 1.7125715039236387e+00 3.7061544507701445e+00 0 0 0
34 1 6.6713946253503824e+00 5.1534104216446186e-01 1.4094021047334226e+00 0 0 0
35 1 1.5823840989335574e+01 7.3344509704067287e+00 4.6539057836033022e+00 0 0 0
36 1 1.5654012182700001e+01 6.5862979222000009e+00 2.4400837057000002e+00 0 0 0
37 2 2.6239466536548711e-01 2.0949248365317312e+00 4.7398754555970590e-01 0 0 0
38 2 8.1419958239798387e+00 7.2493364934402678e+00 4.4793744003461873e+00 0 0 0
39 2 8.6054925694124762e+00 6.2093739550584965e+00 1.6942161540205152e+00 0 0 0
40 2 1.6537359109397602e+01 1.9273695530397164e+00 5.9525721660764415e+00 0 0 0
41 2 1.6655921460300000e+01 2.1429884642000001e+00 3.0845435538000001e+00 0 0 0
42 2 2.1101901099851372e+00 6.9901902655268184e+00 5.2907097321109431e+00 0 0 0
43 2 2.6826213141999999e+00 6.9321934642000000e+00 2.5704529668999982e+00 0 0 0
44 2 1.0833133660800000e+01 2.1429884642000001e+00 4.1127247437000003e+00 0 0 0
45 2 1.1698949296026280e+01 1.5775733238358582e+00 1.1491514134034932e+00 0 0 0
46 2 5.0873359600079393e+00 2.2653414984279410e+00 4.6931939799598643e+00 0 0 0
47 2 5.5940152224000004e+00 2.1429884642000001e+00 2.0563623799999999e+00 0 0 0
48 2 1.3744527569000001e+01 6.9321934642000000e+00 3.5986341568000002e+00 0 0 0
49 2 1.4401149459144436e+01 6.7090056354890084e+00 8.5824274798289368e-01 0 0 0
50 2 2.5133042869000000e+00 5.3175622600000005e-01 3.6034100559999978e+00 0 0 0
51 2 2.4331410320201745e+00 5.2631112963350257e-01 4.5778117965713061e-01 0 0 0
52 2 1.0540733767586158e+01 5.3485254576571526e+00 5.0273595834149036e+00 0 0 0
53 2 1.1247485994600000e+01 5.3209612259999997e+00 2.0611382790999997e+00 0 0 0
54 2 4.8620844179505411e+00 5.3271172901453117e+00 5.8835973461913333e+00 0 0 0
55 2 5.4246981781999999e+00 5.3209612259999997e+00 3.0893194690999999e+00 0 0 0
56 2 1.3575210524799999e+01 5.3175622600000005e-01 4.6315912459000002e+00 0 0 0
57 2 1.4238339349750406e+01 4.5778034569788817e-01 2.0579926881880861e+00 0 0 0
58 2 5.6845707109731997e-02 5.3068220345601604e+00 1.3761820943602814e+00 0 0 0
59 2 7.4385393039061114e+00 7.0843926897540277e-01 5.4119046596993456e+00 0 0 0
60 2 8.3360920864000008e+00 5.3175622600000005e-01 2.5752288659999998e+00 0 0 0
61 2 1.6486604432899998e+01 5.3209612259999997e+00 4.1175006428999952e+00 0 0 0
62 2 2.6114810799643406e-01 8.5443210254376165e+00 4.7678487689124555e-01 0 0 0
63 2 1.6517034640875689e+01 8.7085151298306300e+00 5.9532884240199282e+00 0 0 0
64 2 1.6655921460300000e+01 8.4989339878999992e+00 3.0845435538000001e+00 0 0 0
65 2 2.1375007828275017e+00 3.6575034051282445e+00 5.2960132479247370e+00 0 0 0
66 2 2.6826213141999999e+00 3.7097289879000002e+00 2.5704529668999982e+00 0 0 0
67 2 1.0833133660800000e+01 8.4989339878999992e+00 4.1127247437000003e+00 0 0 0
68 2 1.1139400083088335e+01 8.4089701970941562e+00 1.4495032420698317e+00 0 0 0
69 2 5.1100506527009051e+00 8.3309201779962798e+00 4.9099579115679957e+00 0 0 0
70 2 5.5940152224000004e+00 8.4989339878999992e+00 2.0563623799999999e+00 0 0 0
71 2 1.3744527569000001e+01 3.7097289879000002e+00 3.5986341568000002e+00 0 0 0
72 2 1.4149966865848475e+01 3.6894922924414182e+00 9.5875776111163136e-01 0 0 0

Velocities

1 0.0000000000000000e+00 0.0000000000000000e+00 0.0000000000000000e+00
2 0.0000000000000000e+00 0.0000000000000000e+00 0.0000000000000000e+00
3 0.0000000000000000e+00 0.0000000000000000e+00 0.0000000000000000e+00
4 0.0000000000000000e+00 0.0000000000000000e+00 0.0000000000000000e+00
5 0.0000000000000000e+00 0.0000000000000000e+00 0.0000000000000000e+00
6 0.0000000000000000e+00 0.0000000000000000e+00 0.0000000000000000e+00
7 0.0000000000000000e+00 0.0000000000000000e+00 0.0000000000000000e+00
8 0.0000000000000000e+00 0.0000000000000000e+00 0.0000000000000000e+00
9 0.0000000000000000e+00 0.0000000000000000e+00 0.0000000000000000e+00
10 0.0000000000000000e+00 0.0000000000000000e+00 0.0000000000000000e+00
11 0.0000000000000000e+00 0.0000000000000000e+00 0.0000000000000000e+00
12 0.0000000000000000e+00 0.0000000000000000e+00 0.0000000000000000e+00
13 0.0000000000000000e+00 0.0000000000000000e+00 0.0000000000000000e+00
14 0.0000000000000000e+00 0.0000000000000000e+00 0.0000000000000000e+00
15 0.0000000000000000e+00 0.0000000000000000e+00 0.0000000000000000e+00
16 0.0000000000000000e+00 0.0000000000000000e+00 0.0000000000000000e+00
17 0.0000000000000000e+00 0.0000000000000000e+00 0.0000000000000000e+00
18 0.0000000000000000e+00 0.0000000000000000e+00 0.0000000000000000e+00
19 0.0000000000000000e+00 0.0000000000000000e+00 0.0000000000000000e+00
20 0.0000000000000000e+00 0.0000000000000000e+00 0.0000000000000000e+00
21 0.0000000000000000e+00 0.0000000000000000e+00 0.0000000000000000e+00
22 0.0000000000000000e+00 0.0000000000000000e+00 0.0000000000000000e+00
23 0.0000000000000000e+00 0.0000000000000000e+00 0.0000000000000000e+00
24 0.0000000000000000e+00 0.0000000000000000e+00 0.0000000000000000e+00
25 0.0000000000000000e+00 0.0000000000000000e+00 0.0000000000000000e+00
26 0.0000000000000000e+00 0.0000000000000000e+00 0.0000000000000000e+00
27 0.0000000000000000e+00 0.0000000000000000e+00 0.0000000000000000e+00
28 0.0000000000000000e+00 0.0000000000000000e+00 0.0000000000000000e+00
29 0.0000000000000000e+00 0.0000000000000000e+00 0.0000000000000000e+00
30 0.0000000000000000e+00 0.0000000000000000e+00 0.0000000000000000e+00
31 0.0000000000000000e+00 0.0000000000000000e+00 0.0000000000000000e+00
32 0.0000000000000000e+00 0.0000000000000000e+00 0.0000000000000000e+00
33 0.0000000000000000e+00 0.0000000000000000e+00 0.0000000000000000e+00
34 0.0000000000000000e+00 0.0000000000000000e+00 0.0000000000000000e+00
35 0.0000000000000000e+00 0.0000000000000000e+00 0.0000000000000000e+00
36 0.0000000000000000e+00 0.0000000000000000e+00 0.0000000000000000e+00
37 0.0000000000000000e+00 0.0000000000000000e+00 0.0000000000000000e+00
38 0.0000000000000000e+00 0.0000000000000000e+00 0.0000000000000000e+00
39 0.0000000000000000e+00 0.0000000000000000e+00 0.0000000000000000e+00
40 0.0000000000000000e+00 0.0000000000000000e+00 0.0000000000000000e+00
41 0.0000000000000000e+00 0.0000000000000000e+00 0.0000000000000000e+00
42 0.0000000000000000e+00 0.0000000000000000e+00 0.0000000000000000e+00
43 0.0000000000000000e+00 0.0000000000000000e+00 0.0000000000000000e+00
44 0.0000000000000000e+00 0.0000000000000000e+00 0.0000000000000000e+00
45 0.0000000000000000e+00 0.0000000000000000e+00 0.0000000000000000e+00
46 0.0000000000000000e+00 0.0000000000000000e+00 0.0000000000000000e+00
47 0.0000000000000000e+00 0.0000000000000000e+00 0.0000000000000000e+00
48 0.0000000000000000e+00 0.0000000000000000e+00 0.0000000000000000e+00
49 0.0000000000000000e+00 0.0000000000000000e+00 0.0000000000000000e+00
50 0.0000000000000000e+00 0.0000000000000000e+00 0.0000000000000000e+00
51 0.0000000000000000e+00 0.0000000000000000e+00 0.0000000000000000e+00
52 0.0000000000000000e+00 0.0000000000000000e+00 0.0000000000000000e+00
53 0.0000000000000000e+00 0.0000000000000000e+00 0.0000000000000000e+00
54 0.0000000000000000e+00 0.0000000000000000e+00 0.0000000000000000e+00
55 0.0000000000000000e+00 0.0000000000000000e+00 0.0000000000000000e+00
56 0.0000000000000000e+00 0.0000000000000000e+00 0.0000000000000000e+00
57 0.0000000000000000e+00 0.0000000000000000e+00 0.0000000000000000e+00
58 0.0000000000000000e+00 0.0000000000000000e+00 0.0000000000000000e+00
59 0.0000000000000000e+00 0.0000000000000000e+00 0.0000000000000000e+00
60 0.0000000000000000e+00 0.0000000000000000e+00 0.0000000000000000e+00
61 0.0000000000000000e+00 0.0000000000000000e+00 0.0000000000000000e+00
62 0.0000000000000000e+00 0.0000000000000000e+00 0.0000000000000000e+00
63 0.0000000000000000e+00 0.0000000000000000e+00 0.0000000000000000e+00
64 0.0000000000000000e+00 0.0000000000000000e+00 0.0000000000000000e+00
65 0.0000000000000000e+00 0.0000000000000000e+00 0.0000000000000000e+00
66 0.0000000000000000e+00 0.0000000000000000e+00 0.0000000000000000e+00
67 0.0000000000000000e+00 0.0000000000000000e+00 0.0000000000000000e+00
68 0.0000000000000000e+00 0.0000000000000000e+00 0.0000000000000000e+00
69 0.0000000000000000e+00 0.0000000000000000e+00 0.0000000000000000e+00
70 0.0000000000000000e+00 0.0000000000000000e+00 0.0000000000000000e+00
71 0.0000000000000000e+00 0.0000000000000000e+00 0.0000000000000000e+00
72 0.0000000000000000e+00 0.0000000000000000e+00 0.0000000000000000e+00
