"Millerite NiS"                         
           1
    11.256463    0.000000    0.000000
     5.044562   10.062820    0.000000
     0.000000    0.000000   22.883649
   Ty   Ty
  52  52
Direct configuration=     1
   0.26092070  0.47878036  0.29050611
   0.35488056  0.38482049  0.41880986
   0.44524175  0.29445932  0.53277422
   0.04456996  0.19895570  0.08419380
   0.16696083  0.07274024  0.16220237
   0.02780318  0.05657109  0.48804124
   0.20961075  0.31551778  0.03423279
   0.27423906  0.33335899  0.12830375
   0.36819893  0.23939913  0.25660749
   0.46215880  0.14543926  0.38491124
   0.00030194  0.37150212  0.25660749
   0.09426181  0.27754226  0.38491124
   0.17752141  0.20252375  0.49421018
   0.40634206  0.46546199  0.12830375
   0.31783670  0.04039342  0.02346931
   0.76092070  0.47878036  0.29050611
   0.85488056  0.38482049  0.41880986
   0.54086800  0.21090986  0.08892429
   0.66696083  0.07274024  0.16220237
   0.54457122  0.05121024  0.49528880
   0.70195372  0.32160383  0.03586506
   0.77423906  0.33335899  0.12830375
   0.86819893  0.23939913  0.25660749
   0.96215880  0.14543926  0.38491124
   0.50030194  0.37150212  0.25660749
   0.59426181  0.27754226  0.38491124
   0.68849087  0.19512984  0.49528881
   0.90634206  0.46546199  0.12830375
   0.72573065  0.00643368  0.05191003
   0.26092070  0.97878036  0.29050611
   0.35488056  0.88482049  0.41880986
   0.16696083  0.57274024  0.16220237
   0.20484814  0.90394512  0.02669492
   0.27423907  0.83335899  0.12830375
   0.36819893  0.73939913  0.25660749
   0.46215880  0.64543926  0.38491124
   0.00030194  0.87150212  0.25660749
   0.09426181  0.77754226  0.38491124
   0.40634206  0.96546199  0.12830375
   0.21451818  0.53020320  0.05686461
   0.76092070  0.97878036  0.29050611
   0.85488056  0.88482049  0.41880986
   0.66696083  0.57274024  0.16220237
   0.53717640  0.56218025  0.49420968
   0.77423907  0.83335899  0.12830375
   0.86819893  0.73939913  0.25660749
   0.96215880  0.64543926  0.38491124
   0.50030194  0.87150212  0.25660749
   0.59426181  0.77754226  0.38491124
   0.68313000  0.71189830  0.48804077
   0.90634206  0.96546199  0.12830375
   0.71562796  0.53032767  0.05678465
   0.07287763  0.16682343  0.30639927
   0.16683750  0.07286357  0.43470302
   0.38495789  0.35474317  0.04979178
   0.47891775  0.26078330  0.17809552
   0.28283854  0.45686256  0.50241376
   0.01960035  0.36870822  0.46371454
   0.43627354  0.47164251  0.34956450
   0.24835381  0.15956225  0.09295701
   0.34231368  0.06560239  0.22126075
   0.08619708  0.46920595  0.09657313
   0.17409868  0.39738738  0.22126075
   0.26805855  0.30342751  0.34956450
   0.36201842  0.20946765  0.47786825
   0.57287763  0.16682343  0.30639927
   0.66683750  0.07286357  0.43470302
   0.88495789  0.35474317  0.04979178
   0.97891775  0.26078330  0.17809552
   0.62919217  0.62533336  0.55225402
   0.53023343  0.37768264  0.47786825
   0.93627354  0.47164251  0.34956450
   0.74835381  0.15956225  0.09295701
   0.84231368  0.06560239  0.22126075
   0.58578731  0.47220134  0.09749538
   0.67409868  0.39738738  0.22126075
   0.76805855  0.30342751  0.34956450
   0.85386354  0.22011584  0.46367558
   0.07287764  0.66682343  0.30639927
   0.16409900  0.57560206  0.40708913
   0.38805545  0.85419189  0.05867932
   0.47891775  0.76078330  0.17809552
   0.11436899  0.11050757  0.55225453
   0.01818694  0.88395251  0.46116555
   0.43627354  0.97164251  0.34956450
   0.25695570  0.65869984  0.10655940
   0.34231368  0.56560239  0.22126075
   0.08013882  0.99134724  0.09295701
   0.17409868  0.89738738  0.22126075
   0.26805855  0.80342751  0.34956450
   0.37099152  0.72010102  0.46371434
   0.57287764  0.66682343  0.30639927
   0.66683750  0.57286357  0.43470302
   0.89805642  0.84194295  0.06369365
   0.97891775  0.76078330  0.17809552
   0.60874528  0.13095580  0.56142707
   0.51958488  0.88583787  0.46367554
   0.93627354  0.97164251  0.34956450
   0.75771837  0.65792819  0.10712055
   0.84231368  0.56560239  0.22126075
   0.57724457  0.99489802  0.10212864
   0.67409868  0.89738738  0.22126075
   0.76805855  0.80342751  0.34956450
   0.85574914  0.72151404  0.46116564
