 vasp.5.4.4.18Apr17-6-g9f103f2a35 (build Aug 13 2019 17:33:20) gamma-only       
  
 executed on             LinuxIFC date 2020.05.10  16:46:39
 running on   12 total cores
 distrk:  each k-point on   12 cores,    1 groups
 distr:  one band on NCORES_PER_BAND=   6 cores,    2 groups


--------------------------------------------------------------------------------------------------------


 INCAR:
 POTCAR:    PAW_PBE Ni_pv 06Sep2000               
 POTCAR:    PAW_PBE S 06Sep2000                   
 POTCAR:    PAW_PBE Ni_pv 06Sep2000               
   VRHFIN =Ni:                                                                  
   LEXCH  = PE                                                                  
   EATOM  =  3501.1230 eV,  257.3253 Ry                                         
                                                                                
   TITEL  = PAW_PBE Ni_pv 06Sep2000                                             
   LULTRA =        F    use ultrasoft PP ?                                      
   IUNSCR =        1    unscreen: 0-lin 1-nonlin 2-no                           
   RPACOR =    1.500    partial core radius                                     
   POMASS =   58.690; ZVAL   =   16.000    mass and valenz                      
   RCORE  =    2.000    outmost cutoff radius                                   
   RWIGS  =    2.000; RWIGS  =    1.058    wigner-seitz radius (au A)           
   ENMAX  =  367.986; ENMIN  =  275.989 eV                                      
   RCLOC  =    1.301    cutoff for local pot                                    
   LCOR   =        T    correct aug charges                                     
   LPAW   =        T    paw PP                                                  
   EAUG   =  703.443                                                            
   DEXC   =    0.000                                                            
   RMAX   =    2.041    core radius for proj-oper                               
   RAUG   =    1.300    factor for augmentation sphere                          
   RDEP   =    2.103    radius for radial grids                                 
   RDEPT  =    1.618    core radius for aug-charge                              
                                                                                
   Atomic configuration                                                         
    8 entries                                                                   
     n  l   j            E        occ.                                          
     1  0  0.50     -8206.4253   2.0000                                         
     2  0  0.50      -976.1748   2.0000                                         
     2  1  1.50      -839.0571   6.0000                                         
     3  0  0.50      -105.9991   2.0000                                         
     3  1  1.50       -66.4603   6.0000                                         
     3  2  2.50        -4.6458   9.0000                                         
     4  0  0.50        -4.4926   1.0000                                         
     4  3  2.50        -1.3606   0.0000                                         
   Description                                                                  
     l       E           TYP  RCUT    TYP  RCUT                                 
     1    -66.4602962     23  1.700                                             
     1     -1.3605826     23  1.700                                             
     2     -4.6457867     23  2.000                                             
     2     -6.0063693     23  2.000                                             
     0     -4.4925576     23  1.900                                             
     0     16.3626226     23  1.900                                             
  local pseudopotential read in
  partial core-charges read in
  partial kinetic energy density read in
  atomic valenz-charges read in
  non local Contribution for L=           1  read in
    real space projection operators read in
  non local Contribution for L=           1  read in
    real space projection operators read in
  non local Contribution for L=           2  read in
    real space projection operators read in
  non local Contribution for L=           2  read in
    real space projection operators read in
  non local Contribution for L=           0  read in
    real space projection operators read in
  non local Contribution for L=           0  read in
    real space projection operators read in
    PAW grid and wavefunctions read in
 
   number of l-projection  operators is LMAX  =           6
   number of lm-projection operators is LMMAX =          18
 
 POTCAR:    PAW_PBE S 06Sep2000                   
   VRHFIN =S : s2p4                                                             
   LEXCH  = PE                                                                  
   EATOM  =   276.8230 eV,   20.3459 Ry                                         
                                                                                
   TITEL  = PAW_PBE S 06Sep2000                                                 
   LULTRA =        F    use ultrasoft PP ?                                      
   IUNSCR =        1    unscreen: 0-lin 1-nonlin 2-no                           
   RPACOR =    1.500    partial core radius                                     
   POMASS =   32.066; ZVAL   =    6.000    mass and valenz                      
   RCORE  =    1.900    outmost cutoff radius                                   
   RWIGS  =    2.200; RWIGS  =    1.164    wigner-seitz radius (au A)           
   ENMAX  =  258.689; ENMIN  =  194.016 eV                                      
   ICORE  =        2    local potential                                         
   LCOR   =        T    correct aug charges                                     
   LPAW   =        T    paw PP                                                  
   EAUG   =  335.092                                                            
   DEXC   =    0.000                                                            
   RMAX   =    1.942    core radius for proj-oper                               
   RAUG   =    1.300    factor for augmentation sphere                          
   RDEP   =    1.954    radius for radial grids                                 
   RDEPT  =    1.744    core radius for aug-charge                              
                                                                                
   Atomic configuration                                                         
    6 entries                                                                   
     n  l   j            E        occ.                                          
     1  0  0.50     -2405.8406   2.0000                                         
     2  0  0.50      -211.7007   2.0000                                         
     2  1  1.50      -156.4958   6.0000                                         
     3  0  0.50       -17.2562   2.0000                                         
     3  1  0.50        -7.0085   4.0000                                         
     3  2  1.50        -6.8029   0.0000                                         
   Description                                                                  
     l       E           TYP  RCUT    TYP  RCUT                                 
     0    -17.2561641     23  1.900                                             
     0    -15.8743224     23  1.900                                             
     1     -7.0085400     23  1.900                                             
     1     -2.7779785     23  1.900                                             
     2     -6.8029130     23  1.900                                             
  local pseudopotential read in
  partial core-charges read in
  partial kinetic energy density read in
  atomic valenz-charges read in
  non local Contribution for L=           0  read in
    real space projection operators read in
  non local Contribution for L=           0  read in
    real space projection operators read in
  non local Contribution for L=           1  read in
    real space projection operators read in
  non local Contribution for L=           1  read in
    real space projection operators read in
    PAW grid and wavefunctions read in
 
   number of l-projection  operators is LMAX  =           4
   number of lm-projection operators is LMMAX =           8
 
 Optimization of the real space projectors (new method)

 maximal supplied QI-value         = 18.90
 optimisation between [QCUT,QGAM] = [ 10.77, 21.73] = [ 32.49,132.25] Ry 
 Optimized for a Real-space Cutoff    1.38 Angstroem

   l    n(q)    QCUT    max X(q) W(low)/X(q) W(high)/X(q)  e(spline) 
   1      8    10.771     2.836    0.40E-04    0.29E-04    0.12E-06
   1      8    10.771     4.023    0.10E-03    0.48E-04    0.29E-06
   2      8    10.771    73.368    0.42E-03    0.97E-04    0.44E-06
   2      8    10.771    69.010    0.42E-03    0.99E-04    0.45E-06
   0      9    10.771    54.797    0.10E-03    0.56E-04    0.74E-07
   0      9    10.771    24.266    0.89E-04    0.49E-04    0.67E-07
 Optimization of the real space projectors (new method)

 maximal supplied QI-value         = 19.84
 optimisation between [QCUT,QGAM] = [ 10.71, 21.63] = [ 32.15,130.99] Ry 
 Optimized for a Real-space Cutoff    1.19 Angstroem

   l    n(q)    QCUT    max X(q) W(low)/X(q) W(high)/X(q)  e(spline) 
   0      8    10.715   187.594    0.41E-03    0.53E-04    0.66E-07
   0      8    10.715   164.243    0.41E-03    0.53E-04    0.65E-07
   1      7    10.715    67.533    0.19E-03    0.59E-03    0.68E-07
   1      7    10.715    50.729    0.19E-03    0.58E-03    0.67E-07
  PAW_PBE Ni_pv 06Sep2000               :
 energy of atom  1       EATOM=-3501.1230
 kinetic energy error for atom=    0.0925 (will be added to EATOM!!)
  PAW_PBE S 06Sep2000                   :
 energy of atom  2       EATOM= -276.8230
 kinetic energy error for atom=    0.0033 (will be added to EATOM!!)
 
 
 POSCAR: Type_048 Type_148                       
  positions in cartesian coordinates
  No initial velocities read in
 exchange correlation table for  LEXCH =        8
   RHO(1)=    0.500       N(1)  =     2000
   RHO(2)=  100.500       N(2)  =     4000
 


--------------------------------------------------------------------------------------------------------


 ion  position               nearest neighbor table
   1  0.261  0.479  0.253-  73 2.25  57 2.26  80 2.26  54 2.36  58 2.36   7 2.53  21 2.53
   2  0.355  0.385  0.388-  74 2.25  54 2.26  58 2.26  59 2.36  65 2.36   3 2.38   8 2.53  22 2.53

   3  0.374  0.366  0.497-  52 2.04  59 2.09  65 2.09   2 2.38
   4  0.132  0.117  0.178-  63 1.99  49 2.12  55 2.17  25 2.28  82 2.30  36 2.41
   5  0.049  0.054  0.472-  50 2.05  76 2.08  72 2.10  77 2.15
   6  0.286  0.340  0.102-  57 2.04  51 2.07  56 2.10  28 2.38
   7  0.368  0.239  0.218-  55 2.25  57 2.26  51 2.26  58 2.36  60 2.36   1 2.53  21 2.53
   8  0.462  0.145  0.353-  78 2.25  58 2.26  60 2.26  59 2.36  61 2.36   2 2.53  22 2.53
   9  0.000  0.372  0.218-  57 2.25  63 2.26  93 2.26  49 2.36  66 2.36  13 2.53  19 2.53
  10  0.094  0.278  0.353-  58 2.25  49 2.26  66 2.26  53 2.36  50 2.36  20 2.53  14 2.53
  11  0.185  0.191  0.472-  50 2.05  76 2.08  53 2.10  59 2.15
  12  0.438  0.454  0.104-  79 2.07  80 2.07  69 2.08  51 2.12
  13  0.761  0.479  0.253-  85 2.25  70 2.26  93 2.26  66 2.36  71 2.36  19 2.53   9 2.53
  14  0.855  0.385  0.388-  86 2.25  66 2.26  71 2.26  72 2.36  53 2.36  15 2.38  20 2.53  10 2.53

  15  0.874  0.366  0.497-  64 2.04  72 2.09  53 2.09  14 2.38
  16  0.689  0.056  0.131-  87 2.07  68 2.08  67 2.15  94 2.15  48 2.42  51 2.46
  17  0.549  0.054  0.472-  61 2.05  89 2.08  59 2.10  90 2.15
  18  0.774  0.333  0.083-  62 2.00  69 2.06  67 2.09  63 2.36  70 2.36  24 2.53  40 2.53
  19  0.868  0.239  0.218-  68 2.25  70 2.26  63 2.26  71 2.36  49 2.36  13 2.53   9 2.53
  20  0.962  0.145  0.353-  91 2.25  71 2.26  49 2.26  72 2.36  50 2.36  14 2.53  10 2.53
  21  0.500  0.372  0.218-  70 2.25  51 2.26  80 2.26  60 2.36  54 2.36   1 2.53   7 2.53
  22  0.594  0.278  0.353-  71 2.25  60 2.26  54 2.26  65 2.36  61 2.36   8 2.53   2 2.53
  23  0.685  0.191  0.472-  61 2.05  89 2.08  65 2.10  72 2.15
  24  0.906  0.465  0.083-  62 2.00  92 2.05  56 2.14  63 2.36  93 2.36  40 2.53  18 2.53
  25  0.261  0.979  0.253-  49 2.25  82 2.26  55 2.26   4 2.28  78 2.36  83 2.36  31 2.53  45 2.53

  26  0.355  0.885  0.388-  50 2.25  78 2.26  83 2.26  84 2.36  90 2.36  27 2.38  32 2.53  46 2.53

  27  0.374  0.866  0.497-  76 2.04  90 2.09  84 2.09  26 2.38
  28  0.167  0.573  0.118-  79 2.04  56 2.10  88 2.25  80 2.36  57 2.36   6 2.38  30 2.50
  29  0.049  0.554  0.472-  74 2.05  52 2.08  96 2.10  53 2.15
  30  0.265  0.733  0.116-  81 2.07  79 2.08  82 2.18  80 2.20  36 2.45  28 2.50  31 2.52  75 2.60

  31  0.368  0.739  0.218-  80 2.25  82 2.26  75 2.26  83 2.36  85 2.36  30 2.52  25 2.53  45 2.53

  32  0.462  0.645  0.353-  54 2.25  83 2.26  85 2.26  84 2.36  86 2.36  26 2.53  46 2.53
  33  0.000  0.872  0.218-  82 2.25  88 2.26  68 2.26  73 2.36  91 2.36  37 2.53  43 2.53
  34  0.094  0.778  0.353-  83 2.25  73 2.26  91 2.26  77 2.36  74 2.36  44 2.53  38 2.53
  35  0.185  0.691  0.472-  74 2.05  52 2.08  77 2.10  84 2.15
  36  0.303  0.930  0.125-  82 2.05  75 2.05  55 2.14  81 2.35   4 2.41  30 2.45
  37  0.761  0.979  0.253-  60 2.25  94 2.26  68 2.26  91 2.36  95 2.36  43 2.53  33 2.53
  38  0.855  0.885  0.388-  61 2.25  91 2.26  95 2.26  96 2.36  77 2.36  39 2.38  44 2.53  34 2.53

  39  0.874  0.866  0.497-  89 2.04  77 2.09  96 2.09  38 2.38
  40  0.667  0.573  0.118-  92 2.05  69 2.06  75 2.25  93 2.36  70 2.36  24 2.53  18 2.53
  41  0.549  0.554  0.472-  86 2.05  64 2.08  84 2.10  65 2.15
  42  0.796  0.757  0.113-  92 2.05  87 2.07  88 2.13  94 2.14  43 2.38  93 2.46
  43  0.868  0.739  0.218-  93 2.25  94 2.26  88 2.26  95 2.36  73 2.36  42 2.38  37 2.53  33 2.53

  44  0.962  0.645  0.353-  66 2.25  95 2.26  73 2.26  96 2.36  74 2.36  38 2.53  34 2.53
  45  0.500  0.872  0.218-  94 2.25  75 2.26  55 2.26  85 2.36  78 2.36  25 2.53  31 2.53
  46  0.594  0.778  0.353-  95 2.25  85 2.26  78 2.26  90 2.36  86 2.36  32 2.53  26 2.53
  47  0.685  0.691  0.472-  86 2.05  64 2.08  90 2.10  96 2.15
  48  0.906  0.965  0.083-  87 2.03  67 2.04  88 2.36  68 2.36  81 2.40  16 2.42
  49  0.073  0.167  0.270-   4 2.12  25 2.25  10 2.26  20 2.26   9 2.36  19 2.36
  50  0.167  0.073  0.405-   5 2.05  11 2.05  26 2.25  10 2.36  20 2.36  76 2.69
  51  0.479  0.261  0.135-   6 2.07  12 2.12   7 2.26  21 2.26  16 2.46
  52  0.210  0.530  0.527-   3 2.04  35 2.08  29 2.08  74 2.69
  53  0.030  0.378  0.451-  15 2.09  11 2.10  29 2.15  10 2.36  14 2.36
  54  0.436  0.472  0.315-  32 2.25   2 2.26  22 2.26   1 2.36  21 2.36
  55  0.342  0.066  0.180-  36 2.14   4 2.17   7 2.25  25 2.26  45 2.26
  56  0.096  0.460  0.067-  28 2.10   6 2.10  24 2.14  57 2.61
  57  0.174  0.397  0.180-   6 2.04   9 2.25   7 2.26   1 2.26  28 2.36  56 2.61
  58  0.268  0.303  0.315-  10 2.25   2 2.26   8 2.26   7 2.36   1 2.36
  59  0.362  0.209  0.451-   3 2.09  17 2.10  11 2.15   8 2.36   2 2.36
  60  0.573  0.167  0.270-  37 2.25  22 2.26   8 2.26  21 2.36   7 2.36
  61  0.667  0.073  0.405-  17 2.05  23 2.05  38 2.25  22 2.36   8 2.36  89 2.69
  62  0.868  0.371  0.013-  18 2.00  24 2.00
  63  0.979  0.261  0.135-   4 1.99  19 2.26   9 2.26  18 2.36  24 2.36
  64  0.710  0.530  0.527-  15 2.04  41 2.08  47 2.08  86 2.69
  65  0.530  0.378  0.451-   3 2.09  23 2.10  41 2.15  22 2.36   2 2.36
  66  0.936  0.472  0.315-  44 2.25  14 2.26  10 2.26  13 2.36   9 2.36
  67  0.763  0.155  0.068-  48 2.04  18 2.09  16 2.15  68 2.64  87 2.68
  68  0.842  0.066  0.180-  16 2.08  19 2.25  37 2.26  33 2.26  48 2.36  67 2.64
  69  0.589  0.481  0.060-  18 2.06  40 2.06  12 2.08
  70  0.674  0.397  0.180-  21 2.25  19 2.26  13 2.26  18 2.36  40 2.36
  71  0.768  0.303  0.315-  22 2.25  14 2.26  20 2.26  19 2.36  13 2.36
  72  0.862  0.209  0.451-  15 2.09   5 2.10  23 2.15  20 2.36  14 2.36
  73  0.073  0.667  0.270-   1 2.25  34 2.26  44 2.26  33 2.36  43 2.36
  74  0.167  0.573  0.405-  29 2.05  35 2.05   2 2.25  34 2.36  44 2.36  52 2.69
  75  0.479  0.761  0.135-  36 2.05  40 2.25  31 2.26  45 2.26  30 2.60
  76  0.210  0.030  0.527-  27 2.04  11 2.08   5 2.08  50 2.69
  77  0.030  0.878  0.451-  39 2.09  35 2.10   5 2.15  34 2.36  38 2.36
  78  0.436  0.972  0.315-   8 2.25  26 2.26  46 2.26  25 2.36  45 2.36
  79  0.285  0.589  0.051-  28 2.04  12 2.07  30 2.08
  80  0.342  0.566  0.180-  12 2.07  30 2.20  31 2.25   1 2.26  21 2.26  28 2.36
  81  0.138  0.903  0.069-  30 2.07  36 2.35  48 2.40  82 2.45
  82  0.174  0.897  0.180-  36 2.05  30 2.18  33 2.25  31 2.26  25 2.26   4 2.30  81 2.45
  83  0.268  0.803  0.315-  34 2.25  26 2.26  32 2.26  31 2.36  25 2.36
  84  0.362  0.709  0.451-  27 2.09  41 2.10  35 2.15  32 2.36  26 2.36
  85  0.573  0.667  0.270-  13 2.25  46 2.26  32 2.26  45 2.36  31 2.36
  86  0.667  0.573  0.405-  47 2.05  41 2.05  14 2.25  46 2.36  32 2.36  64 2.69
  87  0.757  0.921  0.059-  48 2.03  42 2.07  16 2.07  67 2.68
  88  0.979  0.761  0.135-  42 2.13  28 2.25  43 2.26  33 2.26  48 2.36
  89  0.710  0.030  0.527-  39 2.04  17 2.08  23 2.08  61 2.69
  90  0.530  0.878  0.451-  27 2.09  47 2.10  17 2.15  46 2.36  26 2.36
  91  0.936  0.972  0.315-  20 2.25  38 2.26  34 2.26  37 2.36  33 2.36
  92  0.753  0.641  0.054-  40 2.05  42 2.05  24 2.05
  93  0.842  0.566  0.180-  43 2.25  13 2.26   9 2.26  40 2.36  24 2.36  42 2.46
  94  0.674  0.897  0.180-  42 2.14  16 2.15  45 2.25  43 2.26  37 2.26
  95  0.768  0.803  0.315-  46 2.25  38 2.26  44 2.26  43 2.36  37 2.36
  96  0.862  0.709  0.451-  39 2.09  29 2.10  47 2.15  44 2.36  38 2.36
 
  LATTYP: Found a base centered orthorhombic cell.
 ALAT       =    11.8257374459
 B/A-ratio  =     1.6199260857
 C/A-ratio  =     1.8387210052
  
  Lattice vectors:
  
 A1 = (  11.2564630382,   0.0000000000,   0.0000000000)
 A2 = (  -5.0445621212, -10.0628203371,   0.0000000000)
 A3 = (   0.0000000000,   0.0000000000, -21.7442318436)


Analysis of symmetry for initial positions (statically):
=====================================================================
 Subroutine PRICEL returns:
 Original cell was already a primitive cell.
 

 Routine SETGRP: Setting up the symmetry group for a 
 base centered orthorhombic supercell.


 Subroutine GETGRP returns: Found  1 space group operations
 (whereof  1 operations were pure point group operations)
 out of a pool of  8 trial point group operations.


The static configuration has the point symmetry C_1 .


Analysis of symmetry for dynamics (positions and initial velocities):
=====================================================================
 Subroutine PRICEL returns:
 Original cell was already a primitive cell.
 

 Routine SETGRP: Setting up the symmetry group for a 
 base centered orthorhombic supercell.


 Subroutine GETGRP returns: Found  1 space group operations
 (whereof  1 operations were pure point group operations)
 out of a pool of  8 trial point group operations.


The dynamic configuration has the point symmetry C_1 .


 Subroutine INISYM returns: Found  1 space group operations
 (whereof  1 operations are pure point group operations),
 and found     1 'primitive' translations

 
 
 KPOINTS: gamma-point-only calculation. no periodi

Automatic generation of k-mesh.
Space group operators:
 irot       det(A)        alpha          n_x          n_y          n_z        tau_x        tau_y        tau_z
    1     1.000000     0.000000     1.000000     0.000000     0.000000     0.000000     0.000000     0.000000
 
 Subroutine IBZKPT returns following result:
 ===========================================
 
 Found      1 irreducible k-points:
 
 Following reciprocal coordinates:
            Coordinates               Weight
  0.000000  0.000000  0.000000      1.000000
 
 Following cartesian coordinates:
            Coordinates               Weight
  0.000000  0.000000  0.000000      1.000000
 


--------------------------------------------------------------------------------------------------------




 Dimension of arrays:
   k-points           NKPTS =      1   k-points in BZ     NKDIM =      1   number of bands    NBANDS=    634
   number of dos      NEDOS =    301   number of ions     NIONS =     96
   non local maximal  LDIM  =      6   non local SUM 2l+1 LMDIM =     18
   total plane-waves  NPLWV = 432000
   max r-space proj   IRMAX =   1984   max aug-charges    IRDMAX=   5725
   dimension x,y,z NGX =    60 NGY =   60 NGZ =  120
   dimension x,y,z NGXF=   120 NGYF=  120 NGZF=  240
   support grid    NGXF=   120 NGYF=  120 NGZF=  240
   ions per type =              48  48
   NGX,Y,Z   is equivalent  to a cutoff of   8.86,  8.86,  9.17 a.u.
   NGXF,Y,Z  is equivalent  to a cutoff of  17.72, 17.72, 18.35 a.u.

 SYSTEM =  "Millerite NiS"                         
 POSCAR =  Type_048 Type_148                       

 Startparameter for this run:
   NWRITE =      2    write-flag & timer
   PREC   = normal    normal or accurate (medium, high low for compatibility)
   ISTART =      0    job   : 0-new  1-cont  2-samecut
   ICHARG =      2    charge: 1-file 2-atom 10-const
   ISPIN  =      1    spin polarized calculation?
   LNONCOLLINEAR =      F non collinear calculations
   LSORBIT =      F    spin-orbit coupling
   INIWAV =      1    electr: 0-lowe 1-rand  2-diag
   LASPH  =      F    aspherical Exc in radial PAW
   METAGGA=      F    non-selfconsistent MetaGGA calc.

 Electronic Relaxation 1
   ENCUT  =  450.0 eV  33.07 Ry    5.75 a.u.  19.47 19.47 37.61*2*pi/ulx,y,z
   ENINI  =  450.0     initial cutoff
   ENAUG  =  703.4 eV  augmentation charge cutoff
   NELM   =    100;   NELMIN=  2; NELMDL= -5     # of ELM steps 
   EDIFF  = 0.1E-03   stopping-criterion for ELM
   LREAL  =      T    real-space projection
   NLSPLINE    = F    spline interpolate recip. space projectors
   LCOMPAT=      F    compatible to vasp.4.4
   GGA_COMPAT  = T    GGA compatible to vasp.4.4-vasp.4.6
   LMAXPAW     = -100 max onsite density
   LMAXMIX     =    2 max onsite mixed and CHGCAR
   VOSKOWN=      0    Vosko Wilk Nusair interpolation
   ROPT   =   -0.00050  -0.00050
 Ionic relaxation
   EDIFFG = 0.1E-02   stopping-criterion for IOM
   NSW    =      0    number of steps for IOM
   NBLOCK =      1;   KBLOCK =      1    inner block; outer block 
   IBRION =     -1    ionic relax: 0-MD 1-quasi-New 2-CG
   NFREE  =      0    steps in history (QN), initial steepest desc. (CG)
   ISIF   =      2    stress and relaxation
   IWAVPR =     10    prediction:  0-non 1-charg 2-wave 3-comb
   ISYM   =      2    0-nonsym 1-usesym 2-fastsym
   LCORR  =      T    Harris-Foulkes like correction to forces

   POTIM  = 0.5000    time-step for ionic-motion
   TEIN   =    0.0    initial temperature
   TEBEG  =    0.0;   TEEND  =   0.0 temperature during run
   SMASS  =  -3.00    Nose mass-parameter (am)
   estimated Nose-frequenzy (Omega)   =  0.10E-29 period in steps =****** mass=  -0.290E-26a.u.
   SCALEE = 1.0000    scale energy and forces
   NPACO  =    256;   APACO  = 16.0  distance and # of slots for P.C.
   PSTRESS=    0.0 pullay stress

  Mass of Ions in am
   POMASS =  58.69 32.07
  Ionic Valenz
   ZVAL   =  16.00  6.00
  Atomic Wigner-Seitz radii
   RWIGS  =  -1.00 -1.00
  virtual crystal weights 
   VCA    =   1.00  1.00
   NELECT =    1056.0000    total number of electrons
   NUPDOWN=      -1.0000    fix difference up-down

 DOS related values:
   EMIN   =  10.00;   EMAX   =-10.00  energy-range for DOS
   EFERMI =   0.00
   ISMEAR =     0;   SIGMA  =   0.20  broadening in eV -4-tet -1-fermi 0-gaus

 Electronic relaxation 2 (details)
   IALGO  =     38    algorithm
   LDIAG  =      T    sub-space diagonalisation (order eigenvalues)
   LSUBROT=      F    optimize rotation matrix (better conditioning)
   TURBO    =      0    0=normal 1=particle mesh
   IRESTART =      0    0=no restart 2=restart with 2 vectors
   NREBOOT  =      0    no. of reboots
   NMIN     =      0    reboot dimension
   EREF     =   0.00    reference energy to select bands
   IMIX   =      4    mixing-type and parameters
     AMIX     =   0.40;   BMIX     =  1.00
     AMIX_MAG =   1.60;   BMIX_MAG =  1.00
     AMIN     =   0.10
     WC   =   100.;   INIMIX=   1;  MIXPRE=   1;  MAXMIX= -45

 Intra band minimization:
   WEIMIN = 0.0000     energy-eigenvalue tresh-hold
   EBREAK =  0.39E-07  absolut break condition
   DEPER  =   0.30     relativ break condition  

   TIME   =   0.40     timestep for ELM

  volume/ion in A,a.u.               =      25.66       173.14
  Fermi-wavevector in a.u.,A,eV,Ry     =   1.234452  2.332776 20.733535  1.523872
  Thomas-Fermi vector in A             =   2.369142
 
 Write flags
   LWAVE        =      F    write WAVECAR
   LDOWNSAMPLE  =      F    k-point downsampling of WAVECAR
   LCHARG       =      F    write CHGCAR
   LVTOT        =      F    write LOCPOT, total local potential
   LVHAR        =      F    write LOCPOT, Hartree potential only
   LELF         =      F    write electronic localiz. function (ELF)
   LORBIT       =      0    0 simple, 1 ext, 2 COOP (PROOUT), +10 PAW based schemes


 Dipole corrections
   LMONO  =      F    monopole corrections only (constant potential shift)
   LDIPOL =      F    correct potential (dipole corrections)
   IDIPOL =      0    1-x, 2-y, 3-z, 4-all directions 
   EPSILON=  1.0000000 bulk dielectric constant

 Exchange correlation treatment:
   GGA     =    --    GGA type
   LEXCH   =     8    internal setting for exchange type
   VOSKOWN=      0    Vosko Wilk Nusair interpolation
   LHFCALC =     F    Hartree Fock is set to
   LHFONE  =     F    Hartree Fock one center treatment
   AEXX    =    0.0000 exact exchange contribution

 Linear response parameters
   LEPSILON=     F    determine dielectric tensor
   LRPA    =     F    only Hartree local field effects (RPA)
   LNABLA  =     F    use nabla operator in PAW spheres
   LVEL    =     F    velocity operator in full k-point grid
   LINTERFAST=   F  fast interpolation
   KINTER  =     0    interpolate to denser k-point grid
   CSHIFT  =0.1000    complex shift for real part using Kramers Kronig
   OMEGAMAX=  -1.0    maximum frequency
   DEG_THRESHOLD= 0.2000000E-02 threshold for treating states as degnerate
   RTIME   =   -0.100 relaxation time in fs
  (WPLASMAI=    0.000 imaginary part of plasma frequency in eV, 0.658/RTIME)
   DFIELD  = 0.0000000 0.0000000 0.0000000 field for delta impulse in time
 
 Orbital magnetization related:
   ORBITALMAG=     F  switch on orbital magnetization
   LCHIMAG   =     F  perturbation theory with respect to B field
   DQ        =  0.001000  dq finite difference perturbation B field
   LLRAUG    =     F  two centre corrections for induced B field



--------------------------------------------------------------------------------------------------------


 Static calculation
 charge density and potential will be updated during run
 non-spin polarized calculation
 Variant of blocked Davidson
 Davidson routine will perform the subspace rotation
 perform sub-space diagonalisation
    after iterative eigenvector-optimisation
 modified Broyden-mixing scheme, WC =      100.0
 initial mixing is a Kerker type mixing with AMIX =  0.4000 and BMIX =      1.0000
 Hartree-type preconditioning will be used
 using additional bands          106
 real space projection scheme for non local part
 use partial core corrections
 calculate Harris-corrections to forces 
   (improved forces if not selfconsistent)
 use gradient corrections 
 use of overlap-Matrix (Vanderbilt PP)
 Gauss-broadening in eV      SIGMA  =   0.20


--------------------------------------------------------------------------------------------------------


  energy-cutoff  :      450.00
  volume of cell :     2463.01
      direct lattice vectors                 reciprocal lattice vectors
    11.256463038  0.000000000  0.000000000     0.088837852 -0.044535036  0.000000000
     5.044562121 10.062820337  0.000000000     0.000000000  0.099375718  0.000000000
     0.000000000  0.000000000 21.744231844     0.000000000  0.000000000  0.045989208

  length of vectors
    11.256463038 11.256463038 21.744231844     0.099375718  0.099375718  0.045989208


 
 k-points in units of 2pi/SCALE and weight: gamma-point-only calculation. no periodi
   0.00000000  0.00000000  0.00000000       1.000
 
 k-points in reciprocal lattice and weights: gamma-point-only calculation. no periodi
   0.00000000  0.00000000  0.00000000       1.000
 
 position of ions in fractional coordinates (direct lattice) 
   0.26092070  0.47878036  0.25332799
   0.35488056  0.38482049  0.38835497
   0.37368213  0.36601682  0.49713083
   0.13248991  0.11683433  0.17750114
   0.04893526  0.05441729  0.47241710
   0.28617630  0.33954214  0.10236102
   0.36819893  0.23939913  0.21765305
   0.46215880  0.14543926  0.35268003
   0.00030194  0.37150212  0.21765305
   0.09426181  0.27754226  0.35268003
   0.18528552  0.19076499  0.47241732
   0.43824503  0.45382453  0.10405797
   0.76092070  0.47878036  0.25332799
   0.85488056  0.38482049  0.38835497
   0.87367778  0.36602294  0.49713655
   0.68916816  0.05556771  0.13065360
   0.54892353  0.05442492  0.47236172
   0.77423906  0.33335899  0.08262607
   0.86819893  0.23939913  0.21765305
   0.96215880  0.14543926  0.35268003
   0.50030194  0.37150212  0.21765305
   0.59426181  0.27754226  0.35268003
   0.68528080  0.19078081  0.47235878
   0.90634206  0.46546199  0.08262607
   0.26092070  0.97878036  0.25332799
   0.35488056  0.88482049  0.38835497
   0.37373343  0.86596847  0.49714535
   0.16696083  0.57274024  0.11830101
   0.04892016  0.55442022  0.47235894
   0.26479416  0.73284347  0.11562039
   0.36819893  0.73939913  0.21765305
   0.46215880  0.64543926  0.35268003
   0.00030194  0.87150212  0.21765305
   0.09426181  0.77754226  0.35268003
   0.18527345  0.69077488  0.47236439
   0.30337031  0.93003366  0.12458242
   0.76092070  0.97878036  0.25332799
   0.85488056  0.88482049  0.38835497
   0.87368897  0.86601485  0.49713168
   0.66696083  0.57274024  0.11830101
   0.54892331  0.55442006  0.47235863
   0.79619200  0.75703950  0.11344246
   0.86819893  0.73939913  0.21765305
   0.96215880  0.64543926  0.35268003
   0.50030194  0.87150212  0.21765305
   0.59426181  0.77754226  0.35268003
   0.68527985  0.69077867  0.47235814
   0.90634206  0.96546199  0.08262607
   0.07287763  0.16682343  0.27005396
   0.16683750  0.07286357  0.40508094
   0.47891775  0.26078330  0.13502698
   0.21006815  0.52962264  0.52672882
   0.03023343  0.37768264  0.45050807
   0.43627354  0.47164251  0.31548109
   0.34231368  0.06560239  0.18045411
   0.09625650  0.46029934  0.06671626
   0.17409868  0.39738738  0.18045411
   0.26805855  0.30342751  0.31548109
   0.36201842  0.20946765  0.45050807
   0.57287763  0.16682343  0.27005396
   0.66683750  0.07286357  0.40508094
   0.86809469  0.37130081  0.01319409
   0.97891775  0.26078330  0.13502698
   0.71006691  0.52963483  0.52672943
   0.53023343  0.37768264  0.45050807
   0.93627354  0.47164251  0.31548109
   0.76287151  0.15538837  0.06828284
   0.84231368  0.06560239  0.18045411
   0.58872505  0.48072731  0.06030031
   0.67409868  0.39738738  0.18045411
   0.76805855  0.30342751  0.31548109
   0.86201842  0.20946765  0.45050807
   0.07287764  0.66682343  0.27005396
   0.16683750  0.57286357  0.40508094
   0.47891775  0.76078330  0.13502698
   0.21012180  0.02958000  0.52674699
   0.03023342  0.87768264  0.45050807
   0.43627354  0.97164251  0.31548109
   0.28486298  0.58858787  0.05093626
   0.34231368  0.56560239  0.18045411
   0.13823243  0.90327385  0.06918221
   0.17409868  0.89738738  0.18045411
   0.26805855  0.80342751  0.31548109
   0.36201842  0.70946764  0.45050807
   0.57287764  0.66682343  0.27005396
   0.66683750  0.57286357  0.40508094
   0.75693436  0.92096377  0.05871834
   0.97891775  0.76078330  0.13502698
   0.71007766  0.02962873  0.52672622
   0.53023342  0.87768264  0.45050807
   0.93627354  0.97164251  0.31548109
   0.75336268  0.64111450  0.05361850
   0.84231368  0.56560239  0.18045411
   0.67409868  0.89738738  0.18045411
   0.76805855  0.80342751  0.31548109
   0.86201842  0.70946764  0.45050807
 
 position of ions in cartesian coordinates  (Angst):
   5.35228144  4.81788074  5.50842250
   5.93595081  3.87237948  8.44448046
   6.05273366  3.68316149 10.80972803
   2.08074585  1.17568287  3.85962593
   0.82534936  0.54759137 10.27234685
   4.93417443  3.41675159  2.22576183
   5.35228143  2.40903041  4.73269838
   5.93595082  1.46352916  7.66875634
   1.87746434  3.73835913  4.73269838
   2.46113373  2.79285788  7.66875634
   3.04798540  1.91963382 10.27235184
   7.22243496  4.56675470  2.26266067
  10.98051296  4.81788074  5.50842250
  11.56418233  3.87237948  8.44448046
  11.68094709  3.68322308 10.80985251
   8.03791074  0.55916789  2.84096219
   6.45348730  0.54766818 10.27114266
  10.39684357  3.35453166  1.79664042
  10.98051295  2.40903041  4.73269838
  11.56418234  1.46352916  7.66875634
   7.50569586  3.73835913  4.73269838
   8.08936525  2.79285788  7.66875634
   8.67624360  1.91979299 10.27107883
  12.55025784  4.68386039  1.79664042
   7.87456250  9.84929091  5.50842250
   8.45823187  8.90378965  8.44448046
   8.57534825  8.71408516 10.81004368
   4.76861213  5.76338214  2.57236455
   3.34747526  5.57903105 10.27108221
   6.67752004  7.37447219  2.51407655
   7.87456249  7.44044058  4.73269838
   8.45823188  6.49493933  7.66875634
   4.39974540  8.76976930  4.73269838
   4.98341479  7.82426805  7.66875634
   5.57018056  6.95114352 10.27120079
   8.10648924  9.35876162  2.70894906
  13.50279402  9.84929091  5.50842250
  14.08646339  8.90378965  8.44448046
  14.20331326  8.71455183 10.80974662
  10.39684364  5.76338214  2.57236455
   8.97574134  5.57902948 10.27107553
  12.78123863  7.61795251  2.46671907
  13.50279401  7.44044058  4.73269838
  14.08646340  6.49493933  7.66875634
  10.02797692  8.76976930  4.73269838
  10.61164631  7.82426805  7.66875634
  11.19850320  6.95118166 10.27106483
  15.07253890  9.71527056  1.79664042
   1.66189559  1.67871425  5.87211592
   2.24556497  0.73321299  8.80817387
   6.70645756  2.62421550  2.93605796
   5.03633868  5.32949749 11.45331358
   2.24556497  3.80055255  9.79595186
   7.29012694  4.74605381  6.85989390
   4.18417657  0.66014504  3.92383594
   3.40551630  4.63190956  1.45069392
   3.96438069  3.99883779  3.92383594
   4.54805007  3.05333654  6.85989390
   5.13171946  2.10783528  9.79595186
   7.29012710  1.67871425  5.87211592
   7.87379649  0.73321299  8.80817387
  11.64472582  3.73633329  0.28689540
  12.33468908  2.62421550  2.93605796
  10.66461773  5.32962010 11.45332695
   7.87379649  3.80055255  9.79595186
  12.91835846  4.74605381  6.85989390
   9.37110128  1.56364527  1.48475792
   9.81240809  0.66014504  3.92383594
   9.05202054  4.83747253  1.31118386
   9.59261221  3.99883779  3.92383594
  10.17628159  3.05333654  6.85989390
  10.75995097  2.10783528  9.79595186
   4.18417665  6.71012442  5.87211592
   4.76784603  5.76462316  8.80817387
   9.22873862  7.65562567  2.93605796
   2.51444647  0.29765822 11.45370863
   4.76784603  8.83196272  9.79595186
   9.81240800  9.77746398  6.85989390
   6.17571770  5.92285398  1.10756994
   6.70645763  5.69155521  3.92383594
   6.11262931  9.08948246  1.50431398
   6.48666175  9.03024796  3.92383594
   7.07033113  8.08474671  6.85989390
   7.65400052  7.13924545  9.79595186
   9.81240817  6.71012442  5.87211592
  10.39607755  5.76462316  8.80817387
  13.16626263  9.26749292  1.27678516
  14.85697014  7.65562567  2.93605796
   8.14242692  0.29814857 11.45325714
  10.39607755  8.83196272  9.79595186
  15.44063952  9.77746398  6.85989390
  11.71434108  6.45142000  1.16589300
  12.33468915  5.69155521  3.92383594
  12.11489327  9.03024796  3.92383594
  12.69856265  8.08474671  6.85989390
  13.28223203  7.13924545  9.79595186
 


--------------------------------------------------------------------------------------------------------


 use parallel FFT for orbitals z direction half grid
 k-point  1 :   0.0000 0.0000 0.0000  plane waves:   26744

 maximum and minimum number of plane-waves per node :      4459     4455

 maximum number of plane-waves:     26744
 maximum index in each direction: 
   IXMAX=   19   IYMAX=   19   IZMAX=   37
   IXMIN=  -19   IYMIN=  -19   IZMIN=    0


 real space projection operators:
  total allocation   :      16267.23 KBytes
  max/ min on nodes  :       2753.25       2669.44


 parallel 3D FFT for wavefunctions:
    minimum data exchange during FFTs selected (reduces bandwidth)
 parallel 3D FFT for charge:
    minimum data exchange during FFTs selected (reduces bandwidth)


 total amount of memory used by VASP MPI-rank0    86990. kBytes
=======================================================================

   base      :      30000. kBytes
   nonlr-proj:       3334. kBytes
   fftplans  :      11271. kBytes
   grid      :      19113. kBytes
   one-center:        124. kBytes
   wavefun   :      23148. kBytes
 
     INWAV:  cpu time    0.0001: real time    0.0001
 Broyden mixing: mesh for mixing (old mesh)
   NGX = 39   NGY = 39   NGZ = 75
  (NGX  =120   NGY  =120   NGZ  =240)
  gives a total of 114075 points

 initial charge density was supplied:
 charge density of overlapping atoms calculated
 number of electron    1056.0000000 magnetization 
 keeping initial charge density in first step


--------------------------------------------------------------------------------------------------------


 Maximum index for non-local projection operator          335
 Maximum index for augmentation-charges          509 (set IRDMAX)


--------------------------------------------------------------------------------------------------------


 First call to EWALD:  gamma=   0.131
 Maximum number of real-space cells 4x 4x 2
 Maximum number of reciprocal cells 2x 2x 4

    FEWALD:  cpu time    0.0152: real time    0.0152


--------------------------------------- Iteration      1(   1)  ---------------------------------------


    POTLOK:  cpu time    0.3741: real time    0.3743
    SETDIJ:  cpu time    0.0241: real time    0.0241
     EDDAV:  cpu time   13.6229: real time   13.6263
       DOS:  cpu time    0.0020: real time    0.0020
    --------------------------------------------
      LOOP:  cpu time   14.0231: real time   14.0268

 eigenvalue-minimisations  :  1516
 total energy-change (2. order) : 0.1355438E+05  (-0.6843443E+05)
 number of electron    1056.0000000 magnetization 
 augmentation part     1056.0000000 magnetization 

 Free energy of the ion-electron system (eV)
  ---------------------------------------------------
  alpha Z        PSCENC =      2684.99175279
  Ewald energy   TEWEN  =    302735.28705528
  -Hartree energ DENC   =   -466340.45733144
  -exchange      EXHF   =         0.00000000
  -V(xc)+E(xc)   XCENC  =      4904.04536356
  PAW double counting   =    150306.04444553  -156855.34918313
  entropy T*S    EENTRO =        -0.45980857
  eigenvalues    EBANDS =     -5216.52566941
  atomic energy  EATOM  =    181336.80673834
  Solvation  Ediel_sol  =         0.00000000
  ---------------------------------------------------
  free energy    TOTEN  =     13554.38336295 eV

  energy without entropy =    13554.84317152  energy(sigma->0) =    13554.61326724


--------------------------------------------------------------------------------------------------------




--------------------------------------- Iteration      1(   2)  ---------------------------------------


     EDDAV:  cpu time   11.9462: real time   11.9503
       DOS:  cpu time    0.0014: real time    0.0014
    --------------------------------------------
      LOOP:  cpu time   11.9476: real time   11.9516

 eigenvalue-minimisations  :  1316
 total energy-change (2. order) :-0.1265520E+05  (-0.1223151E+05)
 number of electron    1056.0000000 magnetization 
 augmentation part     1056.0000000 magnetization 

 Free energy of the ion-electron system (eV)
  ---------------------------------------------------
  alpha Z        PSCENC =      2684.99175279
  Ewald energy   TEWEN  =    302735.28705528
  -Hartree energ DENC   =   -466340.45733144
  -exchange      EXHF   =         0.00000000
  -V(xc)+E(xc)   XCENC  =      4904.04536356
  PAW double counting   =    150306.04444553  -156855.34918313
  entropy T*S    EENTRO =        -0.94270392
  eigenvalues    EBANDS =    -17871.24764409
  atomic energy  EATOM  =    181336.80673834
  Solvation  Ediel_sol  =         0.00000000
  ---------------------------------------------------
  free energy    TOTEN  =       899.17849293 eV

  energy without entropy =      900.12119685  energy(sigma->0) =      899.64984489


--------------------------------------------------------------------------------------------------------




--------------------------------------- Iteration      1(   3)  ---------------------------------------


     EDDAV:  cpu time   12.8092: real time   12.8158
       DOS:  cpu time    0.0015: real time    0.0015
    --------------------------------------------
      LOOP:  cpu time   12.8107: real time   12.8172

 eigenvalue-minimisations  :  1448
 total energy-change (2. order) :-0.1347791E+04  (-0.1273060E+04)
 number of electron    1056.0000000 magnetization 
 augmentation part     1056.0000000 magnetization 

 Free energy of the ion-electron system (eV)
  ---------------------------------------------------
  alpha Z        PSCENC =      2684.99175279
  Ewald energy   TEWEN  =    302735.28705528
  -Hartree energ DENC   =   -466340.45733144
  -exchange      EXHF   =         0.00000000
  -V(xc)+E(xc)   XCENC  =      4904.04536356
  PAW double counting   =    150306.04444553  -156855.34918313
  entropy T*S    EENTRO =        -1.30663967
  eigenvalues    EBANDS =    -19218.67486939
  atomic energy  EATOM  =    181336.80673834
  Solvation  Ediel_sol  =         0.00000000
  ---------------------------------------------------
  free energy    TOTEN  =      -448.61266812 eV

  energy without entropy =     -447.30602845  energy(sigma->0) =     -447.95934829


--------------------------------------------------------------------------------------------------------




--------------------------------------- Iteration      1(   4)  ---------------------------------------


     EDDAV:  cpu time   13.1940: real time   13.1996
       DOS:  cpu time    0.0015: real time    0.0015
    --------------------------------------------
      LOOP:  cpu time   13.1955: real time   13.2011

 eigenvalue-minimisations  :  1472
 total energy-change (2. order) :-0.8894254E+02  (-0.8770211E+02)
 number of electron    1056.0000000 magnetization 
 augmentation part     1056.0000000 magnetization 

 Free energy of the ion-electron system (eV)
  ---------------------------------------------------
  alpha Z        PSCENC =      2684.99175279
  Ewald energy   TEWEN  =    302735.28705528
  -Hartree energ DENC   =   -466340.45733144
  -exchange      EXHF   =         0.00000000
  -V(xc)+E(xc)   XCENC  =      4904.04536356
  PAW double counting   =    150306.04444553  -156855.34918313
  entropy T*S    EENTRO =        -1.39171886
  eigenvalues    EBANDS =    -19307.53233166
  atomic energy  EATOM  =    181336.80673834
  Solvation  Ediel_sol  =         0.00000000
  ---------------------------------------------------
  free energy    TOTEN  =      -537.55520959 eV

  energy without entropy =     -536.16349072  energy(sigma->0) =     -536.85935016


--------------------------------------------------------------------------------------------------------




--------------------------------------- Iteration      1(   5)  ---------------------------------------


     EDDAV:  cpu time   14.0578: real time   14.0613
       DOS:  cpu time    0.0016: real time    0.0016
    CHARGE:  cpu time    0.3958: real time    0.3958
    MIXING:  cpu time    0.0125: real time    0.0125
    --------------------------------------------
      LOOP:  cpu time   14.4678: real time   14.4714

 eigenvalue-minimisations  :  1640
 total energy-change (2. order) :-0.3402458E+01  (-0.3396170E+01)
 number of electron    1055.9999597 magnetization 
 augmentation part      381.7194424 magnetization 

 Broyden mixing:
  rms(total) = 0.10858E+02    rms(broyden)= 0.10845E+02
  rms(prec ) = 0.11230E+02
  weight for this iteration     100.00

 Free energy of the ion-electron system (eV)
  ---------------------------------------------------
  alpha Z        PSCENC =      2684.99175279
  Ewald energy   TEWEN  =    302735.28705528
  -Hartree energ DENC   =   -466340.45733144
  -exchange      EXHF   =         0.00000000
  -V(xc)+E(xc)   XCENC  =      4904.04536356
  PAW double counting   =    150306.04444553  -156855.34918313
  entropy T*S    EENTRO =        -1.37663222
  eigenvalues    EBANDS =    -19310.94987669
  atomic energy  EATOM  =    181336.80673834
  Solvation  Ediel_sol  =         0.00000000
  ---------------------------------------------------
  free energy    TOTEN  =      -540.95766798 eV

  energy without entropy =     -539.58103575  energy(sigma->0) =     -540.26935187


--------------------------------------------------------------------------------------------------------




--------------------------------------- Iteration      1(   6)  ---------------------------------------


    POTLOK:  cpu time    0.3721: real time    0.3720
    SETDIJ:  cpu time    0.0498: real time    0.0498
     EDDAV:  cpu time   13.8046: real time   13.8131
       DOS:  cpu time    0.0016: real time    0.0016
    CHARGE:  cpu time    0.3804: real time    0.3804
    MIXING:  cpu time    0.0132: real time    0.0132
    --------------------------------------------
      LOOP:  cpu time   14.6215: real time   14.6301

 eigenvalue-minimisations  :  1568
 total energy-change (2. order) :-0.9477599E+02  (-0.1273500E+03)
 number of electron    1055.9999424 magnetization 
 augmentation part      460.9137797 magnetization 

 Broyden mixing:
  rms(total) = 0.18000E+02    rms(broyden)= 0.17996E+02
  rms(prec ) = 0.18731E+02
  weight for this iteration     100.00

 eigenvalues of (default mixing * dielectric matrix)
  average eigenvalue GAMMA=   0.2460
  0.2460

 Free energy of the ion-electron system (eV)
  ---------------------------------------------------
  alpha Z        PSCENC =      2684.99175279
  Ewald energy   TEWEN  =    302735.28705528
  -Hartree energ DENC   =   -462576.70590906
  -exchange      EXHF   =         0.00000000
  -V(xc)+E(xc)   XCENC  =      4803.40541683
  PAW double counting   =    156043.01440841  -162279.42034004
  entropy T*S    EENTRO =        -1.26629522
  eigenvalues    EBANDS =    -23381.84648305
  atomic energy  EATOM  =    181336.80673834
  Solvation  Ediel_sol  =         0.00000000
  ---------------------------------------------------
  free energy    TOTEN  =      -635.73365571 eV

  energy without entropy =     -634.46736049  energy(sigma->0) =     -635.10050810


--------------------------------------------------------------------------------------------------------




--------------------------------------- Iteration      1(   7)  ---------------------------------------


    POTLOK:  cpu time    0.3579: real time    0.3582
    SETDIJ:  cpu time    0.0236: real time    0.0236
     EDDAV:  cpu time   12.7524: real time   12.7550
       DOS:  cpu time    0.0016: real time    0.0015
    CHARGE:  cpu time    0.6283: real time    0.6284
    MIXING:  cpu time    0.0119: real time    0.0118
    --------------------------------------------
      LOOP:  cpu time   13.7756: real time   13.7786

 eigenvalue-minimisations  :  1432
 total energy-change (2. order) : 0.1326748E+03  (-0.2670852E+02)
 number of electron    1055.9999542 magnetization 
 augmentation part      440.9937685 magnetization 

 Broyden mixing:
  rms(total) = 0.82326E+01    rms(broyden)= 0.82298E+01
  rms(prec ) = 0.85263E+01
  weight for this iteration     100.00

 eigenvalues of (default mixing * dielectric matrix)
  average eigenvalue GAMMA=   0.4603
  0.4603  0.4603

 Free energy of the ion-electron system (eV)
  ---------------------------------------------------
  alpha Z        PSCENC =      2684.99175279
  Ewald energy   TEWEN  =    302735.28705528
  -Hartree energ DENC   =   -464194.11716063
  -exchange      EXHF   =         0.00000000
  -V(xc)+E(xc)   XCENC  =      4837.68089079
  PAW double counting   =    161870.62466561  -168291.48140856
  entropy T*S    EENTRO =        -0.96080283
  eigenvalues    EBANDS =    -21481.89063524
  atomic energy  EATOM  =    181336.80673834
  Solvation  Ediel_sol  =         0.00000000
  ---------------------------------------------------
  free energy    TOTEN  =      -503.05890444 eV

  energy without entropy =     -502.09810161  energy(sigma->0) =     -502.57850303


--------------------------------------------------------------------------------------------------------




--------------------------------------- Iteration      1(   8)  ---------------------------------------


    POTLOK:  cpu time    0.3675: real time    0.3675
    SETDIJ:  cpu time    0.0234: real time    0.0234
     EDDAV:  cpu time   14.3084: real time   14.3133
       DOS:  cpu time    0.0015: real time    0.0015
    CHARGE:  cpu time    0.3965: real time    0.3966
    MIXING:  cpu time    0.0150: real time    0.0150
    --------------------------------------------
      LOOP:  cpu time   15.1124: real time   15.1491

 eigenvalue-minimisations  :  1672
 total energy-change (2. order) :-0.7867785E+02  (-0.2631499E+02)
 number of electron    1055.9999333 magnetization 
 augmentation part      409.5907829 magnetization 

 Broyden mixing:
  rms(total) = 0.16272E+02    rms(broyden)= 0.16268E+02
  rms(prec ) = 0.18322E+02
  weight for this iteration     100.00

 eigenvalues of (default mixing * dielectric matrix)
  average eigenvalue GAMMA=   0.5020
  0.8770  0.4584  0.1706

 Free energy of the ion-electron system (eV)
  ---------------------------------------------------
  alpha Z        PSCENC =      2684.99175279
  Ewald energy   TEWEN  =    302735.28705528
  -Hartree energ DENC   =   -464932.35676441
  -exchange      EXHF   =         0.00000000
  -V(xc)+E(xc)   XCENC  =      4869.04513039
  PAW double counting   =    169824.36674518  -176416.80033131
  entropy T*S    EENTRO =        -1.26528441
  eigenvalues    EBANDS =    -20681.81180009
  atomic energy  EATOM  =    181336.80673834
  Solvation  Ediel_sol  =         0.00000000
  ---------------------------------------------------
  free energy    TOTEN  =      -581.73675824 eV

  energy without entropy =     -580.47147383  energy(sigma->0) =     -581.10411603


--------------------------------------------------------------------------------------------------------




--------------------------------------- Iteration      1(   9)  ---------------------------------------


    POTLOK:  cpu time    0.3704: real time    0.4023
    SETDIJ:  cpu time    0.0384: real time    0.0384
     EDDAV:  cpu time   14.4015: real time   14.4049
       DOS:  cpu time    0.0017: real time    0.0017
    CHARGE:  cpu time    0.3921: real time    0.3922
    MIXING:  cpu time    0.0139: real time    0.0139
    --------------------------------------------
      LOOP:  cpu time   15.2179: real time   15.2214

 eigenvalue-minimisations  :  1648
 total energy-change (2. order) : 0.7060163E+02  (-0.2626256E+02)
 number of electron    1055.9999612 magnetization 
 augmentation part      409.4655833 magnetization 

 Broyden mixing:
  rms(total) = 0.71537E+01    rms(broyden)= 0.71392E+01
  rms(prec ) = 0.77269E+01
  weight for this iteration     100.00

 eigenvalues of (default mixing * dielectric matrix)
  average eigenvalue GAMMA=   0.6449
  1.6113  0.4136  0.4136  0.1411

 Free energy of the ion-electron system (eV)
  ---------------------------------------------------
  alpha Z        PSCENC =      2684.99175279
  Ewald energy   TEWEN  =    302735.28705528
  -Hartree energ DENC   =   -465218.83350228
  -exchange      EXHF   =         0.00000000
  -V(xc)+E(xc)   XCENC  =      4869.26969268
  PAW double counting   =    175921.25724867  -182560.39013671
  entropy T*S    EENTRO =        -1.21884844
  eigenvalues    EBANDS =    -20278.30512693
  atomic energy  EATOM  =    181336.80673834
  Solvation  Ediel_sol  =         0.00000000
  ---------------------------------------------------
  free energy    TOTEN  =      -511.13512659 eV

  energy without entropy =     -509.91627815  energy(sigma->0) =     -510.52570237


--------------------------------------------------------------------------------------------------------




--------------------------------------- Iteration      1(  10)  ---------------------------------------


    POTLOK:  cpu time    0.3606: real time    0.3607
    SETDIJ:  cpu time    0.0236: real time    0.0236
     EDDAV:  cpu time   16.0263: real time   16.0305
       DOS:  cpu time    0.0015: real time    0.0015
    CHARGE:  cpu time    0.3890: real time    0.3892
    MIXING:  cpu time    0.0129: real time    0.0129
    --------------------------------------------
      LOOP:  cpu time   16.8140: real time   16.8184

 eigenvalue-minimisations  :  1880
 total energy-change (2. order) :-0.4373648E+02  (-0.1226961E+02)
 number of electron    1055.9999733 magnetization 
 augmentation part      404.4661582 magnetization 

 Broyden mixing:
  rms(total) = 0.13605E+02    rms(broyden)= 0.13601E+02
  rms(prec ) = 0.15769E+02
  weight for this iteration     100.00

 eigenvalues of (default mixing * dielectric matrix)
  average eigenvalue GAMMA=   0.6367
  2.0665  0.4232  0.4232  0.1353  0.1353

 Free energy of the ion-electron system (eV)
  ---------------------------------------------------
  alpha Z        PSCENC =      2684.99175279
  Ewald energy   TEWEN  =    302735.28705528
  -Hartree energ DENC   =   -465116.08599280
  -exchange      EXHF   =         0.00000000
  -V(xc)+E(xc)   XCENC  =      4865.84789185
  PAW double counting   =    183256.04981666  -189942.14855458
  entropy T*S    EENTRO =        -1.53645802
  eigenvalues    EBANDS =    -20374.08385517
  atomic energy  EATOM  =    181336.80673834
  Solvation  Ediel_sol  =         0.00000000
  ---------------------------------------------------
  free energy    TOTEN  =      -554.87160565 eV

  energy without entropy =     -553.33514763  energy(sigma->0) =     -554.10337664


--------------------------------------------------------------------------------------------------------




--------------------------------------- Iteration      1(  11)  ---------------------------------------


    POTLOK:  cpu time    0.3614: real time    0.3615
    SETDIJ:  cpu time    0.0236: real time    0.0236
     EDDAV:  cpu time   15.0188: real time   15.0221
       DOS:  cpu time    0.0017: real time    0.0017
    CHARGE:  cpu time    0.3929: real time    0.3929
    MIXING:  cpu time    0.0135: real time    0.0135
    --------------------------------------------
      LOOP:  cpu time   15.8119: real time   15.8153

 eigenvalue-minimisations  :  1728
 total energy-change (2. order) : 0.3708705E+02  (-0.9736041E+01)
 number of electron    1055.9999600 magnetization 
 augmentation part      414.0327206 magnetization 

 Broyden mixing:
  rms(total) = 0.69565E+01    rms(broyden)= 0.69523E+01
  rms(prec ) = 0.77168E+01
  weight for this iteration     100.00

 eigenvalues of (default mixing * dielectric matrix)
  average eigenvalue GAMMA=   0.5848
  2.1891  0.4271  0.4271  0.2045  0.1548  0.1064

 Free energy of the ion-electron system (eV)
  ---------------------------------------------------
  alpha Z        PSCENC =      2684.99175279
  Ewald energy   TEWEN  =    302735.28705528
  -Hartree energ DENC   =   -464948.39545745
  -exchange      EXHF   =         0.00000000
  -V(xc)+E(xc)   XCENC  =      4861.54949848
  PAW double counting   =    187954.57275365  -194662.32269768
  entropy T*S    EENTRO =        -1.21263662
  eigenvalues    EBANDS =    -20479.06156140
  atomic energy  EATOM  =    181336.80673834
  Solvation  Ediel_sol  =         0.00000000
  ---------------------------------------------------
  free energy    TOTEN  =      -517.78455461 eV

  energy without entropy =     -516.57191798  energy(sigma->0) =     -517.17823630


--------------------------------------------------------------------------------------------------------




--------------------------------------- Iteration      1(  12)  ---------------------------------------


    POTLOK:  cpu time    0.3626: real time    0.3628
    SETDIJ:  cpu time    0.0236: real time    0.0236
     EDDAV:  cpu time   15.0336: real time   15.0371
       DOS:  cpu time    0.0018: real time    0.0017
    CHARGE:  cpu time    0.3998: real time    0.3998
    MIXING:  cpu time    0.0139: real time    0.0139
    --------------------------------------------
      LOOP:  cpu time   15.8352: real time   15.8389

 eigenvalue-minimisations  :  1744
 total energy-change (2. order) : 0.2341730E+02  (-0.4357617E+01)
 number of electron    1055.9999577 magnetization 
 augmentation part      416.2161745 magnetization 

 Broyden mixing:
  rms(total) = 0.45957E+01    rms(broyden)= 0.45918E+01
  rms(prec ) = 0.50823E+01
  weight for this iteration     100.00

 eigenvalues of (default mixing * dielectric matrix)
  average eigenvalue GAMMA=   0.5801
  2.2289  0.4584  0.4584  0.4721  0.1944  0.1243  0.1243

 Free energy of the ion-electron system (eV)
  ---------------------------------------------------
  alpha Z        PSCENC =      2684.99175279
  Ewald energy   TEWEN  =    302735.28705528
  -Hartree energ DENC   =   -464996.99264533
  -exchange      EXHF   =         0.00000000
  -V(xc)+E(xc)   XCENC  =      4861.02659586
  PAW double counting   =    189031.49790684  -195747.58869260
  entropy T*S    EENTRO =        -0.93026040
  eigenvalues    EBANDS =    -20398.46570363
  atomic energy  EATOM  =    181336.80673834
  Solvation  Ediel_sol  =         0.00000000
  ---------------------------------------------------
  free energy    TOTEN  =      -494.36725285 eV

  energy without entropy =     -493.43699245  energy(sigma->0) =     -493.90212265


--------------------------------------------------------------------------------------------------------




--------------------------------------- Iteration      1(  13)  ---------------------------------------


    POTLOK:  cpu time    0.3600: real time    0.3600
    SETDIJ:  cpu time    0.0237: real time    0.0237
     EDDAV:  cpu time   15.1606: real time   15.1643
       DOS:  cpu time    0.0020: real time    0.0019
    CHARGE:  cpu time    0.3891: real time    0.3891
    MIXING:  cpu time    0.0160: real time    0.0160
    --------------------------------------------
      LOOP:  cpu time   15.9514: real time   15.9551

 eigenvalue-minimisations  :  1752
 total energy-change (2. order) :-0.3787410E+01  (-0.3672496E+01)
 number of electron    1055.9999636 magnetization 
 augmentation part      416.1013968 magnetization 

 Broyden mixing:
  rms(total) = 0.72629E+01    rms(broyden)= 0.72600E+01
  rms(prec ) = 0.84086E+01
  weight for this iteration     100.00

 eigenvalues of (default mixing * dielectric matrix)
  average eigenvalue GAMMA=   0.5392
  2.2319  0.5173  0.4864  0.4864  0.2235  0.1344  0.1344  0.0991

 Free energy of the ion-electron system (eV)
  ---------------------------------------------------
  alpha Z        PSCENC =      2684.99175279
  Ewald energy   TEWEN  =    302735.28705528
  -Hartree energ DENC   =   -464995.24923390
  -exchange      EXHF   =         0.00000000
  -V(xc)+E(xc)   XCENC  =      4860.53857666
  PAW double counting   =    189064.55598672  -195777.34797430
  entropy T*S    EENTRO =        -1.25528283
  eigenvalues    EBANDS =    -20406.48228146
  atomic energy  EATOM  =    181336.80673834
  Solvation  Ediel_sol  =         0.00000000
  ---------------------------------------------------
  free energy    TOTEN  =      -498.15466269 eV

  energy without entropy =     -496.89937986  energy(sigma->0) =     -497.52702128


--------------------------------------------------------------------------------------------------------




--------------------------------------- Iteration      1(  14)  ---------------------------------------


    POTLOK:  cpu time    0.3616: real time    0.3616
    SETDIJ:  cpu time    0.0240: real time    0.0240
     EDDAV:  cpu time   15.1936: real time   15.2009
       DOS:  cpu time    0.0016: real time    0.0016
    CHARGE:  cpu time    0.3973: real time    0.3974
    MIXING:  cpu time    0.0166: real time    0.0166
    --------------------------------------------
      LOOP:  cpu time   15.9948: real time   16.0022

 eigenvalue-minimisations  :  1752
 total energy-change (2. order) : 0.1261868E+02  (-0.2855203E+01)
 number of electron    1055.9999563 magnetization 
 augmentation part      418.2083032 magnetization 

 Broyden mixing:
  rms(total) = 0.36425E+01    rms(broyden)= 0.36404E+01
  rms(prec ) = 0.40918E+01
  weight for this iteration     100.00

 eigenvalues of (default mixing * dielectric matrix)
  average eigenvalue GAMMA=   0.4945
  2.1604  0.5160  0.5160  0.4541  0.3109  0.1368  0.1368  0.1181  0.1016

 Free energy of the ion-electron system (eV)
  ---------------------------------------------------
  alpha Z        PSCENC =      2684.99175279
  Ewald energy   TEWEN  =    302735.28705528
  -Hartree energ DENC   =   -464931.41039380
  -exchange      EXHF   =         0.00000000
  -V(xc)+E(xc)   XCENC  =      4860.68641273
  PAW double counting   =    188954.40158459  -195665.82898028
  entropy T*S    EENTRO =        -1.13250474
  eigenvalues    EBANDS =    -20459.33764433
  atomic energy  EATOM  =    181336.80673834
  Solvation  Ediel_sol  =         0.00000000
  ---------------------------------------------------
  free energy    TOTEN  =      -485.53597942 eV

  energy without entropy =     -484.40347468  energy(sigma->0) =     -484.96972705


--------------------------------------------------------------------------------------------------------




--------------------------------------- Iteration      1(  15)  ---------------------------------------


    POTLOK:  cpu time    0.3671: real time    0.3674
    SETDIJ:  cpu time    0.0234: real time    0.0234
     EDDAV:  cpu time   15.2207: real time   15.2254
       DOS:  cpu time    0.0017: real time    0.0017
    CHARGE:  cpu time    0.3975: real time    0.3978
    MIXING:  cpu time    0.0159: real time    0.0159
    --------------------------------------------
      LOOP:  cpu time   16.0263: real time   16.0316

 eigenvalue-minimisations  :  1760
 total energy-change (2. order) : 0.5176214E+01  (-0.7537718E+00)
 number of electron    1055.9999557 magnetization 
 augmentation part      417.8008064 magnetization 

 Broyden mixing:
  rms(total) = 0.25740E+01    rms(broyden)= 0.25728E+01
  rms(prec ) = 0.28073E+01
  weight for this iteration     100.00

 eigenvalues of (default mixing * dielectric matrix)
  average eigenvalue GAMMA=   0.4748
  2.0640  0.5874  0.5874  0.3967  0.3967  0.1787  0.1787  0.1285  0.1285  0.1019

 Free energy of the ion-electron system (eV)
  ---------------------------------------------------
  alpha Z        PSCENC =      2684.99175279
  Ewald energy   TEWEN  =    302735.28705528
  -Hartree energ DENC   =   -464972.71024734
  -exchange      EXHF   =         0.00000000
  -V(xc)+E(xc)   XCENC  =      4861.57382950
  PAW double counting   =    188420.63864322  -195129.81915964
  entropy T*S    EENTRO =        -1.04311995
  eigenvalues    EBANDS =    -20416.08525714
  atomic energy  EATOM  =    181336.80673834
  Solvation  Ediel_sol  =         0.00000000
  ---------------------------------------------------
  free energy    TOTEN  =      -480.35976494 eV

  energy without entropy =     -479.31664499  energy(sigma->0) =     -479.83820496


--------------------------------------------------------------------------------------------------------




--------------------------------------- Iteration      1(  16)  ---------------------------------------


    POTLOK:  cpu time    0.3620: real time    0.3622
    SETDIJ:  cpu time    0.0236: real time    0.0236
     EDDAV:  cpu time   15.0225: real time   15.0261
       DOS:  cpu time    0.0030: real time    0.0030
    CHARGE:  cpu time    0.3883: real time    0.3883
    MIXING:  cpu time    0.0171: real time    0.0171
    --------------------------------------------
      LOOP:  cpu time   15.8165: real time   15.8204

 eigenvalue-minimisations  :  1728
 total energy-change (2. order) : 0.1137928E+01  (-0.3297566E+00)
 number of electron    1055.9999570 magnetization 
 augmentation part      416.7991508 magnetization 

 Broyden mixing:
  rms(total) = 0.23166E+01    rms(broyden)= 0.23162E+01
  rms(prec ) = 0.26243E+01
  weight for this iteration     100.00

 eigenvalues of (default mixing * dielectric matrix)
  average eigenvalue GAMMA=   0.4571
  2.0414  0.6073  0.6073  0.3756  0.3756  0.3373  0.2045  0.1323  0.1323  0.1071
  0.1071

 Free energy of the ion-electron system (eV)
  ---------------------------------------------------
  alpha Z        PSCENC =      2684.99175279
  Ewald energy   TEWEN  =    302735.28705528
  -Hartree energ DENC   =   -465035.11073258
  -exchange      EXHF   =         0.00000000
  -V(xc)+E(xc)   XCENC  =      4862.42760742
  PAW double counting   =    187719.83740176  -194423.92832972
  entropy T*S    EENTRO =        -1.17269307
  eigenvalues    EBANDS =    -20358.36063677
  atomic energy  EATOM  =    181336.80673834
  Solvation  Ediel_sol  =         0.00000000
  ---------------------------------------------------
  free energy    TOTEN  =      -479.22183655 eV

  energy without entropy =     -478.04914348  energy(sigma->0) =     -478.63549001


--------------------------------------------------------------------------------------------------------




--------------------------------------- Iteration      1(  17)  ---------------------------------------


    POTLOK:  cpu time    0.3652: real time    0.3654
    SETDIJ:  cpu time    0.0255: real time    0.0255
     EDDAV:  cpu time   14.3554: real time   14.3585
       DOS:  cpu time    0.0049: real time    0.0049
    CHARGE:  cpu time    0.6183: real time    0.6184
    MIXING:  cpu time    0.0196: real time    0.0196
    --------------------------------------------
      LOOP:  cpu time   15.3889: real time   15.3924

 eigenvalue-minimisations  :  1672
 total energy-change (2. order) : 0.8150149E+00  (-0.1158271E+00)
 number of electron    1055.9999560 magnetization 
 augmentation part      416.4330685 magnetization 

 Broyden mixing:
  rms(total) = 0.21018E+01    rms(broyden)= 0.21016E+01
  rms(prec ) = 0.23175E+01
  weight for this iteration     100.00

 eigenvalues of (default mixing * dielectric matrix)
  average eigenvalue GAMMA=   0.4878
  2.0479  0.7874  0.7874  0.4618  0.4618  0.4275  0.2314  0.1450  0.1450  0.1259
  0.1259  0.1066

 Free energy of the ion-electron system (eV)
  ---------------------------------------------------
  alpha Z        PSCENC =      2684.99175279
  Ewald energy   TEWEN  =    302735.28705528
  -Hartree energ DENC   =   -465047.37591012
  -exchange      EXHF   =         0.00000000
  -V(xc)+E(xc)   XCENC  =      4862.69042066
  PAW double counting   =    187403.41533161  -194104.54889314
  entropy T*S    EENTRO =        -1.10827284
  eigenvalues    EBANDS =    -20348.56504427
  atomic energy  EATOM  =    181336.80673834
  Solvation  Ediel_sol  =         0.00000000
  ---------------------------------------------------
  free energy    TOTEN  =      -478.40682169 eV

  energy without entropy =     -477.29854885  energy(sigma->0) =     -477.85268527


--------------------------------------------------------------------------------------------------------




--------------------------------------- Iteration      1(  18)  ---------------------------------------


    POTLOK:  cpu time    0.3635: real time    0.3635
    SETDIJ:  cpu time    0.0235: real time    0.0235
     EDDAV:  cpu time   14.4709: real time   14.4784
       DOS:  cpu time    0.0039: real time    0.0039
    CHARGE:  cpu time    0.3876: real time    0.3876
    MIXING:  cpu time    0.0183: real time    0.0183
    --------------------------------------------
      LOOP:  cpu time   15.2676: real time   15.2752

 eigenvalue-minimisations  :  1672
 total energy-change (2. order) : 0.2999715E+00  (-0.8737862E-01)
 number of electron    1055.9999566 magnetization 
 augmentation part      416.3967453 magnetization 

 Broyden mixing:
  rms(total) = 0.19995E+01    rms(broyden)= 0.19992E+01
  rms(prec ) = 0.22752E+01
  weight for this iteration     100.00

 eigenvalues of (default mixing * dielectric matrix)
  average eigenvalue GAMMA=   0.4997
  2.0488  0.9846  0.9846  0.4848  0.4848  0.4409  0.2717  0.1612  0.1612  0.1281
  0.1281  0.1087  0.1087

 Free energy of the ion-electron system (eV)
  ---------------------------------------------------
  alpha Z        PSCENC =      2684.99175279
  Ewald energy   TEWEN  =    302735.28705528
  -Hartree energ DENC   =   -465062.12382570
  -exchange      EXHF   =         0.00000000
  -V(xc)+E(xc)   XCENC  =      4862.65742291
  PAW double counting   =    186940.53128956  -193635.09131116
  entropy T*S    EENTRO =        -1.18062134
  eigenvalues    EBANDS =    -20339.98535086
  atomic energy  EATOM  =    181336.80673834
  Solvation  Ediel_sol  =         0.00000000
  ---------------------------------------------------
  free energy    TOTEN  =      -478.10685016 eV

  energy without entropy =     -476.92622883  energy(sigma->0) =     -477.51653949


--------------------------------------------------------------------------------------------------------




--------------------------------------- Iteration      1(  19)  ---------------------------------------


    POTLOK:  cpu time    0.3627: real time    0.3628
    SETDIJ:  cpu time    0.0295: real time    0.0295
     EDDAV:  cpu time   15.0320: real time   15.0352
       DOS:  cpu time    0.0040: real time    0.0041
    CHARGE:  cpu time    0.3880: real time    0.3880
    MIXING:  cpu time    0.0203: real time    0.0203
    --------------------------------------------
      LOOP:  cpu time   15.8366: real time   15.8400

 eigenvalue-minimisations  :  1736
 total energy-change (2. order) : 0.7624855E+00  (-0.6353197E-01)
 number of electron    1055.9999568 magnetization 
 augmentation part      416.2527377 magnetization 

 Broyden mixing:
  rms(total) = 0.18013E+01    rms(broyden)= 0.18011E+01
  rms(prec ) = 0.20033E+01
  weight for this iteration     100.00

 eigenvalues of (default mixing * dielectric matrix)
  average eigenvalue GAMMA=   0.5435
  2.0638  1.3261  1.3261  0.5246  0.5246  0.4212  0.4212  0.1897  0.1897  0.1297
  0.1297  0.1361  0.1131  0.1131

 Free energy of the ion-electron system (eV)
  ---------------------------------------------------
  alpha Z        PSCENC =      2684.99175279
  Ewald energy   TEWEN  =    302735.28705528
  -Hartree energ DENC   =   -465079.04446334
  -exchange      EXHF   =         0.00000000
  -V(xc)+E(xc)   XCENC  =      4862.68758601
  PAW double counting   =    186457.60447987  -193145.76493640
  entropy T*S    EENTRO =        -1.14183553
  eigenvalues    EBANDS =    -20328.77074170
  atomic energy  EATOM  =    181336.80673834
  Solvation  Ediel_sol  =         0.00000000
  ---------------------------------------------------
  free energy    TOTEN  =      -477.34436467 eV

  energy without entropy =     -476.20252914  energy(sigma->0) =     -476.77344690


--------------------------------------------------------------------------------------------------------




--------------------------------------- Iteration      1(  20)  ---------------------------------------


    POTLOK:  cpu time    0.3659: real time    0.3661
    SETDIJ:  cpu time    0.0238: real time    0.0238
     EDDAV:  cpu time   14.9168: real time   14.9201
       DOS:  cpu time    0.0036: real time    0.0036
    CHARGE:  cpu time    0.3861: real time    0.3861
    MIXING:  cpu time    0.0220: real time    0.0222
    --------------------------------------------
      LOOP:  cpu time   15.7181: real time   15.7218

 eigenvalue-minimisations  :  1720
 total energy-change (2. order) : 0.8369626E+00  (-0.8187259E-01)
 number of electron    1055.9999561 magnetization 
 augmentation part      416.3275139 magnetization 

 Broyden mixing:
  rms(total) = 0.14830E+01    rms(broyden)= 0.14827E+01
  rms(prec ) = 0.17045E+01
  weight for this iteration     100.00

 eigenvalues of (default mixing * dielectric matrix)
  average eigenvalue GAMMA=   0.5803
  2.0281  1.6815  1.6815  0.5852  0.5852  0.4639  0.4639  0.2441  0.1930  0.1635
  0.1285  0.1285  0.1364  0.1104  0.1104

 Free energy of the ion-electron system (eV)
  ---------------------------------------------------
  alpha Z        PSCENC =      2684.99175279
  Ewald energy   TEWEN  =    302735.28705528
  -Hartree energ DENC   =   -465103.49833562
  -exchange      EXHF   =         0.00000000
  -V(xc)+E(xc)   XCENC  =      4862.59011694
  PAW double counting   =    185602.25273366  -192278.30417620
  entropy T*S    EENTRO =        -1.19145196
  eigenvalues    EBANDS =    -20315.44183528
  atomic energy  EATOM  =    181336.80673834
  Solvation  Ediel_sol  =         0.00000000
  ---------------------------------------------------
  free energy    TOTEN  =      -476.50740205 eV

  energy without entropy =     -475.31595009  energy(sigma->0) =     -475.91167607


--------------------------------------------------------------------------------------------------------




--------------------------------------- Iteration      1(  21)  ---------------------------------------


    POTLOK:  cpu time    0.3675: real time    0.3675
    SETDIJ:  cpu time    0.0247: real time    0.0248
     EDDAV:  cpu time   16.1422: real time   16.1456
       DOS:  cpu time    0.0029: real time    0.0029
    CHARGE:  cpu time    0.4087: real time    0.4088
    MIXING:  cpu time    0.0205: real time    0.0205
    --------------------------------------------
      LOOP:  cpu time   16.9665: real time   16.9700

 eigenvalue-minimisations  :  1920
 total energy-change (2. order) : 0.1262671E+01  (-0.1230241E+00)
 number of electron    1055.9999544 magnetization 
 augmentation part      415.9460222 magnetization 

 Broyden mixing:
  rms(total) = 0.77604E+00    rms(broyden)= 0.77503E+00
  rms(prec ) = 0.85595E+00
  weight for this iteration     100.00

 eigenvalues of (default mixing * dielectric matrix)
  average eigenvalue GAMMA=   0.5752
  2.0049  1.7699  1.7699  0.6234  0.6234  0.4484  0.4484  0.3438  0.2121  0.1863
  0.1611  0.1288  0.1288  0.1341  0.1103  0.1103

 Free energy of the ion-electron system (eV)
  ---------------------------------------------------
  alpha Z        PSCENC =      2684.99175279
  Ewald energy   TEWEN  =    302735.28705528
  -Hartree energ DENC   =   -465163.29729024
  -exchange      EXHF   =         0.00000000
  -V(xc)+E(xc)   XCENC  =      4862.81024238
  PAW double counting   =    184163.35100013  -190820.33562145
  entropy T*S    EENTRO =        -1.18190185
  eigenvalues    EBANDS =    -20273.67670619
  atomic energy  EATOM  =    181336.80673834
  Solvation  Ediel_sol  =         0.00000000
  ---------------------------------------------------
  free energy    TOTEN  =      -475.24473079 eV

  energy without entropy =     -474.06282895  energy(sigma->0) =     -474.65377987


--------------------------------------------------------------------------------------------------------




--------------------------------------- Iteration      1(  22)  ---------------------------------------


    POTLOK:  cpu time    0.3700: real time    0.3700
    SETDIJ:  cpu time    0.0248: real time    0.0248
     EDDAV:  cpu time   15.0175: real time   15.0207
       DOS:  cpu time    0.0032: real time    0.0032
    CHARGE:  cpu time    0.3896: real time    0.3897
    MIXING:  cpu time    0.0221: real time    0.0221
    --------------------------------------------
      LOOP:  cpu time   15.8272: real time   15.8305

 eigenvalue-minimisations  :  1728
 total energy-change (2. order) : 0.1495121E+00  (-0.8227726E-01)
 number of electron    1055.9999545 magnetization 
 augmentation part      415.7835646 magnetization 

 Broyden mixing:
  rms(total) = 0.56577E+00    rms(broyden)= 0.56527E+00
  rms(prec ) = 0.62163E+00
  weight for this iteration     100.00

 eigenvalues of (default mixing * dielectric matrix)
  average eigenvalue GAMMA=   0.5617
  1.9851  1.7783  1.7783  0.6378  0.6378  0.4594  0.4594  0.4432  0.2500  0.1848
  0.1655  0.1571  0.1288  0.1288  0.1342  0.1102  0.1102

 Free energy of the ion-electron system (eV)
  ---------------------------------------------------
  alpha Z        PSCENC =      2684.99175279
  Ewald energy   TEWEN  =    302735.28705528
  -Hartree energ DENC   =   -465188.56677138
  -exchange      EXHF   =         0.00000000
  -V(xc)+E(xc)   XCENC  =      4862.91136826
  PAW double counting   =    183679.34917505  -190329.50668213
  entropy T*S    EENTRO =        -1.21376413
  eigenvalues    EBANDS =    -20255.15409075
  atomic energy  EATOM  =    181336.80673834
  Solvation  Ediel_sol  =         0.00000000
  ---------------------------------------------------
  free energy    TOTEN  =      -475.09521867 eV

  energy without entropy =     -473.88145454  energy(sigma->0) =     -474.48833660


--------------------------------------------------------------------------------------------------------




--------------------------------------- Iteration      1(  23)  ---------------------------------------


    POTLOK:  cpu time    0.3693: real time    0.3693
    SETDIJ:  cpu time    0.0249: real time    0.0249
     EDDAV:  cpu time   13.9073: real time   13.9109
       DOS:  cpu time    0.0037: real time    0.0036
    CHARGE:  cpu time    0.3991: real time    0.3991
    MIXING:  cpu time    0.0233: real time    0.0233
    --------------------------------------------
      LOOP:  cpu time   14.7276: real time   14.7311

 eigenvalue-minimisations  :  1584
 total energy-change (2. order) : 0.4682795E-01  (-0.2320235E-01)
 number of electron    1055.9999545 magnetization 
 augmentation part      415.8244132 magnetization 

 Broyden mixing:
  rms(total) = 0.47189E+00    rms(broyden)= 0.47181E+00
  rms(prec ) = 0.51586E+00
  weight for this iteration     100.00

 eigenvalues of (default mixing * dielectric matrix)
  average eigenvalue GAMMA=   0.5490
  1.9677  1.7765  1.7765  0.6316  0.6316  0.4916  0.4916  0.4363  0.3482  0.1961
  0.1961  0.1720  0.1539  0.1287  0.1287  0.1343  0.1103  0.1103

 Free energy of the ion-electron system (eV)
  ---------------------------------------------------
  alpha Z        PSCENC =      2684.99175279
  Ewald energy   TEWEN  =    302735.28705528
  -Hartree energ DENC   =   -465191.46433733
  -exchange      EXHF   =         0.00000000
  -V(xc)+E(xc)   XCENC  =      4862.93203060
  PAW double counting   =    183576.91117219  -190225.67450205
  entropy T*S    EENTRO =        -1.21675582
  eigenvalues    EBANDS =    -20253.62154472
  atomic energy  EATOM  =    181336.80673834
  Solvation  Ediel_sol  =         0.00000000
  ---------------------------------------------------
  free energy    TOTEN  =      -475.04839072 eV

  energy without entropy =     -473.83163490  energy(sigma->0) =     -474.44001281


--------------------------------------------------------------------------------------------------------




--------------------------------------- Iteration      1(  24)  ---------------------------------------


    POTLOK:  cpu time    0.3684: real time    0.3684
    SETDIJ:  cpu time    0.0250: real time    0.0250
[...]
   -.333E+03 -.168E+03 -.485E+04   0.338E+03 0.170E+03 0.486E+04   -.448E+01 -.170E+01 -.235E+01   0.486E-01 -.356E-01 0.101E+00
   -.616E+03 0.148E+03 0.505E+04   0.622E+03 -.149E+03 -.505E+04   -.410E+01 0.326E+00 0.402E+01   -.458E-01 -.963E-01 -.160E+00
   0.919E+01 -.215E+03 0.470E+03   -.772E+01 0.214E+03 -.465E+03   -.984E+00 0.208E+00 -.365E+01   0.209E-02 -.179E-01 0.958E-02
   0.206E+03 -.367E+03 -.235E+04   -.206E+03 0.369E+03 0.235E+04   0.512E+00 -.113E+01 -.295E-01   0.331E-02 0.137E-01 -.186E-01
   -.207E+02 0.260E+02 -.560E+04   0.182E+02 -.219E+02 0.560E+04   0.302E+01 -.485E+01 0.798E+00   -.273E-01 0.442E-01 0.134E+00
   0.487E+03 -.268E+03 0.432E+04   -.491E+03 0.273E+03 -.432E+04   0.320E+01 -.358E+01 0.330E+01   0.450E-02 0.341E-02 -.654E-01
   0.304E+03 0.226E+03 -.486E+04   -.308E+03 -.229E+03 0.486E+04   0.348E+01 0.329E+01 -.234E+01   -.617E-02 -.138E-01 0.740E-01
   -.627E+02 -.179E+03 0.481E+04   0.614E+02 0.178E+03 -.482E+04   0.206E+01 0.218E+00 0.693E+01   0.154E-01 0.690E-01 -.848E-01
   0.298E+01 0.472E+03 0.163E+04   -.114E+01 -.475E+03 -.162E+04   -.172E+01 0.219E+01 -.180E+01   0.151E-01 -.149E-01 -.719E-02
   0.234E+03 0.443E+03 -.136E+04   -.235E+03 -.444E+03 0.136E+04   0.869E+00 0.477E+00 0.201E+01   0.464E-01 0.412E-01 -.101E+00
   -.402E+03 -.653E+02 0.184E+04   0.401E+03 0.653E+02 -.185E+04   0.975E+00 -.199E+00 0.838E+00   -.579E-01 0.699E-01 -.378E-01
   -.482E+03 -.261E+02 -.137E+04   0.482E+03 0.267E+02 0.137E+04   -.550E+00 -.751E+00 0.199E+01   0.120E-01 0.568E-01 -.727E-01
   -.337E+03 -.166E+03 -.486E+04   0.342E+03 0.168E+03 0.487E+04   -.449E+01 -.165E+01 -.229E+01   0.276E-01 0.635E-01 0.834E-01
   -.587E+03 -.475E+03 0.527E+04   0.591E+03 0.478E+03 -.528E+04   -.344E+01 -.188E+01 0.627E+01   0.755E-02 0.340E-02 -.115E+00
   0.317E+03 -.424E+03 0.717E+03   -.317E+03 0.424E+03 -.715E+03   0.618E-01 -.465E+00 -.185E+01   0.871E-02 0.352E-01 -.878E-01
   0.249E+03 -.379E+03 -.233E+04   -.250E+03 0.380E+03 0.233E+04   0.640E+00 -.911E+00 -.735E-01   0.226E-01 0.267E-01 -.556E-01
   -.107E+02 0.240E+02 -.559E+04   0.814E+01 -.200E+02 0.559E+04   0.296E+01 -.482E+01 0.795E+00   0.171E-01 0.492E-01 0.142E+00
   0.338E+03 -.588E+03 0.411E+04   -.340E+03 0.591E+03 -.411E+04   0.207E+01 -.239E+01 0.268E+01   -.300E-01 -.794E-01 -.460E-01
   0.301E+03 0.228E+03 -.486E+04   -.305E+03 -.231E+03 0.486E+04   0.353E+01 0.331E+01 -.231E+01   -.467E-02 0.259E-01 0.717E-01
   0.317E+03 -.142E+03 0.477E+04   -.319E+03 0.141E+03 -.478E+04   0.209E+01 -.575E-01 0.627E+01   0.284E-01 0.726E-01 -.719E-01
   0.213E+03 0.399E+03 0.163E+04   -.212E+03 -.400E+03 -.163E+04   -.276E+00 0.773E+00 -.154E+01   0.677E-02 0.716E-01 0.297E-01
   0.268E+03 0.429E+03 -.135E+04   -.269E+03 -.429E+03 0.135E+04   0.118E+01 0.447E+00 0.223E+01   -.223E-01 0.910E-02 -.105E+00
   -.673E+03 -.131E+03 0.209E+04   0.675E+03 0.131E+03 -.209E+04   -.164E+01 0.196E+00 0.933E+00   0.922E-02 0.104E-01 -.875E-02
   -.517E+03 -.445E+02 -.133E+04   0.517E+03 0.451E+02 0.132E+04   -.666E+00 -.676E+00 0.207E+01   -.153E-02 -.257E-05 -.903E-01
   -.339E+03 -.172E+03 -.485E+04   0.344E+03 0.174E+03 0.486E+04   -.451E+01 -.168E+01 -.241E+01   -.106E-01 0.385E-01 0.432E-01
   -.495E+03 0.145E+02 0.536E+04   0.503E+03 -.179E+02 -.537E+04   -.416E+01 0.151E+01 0.412E+01   -.793E-02 0.795E-01 -.900E-01
   -.390E+02 0.637E+02 0.133E+03   0.398E+02 -.648E+02 -.132E+03   -.104E+01 0.114E+01 -.793E-01   -.282E-01 0.185E-01 0.442E-01
   -.804E+02 0.124E+03 -.903E+03   0.816E+02 -.126E+03 0.899E+03   -.626E+00 0.126E+01 0.139E+01   -.275E-01 0.224E-01 -.261E-01
   -.630E+02 0.393E+03 0.167E+04   0.635E+02 -.396E+03 -.167E+04   0.383E+00 0.152E+00 0.327E+01   0.314E-01 -.192E-01 0.783E-02
   -.410E+01 0.697E+01 -.234E+04   0.465E+01 -.777E+01 0.234E+04   -.392E+00 0.544E+00 -.215E+01   0.230E-01 -.203E-01 0.844E-01
   -.125E+03 -.111E+03 -.156E+04   0.126E+03 0.113E+03 0.157E+04   -.166E+01 -.518E+00 -.158E+01   -.154E-01 -.363E-01 -.127E-01
   -.787E+02 -.139E+03 -.199E+03   0.797E+02 0.142E+03 0.199E+03   -.107E+01 -.296E+01 -.611E-01   0.150E-01 0.197E-01 -.758E-01
   -.308E+03 -.155E+03 0.132E+04   0.311E+03 0.158E+03 -.132E+04   -.216E+01 -.160E+01 0.310E+01   0.328E-01 0.591E-02 -.176E-01
   0.701E+02 0.933E+02 0.219E+04   -.701E+02 -.927E+02 -.219E+04   -.667E+00 -.975E+00 0.369E+01   -.269E-01 -.116E-01 -.643E-01
   0.208E+03 0.220E+02 0.101E+04   -.211E+03 -.221E+02 -.101E+04   0.234E+01 0.448E+00 -.300E+00   0.164E-01 -.213E-01 0.173E-01
   0.154E+03 0.140E+01 -.189E+03   -.156E+03 -.143E+01 0.189E+03   0.273E+01 0.874E-01 -.286E+00   -.358E-01 -.215E-01 -.547E-01
   0.150E+03 0.631E+02 -.156E+04   -.153E+03 -.639E+02 0.156E+04   0.122E+01 0.118E+01 -.157E+01   -.139E-01 -.848E-02 0.320E-01
   -.580E+02 0.133E+03 0.327E+03   0.593E+02 -.135E+03 -.329E+03   -.127E+01 0.196E+01 0.226E+01   0.186E-02 -.203E-01 -.705E-01
   -.736E+02 0.125E+03 -.884E+03   0.747E+02 -.127E+03 0.880E+03   -.711E+00 0.125E+01 0.916E+00   0.852E-02 -.241E-01 -.175E-01
   -.111E+03 0.175E+03 0.235E+04   0.111E+03 -.177E+03 -.235E+04   -.330E+00 0.101E+01 0.102E+01   -.596E-02 -.206E-01 -.472E-01
   -.980E+02 0.149E+03 0.176E+04   0.990E+02 -.151E+03 -.177E+04   -.186E+01 0.344E+01 0.168E+01   -.431E-01 0.132E-01 -.419E-01
   -.373E+01 0.579E+01 -.234E+04   0.423E+01 -.663E+01 0.234E+04   -.346E+00 0.577E+00 -.211E+01   0.854E-02 -.150E-01 0.783E-01
   -.124E+03 -.108E+03 -.156E+04   0.126E+03 0.109E+03 0.156E+04   -.157E+01 -.582E+00 -.174E+01   -.221E-02 -.362E-02 0.476E-01
   -.719E+02 -.163E+03 -.195E+03   0.730E+02 0.166E+03 0.195E+03   -.112E+01 -.268E+01 0.878E-03   -.219E-01 -.241E-01 -.353E-01
   0.102E+03 -.833E+02 0.213E+04   -.103E+03 0.849E+02 -.213E+04   0.116E+01 -.282E+00 0.332E+01   0.936E-03 -.227E-01 -.234E-01
   -.927E+02 -.163E+03 0.104E+04   0.952E+02 0.165E+03 -.104E+04   -.100E+01 -.210E+01 0.347E+00   -.286E-01 0.216E-02 -.271E-01
   0.154E+03 -.105E+03 0.225E+04   -.156E+03 0.107E+03 -.225E+04   0.845E+00 -.162E+01 0.366E+01   -.256E-02 -.345E-01 -.419E-01
   0.142E+03 0.218E+02 0.100E+04   -.144E+03 -.218E+02 -.100E+04   0.238E+01 -.145E+00 0.122E+01   0.360E-02 -.193E-01 0.120E-01
   0.183E+03 -.555E+01 -.190E+03   -.186E+03 0.555E+01 0.190E+03   0.292E+01 -.510E-01 -.149E+00   0.469E-01 -.580E-02 -.611E-01
   0.157E+03 0.612E+02 -.156E+04   -.159E+03 -.620E+02 0.157E+04   0.125E+01 0.124E+01 -.139E+01   0.305E-01 -.212E-01 -.553E-02
   -.578E+02 0.124E+03 0.280E+03   0.590E+02 -.126E+03 -.282E+03   -.120E+01 0.214E+01 0.213E+01   -.118E-02 0.653E-02 -.178E-01
   -.760E+02 0.127E+03 -.893E+03   0.772E+02 -.128E+03 0.889E+03   -.697E+00 0.110E+01 0.101E+01   -.448E-02 0.232E-01 -.224E-01
   -.231E+03 -.311E+01 0.176E+04   0.234E+03 0.264E+01 -.176E+04   -.193E+01 -.823E+00 0.270E+01   -.130E-01 0.193E-01 -.185E-01
   -.514E+01 0.676E+01 -.234E+04   0.565E+01 -.756E+01 0.235E+04   -.356E+00 0.535E+00 -.211E+01   0.131E-02 -.204E-01 0.575E-01
   -.122E+03 -.109E+03 -.156E+04   0.123E+03 0.111E+03 0.157E+04   -.155E+01 -.568E+00 -.179E+01   0.176E-02 0.231E-01 0.160E-01
   -.103E+03 -.152E+03 -.177E+03   0.105E+03 0.155E+03 0.177E+03   -.120E+01 -.271E+01 0.928E-01   0.104E-01 -.465E-02 -.201E-01
   -.153E+02 -.657E+02 0.247E+04   0.151E+02 0.670E+02 -.248E+04   0.601E+00 -.699E+00 0.308E+01   0.153E-01 -.527E-02 -.712E-01
   -.469E+02 -.716E+02 0.874E+03   0.476E+02 0.721E+02 -.871E+03   -.103E+01 0.557E+00 0.175E+00   0.232E-01 -.317E-01 0.917E-02
   -.147E+02 -.215E+03 0.223E+04   0.144E+02 0.216E+03 -.223E+04   -.327E+00 0.331E+00 0.409E+01   -.184E-01 0.310E-01 -.527E-01
   0.259E+03 -.741E+02 0.105E+04   -.264E+03 0.742E+02 -.105E+04   0.247E+01 0.165E+00 -.123E+01   -.696E-02 0.386E-03 -.225E-01
   0.163E+03 0.842E+01 -.217E+03   -.166E+03 -.844E+01 0.217E+03   0.319E+01 0.110E+00 -.836E+00   -.529E-02 0.507E-02 -.224E-01
   0.152E+03 0.637E+02 -.156E+04   -.154E+03 -.646E+02 0.157E+04   0.118E+01 0.122E+01 -.181E+01   0.416E-02 0.351E-01 0.199E-01
   -.912E+02 0.111E+03 0.302E+03   0.924E+02 -.113E+03 -.305E+03   -.116E+01 0.184E+01 0.269E+01   0.200E-01 -.277E-01 -.949E-02
   -.774E+02 0.123E+03 -.889E+03   0.787E+02 -.125E+03 0.885E+03   -.805E+00 0.111E+01 0.871E+00   0.628E-02 0.115E-01 -.479E-01
   0.298E+03 -.342E+02 0.233E+04   -.300E+03 0.350E+02 -.234E+04   0.106E+01 -.117E+01 0.380E+01   0.298E-01 0.577E-01 -.395E-01
   -.110E+03 0.599E+02 0.161E+04   0.112E+03 -.615E+02 -.162E+04   -.975E+00 0.121E+01 0.208E+01   0.738E-02 0.513E-01 -.191E-01
   -.295E+01 0.631E+01 -.234E+04   0.342E+01 -.715E+01 0.234E+04   -.315E+00 0.560E+00 -.213E+01   0.158E-01 -.187E-01 0.720E-01
   -.127E+03 -.110E+03 -.156E+04   0.129E+03 0.111E+03 0.156E+04   -.149E+01 -.562E+00 -.171E+01   -.227E-01 0.385E-02 0.805E-02
   -.527E+02 -.153E+03 -.198E+03   0.540E+02 0.156E+03 0.198E+03   -.132E+01 -.252E+01 -.275E-01   0.512E-02 0.265E-01 -.313E-01
   0.864E+02 -.298E+03 0.233E+04   -.877E+02 0.301E+03 -.233E+04   0.101E+01 -.206E+01 0.252E+01   -.334E-02 -.188E-01 -.705E-01
   -.433E+02 -.894E+02 0.968E+03   0.438E+02 0.889E+02 -.967E+03   -.277E+00 0.733E+00 -.472E+00   -.216E-01 -.241E-01 0.274E-01
   0.305E+03 -.126E+03 0.110E+04   -.309E+03 0.126E+03 -.110E+04   0.213E+01 -.457E+00 0.168E+01   0.290E-01 0.484E-01 0.752E-02
   0.180E+03 -.110E+02 -.187E+03   -.183E+03 0.110E+02 0.187E+03   0.314E+01 -.859E-01 -.257E+00   -.129E-01 0.121E-01 -.409E-01
   0.155E+03 0.607E+02 -.156E+04   -.158E+03 -.616E+02 0.156E+04   0.118E+01 0.126E+01 -.179E+01   0.979E-03 0.267E-01 0.114E-01
 -----------------------------------------------------------------------------------------------
   -.939E+01 0.197E+02 -.645E+02   -.568E-13 -.144E-11 0.207E-10   0.910E+01 -.195E+02 0.664E+02   0.756E-01 -.121E+00 -.171E+01
 
 
 POSITION                                       TOTAL-FORCE (eV/Angst)
 -----------------------------------------------------------------------------------
      5.35228      4.81788      5.50842        -0.080882      0.133165      0.066839
      5.93595      3.87238      8.44448        -0.089895      0.108810     -0.943181
      6.05273      3.68316     10.80973         0.426037     -0.718281      0.786008
      2.08075      1.17568      3.85963         0.106978     -0.756148     -0.496059
      0.82535      0.54759     10.27235        -0.501165     -0.002201      0.482067
      4.93417      3.41675      2.22576        -0.203807     -0.970319     -1.082105
      5.35228      2.40903      4.73270         0.157672     -0.039370      0.228019
      5.93595      1.46353      7.66876         0.101519     -0.058841     -0.068116
      1.87746      3.73836      4.73270         0.127892      0.138138      0.313430
      2.46113      2.79286      7.66876         0.128036     -0.024828     -0.088895
      3.04799      1.91963     10.27235         0.247703      0.483316      0.509953
      7.22243      4.56675      2.26266         0.045370     -0.907251     -0.685113
     10.98051      4.81788      5.50842        -0.146120     -0.001717      0.085965
     11.56418      3.87238      8.44448        -0.054322      0.066532     -1.015336
     11.68095      3.68322     10.80985         0.466092     -0.769372      0.737483
      8.03791      0.55917      2.84096        -1.811962      1.957314      0.452750
      6.45349      0.54767     10.27114        -0.536744      0.018385      0.457420
     10.39684      3.35453      1.79664        -0.305326     -1.288130      2.496917
     10.98051      2.40903      4.73270        -0.049715      0.053888      0.202794
     11.56418      1.46353      7.66876        -0.072470     -0.104176     -0.049077
      7.50570      3.73836      4.73270         0.149080     -0.100777      0.070798
      8.08937      2.79286      7.66876        -0.003607     -0.136618     -0.022034
      8.67624      1.91979     10.27108         0.282936      0.508145      0.435151
     12.55026      4.68386      1.79664         1.617679     -0.440226      2.488190
      7.87456      9.84929      5.50842         0.485269     -0.868578      1.440296
      8.45823      8.90379      8.44448        -0.030738      0.130562     -0.923610
      8.57535      8.71409     10.81004         0.453711     -0.722633      0.772002
      4.76861      5.76338      2.57236        -0.923622      0.781247      1.628864
      3.34748      5.57903     10.27108        -0.561804     -0.027472      0.446317
      6.67752      7.37447      2.51408         0.737928     -0.842335      0.259848
      7.87456      7.44044      4.73270         0.136856     -0.342844      0.596801
      8.45823      6.49494      7.66876         0.136980     -0.042834     -0.042319
      4.39975      8.76977      4.73270        -0.244132     -0.121308      0.383919
      4.98341      7.82427      7.66876        -0.049915     -0.092566     -0.064599
      5.57018      6.95114     10.27120         0.262853      0.523632      0.416775
      8.10649      9.35876      2.70895         0.331974      0.912882     -1.868109
     13.50279      9.84929      5.50842        -0.146366      0.112955     -0.057877
     14.08646      8.90379      8.44448        -0.045379      0.110692     -1.036692
     14.20331      8.71455     10.80975         0.434235     -0.735478      0.815816
     10.39684      5.76338      2.57236        -0.467156      0.180923      2.279024
      8.97574      5.57903     10.27108        -0.515795      0.002687      0.464537
     12.78124      7.61795      2.46672        -0.355955     -0.921454      0.321922
     13.50279      7.44044      4.73270         0.175721      0.007403      0.940191
     14.08646      6.49494      7.66876         0.082066     -0.022056      0.063680
     10.02798      8.76977      4.73270         0.299843      0.008889      0.240968
     10.61165      7.82427      7.66876        -0.036201     -0.110451     -0.099283
     11.19850      6.95118     10.27106         0.256412      0.523490      0.452884
     15.07254      9.71527      1.79664         3.269099     -1.792338      0.897537
      1.66190      1.67871      5.87212        -0.198637      0.113096      1.096377
      2.24556      0.73321      8.80817         0.467749     -0.766762     -3.114696
      6.70646      2.62422      2.93606         0.967368     -2.232905      0.153020
      5.03634      5.32950     11.45331         0.179895     -0.273544      2.764439
      2.24556      3.80055      9.79595         0.047359      1.022435     -0.067593
      7.29013      4.74605      6.85989         0.030354     -0.021315     -0.038048
      4.18418      0.66015      3.92384         1.256927      0.947072     -0.015952
      3.40552      4.63191      1.45069        -0.658147     -0.346850     -1.958380
      3.96438      3.99884      3.92384        -0.640832      0.331490      1.991000
      4.54805      3.05334      6.85989        -0.012730      0.034013     -0.109897
      5.13172      2.10784      9.79595        -0.944460      0.368693     -0.083036
      7.29013      1.67871      5.87212        -0.007002      0.043381      0.221190
      7.87380      0.73321      8.80817         0.433011     -0.737737     -3.082203
     11.64473      3.73633      0.28690         0.307492     -0.531067     -4.104370
     12.33469      2.62422      2.93606        -0.845818      1.435444     -1.249936
     10.66462      5.32962     11.45333         0.167545     -0.280096      2.805510
      7.87380      3.80055      9.79595         0.101075      0.991347     -0.088865
     12.91836      4.74605      6.85989        -0.010176      0.103639     -0.063022
      9.37110      1.56365      1.48476        -0.255075      1.356251     -1.870416
      9.81241      0.66015      3.92384         1.514952     -0.112615      1.501979
      9.05202      4.83747      1.31118        -0.985141      0.556820     -2.743621
      9.59261      3.99884      3.92384         0.235439     -0.244642      0.718626
     10.17628      3.05334      6.85989        -0.018095     -0.059093     -0.040779
     10.75995      2.10784      9.79595        -0.973292      0.389168     -0.025700
      4.18418      6.71012      5.87212         0.021531      0.004461      0.059081
      4.76785      5.76462      8.80817         0.494944     -0.749934     -3.085939
      9.22874      7.65563      2.93606         1.034087     -1.268542     -0.001975
      2.51445      0.29766     11.45371         0.164172     -0.292339      2.762056
      4.76785      8.83196      9.79595         0.093780      0.968996     -0.106017
      9.81241      9.77746      6.85989        -0.015503     -0.096719      0.054172
      6.17572      5.92285      1.10757         0.379140      0.594627     -3.218689
      6.70646      5.69156      3.92384        -0.283000      1.012763      2.542902
      6.11263      9.08948      1.50431        -0.715826      1.820975     -1.471235
      6.48666      9.03025      3.92384        -2.238372      0.216607      1.916136
      7.07033      8.08475      6.85989         0.040777      0.098968     -0.165700
      7.65400      7.13925      9.79595        -0.941981      0.356884     -0.120375
      9.81241      6.71012      5.87212         0.044458      0.014702      0.137881
     10.39608      5.76462      8.80817         0.454510     -0.667674     -3.122150
     13.16626      9.26749      1.27679        -1.788952     -0.354218     -3.168501
     14.85697      7.65563      2.93606         1.644680     -0.328850      0.027246
      8.14243      0.29815     11.45326         0.168294     -0.303579      2.765520
     10.39608      8.83196      9.79595         0.108456      0.970923     -0.137619
     15.44064      9.77746      6.85989         0.040418      0.041792     -0.077258
     11.71434      6.45142      1.16589        -0.291899      1.485506     -3.528567
     12.33469      5.69156      3.92384         0.181574      0.178516      0.331841
     12.11489      9.03025      3.92384        -1.565674      0.140244      1.423180
     12.69856      8.08475      6.85989         0.049429     -0.098465     -0.007563
     13.28223      7.13925      9.79595        -0.925670      0.365681     -0.096816
 -----------------------------------------------------------------------------------
    total drift:                               -0.209208      0.041021      0.138003


--------------------------------------------------------------------------------------------------------



  FREE ENERGIE OF THE ION-ELECTRON SYSTEM (eV)
  ---------------------------------------------------
  free  energy   TOTEN  =      -474.92258548 eV

  energy  without entropy=     -473.73096376  energy(sigma->0) =     -474.32677462
 


--------------------------------------------------------------------------------------------------------


    POTLOK:  cpu time    0.3933: real time    0.3933


--------------------------------------------------------------------------------------------------------


     LOOP+:  cpu time  538.4362: real time  538.6145
    4ORBIT:  cpu time    0.0000: real time    0.0000

 total amount of memory used by VASP MPI-rank0    86990. kBytes
=======================================================================

   base      :      30000. kBytes
   nonlr-proj:       3334. kBytes
   fftplans  :      11271. kBytes
   grid      :      19113. kBytes
   one-center:        124. kBytes
   wavefun   :      23148. kBytes
 
  
  
 General timing and accounting informations for this job:
 ========================================================
  
                  Total CPU time used (sec):      542.752
                            User time (sec):      542.361
                          System time (sec):        0.391
                         Elapsed time (sec):      543.169
  
                   Maximum memory used (kb):      241628.
                   Average memory used (kb):           0.
  
                          Minor page faults:       135381
                          Major page faults:            0
                 Voluntary context switches:          168
