 104 104   0   0
  0.2492376E+02  0.1125646E-08  0.1125646E-08  0.2288365E-08  0.5000000E-15
  1.000000000000000E-004
  CAR 
 "Millerite NiS"                         
     11.77629501    -66.23837192  301      2.02257005      1.00000000
    -66.238  0.0000E+00  0.0000E+00
    -65.978  0.0000E+00  0.0000E+00
    -65.718  0.0000E+00  0.0000E+00
    -65.458  0.0000E+00  0.0000E+00
    -65.198  0.0000E+00  0.0000E+00
    -64.938  0.0000E+00  0.0000E+00
    -64.678  0.0000E+00  0.0000E+00
    -64.418  0.0000E+00  0.0000E+00
    -64.158  0.0000E+00  0.0000E+00
    -63.898  0.0000E+00  0.0000E+00
    -63.638  0.1778E-09  0.4623E-10
    -63.378  0.1122E-04  0.2918E-05
    -63.118  0.2928E-01  0.7618E-02
    -62.858  0.4131E+01  0.1082E+01
    -62.598  0.6222E+02  0.1726E+02
    -62.338  0.2165E+03  0.7355E+02
    -62.078  0.3354E+03  0.1608E+03
    -61.818  0.3710E+03  0.2573E+03
    -61.557  0.1577E+03  0.2983E+03
    -61.297  0.3933E+02  0.3085E+03
    -61.037  0.1257E+02  0.3118E+03
    -60.777  0.9264E+00  0.3120E+03
    -60.517  0.5943E-02  0.3120E+03
    -60.257  0.1946E-05  0.3120E+03
    -59.997  0.2545E-10  0.3120E+03
    -59.737  0.0000E+00  0.3120E+03
    -59.477  0.0000E+00  0.3120E+03
    -59.217  0.0000E+00  0.3120E+03
    -58.957  0.0000E+00  0.3120E+03
    -58.697  0.0000E+00  0.3120E+03
    -58.437  0.0000E+00  0.3120E+03
    -58.177  0.0000E+00  0.3120E+03
    -57.917  0.0000E+00  0.3120E+03
    -57.657  0.0000E+00  0.3120E+03
    -57.397  0.0000E+00  0.3120E+03
    -57.137  0.0000E+00  0.3120E+03
    -56.877  0.0000E+00  0.3120E+03
    -56.617  0.0000E+00  0.3120E+03
    -56.357  0.0000E+00  0.3120E+03
    -56.096  0.0000E+00  0.3120E+03
    -55.836  0.0000E+00  0.3120E+03
    -55.576  0.0000E+00  0.3120E+03
    -55.316  0.0000E+00  0.3120E+03
    -55.056  0.0000E+00  0.3120E+03
    -54.796  0.0000E+00  0.3120E+03
    -54.536  0.0000E+00  0.3120E+03
    -54.276  0.0000E+00  0.3120E+03
    -54.016  0.0000E+00  0.3120E+03
    -53.756  0.0000E+00  0.3120E+03
    -53.496  0.0000E+00  0.3120E+03
    -53.236  0.0000E+00  0.3120E+03
    -52.976  0.0000E+00  0.3120E+03
    -52.716  0.0000E+00  0.3120E+03
    -52.456  0.0000E+00  0.3120E+03
    -52.196  0.0000E+00  0.3120E+03
    -51.936  0.0000E+00  0.3120E+03
    -51.676  0.0000E+00  0.3120E+03
    -51.416  0.0000E+00  0.3120E+03
    -51.156  0.0000E+00  0.3120E+03
    -50.895  0.0000E+00  0.3120E+03
    -50.635  0.0000E+00  0.3120E+03
    -50.375  0.0000E+00  0.3120E+03
    -50.115  0.0000E+00  0.3120E+03
    -49.855  0.0000E+00  0.3120E+03
    -49.595  0.0000E+00  0.3120E+03
    -49.335  0.0000E+00  0.3120E+03
    -49.075  0.0000E+00  0.3120E+03
    -48.815  0.0000E+00  0.3120E+03
    -48.555  0.0000E+00  0.3120E+03
    -48.295  0.0000E+00  0.3120E+03
    -48.035  0.0000E+00  0.3120E+03
    -47.775  0.0000E+00  0.3120E+03
    -47.515  0.0000E+00  0.3120E+03
    -47.255  0.0000E+00  0.3120E+03
    -46.995  0.0000E+00  0.3120E+03
    -46.735  0.0000E+00  0.3120E+03
    -46.475  0.0000E+00  0.3120E+03
    -46.215  0.0000E+00  0.3120E+03
    -45.955  0.0000E+00  0.3120E+03
    -45.695  0.0000E+00  0.3120E+03
    -45.434  0.0000E+00  0.3120E+03
    -45.174  0.0000E+00  0.3120E+03
    -44.914  0.0000E+00  0.3120E+03
    -44.654  0.0000E+00  0.3120E+03
    -44.394  0.0000E+00  0.3120E+03
    -44.134  0.0000E+00  0.3120E+03
    -43.874  0.0000E+00  0.3120E+03
    -43.614  0.0000E+00  0.3120E+03
    -43.354  0.0000E+00  0.3120E+03
    -43.094  0.0000E+00  0.3120E+03
    -42.834  0.0000E+00  0.3120E+03
    -42.574  0.0000E+00  0.3120E+03
    -42.314  0.0000E+00  0.3120E+03
    -42.054  0.0000E+00  0.3120E+03
    -41.794  0.0000E+00  0.3120E+03
    -41.534  0.0000E+00  0.3120E+03
    -41.274  0.0000E+00  0.3120E+03
    -41.014  0.0000E+00  0.3120E+03
    -40.754  0.0000E+00  0.3120E+03
    -40.494  0.0000E+00  0.3120E+03
    -40.233  0.0000E+00  0.3120E+03
    -39.973  0.0000E+00  0.3120E+03
    -39.713  0.0000E+00  0.3120E+03
    -39.453  0.0000E+00  0.3120E+03
    -39.193  0.0000E+00  0.3120E+03
    -38.933  0.0000E+00  0.3120E+03
    -38.673  0.0000E+00  0.3120E+03
    -38.413  0.0000E+00  0.3120E+03
    -38.153  0.0000E+00  0.3120E+03
    -37.893  0.0000E+00  0.3120E+03
    -37.633  0.0000E+00  0.3120E+03
    -37.373  0.0000E+00  0.3120E+03
    -37.113  0.0000E+00  0.3120E+03
    -36.853  0.0000E+00  0.3120E+03
    -36.593  0.0000E+00  0.3120E+03
    -36.333  0.0000E+00  0.3120E+03
    -36.073  0.0000E+00  0.3120E+03
    -35.813  0.0000E+00  0.3120E+03
    -35.553  0.0000E+00  0.3120E+03
    -35.293  0.0000E+00  0.3120E+03
    -35.033  0.0000E+00  0.3120E+03
    -34.772  0.0000E+00  0.3120E+03
    -34.512  0.0000E+00  0.3120E+03
    -34.252  0.0000E+00  0.3120E+03
    -33.992  0.0000E+00  0.3120E+03
    -33.732  0.0000E+00  0.3120E+03
    -33.472  0.0000E+00  0.3120E+03
    -33.212  0.0000E+00  0.3120E+03
    -32.952  0.0000E+00  0.3120E+03
    -32.692  0.0000E+00  0.3120E+03
    -32.432  0.0000E+00  0.3120E+03
    -32.172  0.0000E+00  0.3120E+03
    -31.912  0.0000E+00  0.3120E+03
    -31.652  0.0000E+00  0.3120E+03
    -31.392  0.0000E+00  0.3120E+03
    -31.132  0.0000E+00  0.3120E+03
    -30.872  0.0000E+00  0.3120E+03
    -30.612  0.0000E+00  0.3120E+03
    -30.352  0.0000E+00  0.3120E+03
    -30.092  0.0000E+00  0.3120E+03
    -29.832  0.0000E+00  0.3120E+03
    -29.571  0.0000E+00  0.3120E+03
    -29.311  0.0000E+00  0.3120E+03
    -29.051  0.0000E+00  0.3120E+03
    -28.791  0.0000E+00  0.3120E+03
    -28.531  0.0000E+00  0.3120E+03
    -28.271  0.0000E+00  0.3120E+03
    -28.011  0.0000E+00  0.3120E+03
    -27.751  0.0000E+00  0.3120E+03
    -27.491  0.0000E+00  0.3120E+03
    -27.231  0.0000E+00  0.3120E+03
    -26.971  0.0000E+00  0.3120E+03
    -26.711  0.0000E+00  0.3120E+03
    -26.451  0.0000E+00  0.3120E+03
    -26.191  0.0000E+00  0.3120E+03
    -25.931  0.0000E+00  0.3120E+03
    -25.671  0.0000E+00  0.3120E+03
    -25.411  0.0000E+00  0.3120E+03
    -25.151  0.0000E+00  0.3120E+03
    -24.891  0.0000E+00  0.3120E+03
    -24.631  0.0000E+00  0.3120E+03
    -24.371  0.0000E+00  0.3120E+03
    -24.110  0.0000E+00  0.3120E+03
    -23.850  0.0000E+00  0.3120E+03
    -23.590  0.0000E+00  0.3120E+03
    -23.330  0.0000E+00  0.3120E+03
    -23.070  0.0000E+00  0.3120E+03
    -22.810  0.0000E+00  0.3120E+03
    -22.550  0.0000E+00  0.3120E+03
    -22.290  0.0000E+00  0.3120E+03
    -22.030  0.0000E+00  0.3120E+03
    -21.770  0.0000E+00  0.3120E+03
    -21.510  0.0000E+00  0.3120E+03
    -21.250  0.0000E+00  0.3120E+03
    -20.990  0.0000E+00  0.3120E+03
    -20.730  0.0000E+00  0.3120E+03
    -20.470  0.0000E+00  0.3120E+03
    -20.210  0.0000E+00  0.3120E+03
    -19.950  0.0000E+00  0.3120E+03
    -19.690  0.0000E+00  0.3120E+03
    -19.430  0.0000E+00  0.3120E+03
    -19.170  0.0000E+00  0.3120E+03
    -18.909  0.0000E+00  0.3120E+03
    -18.649  0.0000E+00  0.3120E+03
    -18.389  0.0000E+00  0.3120E+03
    -18.129  0.0000E+00  0.3120E+03
    -17.869  0.0000E+00  0.3120E+03
    -17.609  0.0000E+00  0.3120E+03
    -17.349  0.0000E+00  0.3120E+03
    -17.089  0.0000E+00  0.3120E+03
    -16.829  0.0000E+00  0.3120E+03
    -16.569  0.0000E+00  0.3120E+03
    -16.309  0.0000E+00  0.3120E+03
    -16.049  0.0000E+00  0.3120E+03
    -15.789  0.0000E+00  0.3120E+03
    -15.529  0.0000E+00  0.3120E+03
    -15.269  0.5465E-13  0.3120E+03
    -15.009  0.1832E-07  0.3120E+03
    -14.749  0.2281E-03  0.3120E+03
    -14.489  0.1164E+00  0.3120E+03
    -14.229  0.3243E+01  0.3129E+03
    -13.969  0.8759E+01  0.3152E+03
    -13.708  0.5012E+01  0.3165E+03
    -13.448  0.1584E+02  0.3206E+03
    -13.188  0.2680E+02  0.3275E+03
    -12.928  0.2761E+02  0.3347E+03
    -12.668  0.2629E+02  0.3416E+03
    -12.408  0.3205E+02  0.3499E+03
    -12.148  0.4861E+02  0.3625E+03
    -11.888  0.4484E+02  0.3742E+03
    -11.628  0.4016E+02  0.3846E+03
    -11.368  0.4854E+02  0.3973E+03
    -11.108  0.3494E+02  0.4063E+03
    -10.848  0.2507E+02  0.4129E+03
    -10.588  0.1145E+02  0.4158E+03
    -10.328  0.6139E+00  0.4160E+03
    -10.068  0.2007E-02  0.4160E+03
     -9.808  0.3054E-06  0.4160E+03
     -9.548  0.1884E-11  0.4160E+03
     -9.288  0.0000E+00  0.4160E+03
     -9.028  0.0000E+00  0.4160E+03
     -8.768  0.0000E+00  0.4160E+03
     -8.508  0.0000E+00  0.4160E+03
     -8.247  0.0000E+00  0.4160E+03
     -7.987  0.0000E+00  0.4160E+03
     -7.727  0.0000E+00  0.4160E+03
     -7.467  0.0000E+00  0.4160E+03
     -7.207  0.2562E-14  0.4160E+03
     -6.947  0.1822E-08  0.4160E+03
     -6.687  0.5366E-04  0.4160E+03
     -6.427  0.6538E-01  0.4160E+03
     -6.167  0.3937E+01  0.4170E+03
     -5.907  0.1989E+02  0.4222E+03
     -5.647  0.2949E+02  0.4299E+03
     -5.387  0.2568E+02  0.4366E+03
     -5.127  0.3428E+02  0.4455E+03
     -4.867  0.5344E+02  0.4594E+03
     -4.607  0.7025E+02  0.4776E+03
     -4.347  0.6729E+02  0.4951E+03
     -4.087  0.5837E+02  0.5103E+03
     -3.827  0.6481E+02  0.5272E+03
     -3.567  0.6507E+02  0.5441E+03
     -3.307  0.7605E+02  0.5639E+03
     -3.046  0.8584E+02  0.5862E+03
     -2.786  0.9450E+02  0.6108E+03
     -2.526  0.9541E+02  0.6356E+03
     -2.266  0.8832E+02  0.6585E+03
     -2.006  0.8408E+02  0.6804E+03
     -1.746  0.7216E+02  0.6992E+03
     -1.486  0.5775E+02  0.7142E+03
     -1.226  0.7319E+02  0.7332E+03
     -0.966  0.9357E+02  0.7576E+03
     -0.706  0.1056E+03  0.7850E+03
     -0.446  0.1277E+03  0.8182E+03
     -0.186  0.1530E+03  0.8580E+03
      0.074  0.1791E+03  0.9046E+03
      0.334  0.1979E+03  0.9561E+03
      0.594  0.1938E+03  0.1006E+04
      0.854  0.1535E+03  0.1046E+04
      1.114  0.1104E+03  0.1075E+04
      1.374  0.8416E+02  0.1097E+04
      1.634  0.7475E+02  0.1116E+04
      1.894  0.7165E+02  0.1135E+04
      2.154  0.6721E+02  0.1153E+04
      2.415  0.6408E+02  0.1169E+04
      2.675  0.7375E+02  0.1188E+04
      2.935  0.7280E+02  0.1207E+04
      3.195  0.6727E+02  0.1225E+04
      3.455  0.4787E+02  0.1237E+04
      3.715  0.3102E+02  0.1245E+04
      3.975  0.1028E+02  0.1248E+04
      4.235  0.4957E+01  0.1249E+04
      4.495  0.2792E+01  0.1250E+04
      4.755  0.2644E+01  0.1251E+04
      5.015  0.1157E+02  0.1254E+04
      5.275  0.1212E+02  0.1257E+04
      5.535  0.1098E+02  0.1260E+04
      5.795  0.1550E+02  0.1264E+04
      6.055  0.2247E+02  0.1270E+04
      6.315  0.3102E+02  0.1278E+04
      6.575  0.3234E+02  0.1286E+04
      6.835  0.3434E+02  0.1295E+04
      7.095  0.4380E+02  0.1306E+04
      7.355  0.5115E+02  0.1320E+04
      7.616  0.5189E+02  0.1333E+04
      7.876  0.6211E+02  0.1349E+04
      8.136  0.5730E+02  0.1364E+04
      8.396  0.2757E+02  0.1371E+04
      8.656  0.2374E+01  0.1372E+04
      8.916  0.1671E-01  0.1372E+04
      9.176  0.6260E-05  0.1372E+04
      9.436  0.1009E-09  0.1372E+04
      9.696  0.0000E+00  0.1372E+04
      9.956  0.0000E+00  0.1372E+04
     10.216  0.0000E+00  0.1372E+04
     10.476  0.0000E+00  0.1372E+04
     10.736  0.0000E+00  0.1372E+04
     10.996  0.0000E+00  0.1372E+04
     11.256  0.0000E+00  0.1372E+04
     11.516  0.0000E+00  0.1372E+04
     11.776  0.0000E+00  0.1372E+04
