       N       E                     dE             d eps       ncg     rms          rms(c)
DAV:   1     0.149072377472E+05    0.14907E+05   -0.74226E+05  1660   0.170E+03
DAV:   2     0.992049313890E+03   -0.13915E+05   -0.13433E+05  1450   0.550E+02
DAV:   3    -0.482629252576E+03   -0.14747E+04   -0.13949E+04  1552   0.196E+02
DAV:   4    -0.578441358819E+03   -0.95812E+02   -0.94607E+02  1576   0.446E+01
DAV:   5    -0.582276764543E+03   -0.38354E+01   -0.38287E+01  1824   0.941E+00    0.114E+02
DAV:   6    -0.682516942099E+03   -0.10024E+03   -0.13276E+03  1728   0.123E+02    0.190E+02
DAV:   7    -0.546918799525E+03    0.13560E+03   -0.28399E+02  1592   0.833E+01    0.922E+01
DAV:   8    -0.606602573745E+03   -0.59684E+02   -0.30763E+02  1888   0.835E+01    0.158E+02
DAV:   9    -0.634632735118E+03   -0.28030E+02   -0.26080E+02  1816   0.850E+01    0.142E+02
DAV:  10    -0.631177001727E+03    0.34557E+01   -0.22983E+02  1856   0.859E+01    0.147E+02
DAV:  11    -0.589928214657E+03    0.41249E+02   -0.96336E+01  1888   0.493E+01    0.978E+01
DAV:  12    -0.562652414369E+03    0.27276E+02   -0.78573E+01  1960   0.535E+01    0.740E+01
DAV:  13    -0.566423836813E+03   -0.37714E+01   -0.75658E+01  1888   0.492E+01    0.983E+01
DAV:  14    -0.537376525599E+03    0.29047E+02   -0.42840E+01  1888   0.344E+01    0.506E+01
DAV:  15    -0.530233642987E+03    0.71429E+01   -0.28059E+01  1904   0.284E+01    0.432E+01
DAV:  16    -0.523368307510E+03    0.68653E+01   -0.11737E+01  1912   0.187E+01    0.299E+01
DAV:  17    -0.521328968122E+03    0.20393E+01   -0.36206E+00  1896   0.890E+00    0.279E+01
DAV:  18    -0.519880922702E+03    0.14480E+01   -0.11063E+00  1848   0.486E+00    0.258E+01
DAV:  19    -0.519054232601E+03    0.82669E+00   -0.45953E-01  1872   0.308E+00    0.248E+01
DAV:  20    -0.517101043358E+03    0.19532E+01   -0.59594E-01  2064   0.521E+00    0.222E+01
DAV:  21    -0.514478632978E+03    0.26224E+01   -0.18910E+00  1912   0.907E+00    0.176E+01
DAV:  22    -0.512664614753E+03    0.18140E+01   -0.24437E+00  1896   0.882E+00    0.898E+00
DAV:  23    -0.512591164593E+03    0.73450E-01   -0.84479E-01  1864   0.329E+00    0.794E+00
DAV:  24    -0.512569775864E+03    0.21389E-01   -0.14267E-01  1512   0.171E+00    0.763E+00
DAV:  25    -0.512626339102E+03   -0.56563E-01   -0.33595E-01  1696   0.367E+00    0.809E+00
DAV:  26    -0.512387220058E+03    0.23912E+00   -0.76913E-01  1928   0.541E+00    0.491E+00
DAV:  27    -0.512395315841E+03   -0.80958E-02   -0.46872E-01  1880   0.370E+00    0.480E+00
DAV:  28    -0.512383092896E+03    0.12223E-01   -0.17837E-01  1792   0.252E+00    0.426E+00
DAV:  29    -0.512348252169E+03    0.34841E-01   -0.70589E-02  1536   0.149E+00    0.352E+00
DAV:  30    -0.512292626142E+03    0.55626E-01   -0.84348E-02  2056   0.161E+00    0.162E+00
DAV:  31    -0.512296013118E+03   -0.33870E-02   -0.40293E-02  1864   0.114E+00    0.159E+00
DAV:  32    -0.512290791974E+03    0.52211E-02   -0.21829E-02  1632   0.924E-01    0.115E+00
DAV:  33    -0.512289408717E+03    0.13833E-02   -0.93946E-03  1880   0.623E-01    0.936E-01
DAV:  34    -0.512287541699E+03    0.18670E-02   -0.64466E-03  1872   0.526E-01    0.602E-01
DAV:  35    -0.512288187218E+03   -0.64552E-03   -0.29512E-03  1824   0.308E-01    0.561E-01
DAV:  36    -0.512287816276E+03    0.37094E-03   -0.12460E-03  1648   0.217E-01    0.377E-01
DAV:  37    -0.512288612669E+03   -0.79639E-03   -0.82961E-04  1504   0.176E-01    0.418E-01
DAV:  38    -0.512288207890E+03    0.40478E-03   -0.12443E-03  1560   0.211E-01    0.191E-01
DAV:  39    -0.512288306271E+03   -0.98381E-04   -0.46866E-04  1320   0.126E-01
   1 F= -.51228831E+03 E0= -.51161018E+03  d E =-.135625E+01
