<?xml version="1.0" encoding="ISO-8859-1"?>
<modeling>
 <generator>
  <i name="program" type="string">vasp </i>
  <i name="version" type="string">6.1.0  </i>
  <i name="subversion" type="string">28Jan20 (build Mar 31 2020 17:42:31) gamma-only                       parallel </i>
  <i name="platform" type="string">LinuxIFC </i>
  <i name="date" type="string">2020 04 13 </i>
  <i name="time" type="string">01:27:13 </i>
 </generator>
 <incar>
  <i type="string" name="SYSTEM">"Millerite NiS"</i>
  <i type="int" name="NSIM">     4</i>
  <i type="int" name="NELM">   100</i>
  <i name="ENCUT">    450.00000000</i>
  <i type="string" name="LREAL">A</i>
  <i type="int" name="ISMEAR">     0</i>
  <i type="int" name="NWRITE">     2</i>
  <i type="logical" name="LWAVE"> F  </i>
  <i type="logical" name="LCHARG"> F  </i>
  <i type="int" name="NCORE">     6</i>
  <i type="int" name="NELM">   100</i>
 </incar>
 <structure name="primitive_cell" >
  <crystal>
   <varray name="basis" >
    <v>       8.42818148      -4.55101034       0.00000000 </v>
    <v>       0.00000000      10.07973298       0.00000000 </v>
    <v>       0.00000000       0.00000000      19.01113574 </v>
   </varray>
   <i name="volume">   1615.06858132 </i>
   <varray name="rec_basis" >
    <v>       0.11864956       0.00000000       0.00000000 </v>
    <v>       0.05357040       0.09920898       0.00000000 </v>
    <v>       0.00000000       0.00000000       0.05260075 </v>
   </varray>
  </crystal>
  <varray name="positions" >
   <v>       0.64527023       0.91524316       0.10295923 </v>
   <v>       0.58263032       0.78996333       0.25739808 </v>
   <v>       0.51999040       0.66468351       0.41183694 </v>
   <v>       0.33281687       0.29033643       0.05147962 </v>
   <v>       0.27017695       0.16505661       0.20591847 </v>
   <v>       0.20753704       0.03977678       0.36035732 </v>
   <v>       0.02036350       0.66542971       0.00000000 </v>
   <v>       0.95772359       0.54014988       0.15443885 </v>
   <v>       0.89508368       0.41487006       0.30887770 </v>
   <v>       0.83244377       0.28959023       0.46331655 </v>
   <v>       0.59918016       0.55885702       0.21659441 </v>
   <v>       0.53654024       0.43357719       0.37103327 </v>
   <v>       0.34936671       0.05923012       0.01067595 </v>
   <v>       0.28672679       0.93395029       0.16511480 </v>
   <v>       0.22408688       0.80867046       0.31955365 </v>
   <v>       0.16144697       0.68339064       0.47399250 </v>
   <v>       0.97427343       0.30904357       0.11363518 </v>
   <v>       0.91163352       0.18376374       0.26807403 </v>
   <v>       0.90947623       0.91524316       0.10295923 </v>
   <v>       0.84683632       0.78996333       0.25739808 </v>
   <v>       0.78419640       0.66468351       0.41183694 </v>
   <v>       0.59702287       0.29033643       0.05147962 </v>
   <v>       0.53438295       0.16505661       0.20591847 </v>
   <v>       0.47174304       0.03977678       0.36035732 </v>
   <v>       0.22192959       0.54014988       0.15443885 </v>
   <v>       0.15928968       0.41487006       0.30887770 </v>
   <v>       0.09664977       0.28959023       0.46331655 </v>
   <v>       0.82518168       0.67443006       0.15301029 </v>
   <v>       0.76254177       0.54915023       0.30744914 </v>
   <v>       0.69990185       0.42387040       0.46188799 </v>
   <v>       0.51272831       0.04952333       0.10153067 </v>
   <v>       0.45008840       0.92424350       0.25596953 </v>
   <v>       0.38744849       0.79896368       0.41040838 </v>
   <v>       0.20027495       0.42461661       0.05005106 </v>
   <v>       0.13763504       0.29933678       0.20448991 </v>
   <v>       0.07499513       0.17405695       0.35892876 </v>
   <v>       0.86674764       0.09399199       0.05052930 </v>
   <v>       0.80410773       0.96871216       0.20496815 </v>
   <v>       0.74146782       0.84343234       0.35940701 </v>
   <v>       0.49165437       0.34380544       0.15348854 </v>
   <v>       0.42901446       0.21852561       0.30792739 </v>
   <v>       0.36637454       0.09324579       0.46236624 </v>
   <v>       0.17920101       0.71889871       0.10200892 </v>
   <v>       0.11656109       0.59361889       0.25644777 </v>
   <v>       0.05392118       0.46833906       0.41088662 </v>
   <v>       0.48875168       0.67443006       0.15301029 </v>
   <v>       0.42611177       0.54915023       0.30744914 </v>
   <v>       0.36347185       0.42387040       0.46188799 </v>
   <v>       0.17629831       0.04952333       0.10153067 </v>
   <v>       0.11365840       0.92424350       0.25596953 </v>
   <v>       0.05101849       0.79896368       0.41040838 </v>
   <v>       0.86384495       0.42461661       0.05005106 </v>
   <v>       0.80120504       0.29933678       0.20448991 </v>
   <v>       0.73856513       0.17405695       0.35892876 </v>
  </varray>
 </structure>
 <varray name="primitive_index" >
  <v type="int" >        1 </v>
  <v type="int" >        2 </v>
  <v type="int" >        3 </v>
  <v type="int" >        4 </v>
  <v type="int" >        5 </v>
  <v type="int" >        6 </v>
  <v type="int" >        7 </v>
  <v type="int" >        8 </v>
  <v type="int" >        9 </v>
  <v type="int" >       10 </v>
  <v type="int" >       11 </v>
  <v type="int" >       12 </v>
  <v type="int" >       13 </v>
  <v type="int" >       14 </v>
  <v type="int" >       15 </v>
  <v type="int" >       16 </v>
  <v type="int" >       17 </v>
  <v type="int" >       18 </v>
  <v type="int" >       19 </v>
  <v type="int" >       20 </v>
  <v type="int" >       21 </v>
  <v type="int" >       22 </v>
  <v type="int" >       23 </v>
  <v type="int" >       24 </v>
  <v type="int" >       25 </v>
  <v type="int" >       26 </v>
  <v type="int" >       27 </v>
  <v type="int" >       28 </v>
  <v type="int" >       29 </v>
  <v type="int" >       30 </v>
  <v type="int" >       31 </v>
  <v type="int" >       32 </v>
  <v type="int" >       33 </v>
  <v type="int" >       34 </v>
  <v type="int" >       35 </v>
  <v type="int" >       36 </v>
  <v type="int" >       37 </v>
  <v type="int" >       38 </v>
  <v type="int" >       39 </v>
  <v type="int" >       40 </v>
  <v type="int" >       41 </v>
  <v type="int" >       42 </v>
  <v type="int" >       43 </v>
  <v type="int" >       44 </v>
  <v type="int" >       45 </v>
  <v type="int" >       46 </v>
  <v type="int" >       47 </v>
  <v type="int" >       48 </v>
  <v type="int" >       49 </v>
  <v type="int" >       50 </v>
  <v type="int" >       51 </v>
  <v type="int" >       52 </v>
  <v type="int" >       53 </v>
  <v type="int" >       54 </v>
 </varray>
 <kpoints>
  <generation param="Gamma">
   <v type="int" name="divisions">       1        1        1 </v>
   <v name="usershift">      0.00000000       0.00000000       0.00000000 </v>
   <v name="genvec1">      1.00000000       0.00000000       0.00000000 </v>
   <v name="genvec2">      0.00000000       1.00000000       0.00000000 </v>
   <v name="genvec3">      0.00000000       0.00000000       1.00000000 </v>
   <v name="shift">      0.00000000       0.00000000       0.00000000 </v>
  </generation>
  <varray name="kpointlist" >
   <v>       0.00000000       0.00000000       0.00000000 </v>
  </varray>
  <varray name="weights" >
   <v>       1.00000000 </v>
  </varray>
 </kpoints>
 <parameters>
  <separator name="general" >
   <i type="string" name="SYSTEM">"Millerite NiS"</i>
   <i type="logical" name="LCOMPAT"> F  </i>
  </separator>
  <separator name="electronic" >
   <i type="string" name="PREC">normal</i>
   <i name="ENMAX">    450.00000000</i>
   <i name="ENAUG">    703.44300000</i>
   <i name="EDIFF">      0.00010000</i>
   <i type="int" name="IALGO">    38</i>
   <i type="int" name="IWAVPR">    10</i>
   <i type="int" name="NBANDS">   360</i>
   <i type="int" name="NBANDSLOW">    -1</i>
   <i type="int" name="NBANDSHIGH">    -1</i>
   <i name="NELECT">    594.00000000</i>
   <i type="int" name="TURBO">     0</i>
   <i type="int" name="IRESTART">     0</i>
   <i type="int" name="NREBOOT">     0</i>
   <i type="int" name="NMIN">     0</i>
   <i name="EREF">      0.00000000</i>
   <separator name="electronic smearing" >
    <i type="int" name="ISMEAR">     0</i>
    <i name="SIGMA">      0.20000000</i>
    <i name="KSPACING">      0.50000000</i>
    <i type="logical" name="KGAMMA"> T  </i>
    <i type="logical" name="KBLOWUP"> T  </i>
   </separator>
   <separator name="electronic projectors" >
    <i type="logical" name="LREAL"> T  </i>
    <v name="ROPT">     -0.00050000     -0.00050000</v>
    <i type="int" name="LMAXPAW">  -100</i>
    <i type="int" name="LMAXMIX">     2</i>
    <i type="logical" name="NLSPLINE"> F  </i>
   </separator>
   <separator name="electronic startup" >
    <i type="int" name="ISTART">     0</i>
    <i type="int" name="ICHARG">     2</i>
    <i type="int" name="INIWAV">     1</i>
   </separator>
   <separator name="electronic spin" >
    <i type="int" name="ISPIN">     1</i>
    <i type="logical" name="LNONCOLLINEAR"> F  </i>
    <v name="MAGMOM">      1.00000000      1.00000000      1.00000000      1.00000000      1.00000000      1.00000000      1.00000000      1.00000000      1.00000000      1.00000000      1.00000000      1.00000000      1.00000000      1.00000000      1.00000000      1.00000000      1.00000000      1.00000000      1.00000000      1.00000000
      1.00000000      1.00000000      1.00000000      1.00000000      1.00000000      1.00000000      1.00000000      1.00000000      1.00000000      1.00000000      1.00000000      1.00000000      1.00000000      1.00000000      1.00000000      1.00000000      1.00000000      1.00000000      1.00000000      1.00000000
      1.00000000      1.00000000      1.00000000      1.00000000      1.00000000      1.00000000      1.00000000      1.00000000      1.00000000      1.00000000      1.00000000      1.00000000      1.00000000      1.00000000</v>
    <i name="NUPDOWN">     -1.00000000</i>
    <i type="logical" name="LSORBIT"> F  </i>
    <v name="SAXIS">      0.00000000      0.00000000      1.00000000</v>
    <i type="logical" name="LSPIRAL"> F  </i>
    <v name="QSPIRAL">      0.00000000      0.00000000      0.00000000</v>
    <i type="logical" name="LZEROZ"> F  </i>
   </separator>
   <separator name="electronic exchange-correlation" >
    <i type="logical" name="LASPH"> F  </i>
    <i type="logical" name="LMETAGGA"> F  </i>
   </separator>
   <separator name="electronic convergence" >
    <i type="int" name="NELM">   100</i>
    <i type="int" name="NELMDL">    -5</i>
    <i type="int" name="NELMIN">     2</i>
    <i name="ENINI">    450.00000000</i>
    <separator name="electronic convergence detail" >
     <i type="logical" name="LDIAG"> T  </i>
     <i type="logical" name="LSUBROT"> F  </i>
     <i name="WEIMIN">      0.00000000</i>
     <i name="EBREAK">      0.00000007</i>
     <i name="DEPER">      0.30000000</i>
     <i type="int" name="NRMM">     4</i>
     <i name="TIME">      0.40000000</i>
    </separator>
   </separator>
   <separator name="electronic mixer" >
    <i name="AMIX">      0.40000000</i>
    <i name="BMIX">      1.00000000</i>
    <i name="AMIN">      0.10000000</i>
    <i name="AMIX_MAG">      1.60000000</i>
    <i name="BMIX_MAG">      1.00000000</i>
    <separator name="electronic mixer details" >
     <i type="int" name="IMIX">     4</i>
     <i type="logical" name="MIXFIRST"> F  </i>
     <i type="int" name="MAXMIX">   -45</i>
     <i name="WC">    100.00000000</i>
     <i type="int" name="INIMIX">     1</i>
     <i type="int" name="MIXPRE">     1</i>
     <i type="int" name="MREMOVE">     5</i>
    </separator>
   </separator>
   <separator name="electronic dipolcorrection" >
    <i type="logical" name="LDIPOL"> F  </i>
    <i type="logical" name="LMONO"> F  </i>
    <i type="int" name="IDIPOL">     0</i>
    <i name="EPSILON">      1.00000000</i>
    <v name="DIPOL">   -100.00000000   -100.00000000   -100.00000000</v>
    <i name="EFIELD">      0.00000000</i>
   </separator>
  </separator>
  <separator name="grids" >
   <i type="int" name="NGX">    50</i>
   <i type="int" name="NGY">    54</i>
   <i type="int" name="NGZ">   100</i>
   <i type="int" name="NGXF">   100</i>
   <i type="int" name="NGYF">   108</i>
   <i type="int" name="NGZF">   200</i>
   <i type="logical" name="ADDGRID"> F  </i>
  </separator>
  <separator name="ionic" >
   <i type="int" name="NSW">     0</i>
   <i type="int" name="IBRION">    -1</i>
   <i type="int" name="MDALGO">     0</i>
   <i type="int" name="ISIF">     2</i>
   <i name="PSTRESS">      0.00000000</i>
   <i name="EDIFFG">      0.00100000</i>
   <i type="int" name="NFREE">     0</i>
   <i name="POTIM">      0.50000000</i>
   <i name="SMASS">     -3.00000000</i>
   <i name="SCALEE">      1.00000000</i>
  </separator>
  <separator name="ionic md" >
   <i name="TEBEG">      0.00010000</i>
   <i name="TEEND">      0.00010000</i>
   <i type="int" name="NBLOCK">     1</i>
   <i type="int" name="KBLOCK">     1</i>
   <i type="int" name="NPACO">   256</i>
   <i name="APACO">     16.00000000</i>
  </separator>
  <separator name="symmetry" >
   <i type="int" name="ISYM">     2</i>
   <i name="SYMPREC">      0.00001000</i>
  </separator>
  <separator name="dos" >
   <i type="int" name="LORBIT">     0</i>
   <v name="RWIGS">     -1.00000000     -1.00000000</v>
   <i type="int" name="NEDOS">   301</i>
   <i name="EMIN">     10.00000000</i>
   <i name="EMAX">    -10.00000000</i>
   <i name="EFERMI">      0.00000000</i>
  </separator>
  <separator name="writing" >
   <i type="int" name="NWRITE">     2</i>
   <i type="logical" name="LWAVE"> F  </i>
   <i type="logical" name="LDOWNSAMPLE"> F  </i>
   <i type="logical" name="LCHARG"> F  </i>
   <i type="logical" name="LPARD"> F  </i>
   <i type="logical" name="LVTOT"> F  </i>
   <i type="logical" name="LVHAR"> F  </i>
   <i type="logical" name="LELF"> F  </i>
   <i type="logical" name="LOPTICS"> F  </i>
   <v name="STM">      0.00000000      0.00000000      0.00000000      0.00000000      0.00000000      0.00000000      0.00000000</v>
  </separator>
  <separator name="performance" >
   <i type="int" name="NPAR">     8</i>
   <i type="int" name="NSIM">     4</i>
   <i type="int" name="NBLK">    -1</i>
   <i type="logical" name="LPLANE"> T  </i>
   <i type="logical" name="LSCALAPACK"> T  </i>
   <i type="logical" name="LSCAAWARE"> F  </i>
   <i type="logical" name="LSCALU"> F  </i>
   <i type="logical" name="LASYNC"> F  </i>
   <i type="logical" name="LORBITALREAL"> F  </i>
  </separator>
  <separator name="miscellaneous" >
   <i type="int" name="IDIOT">     3</i>
   <i type="int" name="PHON_NSTRUCT">    -1</i>
   <i type="logical" name="LMUSIC"> F  </i>
   <v name="POMASS">     58.69000000     32.06600000</v>
   <v name="DARWINR">      0.00000000      0.00000000</v>
   <v name="DARWINV">      1.00000000      1.00000000</v>
   <i type="logical" name="LCORR"> T  </i>
  </separator>
  <i type="logical" name="GGA_COMPAT"> T  </i>
  <i type="logical" name="LBERRY"> F  </i>
  <i type="int" name="ICORELEVEL">     0</i>
  <i type="logical" name="LDAU"> F  </i>
  <i type="int" name="I_CONSTRAINED_M">     0</i>
  <separator name="electronic exchange-correlation" >
   <i type="string" name="GGA">--</i>
   <i type="int" name="VOSKOWN">     0</i>
   <i type="logical" name="LHFCALC"> F  </i>
   <i type="string" name="PRECFOCK"></i>
   <i type="logical" name="LSYMGRAD"> F  </i>
   <i type="logical" name="LHFONE"> F  </i>
   <i type="logical" name="LRHFCALC"> F  </i>
   <i type="logical" name="LTHOMAS"> F  </i>
   <i type="logical" name="LMODELHF"> F  </i>
   <i type="logical" name="LFOCKACE"> F  </i>
   <i name="ENCUT4O">     -1.00000000</i>
   <i type="int" name="EXXOEP">     0</i>
   <i type="int" name="FOURORBIT">     0</i>
   <i name="AEXX">      0.00000000</i>
   <i name="HFALPHA">      0.00000000</i>
   <i name="MCALPHA">      0.00000000</i>
   <i name="ALDAX">      1.00000000</i>
   <i name="AGGAX">      1.00000000</i>
   <i name="ALDAC">      1.00000000</i>
   <i name="AGGAC">      1.00000000</i>
   <i type="int" name="NKREDX">     1</i>
   <i type="int" name="NKREDY">     1</i>
   <i type="int" name="NKREDZ">     1</i>
   <i type="logical" name="SHIFTRED"> F  </i>
   <i type="logical" name="ODDONLY"> F  </i>
   <i type="logical" name="EVENONLY"> F  </i>
   <i type="int" name="LMAXFOCK">     0</i>
   <i type="int" name="NMAXFOCKAE">     0</i>
   <i type="logical" name="LFOCKAEDFT"> F  </i>
   <i name="HFSCREEN">      0.00000000</i>
   <i name="HFSCREENC">      0.00000000</i>
   <i type="int" name="NBANDSGWLOW">     0</i>
  </separator>
  <separator name="vdW DFT" >
   <i type="logical" name="LUSE_VDW"> F  </i>
   <i name="Zab_VDW">     -0.84910000</i>
   <i name="PARAM1">      0.12340000</i>
   <i name="PARAM2">      1.00000000</i>
   <i name="PARAM3">      0.00000000</i>
  </separator>
  <separator name="model GW" >
   <i type="int" name="MODEL_GW">     0</i>
   <i name="MODEL_EPS0">     17.94520646</i>
   <i name="MODEL_ALPHA">      1.00000000</i>
  </separator>
  <separator name="linear response parameters" >
   <i type="logical" name="LEPSILON"> F  </i>
   <i type="logical" name="LRPA"> F  </i>
   <i type="logical" name="LNABLA"> F  </i>
   <i type="logical" name="LVEL"> F  </i>
   <i type="int" name="KINTER">     0</i>
   <i name="CSHIFT">      0.10000000</i>
   <i name="OMEGAMAX">     -1.00000000</i>
   <i name="DEG_THRESHOLD">      0.00200000</i>
   <i name="RTIME">     -0.10000000</i>
   <i name="WPLASMAI">      0.00000000</i>
   <v name="DFIELD">      0.00000000      0.00000000      0.00000000</v>
   <v name="WPLASMA">      0.00000000      0.00000000      0.00000000      0.00000000      0.00000000      0.00000000      0.00000000      0.00000000      0.00000000</v>
  </separator>
  <separator name="orbital magnetization" >
   <i type="logical" name="NUCIND"> F  </i>
   <v name="MAGPOS">      0.00000000      0.00000000      0.00000000</v>
   <i type="logical" name="LNICSALL"> T  </i>
   <i type="logical" name="ORBITALMAG"> F  </i>
   <i type="logical" name="LMAGBLOCH"> F  </i>
   <i type="logical" name="LCHIMAG"> F  </i>
   <i type="logical" name="LGAUGE"> T  </i>
   <i type="int" name="MAGATOM">     0</i>
   <v name="MAGDIPOL">      0.00000000      0.00000000      0.00000000</v>
   <v name="AVECCONST">      0.00000000      0.00000000      0.00000000</v>
  </separator>
  <separator name="response functions" >
   <i type="logical" name="LFINITE_TEMPERATURE"> F  </i>
   <i type="logical" name="LADDER"> F  </i>
   <i type="logical" name="LRPAFORCE"> F  </i>
   <i type="logical" name="LFXC"> F  </i>
   <i type="logical" name="LHARTREE"> T  </i>
   <i type="int" name="IBSE">     0</i>
   <v type="int" name="KPOINT">    -1     0     0     0</v>
   <i type="logical" name="LTCTC"> F  </i>
   <i type="logical" name="LTCTE"> F  </i>
   <i type="logical" name="LTETE"> F  </i>
   <i type="logical" name="LTRIPLET"> F  </i>
   <i type="logical" name="LFXCEPS"> F  </i>
   <i type="logical" name="LFXHEG"> F  </i>
   <i type="int" name="NATURALO">     2</i>
   <i type="logical" name="LHOLEGF"> F  </i>
   <i type="logical" name="L2ORDER"> F  </i>
   <i type="logical" name="LDMP1"> F  </i>
   <i type="logical" name="LMP2LT"> F  </i>
   <i type="logical" name="LSMP2LT"> F  </i>
   <i type="logical" name="LGWLF"> F  </i>
   <i name="ENCUTGW">     -2.00000000</i>
   <i name="ENCUTGWSOFT">     -2.00000000</i>
   <i name="ENCUTLF">     -1.00000000</i>
   <i type="logical" name="LESF_SPLINES"> F  </i>
   <i type="int" name="LMAXMP2">    -1</i>
   <i name="SCISSOR">      0.00000000</i>
   <i type="int" name="NOMEGA">     0</i>
   <i type="int" name="NOMEGAR">     0</i>
   <i type="int" name="NBANDSGW">    -1</i>
   <i type="int" name="NBANDSO">    -1</i>
   <i type="int" name="NBANDSV">    -1</i>
   <i type="int" name="NELM">   100</i>
   <i type="int" name="NELMHF">     1</i>
   <i type="int" name="DIM">     3</i>
   <i type="int" name="IESPILON">     4</i>
   <i type="int" name="ANTIRES">     0</i>
   <i name="OMEGAMAX">    -30.00000000</i>
   <i name="OMEGAMIN">    -30.00000000</i>
   <i name="OMEGATL">   -200.00000000</i>
   <i type="int" name="OMEGAGRID">     0</i>
   <i name="CSHIFT">     -0.10000000</i>
   <i type="logical" name="LSELFENERGY"> F  </i>
   <i type="logical" name="LSPECTRAL"> F  </i>
   <i type="logical" name="LSPECTRALGW"> F  </i>
   <i type="logical" name="LSINGLES"> F  </i>
   <i type="logical" name="LFERMIGW"> F  </i>
   <i type="logical" name="ODDONLYGW"> F  </i>
   <i type="logical" name="EVENONLYGW"> F  </i>
   <i type="int" name="NKREDLFX">     1</i>
   <i type="int" name="NKREDLFY">     1</i>
   <i type="int" name="NKREDLFZ">     1</i>
   <i type="int" name="MAXMEM">  2800</i>
   <i type="int" name="TELESCOPE">     0</i>
   <i type="int" name="NTAUPAR">    -1</i>
   <i type="int" name="NOMEGAPAR">    -1</i>
   <i name="LAMBDA">      1.00000000</i>
  </separator>
  <separator name="External order field" >
   <i name="OFIELD_KAPPA">      0.00000000</i>
   <v name="OFIELD_K">      0.00000000      0.00000000      0.00000000</v>
   <i name="OFIELD_Q6_NEAR">      0.00000000</i>
   <i name="OFIELD_Q6_FAR">      0.00000000</i>
   <i name="OFIELD_A">      0.00000000</i>
  </separator>
 </parameters>
 <atominfo>
  <atoms>      54 </atoms>
  <types>       2 </types>
  <array name="atoms" >
   <dimension dim="1">ion</dimension>
   <field type="string">element</field>
   <field type="int">atomtype</field>
   <set>
    <rc><c>Ni</c><c>   1</c></rc>
    <rc><c>Ni</c><c>   1</c></rc>
    <rc><c>Ni</c><c>   1</c></rc>
    <rc><c>Ni</c><c>   1</c></rc>
    <rc><c>Ni</c><c>   1</c></rc>
    <rc><c>Ni</c><c>   1</c></rc>
    <rc><c>Ni</c><c>   1</c></rc>
    <rc><c>Ni</c><c>   1</c></rc>
    <rc><c>Ni</c><c>   1</c></rc>
    <rc><c>Ni</c><c>   1</c></rc>
    <rc><c>Ni</c><c>   1</c></rc>
    <rc><c>Ni</c><c>   1</c></rc>
    <rc><c>Ni</c><c>   1</c></rc>
    <rc><c>Ni</c><c>   1</c></rc>
    <rc><c>Ni</c><c>   1</c></rc>
    <rc><c>Ni</c><c>   1</c></rc>
    <rc><c>Ni</c><c>   1</c></rc>
    <rc><c>Ni</c><c>   1</c></rc>
    <rc><c>Ni</c><c>   1</c></rc>
    <rc><c>Ni</c><c>   1</c></rc>
    <rc><c>Ni</c><c>   1</c></rc>
    <rc><c>Ni</c><c>   1</c></rc>
    <rc><c>Ni</c><c>   1</c></rc>
    <rc><c>Ni</c><c>   1</c></rc>
    <rc><c>Ni</c><c>   1</c></rc>
    <rc><c>Ni</c><c>   1</c></rc>
    <rc><c>Ni</c><c>   1</c></rc>
    <rc><c>S </c><c>   2</c></rc>
    <rc><c>S </c><c>   2</c></rc>
    <rc><c>S </c><c>   2</c></rc>
    <rc><c>S </c><c>   2</c></rc>
    <rc><c>S </c><c>   2</c></rc>
    <rc><c>S </c><c>   2</c></rc>
    <rc><c>S </c><c>   2</c></rc>
    <rc><c>S </c><c>   2</c></rc>
    <rc><c>S </c><c>   2</c></rc>
    <rc><c>S </c><c>   2</c></rc>
    <rc><c>S </c><c>   2</c></rc>
    <rc><c>S </c><c>   2</c></rc>
    <rc><c>S </c><c>   2</c></rc>
    <rc><c>S </c><c>   2</c></rc>
    <rc><c>S </c><c>   2</c></rc>
    <rc><c>S </c><c>   2</c></rc>
    <rc><c>S </c><c>   2</c></rc>
    <rc><c>S </c><c>   2</c></rc>
    <rc><c>S </c><c>   2</c></rc>
    <rc><c>S </c><c>   2</c></rc>
    <rc><c>S </c><c>   2</c></rc>
    <rc><c>S </c><c>   2</c></rc>
    <rc><c>S </c><c>   2</c></rc>
    <rc><c>S </c><c>   2</c></rc>
    <rc><c>S </c><c>   2</c></rc>
    <rc><c>S </c><c>   2</c></rc>
    <rc><c>S </c><c>   2</c></rc>
   </set>
  </array>
  <array name="atomtypes" >
   <dimension dim="1">type</dimension>
   <field type="int">atomspertype</field>
   <field type="string">element</field>
   <field>mass</field>
   <field>valence</field>
   <field type="string">pseudopotential</field>
   <set>
    <rc><c>  27</c><c>Ni</c><c>     58.69000000</c><c>     16.00000000</c><c>  PAW_PBE Ni_pv 06Sep2000               </c></rc>
    <rc><c>  27</c><c>S </c><c>     32.06600000</c><c>      6.00000000</c><c>  PAW_PBE S 06Sep2000                   </c></rc>
   </set>
  </array>
 </atominfo>
 <structure name="initialpos" >
  <crystal>
   <varray name="basis" >
    <v>       8.42818148      -4.55101034       0.00000000 </v>
    <v>       0.00000000      10.07973298       0.00000000 </v>
    <v>       0.00000000       0.00000000      19.01113574 </v>
   </varray>
   <i name="volume">   1615.06858132 </i>
   <varray name="rec_basis" >
    <v>       0.11864956       0.00000000       0.00000000 </v>
    <v>       0.05357040       0.09920898       0.00000000 </v>
    <v>       0.00000000       0.00000000       0.05260075 </v>
   </varray>
  </crystal>
  <varray name="positions" >
   <v>       0.64527023       0.91524316       0.10295923 </v>
   <v>       0.58263032       0.78996333       0.25739808 </v>
   <v>       0.51999040       0.66468351       0.41183694 </v>
   <v>       0.33281687       0.29033643       0.05147962 </v>
   <v>       0.27017695       0.16505661       0.20591847 </v>
   <v>       0.20753704       0.03977678       0.36035732 </v>
   <v>       0.02036350       0.66542971       0.00000000 </v>
   <v>       0.95772359       0.54014988       0.15443885 </v>
   <v>       0.89508368       0.41487006       0.30887770 </v>
   <v>       0.83244377       0.28959023       0.46331655 </v>
   <v>       0.59918016       0.55885702       0.21659441 </v>
   <v>       0.53654024       0.43357719       0.37103327 </v>
   <v>       0.34936671       0.05923012       0.01067595 </v>
   <v>       0.28672679       0.93395029       0.16511480 </v>
   <v>       0.22408688       0.80867046       0.31955365 </v>
   <v>       0.16144697       0.68339064       0.47399250 </v>
   <v>       0.97427343       0.30904357       0.11363518 </v>
   <v>       0.91163352       0.18376374       0.26807403 </v>
   <v>       0.90947623       0.91524316       0.10295923 </v>
   <v>       0.84683632       0.78996333       0.25739808 </v>
   <v>       0.78419640       0.66468351       0.41183694 </v>
   <v>       0.59702287       0.29033643       0.05147962 </v>
   <v>       0.53438295       0.16505661       0.20591847 </v>
   <v>       0.47174304       0.03977678       0.36035732 </v>
   <v>       0.22192959       0.54014988       0.15443885 </v>
   <v>       0.15928968       0.41487006       0.30887770 </v>
   <v>       0.09664977       0.28959023       0.46331655 </v>
   <v>       0.82518168       0.67443006       0.15301029 </v>
   <v>       0.76254177       0.54915023       0.30744914 </v>
   <v>       0.69990185       0.42387040       0.46188799 </v>
   <v>       0.51272831       0.04952333       0.10153067 </v>
   <v>       0.45008840       0.92424350       0.25596953 </v>
   <v>       0.38744849       0.79896368       0.41040838 </v>
   <v>       0.20027495       0.42461661       0.05005106 </v>
   <v>       0.13763504       0.29933678       0.20448991 </v>
   <v>       0.07499513       0.17405695       0.35892876 </v>
   <v>       0.86674764       0.09399199       0.05052930 </v>
   <v>       0.80410773       0.96871216       0.20496815 </v>
   <v>       0.74146782       0.84343234       0.35940701 </v>
   <v>       0.49165437       0.34380544       0.15348854 </v>
   <v>       0.42901446       0.21852561       0.30792739 </v>
   <v>       0.36637454       0.09324579       0.46236624 </v>
   <v>       0.17920101       0.71889871       0.10200892 </v>
   <v>       0.11656109       0.59361889       0.25644777 </v>
   <v>       0.05392118       0.46833906       0.41088662 </v>
   <v>       0.48875168       0.67443006       0.15301029 </v>
   <v>       0.42611177       0.54915023       0.30744914 </v>
   <v>       0.36347185       0.42387040       0.46188799 </v>
   <v>       0.17629831       0.04952333       0.10153067 </v>
   <v>       0.11365840       0.92424350       0.25596953 </v>
   <v>       0.05101849       0.79896368       0.41040838 </v>
   <v>       0.86384495       0.42461661       0.05005106 </v>
   <v>       0.80120504       0.29933678       0.20448991 </v>
   <v>       0.73856513       0.17405695       0.35892876 </v>
  </varray>
 </structure>
 <calculation>
  <scstep>
   <time name="dav">    1.14    1.15</time>
   <time name="total">    1.19    1.19</time>
   <energy>
    <i name="alphaZ">   1295.57565721 </i>
    <i name="ewald"> 105849.80164548 </i>
    <i name="hartreedc">-197331.45521452 </i>
    <i name="XCdc">   2735.85003330 </i>
    <i name="pawpsdc">  84547.15000061 </i>
    <i name="pawaedc"> -88231.13391551 </i>
    <i name="eentropy">     -0.36753754 </i>
    <i name="bandstr">  -3881.92070224 </i>
    <i name="atom"> 102001.95379032 </i>
    <i name="e_fr_energy">   6985.45375710 </i>
    <i name="e_wo_entrp">   6985.82129465 </i>
    <i name="e_0_energy">   6985.63752588 </i>
   </energy>
  </scstep>
  <scstep>
   <time name="dav">    0.99    1.00</time>
   <time name="total">    0.99    1.00</time>
   <energy>
    <i name="e_fr_energy">    404.16381328 </i>
    <i name="e_wo_entrp">    404.71257829 </i>
    <i name="e_0_energy">    404.43819579 </i>
   </energy>
  </scstep>
  <scstep>
   <time name="dav">    1.08    1.08</time>
   <time name="total">    1.08    1.09</time>
   <energy>
    <i name="e_fr_energy">   -258.84493274 </i>
    <i name="e_wo_entrp">   -257.91083178 </i>
    <i name="e_0_energy">   -258.37788226 </i>
   </energy>
  </scstep>
  <scstep>
   <time name="dav">    1.08    1.08</time>
   <time name="total">    1.08    1.08</time>
   <energy>
    <i name="e_fr_energy">   -300.55963780 </i>
    <i name="e_wo_entrp">   -299.56456974 </i>
    <i name="e_0_energy">   -300.06210377 </i>
   </energy>
  </scstep>
  <scstep>
   <time name="dav">    1.14    1.14</time>
   <time name="total">    1.17    1.17</time>
   <energy>
    <i name="e_fr_energy">   -301.97413669 </i>
    <i name="e_wo_entrp">   -300.97747545 </i>
    <i name="e_0_energy">   -301.47580607 </i>
   </energy>
  </scstep>
  <scstep>
   <time name="dav">    1.09    1.09</time>
   <time name="total">    1.16    1.17</time>
   <energy>
    <i name="e_fr_energy">   -366.27286467 </i>
    <i name="e_wo_entrp">   -365.52875631 </i>
    <i name="e_0_energy">   -365.90081049 </i>
   </energy>
  </scstep>
  <scstep>
   <time name="dav">    1.10    1.11</time>
   <time name="total">    1.17    1.18</time>
   <energy>
    <i name="e_fr_energy">   -281.07417188 </i>
    <i name="e_wo_entrp">   -280.53833593 </i>
    <i name="e_0_energy">   -280.80625390 </i>
   </energy>
  </scstep>
  <scstep>
   <time name="dav">    1.22    1.23</time>
   <time name="total">    1.29    1.30</time>
   <energy>
    <i name="e_fr_energy">   -320.04807195 </i>
    <i name="e_wo_entrp">   -318.97266986 </i>
    <i name="e_0_energy">   -319.51037090 </i>
   </energy>
  </scstep>
  <scstep>
   <time name="dav">    1.18    1.18</time>
   <time name="total">    1.24    1.25</time>
   <energy>
    <i name="e_fr_energy">   -274.84244066 </i>
    <i name="e_wo_entrp">   -274.02555476 </i>
    <i name="e_0_energy">   -274.43399771 </i>
   </energy>
  </scstep>
  <scstep>
   <time name="dav">    1.15    1.15</time>
   <time name="total">    1.22    1.22</time>
   <energy>
    <i name="e_fr_energy">   -284.99451057 </i>
    <i name="e_wo_entrp">   -283.95010937 </i>
    <i name="e_0_energy">   -284.47230997 </i>
   </energy>
  </scstep>
  <scstep>
   <time name="dav">    1.20    1.20</time>
   <time name="total">    1.27    1.27</time>
   <energy>
    <i name="e_fr_energy">   -273.73293857 </i>
    <i name="e_wo_entrp">   -272.95614450 </i>
    <i name="e_0_energy">   -273.34454153 </i>
   </energy>
  </scstep>
  <scstep>
   <time name="dav">    1.17    1.18</time>
   <time name="total">    1.24    1.25</time>
   <energy>
    <i name="e_fr_energy">   -270.75875599 </i>
    <i name="e_wo_entrp">   -269.98077745 </i>
    <i name="e_0_energy">   -270.36976672 </i>
   </energy>
  </scstep>
  <scstep>
   <time name="dav">    1.18    1.18</time>
   <time name="total">    1.25    1.26</time>
   <energy>
    <i name="e_fr_energy">   -269.75277578 </i>
    <i name="e_wo_entrp">   -269.07833467 </i>
    <i name="e_0_energy">   -269.41555522 </i>
   </energy>
  </scstep>
  <scstep>
   <time name="dav">    1.13    1.13</time>
   <time name="total">    1.20    1.20</time>
   <energy>
    <i name="e_fr_energy">   -267.59683157 </i>
    <i name="e_wo_entrp">   -266.89630574 </i>
    <i name="e_0_energy">   -267.24656866 </i>
   </energy>
  </scstep>
  <scstep>
   <time name="dav">    1.19    1.19</time>
   <time name="total">    1.26    1.26</time>
   <energy>
    <i name="e_fr_energy">   -266.84127651 </i>
    <i name="e_wo_entrp">   -266.18052649 </i>
    <i name="e_0_energy">   -266.51090150 </i>
   </energy>
  </scstep>
  <scstep>
   <time name="dav">    1.17    1.17</time>
   <time name="total">    1.24    1.25</time>
   <energy>
    <i name="e_fr_energy">   -266.10008553 </i>
    <i name="e_wo_entrp">   -265.42226595 </i>
    <i name="e_0_energy">   -265.76117574 </i>
   </energy>
  </scstep>
  <scstep>
   <time name="dav">    1.20    1.21</time>
   <time name="total">    1.27    1.28</time>
   <energy>
    <i name="e_fr_energy">   -265.64977019 </i>
    <i name="e_wo_entrp">   -264.96142284 </i>
    <i name="e_0_energy">   -265.30559651 </i>
   </energy>
  </scstep>
  <scstep>
   <time name="dav">    1.21    1.21</time>
   <time name="total">    1.28    1.28</time>
   <energy>
    <i name="e_fr_energy">   -265.40117360 </i>
    <i name="e_wo_entrp">   -264.69036458 </i>
    <i name="e_0_energy">   -265.04576909 </i>
   </energy>
  </scstep>
  <scstep>
   <time name="dav">    1.27    1.28</time>
   <time name="total">    1.34    1.35</time>
   <energy>
    <i name="e_fr_energy">   -265.14786035 </i>
    <i name="e_wo_entrp">   -264.44372090 </i>
    <i name="e_0_energy">   -264.79579062 </i>
   </energy>
  </scstep>
  <scstep>
   <time name="dav">    1.23    1.23</time>
   <time name="total">    1.30    1.30</time>
   <energy>
    <i name="e_fr_energy">   -265.03209779 </i>
    <i name="e_wo_entrp">   -264.30743764 </i>
    <i name="e_0_energy">   -264.66976771 </i>
   </energy>
  </scstep>
  <scstep>
   <time name="dav">    1.28    1.28</time>
   <time name="total">    1.35    1.35</time>
   <energy>
    <i name="e_fr_energy">   -264.96300869 </i>
    <i name="e_wo_entrp">   -264.14923001 </i>
    <i name="e_0_energy">   -264.55611935 </i>
   </energy>
  </scstep>
  <scstep>
   <time name="dav">    1.18    1.18</time>
   <time name="total">    1.25    1.26</time>
   <energy>
    <i name="e_fr_energy">   -264.91049582 </i>
    <i name="e_wo_entrp">   -264.15143456 </i>
    <i name="e_0_energy">   -264.53096519 </i>
   </energy>
  </scstep>
  <scstep>
   <time name="dav">    1.21    1.21</time>
   <time name="total">    1.28    1.28</time>
   <energy>
    <i name="e_fr_energy">   -264.91681441 </i>
    <i name="e_wo_entrp">   -264.11305912 </i>
    <i name="e_0_energy">   -264.51493677 </i>
   </energy>
  </scstep>
  <scstep>
   <time name="dav">    1.13    1.13</time>
   <time name="total">    1.20    1.20</time>
   <energy>
    <i name="e_fr_energy">   -264.87372144 </i>
    <i name="e_wo_entrp">   -264.08250984 </i>
    <i name="e_0_energy">   -264.47811564 </i>
   </energy>
  </scstep>
  <scstep>
   <time name="dav">    1.20    1.20</time>
   <time name="total">    1.27    1.28</time>
   <energy>
    <i name="e_fr_energy">   -264.86154739 </i>
    <i name="e_wo_entrp">   -264.07526894 </i>
    <i name="e_0_energy">   -264.46840817 </i>
   </energy>
  </scstep>
  <scstep>
   <time name="dav">    1.25    1.25</time>
   <time name="total">    1.32    1.33</time>
   <energy>
    <i name="e_fr_energy">   -264.84923887 </i>
    <i name="e_wo_entrp">   -264.08089802 </i>
    <i name="e_0_energy">   -264.46506844 </i>
   </energy>
  </scstep>
  <scstep>
   <time name="dav">    1.20    1.20</time>
   <time name="total">    1.27    1.28</time>
   <energy>
    <i name="e_fr_energy">   -264.84746672 </i>
    <i name="e_wo_entrp">   -264.08837831 </i>
    <i name="e_0_energy">   -264.46792251 </i>
   </energy>
  </scstep>
  <scstep>
   <time name="dav">    1.20    1.21</time>
   <time name="total">    1.28    1.28</time>
   <energy>
    <i name="e_fr_energy">   -264.83188915 </i>
    <i name="e_wo_entrp">   -264.08319751 </i>
    <i name="e_0_energy">   -264.45754333 </i>
   </energy>
  </scstep>
  <scstep>
   <time name="dav">    1.19    1.20</time>
   <time name="total">    1.27    1.27</time>
   <energy>
    <i name="e_fr_energy">   -264.83421289 </i>
    <i name="e_wo_entrp">   -264.08332196 </i>
    <i name="e_0_energy">   -264.45876743 </i>
   </energy>
  </scstep>
  <scstep>
   <time name="dav">    1.07    1.07</time>
   <time name="total">    1.14    1.14</time>
   <energy>
    <i name="e_fr_energy">   -264.83176797 </i>
    <i name="e_wo_entrp">   -264.08307318 </i>
    <i name="e_0_energy">   -264.45742057 </i>
   </energy>
  </scstep>
  <scstep>
   <time name="dav">    1.14    1.14</time>
   <time name="total">    1.21    1.22</time>
   <energy>
    <i name="e_fr_energy">   -264.83162626 </i>
    <i name="e_wo_entrp">   -264.08537662 </i>
    <i name="e_0_energy">   -264.45850144 </i>
   </energy>
  </scstep>
  <scstep>
   <time name="dav">    1.05    1.05</time>
   <time name="total">    1.12    1.12</time>
   <energy>
    <i name="e_fr_energy">   -264.83135210 </i>
    <i name="e_wo_entrp">   -264.08446362 </i>
    <i name="e_0_energy">   -264.45790786 </i>
   </energy>
  </scstep>
  <scstep>
   <time name="dav">    0.91    0.91</time>
   <time name="total">    0.98    0.98</time>
   <energy>
    <i name="e_fr_energy">   -264.83149921 </i>
    <i name="e_wo_entrp">   -264.08648602 </i>
    <i name="e_0_energy">   -264.45899261 </i>
   </energy>
  </scstep>
  <scstep>
   <time name="dav">    0.81    0.81</time>
   <time name="total">    0.88    0.88</time>
   <energy>
    <i name="e_fr_energy">   -264.83186992 </i>
    <i name="e_wo_entrp">   -264.08717979 </i>
    <i name="e_0_energy">   -264.45952485 </i>
   </energy>
  </scstep>
  <scstep>
   <time name="dav">    0.74    0.74</time>
   <time name="total">    0.81    0.82</time>
   <energy>
    <i name="e_fr_energy">   -264.83208321 </i>
    <i name="e_wo_entrp">   -264.08725954 </i>
    <i name="e_0_energy">   -264.45967137 </i>
   </energy>
  </scstep>
  <scstep>
   <time name="dav">    0.75    0.76</time>
   <time name="total">    0.83    0.83</time>
   <energy>
    <i name="e_fr_energy">   -264.83246545 </i>
    <i name="e_wo_entrp">   -264.08626355 </i>
    <i name="e_0_energy">   -264.45936450 </i>
   </energy>
  </scstep>
  <scstep>
   <time name="dav">    0.70    0.70</time>
   <time name="total">    0.77    0.77</time>
   <energy>
    <i name="e_fr_energy">   -264.83274582 </i>
    <i name="e_wo_entrp">   -264.08699674 </i>
    <i name="e_0_energy">   -264.45987128 </i>
   </energy>
  </scstep>
  <scstep>
   <time name="dav">    0.74    0.75</time>
   <time name="total">    0.82    0.82</time>
   <energy>
    <i name="e_fr_energy">   -264.83322357 </i>
    <i name="e_wo_entrp">   -264.08780836 </i>
    <i name="e_0_energy">   -264.46051596 </i>
   </energy>
  </scstep>
  <scstep>
   <time name="dav">    0.70    0.70</time>
   <time name="total">    0.77    0.78</time>
   <energy>
    <i name="e_fr_energy">   -264.83365099 </i>
    <i name="e_wo_entrp">   -264.08769381 </i>
    <i name="e_0_energy">   -264.46067240 </i>
   </energy>
  </scstep>
  <scstep>
   <time name="dav">    0.69    0.69</time>
   <time name="total">    0.76    0.77</time>
   <energy>
    <i name="e_fr_energy">   -264.83385990 </i>
    <i name="e_wo_entrp">   -264.08782070 </i>
    <i name="e_0_energy">   -264.46084030 </i>
   </energy>
  </scstep>
  <scstep>
   <time name="dav">    0.70    0.71</time>
   <time name="total">    0.78    0.78</time>
   <energy>
    <i name="e_fr_energy">   -264.83418153 </i>
    <i name="e_wo_entrp">   -264.08832074 </i>
    <i name="e_0_energy">   -264.46125113 </i>
   </energy>
  </scstep>
  <scstep>
   <time name="dav">    0.70    0.70</time>
   <time name="total">    0.74    0.74</time>
   <energy>
    <i name="alphaZ">   1295.57565721 </i>
    <i name="ewald"> 105849.80164548 </i>
    <i name="hartreedc">-196887.31558143 </i>
    <i name="XCdc">   2714.81880759 </i>
    <i name="pawpsdc">  97457.06807165 </i>
    <i name="pawaedc">-101182.26592177 </i>
    <i name="eentropy">     -0.74573529 </i>
    <i name="bandstr"> -11513.72500999 </i>
    <i name="atom"> 102001.95379032 </i>
    <i name="e_fr_energy">   -264.83427623 </i>
    <i name="e_wo_entrp">   -264.08854093 </i>
    <i name="e_0_energy">   -264.46140858 </i>
   </energy>
  </scstep>
  <structure>
   <crystal>
    <varray name="basis" >
     <v>       8.42818148      -4.55101034       0.00000000 </v>
     <v>       0.00000000      10.07973298       0.00000000 </v>
     <v>       0.00000000       0.00000000      19.01113574 </v>
    </varray>
    <i name="volume">   1615.06858132 </i>
    <varray name="rec_basis" >
     <v>       0.11864956       0.00000000       0.00000000 </v>
     <v>       0.05357040       0.09920898       0.00000000 </v>
     <v>       0.00000000       0.00000000       0.05260075 </v>
    </varray>
   </crystal>
   <varray name="positions" >
    <v>       0.64527023       0.91524316       0.10295923 </v>
    <v>       0.58263032       0.78996333       0.25739808 </v>
    <v>       0.51999040       0.66468351       0.41183694 </v>
    <v>       0.33281687       0.29033643       0.05147962 </v>
    <v>       0.27017695       0.16505661       0.20591847 </v>
    <v>       0.20753704       0.03977678       0.36035732 </v>
    <v>       0.02036350       0.66542971       0.00000000 </v>
    <v>       0.95772359       0.54014988       0.15443885 </v>
    <v>       0.89508368       0.41487006       0.30887770 </v>
    <v>       0.83244377       0.28959023       0.46331655 </v>
    <v>       0.59918016       0.55885702       0.21659441 </v>
    <v>       0.53654024       0.43357719       0.37103327 </v>
    <v>       0.34936671       0.05923012       0.01067595 </v>
    <v>       0.28672679       0.93395029       0.16511480 </v>
    <v>       0.22408688       0.80867046       0.31955365 </v>
    <v>       0.16144697       0.68339064       0.47399250 </v>
    <v>       0.97427343       0.30904357       0.11363518 </v>
    <v>       0.91163352       0.18376374       0.26807403 </v>
    <v>       0.90947623       0.91524316       0.10295923 </v>
    <v>       0.84683632       0.78996333       0.25739808 </v>
    <v>       0.78419640       0.66468351       0.41183694 </v>
    <v>       0.59702287       0.29033643       0.05147962 </v>
    <v>       0.53438295       0.16505661       0.20591847 </v>
    <v>       0.47174304       0.03977678       0.36035732 </v>
    <v>       0.22192959       0.54014988       0.15443885 </v>
    <v>       0.15928968       0.41487006       0.30887770 </v>
    <v>       0.09664977       0.28959023       0.46331655 </v>
    <v>       0.82518168       0.67443006       0.15301029 </v>
    <v>       0.76254177       0.54915023       0.30744914 </v>
    <v>       0.69990185       0.42387040       0.46188799 </v>
    <v>       0.51272831       0.04952333       0.10153067 </v>
    <v>       0.45008840       0.92424350       0.25596953 </v>
    <v>       0.38744849       0.79896368       0.41040838 </v>
    <v>       0.20027495       0.42461661       0.05005106 </v>
    <v>       0.13763504       0.29933678       0.20448991 </v>
    <v>       0.07499513       0.17405695       0.35892876 </v>
    <v>       0.86674764       0.09399199       0.05052930 </v>
    <v>       0.80410773       0.96871216       0.20496815 </v>
    <v>       0.74146782       0.84343234       0.35940701 </v>
    <v>       0.49165437       0.34380544       0.15348854 </v>
    <v>       0.42901446       0.21852561       0.30792739 </v>
    <v>       0.36637454       0.09324579       0.46236624 </v>
    <v>       0.17920101       0.71889871       0.10200892 </v>
    <v>       0.11656109       0.59361889       0.25644777 </v>
    <v>       0.05392118       0.46833906       0.41088662 </v>
    <v>       0.48875168       0.67443006       0.15301029 </v>
    <v>       0.42611177       0.54915023       0.30744914 </v>
    <v>       0.36347185       0.42387040       0.46188799 </v>
    <v>       0.17629831       0.04952333       0.10153067 </v>
    <v>       0.11365840       0.92424350       0.25596953 </v>
    <v>       0.05101849       0.79896368       0.41040838 </v>
    <v>       0.86384495       0.42461661       0.05005106 </v>
    <v>       0.80120504       0.29933678       0.20448991 </v>
    <v>       0.73856513       0.17405695       0.35892876 </v>
   </varray>
  </structure>
  <varray name="forces" >
   <v>       0.58151576       0.39482436       0.58636723 </v>
   <v>       0.09969336      -0.29725315       0.02369822 </v>
   <v>      -0.70821564       0.00427149      -0.67627622 </v>
   <v>      -0.50950974       0.10140326       0.96769674 </v>
   <v>       0.21774435       0.10006341      -0.22482912 </v>
   <v>       0.27370346      -0.02146243       0.63458021 </v>
   <v>       0.06952295      -1.18310493       2.19391334 </v>
   <v>       0.07252814       0.10533874      -0.17022367 </v>
   <v>      -0.18037269      -0.09227323       0.25550444 </v>
   <v>       0.32055428       1.09776733      -1.75301960 </v>
   <v>       0.06651461       0.12959929      -0.47191348 </v>
   <v>       0.18024195       0.32303613       0.63723407 </v>
   <v>       0.18601558       0.34212915       2.04975396 </v>
   <v>      -0.06974746       0.00631026      -0.26082294 </v>
   <v>       0.02145917       0.01797984       0.24310369 </v>
   <v>       0.03869066       0.06428700      -1.98645395 </v>
   <v>       0.29238843      -0.07607735      -0.34137398 </v>
   <v>      -0.04599699      -0.09958885       0.28976499 </v>
   <v>       0.09487865       0.57736042       0.46889586 </v>
   <v>      -0.25556024      -0.08532092       0.05601579 </v>
   <v>       0.39788158      -0.58199656      -0.68354849 </v>
   <v>       0.16129487      -0.24010724       1.00166407 </v>
   <v>      -0.06737473       0.22311098      -0.22205133 </v>
   <v>      -0.15571492       0.22946906       0.61565953 </v>
   <v>       0.07734730      -0.05242725      -0.48888549 </v>
   <v>       0.02046091      -0.18533639       0.20887528 </v>
   <v>       0.74799403       0.87695491      -1.72163395 </v>
   <v>       0.43603260       0.39146188      -0.29560143 </v>
   <v>      -0.47387937       0.01632283      -0.21708701 </v>
   <v>      -0.25664347       0.43574849       0.15877642 </v>
   <v>      -0.06828708      -0.08145488      -1.60598435 </v>
   <v>      -0.02743777      -0.07443074       0.24776310 </v>
   <v>      -0.38644935       0.08213158       0.79794379 </v>
   <v>       0.47529530      -1.06692973       0.06116217 </v>
   <v>      -0.19086396       0.10488610       0.09938290 </v>
   <v>      -0.28458442       0.27936263       0.65877776 </v>
   <v>      -0.60039634      -1.07862701       0.75520621 </v>
   <v>      -0.32006462      -0.51838968       0.07972064 </v>
   <v>      -0.11929794      -0.14945695       0.39813572 </v>
   <v>       0.06109758       0.09816827      -0.83248855 </v>
   <v>      -0.15334567      -0.29396351       0.20189280 </v>
   <v>      -0.08519598      -0.15921827      -1.40167666 </v>
   <v>      -0.64233878       0.47435923      -0.73338878 </v>
   <v>      -0.01814079      -0.16775971       0.06816453 </v>
   <v>      -0.30223530      -0.55403757       1.48492786 </v>
   <v>       0.01982315       0.59024529      -0.30967339 </v>
   <v>       0.26473822      -0.37201525      -0.16669662 </v>
   <v>       0.52429975       0.05193101       0.16096166 </v>
   <v>       0.02201352      -0.20077387      -1.62055071 </v>
   <v>      -0.02521978       0.00238297       0.25255125 </v>
   <v>       0.30624652      -0.26362280       0.79133293 </v>
   <v>      -0.61340358       0.95706570      -0.97764832 </v>
   <v>       0.11779431      -0.10022499       0.02235749 </v>
   <v>       0.41250562      -0.08211835       0.69004337 </v>
  </varray>
  <varray name="stress" >
   <v>     -24.78758949      -3.06396412       4.39271477 </v>
   <v>      -3.06396432     -27.22228300       9.70145833 </v>
   <v>       4.39271481       9.70145819     -27.73107315 </v>
  </varray>
  <energy>
   <i name="e_fr_energy">   -264.83427623 </i>
   <i name="e_wo_entrp">   -264.08854093 </i>
   <i name="e_0_energy">   -264.46140858 </i>
  </energy>
  <time name="totalsc">   48.36   48.56</time>
  <eigenvalues>
   <array>
    <dimension dim="1">band</dimension>
    <dimension dim="2">kpoint</dimension>
    <dimension dim="3">spin</dimension>
    <field>eigene</field>
    <field>occ</field>
    <set>
     <set comment="spin 1">
      <set comment="kpoint 1">
       <r>  -63.1841    1.0000 </r>
       <r>  -63.1537    1.0000 </r>
       <r>  -63.1513    1.0000 </r>
       <r>  -63.1506    1.0000 </r>
       <r>  -63.1392    1.0000 </r>
       <r>  -63.1354    1.0000 </r>
       <r>  -63.1256    1.0000 </r>
       <r>  -63.1231    1.0000 </r>
       <r>  -63.1227    1.0000 </r>
       <r>  -63.1189    1.0000 </r>
       <r>  -63.1182    1.0000 </r>
       <r>  -63.1153    1.0000 </r>
       <r>  -63.1143    1.0000 </r>
       <r>  -63.1064    1.0000 </r>
       <r>  -63.1052    1.0000 </r>
       <r>  -63.1039    1.0000 </r>
       <r>  -63.0961    1.0000 </r>
       <r>  -63.0935    1.0000 </r>
       <r>  -63.0881    1.0000 </r>
       <r>  -63.0838    1.0000 </r>
       <r>  -63.0828    1.0000 </r>
       <r>  -63.0792    1.0000 </r>
       <r>  -63.0786    1.0000 </r>
       <r>  -63.0726    1.0000 </r>
       <r>  -63.0679    1.0000 </r>
       <r>  -63.0650    1.0000 </r>
       <r>  -63.0589    1.0000 </r>
       <r>  -63.0580    1.0000 </r>
       <r>  -63.0496    1.0000 </r>
       <r>  -63.0389    1.0000 </r>
       <r>  -63.0338    1.0000 </r>
       <r>  -63.0096    1.0000 </r>
       <r>  -63.0054    1.0000 </r>
       <r>  -63.0034    1.0000 </r>
       <r>  -62.9824    1.0000 </r>
       <r>  -62.9791    1.0000 </r>
       <r>  -62.9530    1.0000 </r>
       <r>  -62.9438    1.0000 </r>
       <r>  -62.9406    1.0000 </r>
       <r>  -62.9405    1.0000 </r>
       <r>  -62.9304    1.0000 </r>
       <r>  -62.8931    1.0000 </r>
       <r>  -62.8895    1.0000 </r>
       <r>  -62.8877    1.0000 </r>
       <r>  -62.8860    1.0000 </r>
       <r>  -62.8773    1.0000 </r>
       <r>  -62.8766    1.0000 </r>
       <r>  -62.8641    1.0000 </r>
       <r>  -62.8233    1.0000 </r>
       <r>  -62.8086    1.0000 </r>
       <r>  -62.7710    1.0000 </r>
       <r>  -62.7414    1.0000 </r>
       <r>  -62.6896    1.0000 </r>
       <r>  -62.6473    1.0000 </r>
       <r>  -62.6172    1.0000 </r>
       <r>  -62.6021    1.0000 </r>
       <r>  -62.5794    1.0000 </r>
       <r>  -62.5217    1.0000 </r>
       <r>  -62.4913    1.0000 </r>
       <r>  -62.4519    1.0000 </r>
       <r>  -62.4059    1.0000 </r>
       <r>  -62.4030    1.0000 </r>
       <r>  -62.3903    1.0000 </r>
       <r>  -62.3455    1.0000 </r>
       <r>  -62.3411    1.0000 </r>
       <r>  -62.2869    1.0000 </r>
       <r>  -62.2524    1.0000 </r>
       <r>  -62.2404    1.0000 </r>
       <r>  -62.2328    1.0000 </r>
       <r>  -62.2137    1.0000 </r>
       <r>  -62.1997    1.0000 </r>
       <r>  -62.1793    1.0000 </r>
       <r>  -62.1486    1.0000 </r>
       <r>  -62.0672    1.0000 </r>
       <r>  -62.0343    1.0000 </r>
       <r>  -61.8303    1.0000 </r>
       <r>  -61.8241    1.0000 </r>
       <r>  -61.7072    1.0000 </r>
       <r>  -61.6391    1.0000 </r>
       <r>  -61.5944    1.0000 </r>
       <r>  -61.2432    1.0000 </r>
       <r>  -14.3447    1.0000 </r>
       <r>  -13.6112    1.0000 </r>
       <r>  -13.4955    1.0000 </r>
       <r>  -13.3476    1.0000 </r>
       <r>  -13.2445    1.0000 </r>
       <r>  -13.1384    1.0000 </r>
       <r>  -13.1019    1.0000 </r>
       <r>  -13.0632    1.0000 </r>
       <r>  -13.0346    1.0000 </r>
       <r>  -12.7500    1.0000 </r>
       <r>  -12.6402    1.0000 </r>
       <r>  -12.5813    1.0000 </r>
       <r>  -12.5452    1.0000 </r>
       <r>  -12.5302    1.0000 </r>
       <r>  -12.3803    1.0000 </r>
       <r>  -12.2872    1.0000 </r>
       <r>  -12.1934    1.0000 </r>
       <r>  -12.1443    1.0000 </r>
       <r>  -12.0119    1.0000 </r>
       <r>  -11.9743    1.0000 </r>
       <r>  -11.9310    1.0000 </r>
       <r>  -11.8655    1.0000 </r>
       <r>  -11.6706    1.0000 </r>
       <r>  -11.6014    1.0000 </r>
       <r>  -11.4770    1.0000 </r>
       <r>  -11.2008    1.0000 </r>
       <r>  -10.8267    1.0000 </r>
       <r>   -6.0549    1.0000 </r>
       <r>   -5.9251    1.0000 </r>
       <r>   -5.7698    1.0000 </r>
       <r>   -5.7506    1.0000 </r>
       <r>   -5.6123    1.0000 </r>
       <r>   -5.4138    1.0000 </r>
       <r>   -5.3108    1.0000 </r>
       <r>   -5.3029    1.0000 </r>
       <r>   -5.2670    1.0000 </r>
       <r>   -5.2354    1.0000 </r>
       <r>   -5.1554    1.0000 </r>
       <r>   -5.1153    1.0000 </r>
       <r>   -5.0627    1.0000 </r>
       <r>   -5.0225    1.0000 </r>
       <r>   -4.9970    1.0000 </r>
       <r>   -4.9696    1.0000 </r>
       <r>   -4.9394    1.0000 </r>
       <r>   -4.8187    1.0000 </r>
       <r>   -4.7063    1.0000 </r>
       <r>   -4.6597    1.0000 </r>
       <r>   -4.6280    1.0000 </r>
       <r>   -4.5912    1.0000 </r>
       <r>   -4.5632    1.0000 </r>
       <r>   -4.4866    1.0000 </r>
       <r>   -4.4295    1.0000 </r>
       <r>   -4.3705    1.0000 </r>
       <r>   -4.2511    1.0000 </r>
       <r>   -4.1764    1.0000 </r>
       <r>   -4.0272    1.0000 </r>
       <r>   -4.0081    1.0000 </r>
       <r>   -3.9324    1.0000 </r>
       <r>   -3.9096    1.0000 </r>
       <r>   -3.8562    1.0000 </r>
       <r>   -3.7899    1.0000 </r>
       <r>   -3.7063    1.0000 </r>
       <r>   -3.6769    1.0000 </r>
       <r>   -3.6509    1.0000 </r>
       <r>   -3.5579    1.0000 </r>
       <r>   -3.5437    1.0000 </r>
       <r>   -3.5167    1.0000 </r>
       <r>   -3.4858    1.0000 </r>
       <r>   -3.3642    1.0000 </r>
       <r>   -3.3405    1.0000 </r>
       <r>   -3.3204    1.0000 </r>
       <r>   -3.2993    1.0000 </r>
       <r>   -3.2749    1.0000 </r>
       <r>   -3.2297    1.0000 </r>
       <r>   -3.2182    1.0000 </r>
       <r>   -3.1367    1.0000 </r>
       <r>   -3.1245    1.0000 </r>
       <r>   -3.1007    1.0000 </r>
       <r>   -3.0378    1.0000 </r>
       <r>   -2.9931    1.0000 </r>
       <r>   -2.9928    1.0000 </r>
       <r>   -2.9555    1.0000 </r>
       <r>   -2.9319    1.0000 </r>
       <r>   -2.8959    1.0000 </r>
       <r>   -2.8346    1.0000 </r>
       <r>   -2.7932    1.0000 </r>
       <r>   -2.7794    1.0000 </r>
       <r>   -2.7264    1.0000 </r>
       <r>   -2.7036    1.0000 </r>
       <r>   -2.6616    1.0000 </r>
       <r>   -2.5225    1.0000 </r>
       <r>   -2.4844    1.0000 </r>
       <r>   -2.4091    1.0000 </r>
       <r>   -2.3950    1.0000 </r>
       <r>   -2.3234    1.0000 </r>
       <r>   -2.3142    1.0000 </r>
       <r>   -2.2716    1.0000 </r>
       <r>   -2.1810    1.0000 </r>
       <r>   -2.1621    1.0000 </r>
       <r>   -2.1305    1.0000 </r>
       <r>   -2.0742    1.0000 </r>
       <r>   -2.0024    1.0000 </r>
       <r>   -1.9084    1.0000 </r>
       <r>   -1.8693    1.0000 </r>
       <r>   -1.8362    1.0000 </r>
       <r>   -1.8129    1.0000 </r>
       <r>   -1.7726    1.0000 </r>
       <r>   -1.7059    1.0000 </r>
       <r>   -1.6699    1.0000 </r>
       <r>   -1.5680    1.0000 </r>
       <r>   -1.4822    1.0000 </r>
       <r>   -1.4706    1.0000 </r>
       <r>   -1.4311    1.0000 </r>
       <r>   -1.4169    1.0000 </r>
       <r>   -1.3794    1.0000 </r>
       <r>   -1.3506    1.0000 </r>
       <r>   -1.3353    1.0000 </r>
       <r>   -1.2877    1.0000 </r>
       <r>   -1.2747    1.0000 </r>
       <r>   -1.2486    1.0000 </r>
       <r>   -1.2102    1.0000 </r>
       <r>   -1.1898    1.0000 </r>
       <r>   -1.1533    1.0000 </r>
       <r>   -1.1373    1.0000 </r>
       <r>   -1.1072    1.0000 </r>
       <r>   -1.0868    1.0000 </r>
       <r>   -1.0578    1.0000 </r>
       <r>   -1.0267    1.0000 </r>
       <r>   -0.9983    1.0000 </r>
       <r>   -0.9919    1.0000 </r>
       <r>   -0.9895    1.0000 </r>
       <r>   -0.9714    1.0000 </r>
       <r>   -0.9154    1.0000 </r>
       <r>   -0.9099    1.0000 </r>
       <r>   -0.8993    1.0000 </r>
       <r>   -0.8743    1.0000 </r>
       <r>   -0.8578    1.0000 </r>
       <r>   -0.8331    1.0000 </r>
       <r>   -0.8085    1.0000 </r>
       <r>   -0.8071    1.0000 </r>
       <r>   -0.7932    1.0000 </r>
       <r>   -0.7798    1.0000 </r>
       <r>   -0.7629    1.0000 </r>
       <r>   -0.7502    1.0000 </r>
       <r>   -0.7298    1.0000 </r>
       <r>   -0.7237    1.0000 </r>
       <r>   -0.7192    1.0000 </r>
       <r>   -0.7022    1.0000 </r>
       <r>   -0.6917    1.0000 </r>
       <r>   -0.6789    1.0000 </r>
       <r>   -0.6527    1.0000 </r>
       <r>   -0.6466    1.0000 </r>
       <r>   -0.6327    1.0000 </r>
       <r>   -0.6122    1.0000 </r>
       <r>   -0.6026    1.0000 </r>
       <r>   -0.5822    1.0000 </r>
       <r>   -0.5706    1.0000 </r>
       <r>   -0.5605    1.0000 </r>
       <r>   -0.5475    1.0000 </r>
       <r>   -0.5400    1.0000 </r>
       <r>   -0.5203    1.0000 </r>
       <r>   -0.4855    1.0000 </r>
       <r>   -0.4765    1.0000 </r>
       <r>   -0.4697    1.0000 </r>
       <r>   -0.4546    1.0000 </r>
       <r>   -0.4429    1.0000 </r>
       <r>   -0.4188    1.0000 </r>
       <r>   -0.4162    1.0000 </r>
       <r>   -0.3897    1.0000 </r>
       <r>   -0.3820    1.0000 </r>
       <r>   -0.3274    1.0000 </r>
       <r>   -0.3157    1.0000 </r>
       <r>   -0.3100    1.0000 </r>
       <r>   -0.2684    1.0000 </r>
       <r>   -0.2585    1.0000 </r>
       <r>   -0.2246    1.0000 </r>
       <r>   -0.1989    1.0000 </r>
       <r>   -0.1772    1.0000 </r>
       <r>   -0.1588    1.0000 </r>
       <r>   -0.1495    1.0000 </r>
       <r>   -0.1405    1.0000 </r>
       <r>   -0.1242    1.0000 </r>
       <r>   -0.1152    1.0000 </r>
       <r>   -0.0773    1.0000 </r>
       <r>   -0.0624    1.0000 </r>
       <r>   -0.0314    1.0000 </r>
       <r>    0.0019    1.0000 </r>
       <r>    0.0441    1.0000 </r>
       <r>    0.0569    1.0000 </r>
       <r>    0.0941    1.0000 </r>
       <r>    0.1153    1.0000 </r>
       <r>    0.1716    1.0000 </r>
       <r>    0.1907    1.0000 </r>
       <r>    0.2285    1.0000 </r>
       <r>    0.2812    1.0000 </r>
       <r>    0.2955    1.0000 </r>
       <r>    0.3119    1.0000 </r>
       <r>    0.3165    1.0000 </r>
       <r>    0.3431    1.0000 </r>
       <r>    0.3749    1.0000 </r>
       <r>    0.3793    1.0000 </r>
       <r>    0.4163    1.0000 </r>
       <r>    0.4238    1.0000 </r>
       <r>    0.4516    0.9999 </r>
       <r>    0.4881    0.9998 </r>
       <r>    0.5114    0.9996 </r>
       <r>    0.5643    0.9987 </r>
       <r>    0.5833    0.9980 </r>
       <r>    0.6158    0.9959 </r>
       <r>    0.6296    0.9946 </r>
       <r>    0.6818    0.9854 </r>
       <r>    0.7013    0.9795 </r>
       <r>    0.8139    0.8937 </r>
       <r>    0.8205    0.8850 </r>
       <r>    0.9001    0.7379 </r>
       <r>    0.9680    0.5624 </r>
       <r>    1.0580    0.3159 </r>
       <r>    1.1078    0.2029 </r>
       <r>    1.1302    0.1611 </r>
       <r>    1.1545    0.1227 </r>
       <r>    1.1613    0.1131 </r>
       <r>    1.2642    0.0263 </r>
       <r>    1.2893    0.0172 </r>
       <r>    1.3583    0.0046 </r>
       <r>    1.3639    0.0041 </r>
       <r>    1.4228    0.0011 </r>
       <r>    1.4661    0.0004 </r>
       <r>    1.5416    0.0000 </r>
       <r>    1.6300    0.0000 </r>
       <r>    1.6624    0.0000 </r>
       <r>    1.6895    0.0000 </r>
       <r>    1.7505    0.0000 </r>
       <r>    1.7626    0.0000 </r>
       <r>    1.7979    0.0000 </r>
       <r>    1.8287    0.0000 </r>
       <r>    1.8538    0.0000 </r>
       <r>    1.8865    0.0000 </r>
       <r>    1.9549    0.0000 </r>
       <r>    1.9727    0.0000 </r>
       <r>    2.0331    0.0000 </r>
       <r>    2.0701    0.0000 </r>
       <r>    2.0862    0.0000 </r>
       <r>    2.1239    0.0000 </r>
       <r>    2.2990    0.0000 </r>
       <r>    2.5198    0.0000 </r>
       <r>    2.6313    0.0000 </r>
       <r>    3.3776    0.0000 </r>
       <r>    3.6291    0.0000 </r>
       <r>    4.3403    0.0000 </r>
       <r>    4.4535    0.0000 </r>
       <r>    4.5646    0.0000 </r>
       <r>    4.7608    0.0000 </r>
       <r>    4.9198    0.0000 </r>
       <r>    4.9475    0.0000 </r>
       <r>    5.1086    0.0000 </r>
       <r>    5.1860    0.0000 </r>
       <r>    5.3394    0.0000 </r>
       <r>    5.4087    0.0000 </r>
       <r>    5.5705    0.0000 </r>
       <r>    5.5996    0.0000 </r>
       <r>    5.6214    0.0000 </r>
       <r>    5.8781    0.0000 </r>
       <r>    5.9124    0.0000 </r>
       <r>    5.9958    0.0000 </r>
       <r>    6.0244    0.0000 </r>
       <r>    6.0899    0.0000 </r>
       <r>    6.2282    0.0000 </r>
       <r>    6.2790    0.0000 </r>
       <r>    6.3359    0.0000 </r>
       <r>    6.4280    0.0000 </r>
       <r>    6.4860    0.0000 </r>
       <r>    6.5769    0.0000 </r>
       <r>    6.6528    0.0000 </r>
       <r>    6.7323    0.0000 </r>
       <r>    6.7712    0.0000 </r>
       <r>    6.8031    0.0000 </r>
       <r>    6.8852    0.0000 </r>
       <r>    6.9237    0.0000 </r>
       <r>    6.9534    0.0000 </r>
      </set>
     </set>
    </set>
   </array>
  </eigenvalues>
  <separator name="orbital magnetization" >
   <v name="MAGDIPOLOUT">      0.00000000      0.00000000      0.00000000</v>
  </separator>
  <dos>
   <i name="efermi">      0.99022292 </i>
   <total>
    <array>
     <dimension dim="1">gridpoints</dimension>
     <dimension dim="2">spin</dimension>
     <field>energy</field>
     <field>total</field>
     <field>integrated</field>
     <set>
      <set comment="spin 1">
       <r>   -66.6909     0.0000     0.0000 </r>
       <r>   -66.4338     0.0000     0.0000 </r>
       <r>   -66.1766     0.0000     0.0000 </r>
       <r>   -65.9194     0.0000     0.0000 </r>
       <r>   -65.6623     0.0000     0.0000 </r>
       <r>   -65.4051     0.0000     0.0000 </r>
       <r>   -65.1479     0.0000     0.0000 </r>
       <r>   -64.8908     0.0000     0.0000 </r>
       <r>   -64.6336     0.0000     0.0000 </r>
       <r>   -64.3764     0.0000     0.0000 </r>
       <r>   -64.1192     0.0000     0.0000 </r>
       <r>   -63.8621     0.0000     0.0000 </r>
       <r>   -63.6049     0.0663     0.0171 </r>
       <r>   -63.3477    11.1725     2.8903 </r>
       <r>   -63.0906   135.7534    37.8021 </r>
       <r>   -62.8334   199.6921    89.1571 </r>
       <r>   -62.5762    89.0389   112.0553 </r>
       <r>   -62.3190    68.8687   129.7663 </r>
       <r>   -62.0619    61.7616   145.6496 </r>
       <r>   -61.8047    28.2503   152.9147 </r>
       <r>   -61.5475    21.3997   158.4181 </r>
       <r>   -61.2904     8.8353   160.6903 </r>
       <r>   -61.0332     4.5579   161.8624 </r>
       <r>   -60.7760     0.5312   161.9990 </r>
       <r>   -60.5188     0.0037   162.0000 </r>
       <r>   -60.2617     0.0000   162.0000 </r>
       <r>   -60.0045     0.0000   162.0000 </r>
       <r>   -59.7473     0.0000   162.0000 </r>
       <r>   -59.4902     0.0000   162.0000 </r>
       <r>   -59.2330     0.0000   162.0000 </r>
       <r>   -58.9758     0.0000   162.0000 </r>
       <r>   -58.7187     0.0000   162.0000 </r>
       <r>   -58.4615     0.0000   162.0000 </r>
       <r>   -58.2043     0.0000   162.0000 </r>
       <r>   -57.9471     0.0000   162.0000 </r>
       <r>   -57.6900     0.0000   162.0000 </r>
       <r>   -57.4328     0.0000   162.0000 </r>
       <r>   -57.1756     0.0000   162.0000 </r>
       <r>   -56.9185     0.0000   162.0000 </r>
       <r>   -56.6613     0.0000   162.0000 </r>
       <r>   -56.4041     0.0000   162.0000 </r>
       <r>   -56.1469     0.0000   162.0000 </r>
       <r>   -55.8898     0.0000   162.0000 </r>
       <r>   -55.6326     0.0000   162.0000 </r>
       <r>   -55.3754     0.0000   162.0000 </r>
       <r>   -55.1183     0.0000   162.0000 </r>
       <r>   -54.8611     0.0000   162.0000 </r>
       <r>   -54.6039     0.0000   162.0000 </r>
       <r>   -54.3468     0.0000   162.0000 </r>
       <r>   -54.0896     0.0000   162.0000 </r>
       <r>   -53.8324     0.0000   162.0000 </r>
       <r>   -53.5752     0.0000   162.0000 </r>
       <r>   -53.3181     0.0000   162.0000 </r>
       <r>   -53.0609     0.0000   162.0000 </r>
       <r>   -52.8037     0.0000   162.0000 </r>
       <r>   -52.5466     0.0000   162.0000 </r>
       <r>   -52.2894     0.0000   162.0000 </r>
       <r>   -52.0322     0.0000   162.0000 </r>
       <r>   -51.7750     0.0000   162.0000 </r>
       <r>   -51.5179     0.0000   162.0000 </r>
       <r>   -51.2607     0.0000   162.0000 </r>
       <r>   -51.0035     0.0000   162.0000 </r>
       <r>   -50.7464     0.0000   162.0000 </r>
       <r>   -50.4892     0.0000   162.0000 </r>
       <r>   -50.2320     0.0000   162.0000 </r>
       <r>   -49.9748     0.0000   162.0000 </r>
       <r>   -49.7177     0.0000   162.0000 </r>
       <r>   -49.4605     0.0000   162.0000 </r>
       <r>   -49.2033     0.0000   162.0000 </r>
       <r>   -48.9462     0.0000   162.0000 </r>
       <r>   -48.6890     0.0000   162.0000 </r>
       <r>   -48.4318     0.0000   162.0000 </r>
       <r>   -48.1747     0.0000   162.0000 </r>
       <r>   -47.9175     0.0000   162.0000 </r>
       <r>   -47.6603     0.0000   162.0000 </r>
       <r>   -47.4031     0.0000   162.0000 </r>
       <r>   -47.1460     0.0000   162.0000 </r>
       <r>   -46.8888     0.0000   162.0000 </r>
       <r>   -46.6316     0.0000   162.0000 </r>
       <r>   -46.3745     0.0000   162.0000 </r>
       <r>   -46.1173     0.0000   162.0000 </r>
       <r>   -45.8601     0.0000   162.0000 </r>
       <r>   -45.6029     0.0000   162.0000 </r>
       <r>   -45.3458     0.0000   162.0000 </r>
       <r>   -45.0886     0.0000   162.0000 </r>
       <r>   -44.8314     0.0000   162.0000 </r>
       <r>   -44.5743     0.0000   162.0000 </r>
       <r>   -44.3171     0.0000   162.0000 </r>
       <r>   -44.0599     0.0000   162.0000 </r>
       <r>   -43.8028     0.0000   162.0000 </r>
       <r>   -43.5456     0.0000   162.0000 </r>
       <r>   -43.2884     0.0000   162.0000 </r>
       <r>   -43.0312     0.0000   162.0000 </r>
       <r>   -42.7741     0.0000   162.0000 </r>
       <r>   -42.5169     0.0000   162.0000 </r>
       <r>   -42.2597     0.0000   162.0000 </r>
       <r>   -42.0026     0.0000   162.0000 </r>
       <r>   -41.7454     0.0000   162.0000 </r>
       <r>   -41.4882     0.0000   162.0000 </r>
       <r>   -41.2310     0.0000   162.0000 </r>
       <r>   -40.9739     0.0000   162.0000 </r>
       <r>   -40.7167     0.0000   162.0000 </r>
       <r>   -40.4595     0.0000   162.0000 </r>
       <r>   -40.2024     0.0000   162.0000 </r>
       <r>   -39.9452     0.0000   162.0000 </r>
       <r>   -39.6880     0.0000   162.0000 </r>
       <r>   -39.4308     0.0000   162.0000 </r>
       <r>   -39.1737     0.0000   162.0000 </r>
       <r>   -38.9165     0.0000   162.0000 </r>
       <r>   -38.6593     0.0000   162.0000 </r>
       <r>   -38.4022     0.0000   162.0000 </r>
       <r>   -38.1450     0.0000   162.0000 </r>
       <r>   -37.8878     0.0000   162.0000 </r>
       <r>   -37.6307     0.0000   162.0000 </r>
       <r>   -37.3735     0.0000   162.0000 </r>
       <r>   -37.1163     0.0000   162.0000 </r>
       <r>   -36.8591     0.0000   162.0000 </r>
       <r>   -36.6020     0.0000   162.0000 </r>
       <r>   -36.3448     0.0000   162.0000 </r>
       <r>   -36.0876     0.0000   162.0000 </r>
       <r>   -35.8305     0.0000   162.0000 </r>
       <r>   -35.5733     0.0000   162.0000 </r>
       <r>   -35.3161     0.0000   162.0000 </r>
       <r>   -35.0589     0.0000   162.0000 </r>
       <r>   -34.8018     0.0000   162.0000 </r>
       <r>   -34.5446     0.0000   162.0000 </r>
       <r>   -34.2874     0.0000   162.0000 </r>
       <r>   -34.0303     0.0000   162.0000 </r>
       <r>   -33.7731     0.0000   162.0000 </r>
       <r>   -33.5159     0.0000   162.0000 </r>
       <r>   -33.2588     0.0000   162.0000 </r>
       <r>   -33.0016     0.0000   162.0000 </r>
       <r>   -32.7444     0.0000   162.0000 </r>
       <r>   -32.4872     0.0000   162.0000 </r>
       <r>   -32.2301     0.0000   162.0000 </r>
       <r>   -31.9729     0.0000   162.0000 </r>
       <r>   -31.7157     0.0000   162.0000 </r>
       <r>   -31.4586     0.0000   162.0000 </r>
       <r>   -31.2014     0.0000   162.0000 </r>
       <r>   -30.9442     0.0000   162.0000 </r>
       <r>   -30.6870     0.0000   162.0000 </r>
       <r>   -30.4299     0.0000   162.0000 </r>
       <r>   -30.1727     0.0000   162.0000 </r>
       <r>   -29.9155     0.0000   162.0000 </r>
       <r>   -29.6584     0.0000   162.0000 </r>
       <r>   -29.4012     0.0000   162.0000 </r>
       <r>   -29.1440     0.0000   162.0000 </r>
       <r>   -28.8868     0.0000   162.0000 </r>
       <r>   -28.6297     0.0000   162.0000 </r>
       <r>   -28.3725     0.0000   162.0000 </r>
       <r>   -28.1153     0.0000   162.0000 </r>
       <r>   -27.8582     0.0000   162.0000 </r>
       <r>   -27.6010     0.0000   162.0000 </r>
       <r>   -27.3438     0.0000   162.0000 </r>
       <r>   -27.0867     0.0000   162.0000 </r>
       <r>   -26.8295     0.0000   162.0000 </r>
       <r>   -26.5723     0.0000   162.0000 </r>
       <r>   -26.3151     0.0000   162.0000 </r>
       <r>   -26.0580     0.0000   162.0000 </r>
       <r>   -25.8008     0.0000   162.0000 </r>
       <r>   -25.5436     0.0000   162.0000 </r>
       <r>   -25.2865     0.0000   162.0000 </r>
       <r>   -25.0293     0.0000   162.0000 </r>
       <r>   -24.7721     0.0000   162.0000 </r>
       <r>   -24.5149     0.0000   162.0000 </r>
       <r>   -24.2578     0.0000   162.0000 </r>
       <r>   -24.0006     0.0000   162.0000 </r>
       <r>   -23.7434     0.0000   162.0000 </r>
       <r>   -23.4863     0.0000   162.0000 </r>
       <r>   -23.2291     0.0000   162.0000 </r>
       <r>   -22.9719     0.0000   162.0000 </r>
       <r>   -22.7147     0.0000   162.0000 </r>
       <r>   -22.4576     0.0000   162.0000 </r>
       <r>   -22.2004     0.0000   162.0000 </r>
       <r>   -21.9432     0.0000   162.0000 </r>
       <r>   -21.6861     0.0000   162.0000 </r>
       <r>   -21.4289     0.0000   162.0000 </r>
       <r>   -21.1717     0.0000   162.0000 </r>
       <r>   -20.9146     0.0000   162.0000 </r>
       <r>   -20.6574     0.0000   162.0000 </r>
       <r>   -20.4002     0.0000   162.0000 </r>
       <r>   -20.1430     0.0000   162.0000 </r>
       <r>   -19.8859     0.0000   162.0000 </r>
       <r>   -19.6287     0.0000   162.0000 </r>
       <r>   -19.3715     0.0000   162.0000 </r>
       <r>   -19.1144     0.0000   162.0000 </r>
       <r>   -18.8572     0.0000   162.0000 </r>
       <r>   -18.6000     0.0000   162.0000 </r>
       <r>   -18.3428     0.0000   162.0000 </r>
       <r>   -18.0857     0.0000   162.0000 </r>
       <r>   -17.8285     0.0000   162.0000 </r>
       <r>   -17.5713     0.0000   162.0000 </r>
       <r>   -17.3142     0.0000   162.0000 </r>
       <r>   -17.0570     0.0000   162.0000 </r>
       <r>   -16.7998     0.0000   162.0000 </r>
       <r>   -16.5427     0.0000   162.0000 </r>
       <r>   -16.2855     0.0000   162.0000 </r>
       <r>   -16.0283     0.0000   162.0000 </r>
       <r>   -15.7711     0.0000   162.0000 </r>
       <r>   -15.5140     0.0000   162.0000 </r>
       <r>   -15.2568     0.0000   162.0000 </r>
       <r>   -14.9996     0.0000   162.0000 </r>
       <r>   -14.7425     0.0191   162.0049 </r>
       <r>   -14.4853     1.2253   162.3200 </r>
       <r>   -14.2281     4.9387   163.5901 </r>
       <r>   -13.9709     1.6076   164.0035 </r>
       <r>   -13.7138     2.3257   164.6016 </r>
       <r>   -13.4566    11.5101   167.5617 </r>
       <r>   -13.1994    19.7974   172.6530 </r>
       <r>   -12.9423    24.1315   178.8589 </r>
       <r>   -12.6851    16.7826   183.1749 </r>
       <r>   -12.4279    26.1220   189.8927 </r>
       <r>   -12.1707    23.5698   195.9542 </r>
       <r>   -11.9136    25.9685   202.6325 </r>
       <r>   -11.6564    19.9180   207.7548 </r>
       <r>   -11.3992    14.0549   211.3693 </r>
       <r>   -11.1421     7.6184   213.3286 </r>
       <r>   -10.8849     5.1582   214.6551 </r>
       <r>   -10.6277     4.6093   215.8405 </r>
       <r>   -10.3706     0.6154   215.9987 </r>
       <r>   -10.1134     0.0049   216.0000 </r>
       <r>    -9.8562     0.0000   216.0000 </r>
       <r>    -9.5990     0.0000   216.0000 </r>
       <r>    -9.3419     0.0000   216.0000 </r>
       <r>    -9.0847     0.0000   216.0000 </r>
       <r>    -8.8275     0.0000   216.0000 </r>
       <r>    -8.5704     0.0000   216.0000 </r>
       <r>    -8.3132     0.0000   216.0000 </r>
       <r>    -8.0560     0.0000   216.0000 </r>
       <r>    -7.7988     0.0000   216.0000 </r>
       <r>    -7.5417     0.0000   216.0000 </r>
       <r>    -7.2845     0.0000   216.0000 </r>
       <r>    -7.0273     0.0000   216.0000 </r>
       <r>    -6.7702     0.0000   216.0000 </r>
       <r>    -6.5130     0.0048   216.0012 </r>
       <r>    -6.2558     0.6783   216.1757 </r>
       <r>    -5.9987     7.4952   218.1032 </r>
       <r>    -5.7415    16.6135   222.3757 </r>
       <r>    -5.4843    17.2181   226.8037 </r>
       <r>    -5.2271    30.2411   234.5808 </r>
       <r>    -4.9700    42.5865   245.5329 </r>
       <r>    -4.7128    34.2677   254.3455 </r>
       <r>    -4.4556    35.7148   263.5303 </r>
       <r>    -4.1985    26.3436   270.3051 </r>
       <r>    -3.9413    28.0179   277.5105 </r>
       <r>    -3.6841    37.4608   287.1443 </r>
       <r>    -3.4269    44.1109   298.4883 </r>
       <r>    -3.1698    53.7571   312.3131 </r>
       <r>    -2.9126    56.9743   326.9652 </r>
       <r>    -2.6554    48.0263   339.3161 </r>
       <r>    -2.3983    36.9430   348.8168 </r>
       <r>    -2.1411    41.6739   359.5341 </r>
       <r>    -1.8839    38.5750   369.4545 </r>
       <r>    -1.6267    39.7023   379.6647 </r>
       <r>    -1.3696    50.1679   392.5665 </r>
       <r>    -1.1124    73.8429   411.5567 </r>
       <r>    -0.8552    99.3743   437.1128 </r>
       <r>    -0.5981   131.3241   470.8856 </r>
       <r>    -0.3409   120.9953   502.0020 </r>
       <r>    -0.0837    96.1249   526.7225 </r>
       <r>     0.1734    75.4855   546.1352 </r>
       <r>     0.4306    75.7027   565.6037 </r>
       <r>     0.6878    63.9868   582.0592 </r>
       <r>     0.9450    39.9974   592.3454 </r>
       <r>     1.2021    40.8229   602.8438 </r>
       <r>     1.4593    42.7472   613.8372 </r>
       <r>     1.7165    42.8950   624.8685 </r>
       <r>     1.9736    51.9223   638.2214 </r>
       <r>     2.2308    35.5001   647.3510 </r>
       <r>     2.4880    13.9248   650.9320 </r>
       <r>     2.7452     9.8553   653.4665 </r>
       <r>     3.0023     2.0690   653.9986 </r>
       <r>     3.2595     1.6091   654.4124 </r>
       <r>     3.5167     6.5655   656.1009 </r>
       <r>     3.7738     6.1745   657.6888 </r>
       <r>     4.0310     1.3162   658.0272 </r>
       <r>     4.2882     3.8082   659.0066 </r>
       <r>     4.5453    13.0751   662.3691 </r>
       <r>     4.8025    13.6291   665.8741 </r>
       <r>     5.0597    17.5119   670.3777 </r>
       <r>     5.3169    18.0895   675.0298 </r>
       <r>     5.5740    20.5748   680.3210 </r>
       <r>     5.8312    20.0947   685.4888 </r>
       <r>     6.0884    25.6214   692.0778 </r>
       <r>     6.3455    26.6121   698.9217 </r>
       <r>     6.6027    27.4625   705.9843 </r>
       <r>     6.8599    32.0772   714.2336 </r>
       <r>     7.1171    20.2123   719.4316 </r>
       <r>     7.3742     2.1908   719.9950 </r>
       <r>     7.6314     0.0194   720.0000 </r>
       <r>     7.8886     0.0000   720.0000 </r>
       <r>     8.1457     0.0000   720.0000 </r>
       <r>     8.4029     0.0000   720.0000 </r>
       <r>     8.6601     0.0000   720.0000 </r>
       <r>     8.9173     0.0000   720.0000 </r>
       <r>     9.1744     0.0000   720.0000 </r>
       <r>     9.4316     0.0000   720.0000 </r>
       <r>     9.6888     0.0000   720.0000 </r>
       <r>     9.9459     0.0000   720.0000 </r>
       <r>    10.2031     0.0000   720.0000 </r>
       <r>    10.4603     0.0000   720.0000 </r>
      </set>
     </set>
    </array>
   </total>
  </dos>
 </calculation>
 <structure name="finalpos" >
  <crystal>
   <varray name="basis" >
    <v>       8.42818148      -4.55101034       0.00000000 </v>
    <v>       0.00000000      10.07973298       0.00000000 </v>
    <v>       0.00000000       0.00000000      19.01113574 </v>
   </varray>
   <i name="volume">   1615.06858132 </i>
   <varray name="rec_basis" >
    <v>       0.11864956       0.00000000       0.00000000 </v>
    <v>       0.05357040       0.09920898       0.00000000 </v>
    <v>       0.00000000       0.00000000       0.05260075 </v>
   </varray>
  </crystal>
  <varray name="positions" >
   <v>       0.64527023       0.91524316       0.10295923 </v>
   <v>       0.58263032       0.78996333       0.25739808 </v>
   <v>       0.51999040       0.66468351       0.41183694 </v>
   <v>       0.33281687       0.29033643       0.05147962 </v>
   <v>       0.27017695       0.16505661       0.20591847 </v>
   <v>       0.20753704       0.03977678       0.36035732 </v>
   <v>       0.02036350       0.66542971       0.00000000 </v>
   <v>       0.95772359       0.54014988       0.15443885 </v>
   <v>       0.89508368       0.41487006       0.30887770 </v>
   <v>       0.83244377       0.28959023       0.46331655 </v>
   <v>       0.59918016       0.55885702       0.21659441 </v>
   <v>       0.53654024       0.43357719       0.37103327 </v>
   <v>       0.34936671       0.05923012       0.01067595 </v>
   <v>       0.28672679       0.93395029       0.16511480 </v>
   <v>       0.22408688       0.80867046       0.31955365 </v>
   <v>       0.16144697       0.68339064       0.47399250 </v>
   <v>       0.97427343       0.30904357       0.11363518 </v>
   <v>       0.91163352       0.18376374       0.26807403 </v>
   <v>       0.90947623       0.91524316       0.10295923 </v>
   <v>       0.84683632       0.78996333       0.25739808 </v>
   <v>       0.78419640       0.66468351       0.41183694 </v>
   <v>       0.59702287       0.29033643       0.05147962 </v>
   <v>       0.53438295       0.16505661       0.20591847 </v>
   <v>       0.47174304       0.03977678       0.36035732 </v>
   <v>       0.22192959       0.54014988       0.15443885 </v>
   <v>       0.15928968       0.41487006       0.30887770 </v>
   <v>       0.09664977       0.28959023       0.46331655 </v>
   <v>       0.82518168       0.67443006       0.15301029 </v>
   <v>       0.76254177       0.54915023       0.30744914 </v>
   <v>       0.69990185       0.42387040       0.46188799 </v>
   <v>       0.51272831       0.04952333       0.10153067 </v>
   <v>       0.45008840       0.92424350       0.25596953 </v>
   <v>       0.38744849       0.79896368       0.41040838 </v>
   <v>       0.20027495       0.42461661       0.05005106 </v>
   <v>       0.13763504       0.29933678       0.20448991 </v>
   <v>       0.07499513       0.17405695       0.35892876 </v>
   <v>       0.86674764       0.09399199       0.05052930 </v>
   <v>       0.80410773       0.96871216       0.20496815 </v>
   <v>       0.74146782       0.84343234       0.35940701 </v>
   <v>       0.49165437       0.34380544       0.15348854 </v>
   <v>       0.42901446       0.21852561       0.30792739 </v>
   <v>       0.36637454       0.09324579       0.46236624 </v>
   <v>       0.17920101       0.71889871       0.10200892 </v>
   <v>       0.11656109       0.59361889       0.25644777 </v>
   <v>       0.05392118       0.46833906       0.41088662 </v>
   <v>       0.48875168       0.67443006       0.15301029 </v>
   <v>       0.42611177       0.54915023       0.30744914 </v>
   <v>       0.36347185       0.42387040       0.46188799 </v>
   <v>       0.17629831       0.04952333       0.10153067 </v>
   <v>       0.11365840       0.92424350       0.25596953 </v>
   <v>       0.05101849       0.79896368       0.41040838 </v>
   <v>       0.86384495       0.42461661       0.05005106 </v>
   <v>       0.80120504       0.29933678       0.20448991 </v>
   <v>       0.73856513       0.17405695       0.35892876 </v>
  </varray>
 </structure>
</modeling>
