"Millerite NiS"                         
           1
     8.428181   -4.551010    0.000000
     0.000000   10.079733    0.000000
     0.000000    0.000000   19.011136
   Ni   S 
    27    27
Direct configuration=     1
   0.64527023  0.91524316  0.10295923
   0.58263032  0.78996333  0.25739808
   0.51999040  0.66468351  0.41183694
   0.33281687  0.29033643  0.05147962
   0.27017695  0.16505661  0.20591847
   0.20753704  0.03977678  0.36035732
   0.02036350  0.66542971  0.00000000
   0.95772359  0.54014988  0.15443885
   0.89508368  0.41487006  0.30887770
   0.83244377  0.28959023  0.46331655
   0.59918016  0.55885702  0.21659441
   0.53654024  0.43357719  0.37103327
   0.34936671  0.05923012  0.01067595
   0.28672679  0.93395029  0.16511480
   0.22408688  0.80867046  0.31955365
   0.16144697  0.68339064  0.47399250
   0.97427343  0.30904357  0.11363518
   0.91163352  0.18376374  0.26807403
   0.90947623  0.91524316  0.10295923
   0.84683632  0.78996333  0.25739808
   0.78419640  0.66468351  0.41183694
   0.59702287  0.29033643  0.05147962
   0.53438295  0.16505661  0.20591847
   0.47174304  0.03977678  0.36035732
   0.22192959  0.54014988  0.15443885
   0.15928968  0.41487006  0.30887770
   0.09664977  0.28959023  0.46331655
   0.82518168  0.67443006  0.15301029
   0.76254177  0.54915023  0.30744914
   0.69990185  0.42387040  0.46188799
   0.51272831  0.04952333  0.10153067
   0.45008840  0.92424350  0.25596953
   0.38744849  0.79896368  0.41040838
   0.20027495  0.42461661  0.05005106
   0.13763504  0.29933678  0.20448991
   0.07499513  0.17405695  0.35892876
   0.86674764  0.09399199  0.05052930
   0.80410773  0.96871216  0.20496815
   0.74146782  0.84343234  0.35940701
   0.49165437  0.34380544  0.15348854
   0.42901446  0.21852561  0.30792739
   0.36637454  0.09324579  0.46236624
   0.17920101  0.71889871  0.10200892
   0.11656109  0.59361889  0.25644777
   0.05392118  0.46833906  0.41088662
   0.48875168  0.67443006  0.15301029
   0.42611177  0.54915023  0.30744914
   0.36347185  0.42387040  0.46188799
   0.17629831  0.04952333  0.10153067
   0.11365840  0.92424350  0.25596953
   0.05101849  0.79896368  0.41040838
   0.86384495  0.42461661  0.05005106
   0.80120504  0.29933678  0.20448991
   0.73856513  0.17405695  0.35892876
