 vasp.5.4.4.18Apr17-6-g9f103f2a35 (build Aug 13 2019 17:33:20) gamma-only       
  
 executed on             LinuxIFC date 2020.05.11  18:24:49
 running on   12 total cores
 distrk:  each k-point on   12 cores,    1 groups
 distr:  one band on NCORES_PER_BAND=   6 cores,    2 groups


--------------------------------------------------------------------------------------------------------


 INCAR:
 POTCAR:    PAW_PBE Ni_pv 06Sep2000               
 POTCAR:    PAW_PBE S 06Sep2000                   
 POTCAR:    PAW_PBE Ni_pv 06Sep2000               
   VRHFIN =Ni:                                                                  
   LEXCH  = PE                                                                  
   EATOM  =  3501.1230 eV,  257.3253 Ry                                         
                                                                                
   TITEL  = PAW_PBE Ni_pv 06Sep2000                                             
   LULTRA =        F    use ultrasoft PP ?                                      
   IUNSCR =        1    unscreen: 0-lin 1-nonlin 2-no                           
   RPACOR =    1.500    partial core radius                                     
   POMASS =   58.690; ZVAL   =   16.000    mass and valenz                      
   RCORE  =    2.000    outmost cutoff radius                                   
   RWIGS  =    2.000; RWIGS  =    1.058    wigner-seitz radius (au A)           
   ENMAX  =  367.986; ENMIN  =  275.989 eV                                      
   RCLOC  =    1.301    cutoff for local pot                                    
   LCOR   =        T    correct aug charges                                     
   LPAW   =        T    paw PP                                                  
   EAUG   =  703.443                                                            
   DEXC   =    0.000                                                            
   RMAX   =    2.041    core radius for proj-oper                               
   RAUG   =    1.300    factor for augmentation sphere                          
   RDEP   =    2.103    radius for radial grids                                 
   RDEPT  =    1.618    core radius for aug-charge                              
                                                                                
   Atomic configuration                                                         
    8 entries                                                                   
     n  l   j            E        occ.                                          
     1  0  0.50     -8206.4253   2.0000                                         
     2  0  0.50      -976.1748   2.0000                                         
     2  1  1.50      -839.0571   6.0000                                         
     3  0  0.50      -105.9991   2.0000                                         
     3  1  1.50       -66.4603   6.0000                                         
     3  2  2.50        -4.6458   9.0000                                         
     4  0  0.50        -4.4926   1.0000                                         
     4  3  2.50        -1.3606   0.0000                                         
   Description                                                                  
     l       E           TYP  RCUT    TYP  RCUT                                 
     1    -66.4602962     23  1.700                                             
     1     -1.3605826     23  1.700                                             
     2     -4.6457867     23  2.000                                             
     2     -6.0063693     23  2.000                                             
     0     -4.4925576     23  1.900                                             
     0     16.3626226     23  1.900                                             
  local pseudopotential read in
  partial core-charges read in
  partial kinetic energy density read in
  atomic valenz-charges read in
  non local Contribution for L=           1  read in
    real space projection operators read in
  non local Contribution for L=           1  read in
    real space projection operators read in
  non local Contribution for L=           2  read in
    real space projection operators read in
  non local Contribution for L=           2  read in
    real space projection operators read in
  non local Contribution for L=           0  read in
    real space projection operators read in
  non local Contribution for L=           0  read in
    real space projection operators read in
    PAW grid and wavefunctions read in
 
   number of l-projection  operators is LMAX  =           6
   number of lm-projection operators is LMMAX =          18
 
 POTCAR:    PAW_PBE S 06Sep2000                   
   VRHFIN =S : s2p4                                                             
   LEXCH  = PE                                                                  
   EATOM  =   276.8230 eV,   20.3459 Ry                                         
                                                                                
   TITEL  = PAW_PBE S 06Sep2000                                                 
   LULTRA =        F    use ultrasoft PP ?                                      
   IUNSCR =        1    unscreen: 0-lin 1-nonlin 2-no                           
   RPACOR =    1.500    partial core radius                                     
   POMASS =   32.066; ZVAL   =    6.000    mass and valenz                      
   RCORE  =    1.900    outmost cutoff radius                                   
   RWIGS  =    2.200; RWIGS  =    1.164    wigner-seitz radius (au A)           
   ENMAX  =  258.689; ENMIN  =  194.016 eV                                      
   ICORE  =        2    local potential                                         
   LCOR   =        T    correct aug charges                                     
   LPAW   =        T    paw PP                                                  
   EAUG   =  335.092                                                            
   DEXC   =    0.000                                                            
   RMAX   =    1.942    core radius for proj-oper                               
   RAUG   =    1.300    factor for augmentation sphere                          
   RDEP   =    1.954    radius for radial grids                                 
   RDEPT  =    1.744    core radius for aug-charge                              
                                                                                
   Atomic configuration                                                         
    6 entries                                                                   
     n  l   j            E        occ.                                          
     1  0  0.50     -2405.8406   2.0000                                         
     2  0  0.50      -211.7007   2.0000                                         
     2  1  1.50      -156.4958   6.0000                                         
     3  0  0.50       -17.2562   2.0000                                         
     3  1  0.50        -7.0085   4.0000                                         
     3  2  1.50        -6.8029   0.0000                                         
   Description                                                                  
     l       E           TYP  RCUT    TYP  RCUT                                 
     0    -17.2561641     23  1.900                                             
     0    -15.8743224     23  1.900                                             
     1     -7.0085400     23  1.900                                             
     1     -2.7779785     23  1.900                                             
     2     -6.8029130     23  1.900                                             
  local pseudopotential read in
  partial core-charges read in
  partial kinetic energy density read in
  atomic valenz-charges read in
  non local Contribution for L=           0  read in
    real space projection operators read in
  non local Contribution for L=           0  read in
    real space projection operators read in
  non local Contribution for L=           1  read in
    real space projection operators read in
  non local Contribution for L=           1  read in
    real space projection operators read in
    PAW grid and wavefunctions read in
 
   number of l-projection  operators is LMAX  =           4
   number of lm-projection operators is LMMAX =           8
 
 Optimization of the real space projectors (new method)

 maximal supplied QI-value         = 18.90
 optimisation between [QCUT,QGAM] = [ 10.77, 21.73] = [ 32.49,132.25] Ry 
 Optimized for a Real-space Cutoff    1.38 Angstroem

   l    n(q)    QCUT    max X(q) W(low)/X(q) W(high)/X(q)  e(spline) 
   1      8    10.771     2.836    0.40E-04    0.29E-04    0.12E-06
   1      8    10.771     4.023    0.10E-03    0.48E-04    0.29E-06
   2      8    10.771    73.368    0.42E-03    0.97E-04    0.44E-06
   2      8    10.771    69.010    0.42E-03    0.99E-04    0.45E-06
   0      9    10.771    54.797    0.10E-03    0.56E-04    0.74E-07
   0      9    10.771    24.266    0.89E-04    0.49E-04    0.67E-07
 Optimization of the real space projectors (new method)

 maximal supplied QI-value         = 19.84
 optimisation between [QCUT,QGAM] = [ 10.71, 21.63] = [ 32.15,130.99] Ry 
 Optimized for a Real-space Cutoff    1.19 Angstroem

   l    n(q)    QCUT    max X(q) W(low)/X(q) W(high)/X(q)  e(spline) 
   0      8    10.715   187.594    0.41E-03    0.53E-04    0.66E-07
   0      8    10.715   164.243    0.41E-03    0.53E-04    0.65E-07
   1      7    10.715    67.533    0.19E-03    0.59E-03    0.68E-07
   1      7    10.715    50.729    0.19E-03    0.58E-03    0.67E-07
  PAW_PBE Ni_pv 06Sep2000               :
 energy of atom  1       EATOM=-3501.1230
 kinetic energy error for atom=    0.0925 (will be added to EATOM!!)
  PAW_PBE S 06Sep2000                   :
 energy of atom  2       EATOM= -276.8230
 kinetic energy error for atom=    0.0033 (will be added to EATOM!!)
 
 
 POSCAR: Type_036 Type_136                       
  positions in cartesian coordinates
  No initial velocities read in
 exchange correlation table for  LEXCH =        8
   RHO(1)=    0.500       N(1)  =     2000
   RHO(2)=  100.500       N(2)  =     4000
 


--------------------------------------------------------------------------------------------------------


 ion  position               nearest neighbor table
   1  0.764  0.077  0.079-  63 2.05  49 2.06  64 2.16  41 2.18   2 2.41  35 2.52
   2  0.738  0.141  0.221-  42 2.02  64 2.09  50 2.25  41 2.27  22 2.38   1 2.41
   3  0.216  0.669  0.096-  43 2.02  44 2.11  51 2.17   4 2.39  61 2.48  26 2.49
   4  0.297  0.645  0.216-  62 2.13  52 2.14  44 2.25  51 2.26  61 2.26   3 2.39  27 2.53  14 2.53

   5  0.386  0.170  0.125-  45 2.04  46 2.14  53 2.19   6 2.44  29 2.49  67 2.51
   6  0.470  0.145  0.248-  68 2.09  54 2.09  46 2.25  53 2.26  67 2.26   5 2.44  30 2.53  17 2.53

   7  0.952  0.645  0.152-  56 2.02  66 2.09  55 2.13  47 2.25  65 2.36   8 2.49  31 2.53  18 2.53

   8  0.973  0.660  0.305-  55 2.05  65 2.05  48 2.06   7 2.49
   9  0.125  0.145  0.184-  71 2.09  57 2.11  37 2.15  58 2.36  72 2.36  38 2.41  33 2.53  20 2.53

  10  0.149  0.145  0.348-  58 2.01  72 2.01  37 2.06
  11  0.570  0.646  0.160-  39 2.00  40 2.17  59 2.20  69 2.21  12 2.29
  12  0.642  0.645  0.280-  60 2.03  70 2.03  40 2.25  59 2.26  69 2.26  11 2.29  36 2.53  23 2.53

  13  0.415  0.407  0.059-  53 2.09  61 2.10  14 2.36  26 2.49  39 2.53
  14  0.425  0.513  0.191-  62 2.20  53 2.25  39 2.26  61 2.26  40 2.36  13 2.36  15 2.48  27 2.53
                             4 2.53
  15  0.454  0.485  0.340-  54 2.03  62 2.04  40 2.06  14 2.48
  16  0.629  0.938  0.079-  63 2.04  41 2.10  59 2.11  17 2.49  35 2.51
  17  0.597  0.013  0.223-  42 2.09  68 2.13  59 2.25  67 2.26  41 2.26  16 2.49   6 2.53  30 2.53

  18  0.080  0.513  0.127-  43 2.06  57 2.11  66 2.12  44 2.36  65 2.36   7 2.53  31 2.53
  19  0.112  0.504  0.291-  65 2.02  44 2.04  58 2.11
  20  0.252  0.013  0.159-  45 2.06  71 2.09  51 2.25  46 2.36  72 2.36   9 2.53  33 2.53
  21  0.286  0.999  0.321-  72 2.03  46 2.04  52 2.09
  22  0.736  0.334  0.128-  49 2.05  69 2.11  50 2.11  41 2.36   2 2.38
  23  0.770  0.513  0.254-  70 2.01  48 2.11  50 2.25  69 2.26  47 2.26  12 2.53  36 2.53
  24  0.890  0.291  0.101-  49 2.03  38 2.10  66 2.10  50 2.11  25 2.40
  25  0.959  0.276  0.231-  38 2.02  37 2.05  65 2.07  50 2.23  24 2.40
  26  0.358  0.646  0.058-  39 2.02  51 2.04  61 2.05   3 2.49  13 2.49
  27  0.425  0.777  0.191-  52 2.17  67 2.25  39 2.26  51 2.26  40 2.36  28 2.47  14 2.53   4 2.53

  28  0.453  0.805  0.340-  68 2.02  52 2.04  40 2.05  27 2.47
  29  0.528  0.144  0.088-  67 2.03  53 2.06  41 2.06   5 2.49
  30  0.597  0.277  0.223-  42 2.09  54 2.12  69 2.25  53 2.26  41 2.26   6 2.53  17 2.53
  31  0.080  0.777  0.127-  56 2.04  43 2.10  71 2.10  55 2.15  44 2.36  32 2.50   7 2.53  18 2.53

  32  0.102  0.795  0.280-  55 2.05  44 2.06  72 2.12  31 2.50
  33  0.252  0.277  0.159-  45 2.06  57 2.09  61 2.25  46 2.36  58 2.36   9 2.53  20 2.53
  34  0.287  0.294  0.321-  58 2.04  46 2.04  62 2.09
  35  0.759  0.818  0.105-  63 2.04  47 2.08  64 2.09  59 2.14  36 2.46  16 2.51   1 2.52
  36  0.770  0.777  0.254-  60 2.01  48 2.10  64 2.18  59 2.26  47 2.26  35 2.46  12 2.53  23 2.53

  37  0.042  0.150  0.286-  25 2.05  10 2.06   9 2.15  38 2.70  58 2.72  72 2.78
  38  0.995  0.181  0.127-  25 2.02  24 2.10   9 2.41  37 2.70
  39  0.474  0.645  0.087-  11 2.00  26 2.02  27 2.26  14 2.26  13 2.53
  40  0.509  0.645  0.278-  28 2.05  15 2.06  11 2.17  12 2.25  27 2.36  14 2.36
  41  0.647  0.145  0.119-  29 2.06  16 2.10   1 2.18  30 2.26  17 2.26   2 2.27  22 2.36
  42  0.652  0.146  0.308-   2 2.02  30 2.09  17 2.09  54 2.78
  43  0.114  0.642  0.032-   3 2.02  18 2.06  31 2.10  56 2.69
  44  0.164  0.645  0.214-  19 2.04  32 2.06   3 2.11   4 2.25  31 2.36  18 2.36
  45  0.282  0.145  0.063-   5 2.04  20 2.06  33 2.06
  46  0.336  0.145  0.246-  21 2.04  34 2.04   5 2.14   6 2.25  33 2.36  20 2.36
  47  0.819  0.645  0.151-  35 2.08   7 2.25  36 2.26  23 2.26  48 2.68
  48  0.852  0.646  0.313-   8 2.06  36 2.10  23 2.11  47 2.68
  49  0.796  0.264  0.026-  24 2.03  22 2.05   1 2.06
  50  0.829  0.314  0.214-  22 2.11  24 2.11  25 2.23  23 2.25   2 2.25
  51  0.312  0.814  0.119-  26 2.04   3 2.17  20 2.25   4 2.26  27 2.26
  52  0.342  0.810  0.292-  28 2.04  21 2.09   4 2.14  27 2.17
  53  0.484  0.314  0.151-  29 2.06  13 2.09   5 2.19  14 2.25  30 2.26   6 2.26
  54  0.516  0.306  0.321-  15 2.03   6 2.09  30 2.12  42 2.78
  55  0.995  0.818  0.223-   8 2.05  32 2.05   7 2.13  31 2.15  56 2.68
  56  0.978  0.779  0.059-   7 2.02  31 2.04  55 2.68  43 2.69
  57  0.141  0.324  0.110-  33 2.09  18 2.11   9 2.11  58 2.77
  58  0.174  0.314  0.278-  10 2.01  34 2.04  19 2.11   9 2.36  33 2.36  37 2.72  57 2.77
  59  0.657  0.814  0.183-  16 2.11  35 2.14  11 2.20  17 2.25  36 2.26  12 2.26
  60  0.697  0.787  0.353-  36 2.01  12 2.03  70 2.75
  61  0.312  0.477  0.119-  26 2.05  13 2.10  33 2.25   4 2.26  14 2.26   3 2.48
  62  0.342  0.484  0.294-  15 2.04  34 2.09   4 2.13  14 2.20
  63  0.724  0.924  0.001-  16 2.04  35 2.04   1 2.05
  64  0.804  0.965  0.187-  35 2.09   2 2.09   1 2.16  36 2.18
  65  0.001  0.477  0.246-  19 2.02   8 2.05  25 2.07   7 2.36  18 2.36  66 2.72
  66  0.965  0.463  0.082-   7 2.09  24 2.10  18 2.12  65 2.72
  67  0.484  0.977  0.151-  29 2.03  27 2.25  17 2.26   6 2.26   5 2.51  68 2.79
  68  0.515  0.983  0.321-  28 2.02   6 2.09  17 2.13  67 2.79
  69  0.657  0.477  0.183-  22 2.11  11 2.21  30 2.25  23 2.26  12 2.26
  70  0.696  0.499  0.351-  23 2.01  12 2.03  60 2.75
  71  0.140  0.968  0.111-  20 2.09   9 2.09  31 2.10  72 2.77
  72  0.174  0.977  0.278-  10 2.01  21 2.03  32 2.12   9 2.36  20 2.36  71 2.77  37 2.78
 
  LATTYP: Found a simple orthorhombic cell.
 ALAT       =     9.5784100000
 B/A-ratio  =     1.6880763216
 C/A-ratio  =     1.7627867312
  
  Lattice vectors:
  
 A1 = (   0.0000000000,   9.5784100000,   0.0000000000)
 A2 = (   0.0000000000,   0.0000000000, -16.1690871197)
 A3 = ( -16.8846940542,   0.0000000000,   0.0000000000)


Analysis of symmetry for initial positions (statically):
=====================================================================
 Subroutine PRICEL returns:
 Original cell was already a primitive cell.
 

 Routine SETGRP: Setting up the symmetry group for a 
 simple orthorhombic supercell.


 Subroutine GETGRP returns: Found  1 space group operations
 (whereof  1 operations were pure point group operations)
 out of a pool of  8 trial point group operations.


The static configuration has the point symmetry C_1 .


Analysis of symmetry for dynamics (positions and initial velocities):
=====================================================================
 Subroutine PRICEL returns:
 Original cell was already a primitive cell.
 

 Routine SETGRP: Setting up the symmetry group for a 
 simple orthorhombic supercell.


 Subroutine GETGRP returns: Found  1 space group operations
 (whereof  1 operations were pure point group operations)
 out of a pool of  8 trial point group operations.


The dynamic configuration has the point symmetry C_1 .


 Subroutine INISYM returns: Found  1 space group operations
 (whereof  1 operations are pure point group operations),
 and found     1 'primitive' translations

 
 
 KPOINTS: gamma-point-only calculation. no periodi

Automatic generation of k-mesh.
Space group operators:
 irot       det(A)        alpha          n_x          n_y          n_z        tau_x        tau_y        tau_z
    1     1.000000     0.000000     1.000000     0.000000     0.000000     0.000000     0.000000     0.000000
 
 Subroutine IBZKPT returns following result:
 ===========================================
 
 Found      1 irreducible k-points:
 
 Following reciprocal coordinates:
            Coordinates               Weight
  0.000000  0.000000  0.000000      1.000000
 
 Following cartesian coordinates:
            Coordinates               Weight
  0.000000  0.000000  0.000000      1.000000
 


--------------------------------------------------------------------------------------------------------




 Dimension of arrays:
   k-points           NKPTS =      1   k-points in BZ     NKDIM =      1   number of bands    NBANDS=    476
   number of dos      NEDOS =    301   number of ions     NIONS =     72
   non local maximal  LDIM  =      6   non local SUM 2l+1 LMDIM =     18
   total plane-waves  NPLWV = 378000
   max r-space proj   IRMAX =   1644   max aug-charges    IRDMAX=   4753
   dimension x,y,z NGX =    90 NGY =   50 NGZ =   84
   dimension x,y,z NGXF=   180 NGYF=  100 NGZF=  168
   support grid    NGXF=   180 NGYF=  100 NGZF=  168
   ions per type =              36  36
   NGX,Y,Z   is equivalent  to a cutoff of   8.86,  8.68,  8.64 a.u.
   NGXF,Y,Z  is equivalent  to a cutoff of  17.72, 17.36, 17.27 a.u.

 SYSTEM =  "Millerite NiS"                         
 POSCAR =  Type_036 Type_136                       

 Startparameter for this run:
   NWRITE =      2    write-flag & timer
   PREC   = normal    normal or accurate (medium, high low for compatibility)
   ISTART =      0    job   : 0-new  1-cont  2-samecut
   ICHARG =      2    charge: 1-file 2-atom 10-const
   ISPIN  =      1    spin polarized calculation?
   LNONCOLLINEAR =      F non collinear calculations
   LSORBIT =      F    spin-orbit coupling
   INIWAV =      1    electr: 0-lowe 1-rand  2-diag
   LASPH  =      F    aspherical Exc in radial PAW
   METAGGA=      F    non-selfconsistent MetaGGA calc.

 Electronic Relaxation 1
   ENCUT  =  450.0 eV  33.07 Ry    5.75 a.u.  29.20 16.57 27.97*2*pi/ulx,y,z
   ENINI  =  450.0     initial cutoff
   ENAUG  =  703.4 eV  augmentation charge cutoff
   NELM   =    100;   NELMIN=  2; NELMDL= -5     # of ELM steps 
   EDIFF  = 0.1E-03   stopping-criterion for ELM
   LREAL  =      T    real-space projection
   NLSPLINE    = F    spline interpolate recip. space projectors
   LCOMPAT=      F    compatible to vasp.4.4
   GGA_COMPAT  = T    GGA compatible to vasp.4.4-vasp.4.6
   LMAXPAW     = -100 max onsite density
   LMAXMIX     =    2 max onsite mixed and CHGCAR
   VOSKOWN=      0    Vosko Wilk Nusair interpolation
   ROPT   =   -0.00050  -0.00050
 Ionic relaxation
   EDIFFG = 0.1E-02   stopping-criterion for IOM
   NSW    =      0    number of steps for IOM
   NBLOCK =      1;   KBLOCK =      1    inner block; outer block 
   IBRION =     -1    ionic relax: 0-MD 1-quasi-New 2-CG
   NFREE  =      0    steps in history (QN), initial steepest desc. (CG)
   ISIF   =      2    stress and relaxation
   IWAVPR =     10    prediction:  0-non 1-charg 2-wave 3-comb
   ISYM   =      2    0-nonsym 1-usesym 2-fastsym
   LCORR  =      T    Harris-Foulkes like correction to forces

   POTIM  = 0.5000    time-step for ionic-motion
   TEIN   =    0.0    initial temperature
   TEBEG  =    0.0;   TEEND  =   0.0 temperature during run
   SMASS  =  -3.00    Nose mass-parameter (am)
   estimated Nose-frequenzy (Omega)   =  0.10E-29 period in steps =****** mass=  -0.652E-26a.u.
   SCALEE = 1.0000    scale energy and forces
   NPACO  =    256;   APACO  = 16.0  distance and # of slots for P.C.
   PSTRESS=    0.0 pullay stress

  Mass of Ions in am
   POMASS =  58.69 32.07
  Ionic Valenz
   ZVAL   =  16.00  6.00
  Atomic Wigner-Seitz radii
   RWIGS  =  -1.00 -1.00
  virtual crystal weights 
   VCA    =   1.00  1.00
   NELECT =     792.0000    total number of electrons
   NUPDOWN=      -1.0000    fix difference up-down

 DOS related values:
   EMIN   =  10.00;   EMAX   =-10.00  energy-range for DOS
   EFERMI =   0.00
   ISMEAR =     0;   SIGMA  =   0.20  broadening in eV -4-tet -1-fermi 0-gaus

 Electronic relaxation 2 (details)
   IALGO  =     38    algorithm
   LDIAG  =      T    sub-space diagonalisation (order eigenvalues)
   LSUBROT=      F    optimize rotation matrix (better conditioning)
   TURBO    =      0    0=normal 1=particle mesh
   IRESTART =      0    0=no restart 2=restart with 2 vectors
   NREBOOT  =      0    no. of reboots
   NMIN     =      0    reboot dimension
   EREF     =   0.00    reference energy to select bands
   IMIX   =      4    mixing-type and parameters
     AMIX     =   0.40;   BMIX     =  1.00
     AMIX_MAG =   1.60;   BMIX_MAG =  1.00
     AMIN     =   0.10
     WC   =   100.;   INIMIX=   1;  MIXPRE=   1;  MAXMIX= -45

 Intra band minimization:
   WEIMIN = 0.0000     energy-eigenvalue tresh-hold
   EBREAK =  0.53E-07  absolut break condition
   DEPER  =   0.30     relativ break condition  

   TIME   =   0.40     timestep for ELM

  volume/ion in A,a.u.               =      36.32       245.10
  Fermi-wavevector in a.u.,A,eV,Ry     =   1.099409  2.077581 16.445356  1.208700
  Thomas-Fermi vector in A             =   2.235803
 
 Write flags
   LWAVE        =      F    write WAVECAR
   LDOWNSAMPLE  =      F    k-point downsampling of WAVECAR
   LCHARG       =      F    write CHGCAR
   LVTOT        =      F    write LOCPOT, total local potential
   LVHAR        =      F    write LOCPOT, Hartree potential only
   LELF         =      F    write electronic localiz. function (ELF)
   LORBIT       =      0    0 simple, 1 ext, 2 COOP (PROOUT), +10 PAW based schemes


 Dipole corrections
   LMONO  =      F    monopole corrections only (constant potential shift)
   LDIPOL =      F    correct potential (dipole corrections)
   IDIPOL =      0    1-x, 2-y, 3-z, 4-all directions 
   EPSILON=  1.0000000 bulk dielectric constant

 Exchange correlation treatment:
   GGA     =    --    GGA type
   LEXCH   =     8    internal setting for exchange type
   VOSKOWN=      0    Vosko Wilk Nusair interpolation
   LHFCALC =     F    Hartree Fock is set to
   LHFONE  =     F    Hartree Fock one center treatment
   AEXX    =    0.0000 exact exchange contribution

 Linear response parameters
   LEPSILON=     F    determine dielectric tensor
   LRPA    =     F    only Hartree local field effects (RPA)
   LNABLA  =     F    use nabla operator in PAW spheres
   LVEL    =     F    velocity operator in full k-point grid
   LINTERFAST=   F  fast interpolation
   KINTER  =     0    interpolate to denser k-point grid
   CSHIFT  =0.1000    complex shift for real part using Kramers Kronig
   OMEGAMAX=  -1.0    maximum frequency
   DEG_THRESHOLD= 0.2000000E-02 threshold for treating states as degnerate
   RTIME   =   -0.100 relaxation time in fs
  (WPLASMAI=    0.000 imaginary part of plasma frequency in eV, 0.658/RTIME)
   DFIELD  = 0.0000000 0.0000000 0.0000000 field for delta impulse in time
 
 Orbital magnetization related:
   ORBITALMAG=     F  switch on orbital magnetization
   LCHIMAG   =     F  perturbation theory with respect to B field
   DQ        =  0.001000  dq finite difference perturbation B field
   LLRAUG    =     F  two centre corrections for induced B field



--------------------------------------------------------------------------------------------------------


 Static calculation
 charge density and potential will be updated during run
 non-spin polarized calculation
 Variant of blocked Davidson
 Davidson routine will perform the subspace rotation
 perform sub-space diagonalisation
    after iterative eigenvector-optimisation
 modified Broyden-mixing scheme, WC =      100.0
 initial mixing is a Kerker type mixing with AMIX =  0.4000 and BMIX =      1.0000
 Hartree-type preconditioning will be used
 using additional bands           80
 real space projection scheme for non local part
 use partial core corrections
 calculate Harris-corrections to forces 
   (improved forces if not selfconsistent)
 use gradient corrections 
 use of overlap-Matrix (Vanderbilt PP)
 Gauss-broadening in eV      SIGMA  =   0.20


--------------------------------------------------------------------------------------------------------


  energy-cutoff  :      450.00
  volume of cell :     2615.00
      direct lattice vectors                 reciprocal lattice vectors
    16.884694054  0.000000000  0.000000000     0.059225237  0.000000000  0.000000000
     0.000000000  9.578410000  0.000000000     0.000000000  0.104401461  0.000000000
     0.000000000  0.000000000 16.169087120     0.000000000  0.000000000  0.061846411

  length of vectors
    16.884694054  9.578410000 16.169087120     0.059225237  0.104401461  0.061846411


 
 k-points in units of 2pi/SCALE and weight: gamma-point-only calculation. no periodi
   0.00000000  0.00000000  0.00000000       1.000
 
 k-points in reciprocal lattice and weights: gamma-point-only calculation. no periodi
   0.00000000  0.00000000  0.00000000       1.000
 
 position of ions in fractional coordinates (direct lattice) 
   0.76398617  0.07722280  0.07946817
   0.73838095  0.14116153  0.22139257
   0.21580373  0.66850087  0.09604513
   0.29733029  0.64529695  0.21596896
   0.38610589  0.16976048  0.12532456
   0.46975828  0.14529695  0.24776362
   0.95247430  0.64529695  0.15237965
   0.97333285  0.66033245  0.30477469
   0.12490229  0.14529695  0.18417431
   0.14862566  0.14532624  0.34790215
   0.57011020  0.64617656  0.15960080
   0.64218627  0.64529695  0.27955828
   0.41478615  0.40680749  0.05924811
   0.42486676  0.51319395  0.19076795
   0.45419288  0.48507706  0.34034702
   0.62897235  0.93848480  0.07911609
   0.59729475  0.01319395  0.22256260
   0.08001077  0.51319395  0.12717863
   0.11199074  0.50369967  0.29132321
   0.25243876  0.01319395  0.15897329
   0.28638616  0.99904311  0.32130289
   0.73587670  0.33367577  0.12830325
   0.76972274  0.51319395  0.25435726
   0.89038994  0.29102452  0.10144761
   0.95870798  0.27642734  0.23141366
   0.35797815  0.64637295  0.05803561
   0.42486676  0.77739995  0.19076795
   0.45338697  0.80487742  0.34001139
   0.52828810  0.14359309  0.08791677
   0.59729475  0.27739995  0.22256260
   0.08001077  0.77739995  0.12717863
   0.10222474  0.79517055  0.27955353
   0.25243876  0.27739995  0.15897329
   0.28694077  0.29360767  0.32057485
   0.75864068  0.81773564  0.10465949
   0.76972274  0.77739995  0.25435726
   0.04217765  0.15030783  0.28560418
   0.99493083  0.18107550  0.12693756
   0.47417723  0.64529695  0.08702573
   0.50874518  0.64529695  0.27779368
   0.64660522  0.14529695  0.11882039
   0.65215764  0.14595729  0.30806261
   0.11445945  0.64188177  0.03184907
   0.16388920  0.64529695  0.21420436
   0.28179385  0.14491976  0.06301349
   0.33631719  0.14529695  0.24599902
   0.81903321  0.64529695  0.15061505
   0.85166007  0.64606553  0.31300694
   0.79557196  0.26372819  0.02587839
   0.82906105  0.31351195  0.21449973
   0.31177708  0.81351195  0.11911576
   0.34204616  0.81042501  0.29161170
   0.48420507  0.31351195  0.15091042
   0.51552162  0.30628687  0.32093326
   0.99474172  0.81834560  0.22261374
   0.97774721  0.77864924  0.05941900
   0.14120884  0.32390816  0.11003534
   0.17391704  0.31351195  0.27808905
   0.65663306  0.81351195  0.18270508
   0.69727162  0.78669975  0.35311369
   0.31177708  0.47708195  0.11911576
   0.34179567  0.48435145  0.29448788
   0.72375641  0.92353408  0.00142131
   0.80413936  0.96509167  0.18726096
   0.00148905  0.47708195  0.24629439
   0.96531945  0.46286504  0.08244028
   0.48420507  0.97708195  0.15091042
   0.51478622  0.98346985  0.32050616
   0.65663306  0.47708195  0.18270508
   0.69592330  0.49939847  0.35128635
   0.14046641  0.96756476  0.11071374
   0.17391704  0.97708195  0.27808905
 
 position of ions in cartesian coordinates  (Angst):
  12.89967282  0.73967166  1.28492780
  12.46733650  1.35210304  3.57971570
   3.64377992  6.40317543  1.55296208
   5.02033090  6.18091880  3.49202101
   6.51927978  1.62603550  2.02638370
   7.93172480  1.39171380  4.00611161
  16.08223715  6.18091880  2.46383984
  16.43442731  6.32493499  4.92792847
   2.10893700  1.39171380  2.97793043
   2.50949874  1.39199431  5.62526025
   9.62613625  6.18934402  2.58059918
  10.84311871  6.18091880  4.52020220
   7.00353718  3.89656889  0.95798793
   7.17374517  4.91558210  3.08454355
   7.66890778  4.64626693  5.50310056
  10.62000575  8.98919216  1.27923495
  10.08513906  0.12637710  3.59863415
   1.35095736  4.91558210  2.05636238
   1.89092942  4.82464197  4.71043036
   4.26235126  0.12637710  2.57045296
   4.83554268  9.56924452  5.19517435
  12.42505301  3.19608329  2.07454651
  12.99653297  4.91558210  4.11272474
  15.03396165  2.78755217  1.64031526
  16.18749091  2.64773441  3.74174762
   6.04435161  6.19122515  0.93838277
   7.17374517  7.44625549  3.08454355
   7.65530027  7.70944595  5.49767374
   8.91998300  1.37539352  1.42153398
  10.08513906  2.65705049  3.59863415
   1.35095736  7.44625549  2.05636238
   1.72603351  7.61646957  4.52012536
   4.26235126  2.65705049  2.57045296
   4.84490711  2.81229469  5.18340267
  12.80941572  7.83260721  1.69224835
  12.99653297  7.44625549  4.11272474
   0.71215672  1.43971001  4.61795880
  16.79910270  1.73441539  2.05246449
   8.00633741  6.18091880  1.40712661
   8.59000678  6.18091880  4.49167018
  10.91773131  1.39171380  1.92121721
  11.01148215  1.39803875  4.98109117
   1.93261279  6.14820675  0.51497042
   2.76721897  6.18091880  3.46348899
   4.75800295  1.38810086  1.01887069
   5.67861288  1.39171380  3.97757959
  13.82912522  6.18091880  2.43530780
  14.38001971  6.18828058  5.06103645
  13.43298916  2.52609672  0.41842987
  13.99844227  3.00294604  3.46826489
   5.26426054  7.79215104  1.92599312
   5.77534478  7.76258306  4.71509504
   8.17565445  3.00294604  2.44008371
   8.70442484  2.93374122  5.18919792
  16.79590956  7.83844972  3.59946099
  16.50896254  7.45822165  0.96075099
   2.38426808  3.10252518  1.77917100
   2.93653601  3.00294604  4.49644608
  11.08704836  7.79215104  2.95417429
  11.77321803  7.53533271  5.70952608
   5.26426054  4.56968656  1.92599312
   5.77111532  4.63931677  4.76160019
  12.22040554  8.84598808  0.02298123
  13.57764713  9.24404368  3.02783882
   0.02514210  4.56968656  3.98235548
  16.29912354  4.43351110  1.33298405
   8.17565445  9.35889156  2.44008371
   8.69200783  9.42007741  5.18229198
  11.08704836  4.56968656  2.95417429
  11.75045203  4.78344331  5.67997956
   2.37173238  9.26773196  1.79014009
   2.93653601  9.35889156  4.49644608
 


--------------------------------------------------------------------------------------------------------


 use parallel FFT for orbitals z direction half grid
 k-point  1 :   0.0000 0.0000 0.0000  plane waves:   28369

 maximum and minimum number of plane-waves per node :      4733     4722

 maximum number of plane-waves:     28369
 maximum index in each direction: 
   IXMAX=   29   IYMAX=   16   IZMAX=   27
   IXMIN=  -29   IYMIN=  -16   IZMIN=    0


 real space projection operators:
  total allocation   :      10071.86 KBytes
  max/ min on nodes  :       1691.34       1669.03


 parallel 3D FFT for wavefunctions:
    minimum data exchange during FFTs selected (reduces bandwidth)
 parallel 3D FFT for charge:
    minimum data exchange during FFTs selected (reduces bandwidth)


 total amount of memory used by VASP MPI-rank0    77165. kBytes
=======================================================================

   base      :      30000. kBytes
   nonlr-proj:       2056. kBytes
   fftplans  :       9935. kBytes
   grid      :      16773. kBytes
   one-center:         93. kBytes
   wavefun   :      18308. kBytes
 
     INWAV:  cpu time    0.0000: real time    0.0000
 Broyden mixing: mesh for mixing (old mesh)
   NGX = 59   NGY = 33   NGZ = 55
  (NGX  =180   NGY  =100   NGZ  =168)
  gives a total of 107085 points

 initial charge density was supplied:
 charge density of overlapping atoms calculated
 number of electron     792.0000000 magnetization 
 keeping initial charge density in first step


--------------------------------------------------------------------------------------------------------


 Maximum index for non-local projection operator          266
 Maximum index for augmentation-charges          427 (set IRDMAX)


--------------------------------------------------------------------------------------------------------


 First call to EWALD:  gamma=   0.129
 Maximum number of real-space cells 2x 4x 2
 Maximum number of reciprocal cells 3x 2x 3

    FEWALD:  cpu time    0.0048: real time    0.0048


--------------------------------------- Iteration      1(   1)  ---------------------------------------


    POTLOK:  cpu time    0.3242: real time    0.3242
    SETDIJ:  cpu time    0.0170: real time    0.0170
     EDDAV:  cpu time    8.5562: real time    8.5578
       DOS:  cpu time    0.0026: real time    0.0027
    --------------------------------------------
      LOOP:  cpu time    8.9002: real time    8.9018

 eigenvalue-minimisations  :  1176
 total energy-change (2. order) : 0.8904072E+04  (-0.5058782E+05)
 number of electron     792.0000000 magnetization 
 augmentation part      792.0000000 magnetization 

 Free energy of the ion-electron system (eV)
  ---------------------------------------------------
  alpha Z        PSCENC =      1422.52235994
  Ewald energy   TEWEN  =    150333.08240327
  -Hartree energ DENC   =   -270617.52303888
  -exchange      EXHF   =         0.00000000
  -V(xc)+E(xc)   XCENC  =      3682.30475100
  PAW double counting   =    112729.53333415  -117641.51188735
  entropy T*S    EENTRO =        -0.42825163
  eigenvalues    EBANDS =     -7006.51275872
  atomic energy  EATOM  =    136002.60505376
  Solvation  Ediel_sol  =         0.00000000
  ---------------------------------------------------
  free energy    TOTEN  =      8904.07196554 eV

  energy without entropy =     8904.50021717  energy(sigma->0) =     8904.28609136


--------------------------------------------------------------------------------------------------------




--------------------------------------- Iteration      1(   2)  ---------------------------------------


     EDDAV:  cpu time    7.4936: real time    7.4951
       DOS:  cpu time    0.0012: real time    0.0012
    --------------------------------------------
      LOOP:  cpu time    7.4947: real time    7.4962

 eigenvalue-minimisations  :  1020
 total energy-change (2. order) :-0.8415428E+04  (-0.8116426E+04)
 number of electron     792.0000000 magnetization 
 augmentation part      792.0000000 magnetization 

 Free energy of the ion-electron system (eV)
  ---------------------------------------------------
  alpha Z        PSCENC =      1422.52235994
  Ewald energy   TEWEN  =    150333.08240327
  -Hartree energ DENC   =   -270617.52303888
  -exchange      EXHF   =         0.00000000
  -V(xc)+E(xc)   XCENC  =      3682.30475100
  PAW double counting   =    112729.53333415  -117641.51188735
  entropy T*S    EENTRO =        -0.77575350
  eigenvalues    EBANDS =    -15421.59285967
  atomic energy  EATOM  =    136002.60505376
  Solvation  Ediel_sol  =         0.00000000
  ---------------------------------------------------
  free energy    TOTEN  =       488.64436272 eV

  energy without entropy =      489.42011622  energy(sigma->0) =      489.03223947


--------------------------------------------------------------------------------------------------------




--------------------------------------- Iteration      1(   3)  ---------------------------------------


     EDDAV:  cpu time    8.1967: real time    8.1981
       DOS:  cpu time    0.0012: real time    0.0012
    --------------------------------------------
      LOOP:  cpu time    8.1979: real time    8.1993

 eigenvalue-minimisations  :  1104
 total energy-change (2. order) :-0.8343269E+03  (-0.8007444E+03)
 number of electron     792.0000000 magnetization 
 augmentation part      792.0000000 magnetization 

 Free energy of the ion-electron system (eV)
  ---------------------------------------------------
  alpha Z        PSCENC =      1422.52235994
  Ewald energy   TEWEN  =    150333.08240327
  -Hartree energ DENC   =   -270617.52303888
  -exchange      EXHF   =         0.00000000
  -V(xc)+E(xc)   XCENC  =      3682.30475100
  PAW double counting   =    112729.53333415  -117641.51188735
  entropy T*S    EENTRO =        -1.24252390
  eigenvalues    EBANDS =    -16255.45299408
  atomic energy  EATOM  =    136002.60505376
  Solvation  Ediel_sol  =         0.00000000
  ---------------------------------------------------
  free energy    TOTEN  =      -345.68254209 eV

  energy without entropy =     -344.44001819  energy(sigma->0) =     -345.06128014


--------------------------------------------------------------------------------------------------------




--------------------------------------- Iteration      1(   4)  ---------------------------------------


     EDDAV:  cpu time    7.8790: real time    7.8804
       DOS:  cpu time    0.0013: real time    0.0013
    --------------------------------------------
      LOOP:  cpu time    7.8804: real time    7.8817

 eigenvalue-minimisations  :  1096
 total energy-change (2. order) :-0.4360378E+02  (-0.4311798E+02)
 number of electron     792.0000000 magnetization 
 augmentation part      792.0000000 magnetization 

 Free energy of the ion-electron system (eV)
  ---------------------------------------------------
  alpha Z        PSCENC =      1422.52235994
  Ewald energy   TEWEN  =    150333.08240327
  -Hartree energ DENC   =   -270617.52303888
  -exchange      EXHF   =         0.00000000
  -V(xc)+E(xc)   XCENC  =      3682.30475100
  PAW double counting   =    112729.53333415  -117641.51188735
  entropy T*S    EENTRO =        -1.24172176
  eigenvalues    EBANDS =    -16299.05757164
  atomic energy  EATOM  =    136002.60505376
  Solvation  Ediel_sol  =         0.00000000
  ---------------------------------------------------
  free energy    TOTEN  =      -389.28631751 eV

  energy without entropy =     -388.04459575  energy(sigma->0) =     -388.66545663


--------------------------------------------------------------------------------------------------------




--------------------------------------- Iteration      1(   5)  ---------------------------------------


     EDDAV:  cpu time    8.3853: real time    8.3868
       DOS:  cpu time    0.0014: real time    0.0014
    CHARGE:  cpu time    0.2746: real time    0.2746
    MIXING:  cpu time    0.0099: real time    0.0099
    --------------------------------------------
      LOOP:  cpu time    8.6712: real time    8.6727

 eigenvalue-minimisations  :  1144
 total energy-change (2. order) :-0.1610929E+01  (-0.1608345E+01)
 number of electron     791.9997532 magnetization 
 augmentation part      286.0633420 magnetization 

 Broyden mixing:
  rms(total) = 0.99734E+01    rms(broyden)= 0.99662E+01
  rms(prec ) = 0.10493E+02
  weight for this iteration     100.00

 Free energy of the ion-electron system (eV)
  ---------------------------------------------------
  alpha Z        PSCENC =      1422.52235994
  Ewald energy   TEWEN  =    150333.08240327
  -Hartree energ DENC   =   -270617.52303888
  -exchange      EXHF   =         0.00000000
  -V(xc)+E(xc)   XCENC  =      3682.30475100
  PAW double counting   =    112729.53333415  -117641.51188735
  entropy T*S    EENTRO =        -1.23390347
  eigenvalues    EBANDS =    -16300.67631942
  atomic energy  EATOM  =    136002.60505376
  Solvation  Ediel_sol  =         0.00000000
  ---------------------------------------------------
  free energy    TOTEN  =      -390.89724699 eV

  energy without entropy =     -389.66334353  energy(sigma->0) =     -390.28029526


--------------------------------------------------------------------------------------------------------




--------------------------------------- Iteration      1(   6)  ---------------------------------------


    POTLOK:  cpu time    0.3077: real time    0.3077
    SETDIJ:  cpu time    0.0176: real time    0.0176
     EDDAV:  cpu time    8.3127: real time    8.3143
       DOS:  cpu time    0.0011: real time    0.0011
    CHARGE:  cpu time    0.2554: real time    0.2555
    MIXING:  cpu time    0.0101: real time    0.0101
    --------------------------------------------
      LOOP:  cpu time    8.9046: real time    8.9064

 eigenvalue-minimisations  :  1176
 total energy-change (2. order) :-0.6783457E+02  (-0.9813698E+02)
 number of electron     791.9997038 magnetization 
 augmentation part      349.1248894 magnetization 

 Broyden mixing:
  rms(total) = 0.15568E+02    rms(broyden)= 0.15566E+02
  rms(prec ) = 0.16353E+02
  weight for this iteration     100.00

 eigenvalues of (default mixing * dielectric matrix)
  average eigenvalue GAMMA=   0.2505
  0.2505

 Free energy of the ion-electron system (eV)
  ---------------------------------------------------
  alpha Z        PSCENC =      1422.52235994
  Ewald energy   TEWEN  =    150333.08240327
  -Hartree energ DENC   =   -267959.79908557
  -exchange      EXHF   =         0.00000000
  -V(xc)+E(xc)   XCENC  =      3608.13063492
  PAW double counting   =    118000.45656448  -122679.53482005
  entropy T*S    EENTRO =        -0.69869097
  eigenvalues    EBANDS =    -19185.49623600
  atomic energy  EATOM  =    136002.60505376
  Solvation  Ediel_sol  =         0.00000000
  ---------------------------------------------------
  free energy    TOTEN  =      -458.73181623 eV

  energy without entropy =     -458.03312526  energy(sigma->0) =     -458.38247075


--------------------------------------------------------------------------------------------------------




--------------------------------------- Iteration      1(   7)  ---------------------------------------


    POTLOK:  cpu time    0.3097: real time    0.3101
    SETDIJ:  cpu time    0.0172: real time    0.0172
     EDDAV:  cpu time    8.2300: real time    8.2318
       DOS:  cpu time    0.0013: real time    0.0013
    CHARGE:  cpu time    0.2659: real time    0.2659
    MIXING:  cpu time    0.0107: real time    0.0107
    --------------------------------------------
      LOOP:  cpu time    8.8349: real time    8.8370

 eigenvalue-minimisations  :  1112
 total energy-change (2. order) : 0.1054982E+03  (-0.1945067E+02)
 number of electron     791.9997189 magnetization 
 augmentation part      328.8592429 magnetization 

 Broyden mixing:
  rms(total) = 0.65908E+01    rms(broyden)= 0.65898E+01
  rms(prec ) = 0.69349E+01
  weight for this iteration     100.00

 eigenvalues of (default mixing * dielectric matrix)
  average eigenvalue GAMMA=   0.6205
  0.7689  0.4721

 Free energy of the ion-electron system (eV)
  ---------------------------------------------------
  alpha Z        PSCENC =      1422.52235994
  Ewald energy   TEWEN  =    150333.08240327
  -Hartree energ DENC   =   -269147.60971191
  -exchange      EXHF   =         0.00000000
  -V(xc)+E(xc)   XCENC  =      3637.81574451
  PAW double counting   =    123062.31085499  -127899.63972042
  entropy T*S    EENTRO =        -0.93942915
  eigenvalues    EBANDS =    -17763.38115931
  atomic energy  EATOM  =    136002.60505376
  Solvation  Ediel_sol  =         0.00000000
  ---------------------------------------------------
  free energy    TOTEN  =      -353.23360433 eV

  energy without entropy =     -352.29417518  energy(sigma->0) =     -352.76388976


--------------------------------------------------------------------------------------------------------




--------------------------------------- Iteration      1(   8)  ---------------------------------------


    POTLOK:  cpu time    0.3097: real time    0.3098
    SETDIJ:  cpu time    0.0171: real time    0.0171
     EDDAV:  cpu time    9.3977: real time    9.3996
       DOS:  cpu time    0.0014: real time    0.0014
    CHARGE:  cpu time    0.2664: real time    0.2664
    MIXING:  cpu time    0.0114: real time    0.0114
    --------------------------------------------
      LOOP:  cpu time   10.0037: real time   10.0058

 eigenvalue-minimisations  :  1336
 total energy-change (2. order) :-0.5519413E+02  (-0.2142938E+02)
 number of electron     791.9997439 magnetization 
 augmentation part      303.5717532 magnetization 

 Broyden mixing:
  rms(total) = 0.12475E+02    rms(broyden)= 0.12472E+02
  rms(prec ) = 0.15771E+02
  weight for this iteration     100.00

 eigenvalues of (default mixing * dielectric matrix)
  average eigenvalue GAMMA=   0.5417
  1.0457  0.4126  0.1668

 Free energy of the ion-electron system (eV)
  ---------------------------------------------------
  alpha Z        PSCENC =      1422.52235994
  Ewald energy   TEWEN  =    150333.08240327
  -Hartree energ DENC   =   -269980.50330977
  -exchange      EXHF   =         0.00000000
  -V(xc)+E(xc)   XCENC  =      3659.51643369
  PAW double counting   =    132129.07160496  -137092.02280985
  entropy T*S    EENTRO =        -0.98538982
  eigenvalues    EBANDS =    -16881.71407587
  atomic energy  EATOM  =    136002.60505376
  Solvation  Ediel_sol  =         0.00000000
  ---------------------------------------------------
  free energy    TOTEN  =      -408.42772970 eV

  energy without entropy =     -407.44233988  energy(sigma->0) =     -407.93503479


--------------------------------------------------------------------------------------------------------




--------------------------------------- Iteration      1(   9)  ---------------------------------------


    POTLOK:  cpu time    0.3109: real time    0.3109
    SETDIJ:  cpu time    0.0175: real time    0.0175
     EDDAV:  cpu time    8.5032: real time    8.5051
       DOS:  cpu time    0.0013: real time    0.0013
    CHARGE:  cpu time    0.2751: real time    0.2751
    MIXING:  cpu time    0.0108: real time    0.0108
    --------------------------------------------
      LOOP:  cpu time    9.1187: real time    9.1207

 eigenvalue-minimisations  :  1216
 total energy-change (2. order) : 0.4489592E+02  (-0.1466087E+02)
 number of electron     791.9997429 magnetization 
 augmentation part      304.3852197 magnetization 

 Broyden mixing:
  rms(total) = 0.70497E+01    rms(broyden)= 0.70446E+01
  rms(prec ) = 0.82699E+01
  weight for this iteration     100.00

 eigenvalues of (default mixing * dielectric matrix)
  average eigenvalue GAMMA=   0.5503
  1.3711  0.3570  0.3570  0.1158

 Free energy of the ion-electron system (eV)
  ---------------------------------------------------
  alpha Z        PSCENC =      1422.52235994
  Ewald energy   TEWEN  =    150333.08240327
  -Hartree energ DENC   =   -270008.19150086
  -exchange      EXHF   =         0.00000000
  -V(xc)+E(xc)   XCENC  =      3660.02233051
  PAW double counting   =    135189.04237206  -140173.69233787
  entropy T*S    EENTRO =        -1.13444786
  eigenvalues    EBANDS =    -16787.78804195
  atomic energy  EATOM  =    136002.60505376
  Solvation  Ediel_sol  =         0.00000000
  ---------------------------------------------------
  free energy    TOTEN  =      -363.53180901 eV

  energy without entropy =     -362.39736114  energy(sigma->0) =     -362.96458507


--------------------------------------------------------------------------------------------------------




--------------------------------------- Iteration      1(  10)  ---------------------------------------


    POTLOK:  cpu time    0.3544: real time    0.3545
    SETDIJ:  cpu time    0.0370: real time    0.0370
     EDDAV:  cpu time    9.3978: real time    9.3998
       DOS:  cpu time    0.0012: real time    0.0012
    CHARGE:  cpu time    0.2609: real time    0.2609
    MIXING:  cpu time    0.0116: real time    0.0116
    --------------------------------------------
      LOOP:  cpu time   10.0629: real time   10.0650

 eigenvalue-minimisations  :  1352
 total energy-change (2. order) : 0.4637221E+01  (-0.9851339E+01)
 number of electron     791.9997329 magnetization 
 augmentation part      304.6555392 magnetization 

 Broyden mixing:
  rms(total) = 0.59500E+01    rms(broyden)= 0.59466E+01
  rms(prec ) = 0.68220E+01
  weight for this iteration     100.00

 eigenvalues of (default mixing * dielectric matrix)
  average eigenvalue GAMMA=   0.6526
  2.0991  0.4419  0.4419  0.1399  0.1399

 Free energy of the ion-electron system (eV)
  ---------------------------------------------------
  alpha Z        PSCENC =      1422.52235994
  Ewald energy   TEWEN  =    150333.08240327
  -Hartree energ DENC   =   -269949.16740419
  -exchange      EXHF   =         0.00000000
  -V(xc)+E(xc)   XCENC  =      3658.63006424
  PAW double counting   =    138119.99997333  -143120.90829114
  entropy T*S    EENTRO =        -1.04899572
  eigenvalues    EBANDS =    -16824.60975113
  atomic energy  EATOM  =    136002.60505376
  Solvation  Ediel_sol  =         0.00000000
  ---------------------------------------------------
  free energy    TOTEN  =      -358.89458765 eV

  energy without entropy =     -357.84559193  energy(sigma->0) =     -358.37008979


--------------------------------------------------------------------------------------------------------




--------------------------------------- Iteration      1(  11)  ---------------------------------------


    POTLOK:  cpu time    0.3105: real time    0.3105
    SETDIJ:  cpu time    0.0171: real time    0.0171
     EDDAV:  cpu time    9.3145: real time    9.3162
       DOS:  cpu time    0.0037: real time    0.0037
    CHARGE:  cpu time    0.2549: real time    0.2551
    MIXING:  cpu time    0.0115: real time    0.0115
    --------------------------------------------
      LOOP:  cpu time    9.9120: real time    9.9140

 eigenvalue-minimisations  :  1320
 total energy-change (2. order) : 0.9665413E+01  (-0.4728169E+01)
 number of electron     791.9997360 magnetization 
 augmentation part      310.5859760 magnetization 

 Broyden mixing:
  rms(total) = 0.41531E+01    rms(broyden)= 0.41497E+01
  rms(prec ) = 0.49176E+01
  weight for this iteration     100.00

 eigenvalues of (default mixing * dielectric matrix)
  average eigenvalue GAMMA=   0.5963
  2.1765  0.4484  0.4484  0.1296  0.1927  0.1820

 Free energy of the ion-electron system (eV)
  ---------------------------------------------------
  alpha Z        PSCENC =      1422.52235994
  Ewald energy   TEWEN  =    150333.08240327
  -Hartree energ DENC   =   -269789.55395967
  -exchange      EXHF   =         0.00000000
  -V(xc)+E(xc)   XCENC  =      3653.54749090
  PAW double counting   =    143429.92048437  -148450.35343954
  entropy T*S    EENTRO =        -1.03685418
  eigenvalues    EBANDS =    -16949.96271305
  atomic energy  EATOM  =    136002.60505376
  Solvation  Ediel_sol  =         0.00000000
  ---------------------------------------------------
  free energy    TOTEN  =      -349.22917420 eV

  energy without entropy =     -348.19232002  energy(sigma->0) =     -348.71074711


--------------------------------------------------------------------------------------------------------




--------------------------------------- Iteration      1(  12)  ---------------------------------------


    POTLOK:  cpu time    0.3143: real time    0.3144
    SETDIJ:  cpu time    0.0173: real time    0.0173
     EDDAV:  cpu time    9.0958: real time    9.0976
       DOS:  cpu time    0.0039: real time    0.0039
    CHARGE:  cpu time    0.2544: real time    0.2544
    MIXING:  cpu time    0.0119: real time    0.0120
    --------------------------------------------
      LOOP:  cpu time    9.6976: real time    9.6995

 eigenvalue-minimisations  :  1280
 total energy-change (2. order) : 0.8088373E+01  (-0.2365843E+01)
 number of electron     791.9997318 magnetization 
 augmentation part      311.8349896 magnetization 

 Broyden mixing:
  rms(total) = 0.19449E+01    rms(broyden)= 0.19412E+01
  rms(prec ) = 0.22501E+01
  weight for this iteration     100.00

 eigenvalues of (default mixing * dielectric matrix)
  average eigenvalue GAMMA=   0.5698
  2.0557  0.4845  0.4845  0.4910  0.2027  0.1351  0.1351

 Free energy of the ion-electron system (eV)
  ---------------------------------------------------
  alpha Z        PSCENC =      1422.52235994
  Ewald energy   TEWEN  =    150333.08240327
  -Hartree energ DENC   =   -269796.42463980
  -exchange      EXHF   =         0.00000000
  -V(xc)+E(xc)   XCENC  =      3653.56658446
  PAW double counting   =    143834.43565154  -148857.85071164
  entropy T*S    EENTRO =        -0.99737944
  eigenvalues    EBANDS =    -16932.08012313
  atomic energy  EATOM  =    136002.60505376
  Solvation  Ediel_sol  =         0.00000000
  ---------------------------------------------------
  free energy    TOTEN  =      -341.14080104 eV

  energy without entropy =     -340.14342160  energy(sigma->0) =     -340.64211132


--------------------------------------------------------------------------------------------------------




--------------------------------------- Iteration      1(  13)  ---------------------------------------


    POTLOK:  cpu time    0.3124: real time    0.3124
    SETDIJ:  cpu time    0.0169: real time    0.0169
     EDDAV:  cpu time    9.3403: real time    9.3421
       DOS:  cpu time    0.0040: real time    0.0040
    CHARGE:  cpu time    0.2599: real time    0.2600
    MIXING:  cpu time    0.0131: real time    0.0131
    --------------------------------------------
      LOOP:  cpu time    9.9467: real time    9.9486

 eigenvalue-minimisations  :  1328
 total energy-change (2. order) :-0.1693576E+01  (-0.1687776E+01)
 number of electron     791.9997336 magnetization 
 augmentation part      310.6723488 magnetization 

 Broyden mixing:
  rms(total) = 0.27901E+01    rms(broyden)= 0.27884E+01
  rms(prec ) = 0.33825E+01
  weight for this iteration     100.00

 eigenvalues of (default mixing * dielectric matrix)
  average eigenvalue GAMMA=   0.5261
  2.0686  0.5020  0.5020  0.4501  0.2656  0.1478  0.1478  0.1248

 Free energy of the ion-electron system (eV)
  ---------------------------------------------------
  alpha Z        PSCENC =      1422.52235994
  Ewald energy   TEWEN  =    150333.08240327
  -Hartree energ DENC   =   -269843.25337880
  -exchange      EXHF   =         0.00000000
  -V(xc)+E(xc)   XCENC  =      3653.99120454
  PAW double counting   =    142946.85570095  -147963.73623585
  entropy T*S    EENTRO =        -1.03915479
  eigenvalues    EBANDS =    -16893.86233017
  atomic energy  EATOM  =    136002.60505376
  Solvation  Ediel_sol  =         0.00000000
  ---------------------------------------------------
  free energy    TOTEN  =      -342.83437717 eV

  energy without entropy =     -341.79522238  energy(sigma->0) =     -342.31479977


--------------------------------------------------------------------------------------------------------




--------------------------------------- Iteration      1(  14)  ---------------------------------------


    POTLOK:  cpu time    0.3114: real time    0.3115
    SETDIJ:  cpu time    0.0172: real time    0.0172
     EDDAV:  cpu time    8.5740: real time    8.5758
       DOS:  cpu time    0.0040: real time    0.0040
    CHARGE:  cpu time    0.2543: real time    0.2543
    MIXING:  cpu time    0.0135: real time    0.0135
    --------------------------------------------
      LOOP:  cpu time    9.1744: real time    9.1763

 eigenvalue-minimisations  :  1216
 total energy-change (2. order) : 0.2591167E+01  (-0.9909685E+00)
 number of electron     791.9997328 magnetization 
 augmentation part      311.5494309 magnetization 

 Broyden mixing:
  rms(total) = 0.13029E+01    rms(broyden)= 0.13005E+01
  rms(prec ) = 0.15245E+01
  weight for this iteration     100.00

 eigenvalues of (default mixing * dielectric matrix)
  average eigenvalue GAMMA=   0.5093
  2.0618  0.5577  0.5577  0.4123  0.4123  0.1724  0.1427  0.1427  0.1244

 Free energy of the ion-electron system (eV)
  ---------------------------------------------------
  alpha Z        PSCENC =      1422.52235994
  Ewald energy   TEWEN  =    150333.08240327
  -Hartree energ DENC   =   -269842.45006641
  -exchange      EXHF   =         0.00000000
  -V(xc)+E(xc)   XCENC  =      3653.56528466
  PAW double counting   =    142806.97941035  -147820.62672588
  entropy T*S    EENTRO =        -1.06731899
  eigenvalues    EBANDS =    -16894.85361047
  atomic energy  EATOM  =    136002.60505376
  Solvation  Ediel_sol  =         0.00000000
  ---------------------------------------------------
  free energy    TOTEN  =      -340.24320977 eV

  energy without entropy =     -339.17589078  energy(sigma->0) =     -339.70955028


--------------------------------------------------------------------------------------------------------




--------------------------------------- Iteration      1(  15)  ---------------------------------------


    POTLOK:  cpu time    0.3114: real time    0.3114
    SETDIJ:  cpu time    0.0169: real time    0.0169
     EDDAV:  cpu time    8.8612: real time    8.8632
       DOS:  cpu time    0.0035: real time    0.0035
    CHARGE:  cpu time    0.2630: real time    0.2630
    MIXING:  cpu time    0.0149: real time    0.0149
    --------------------------------------------
      LOOP:  cpu time    9.4708: real time    9.4728

 eigenvalue-minimisations  :  1232
 total energy-change (2. order) : 0.1023602E+00  (-0.2897230E+00)
 number of electron     791.9997332 magnetization 
 augmentation part      311.7325033 magnetization 

 Broyden mixing:
  rms(total) = 0.11371E+01    rms(broyden)= 0.11363E+01
  rms(prec ) = 0.12869E+01
  weight for this iteration     100.00

 eigenvalues of (default mixing * dielectric matrix)
  average eigenvalue GAMMA=   0.5364
  2.0306  0.8487  0.8487  0.4418  0.4418  0.1965  0.1465  0.1465  0.1221  0.1403

 Free energy of the ion-electron system (eV)
  ---------------------------------------------------
  alpha Z        PSCENC =      1422.52235994
  Ewald energy   TEWEN  =    150333.08240327
  -Hartree energ DENC   =   -269841.34926717
  -exchange      EXHF   =         0.00000000
  -V(xc)+E(xc)   XCENC  =      3653.40038687
  PAW double counting   =    142672.63929367  -147684.20439984
  entropy T*S    EENTRO =        -1.06288553
  eigenvalues    EBANDS =    -16897.77379451
  atomic energy  EATOM  =    136002.60505376
  Solvation  Ediel_sol  =         0.00000000
  ---------------------------------------------------
  free energy    TOTEN  =      -340.14084955 eV

  energy without entropy =     -339.07796401  energy(sigma->0) =     -339.60940678


--------------------------------------------------------------------------------------------------------




--------------------------------------- Iteration      1(  16)  ---------------------------------------


    POTLOK:  cpu time    0.3136: real time    0.3136
    SETDIJ:  cpu time    0.0172: real time    0.0172
     EDDAV:  cpu time    9.0813: real time    9.0829
       DOS:  cpu time    0.0012: real time    0.0012
    CHARGE:  cpu time    0.2553: real time    0.2553
    MIXING:  cpu time    0.0142: real time    0.0142
    --------------------------------------------
      LOOP:  cpu time    9.6828: real time    9.6844

 eigenvalue-minimisations  :  1272
 total energy-change (2. order) : 0.2951311E+00  (-0.1054923E+00)
 number of electron     791.9997338 magnetization 
 augmentation part      311.6283256 magnetization 

 Broyden mixing:
  rms(total) = 0.86560E+00    rms(broyden)= 0.86523E+00
  rms(prec ) = 0.96331E+00
  weight for this iteration     100.00

 eigenvalues of (default mixing * dielectric matrix)
  average eigenvalue GAMMA=   0.5378
  2.0155  1.0021  1.0021  0.4415  0.4415  0.2332  0.2332  0.1474  0.1474  0.1259
  0.1259

 Free energy of the ion-electron system (eV)
  ---------------------------------------------------
  alpha Z        PSCENC =      1422.52235994
  Ewald energy   TEWEN  =    150333.08240327
  -Hartree energ DENC   =   -269863.75478089
  -exchange      EXHF   =         0.00000000
  -V(xc)+E(xc)   XCENC  =      3653.44423623
  PAW double counting   =    142215.79824679  -147222.75073530
  entropy T*S    EENTRO =        -1.11775048
  eigenvalues    EBANDS =    -16879.67475181
  atomic energy  EATOM  =    136002.60505376
  Solvation  Ediel_sol  =         0.00000000
  ---------------------------------------------------
  free energy    TOTEN  =      -339.84571848 eV

  energy without entropy =     -338.72796800  energy(sigma->0) =     -339.28684324


--------------------------------------------------------------------------------------------------------




--------------------------------------- Iteration      1(  17)  ---------------------------------------


    POTLOK:  cpu time    0.3147: real time    0.3147
    SETDIJ:  cpu time    0.0180: real time    0.0181
     EDDAV:  cpu time    8.1990: real time    8.2006
       DOS:  cpu time    0.0012: real time    0.0012
    CHARGE:  cpu time    0.4560: real time    0.4560
    MIXING:  cpu time    0.0307: real time    0.0307
    --------------------------------------------
      LOOP:  cpu time    9.0197: real time    9.0214

 eigenvalue-minimisations  :  1160
 total energy-change (2. order) : 0.1092350E+00  (-0.6936810E-01)
 number of electron     791.9997329 magnetization 
 augmentation part      311.7067310 magnetization 

 Broyden mixing:
  rms(total) = 0.71902E+00    rms(broyden)= 0.71867E+00
  rms(prec ) = 0.82219E+00
  weight for this iteration     100.00

 eigenvalues of (default mixing * dielectric matrix)
  average eigenvalue GAMMA=   0.6030
  1.9888  1.3920  1.3920  0.5900  0.4594  0.4594  0.2336  0.1716  0.1487  0.1487
  0.1310  0.1207

 Free energy of the ion-electron system (eV)
  ---------------------------------------------------
  alpha Z        PSCENC =      1422.52235994
  Ewald energy   TEWEN  =    150333.08240327
  -Hartree energ DENC   =   -269874.17624506
  -exchange      EXHF   =         0.00000000
  -V(xc)+E(xc)   XCENC  =      3653.39460511
  PAW double counting   =    141922.98078315  -146926.45588526
  entropy T*S    EENTRO =        -1.09008834
  eigenvalues    EBANDS =    -16872.59947004
  atomic energy  EATOM  =    136002.60505376
  Solvation  Ediel_sol  =         0.00000000
  ---------------------------------------------------
  free energy    TOTEN  =      -339.73648348 eV

  energy without entropy =     -338.64639513  energy(sigma->0) =     -339.19143930


--------------------------------------------------------------------------------------------------------




--------------------------------------- Iteration      1(  18)  ---------------------------------------


    POTLOK:  cpu time    0.3378: real time    0.3381
    SETDIJ:  cpu time    0.0189: real time    0.0189
     EDDAV:  cpu time    8.9934: real time    8.9950
       DOS:  cpu time    0.0016: real time    0.0016
    CHARGE:  cpu time    0.2609: real time    0.2610
    MIXING:  cpu time    0.0155: real time    0.0155
    --------------------------------------------
      LOOP:  cpu time    9.6282: real time    9.6301

 eigenvalue-minimisations  :  1304
 total energy-change (2. order) : 0.4183304E-01  (-0.5778028E-01)
 number of electron     791.9997331 magnetization 
 augmentation part      311.5603002 magnetization 

 Broyden mixing:
  rms(total) = 0.64049E+00    rms(broyden)= 0.64008E+00
  rms(prec ) = 0.73508E+00
  weight for this iteration     100.00

 eigenvalues of (default mixing * dielectric matrix)
  average eigenvalue GAMMA=   0.6009
  1.9560  1.5448  1.5448  0.6833  0.4613  0.4613  0.2474  0.2020  0.1649  0.1473
  0.1473  0.1296  0.1222

 Free energy of the ion-electron system (eV)
  ---------------------------------------------------
  alpha Z        PSCENC =      1422.52235994
  Ewald energy   TEWEN  =    150333.08240327
  -Hartree energ DENC   =   -269909.98932060
  -exchange      EXHF   =         0.00000000
  -V(xc)+E(xc)   XCENC  =      3653.36089725
  PAW double counting   =    141361.57879534  -146358.41009051
  entropy T*S    EENTRO =        -1.09103398
  eigenvalues    EBANDS =    -16843.35371490
  atomic energy  EATOM  =    136002.60505376
  Solvation  Ediel_sol  =         0.00000000
  ---------------------------------------------------
  free energy    TOTEN  =      -339.69465043 eV

  energy without entropy =     -338.60361646  energy(sigma->0) =     -339.14913345


--------------------------------------------------------------------------------------------------------




--------------------------------------- Iteration      1(  19)  ---------------------------------------


    POTLOK:  cpu time    0.3166: real time    0.3166
    SETDIJ:  cpu time    0.0171: real time    0.0171
     EDDAV:  cpu time    8.8003: real time    8.8020
       DOS:  cpu time    0.0012: real time    0.0013
    CHARGE:  cpu time    0.2541: real time    0.2541
    MIXING:  cpu time    0.0160: real time    0.0160
    --------------------------------------------
      LOOP:  cpu time    9.4054: real time    9.4071

 eigenvalue-minimisations  :  1224
 total energy-change (2. order) : 0.1448319E+00  (-0.4787628E-01)
 number of electron     791.9997334 magnetization 
 augmentation part      311.7594693 magnetization 

 Broyden mixing:
  rms(total) = 0.36077E+00    rms(broyden)= 0.36027E+00
  rms(prec ) = 0.43334E+00
  weight for this iteration     100.00

 eigenvalues of (default mixing * dielectric matrix)
  average eigenvalue GAMMA=   0.6025
  1.7480  1.7480  1.5876  0.6748  0.6748  0.4498  0.4498  0.2250  0.1811  0.1491
  0.1491  0.1211  0.1311  0.1464

 Free energy of the ion-electron system (eV)
  ---------------------------------------------------
  alpha Z        PSCENC =      1422.52235994
  Ewald energy   TEWEN  =    150333.08240327
  -Hartree energ DENC   =   -269921.61255075
  -exchange      EXHF   =         0.00000000
  -V(xc)+E(xc)   XCENC  =      3653.23365908
  PAW double counting   =    141089.57239203  -146082.83241113
  entropy T*S    EENTRO =        -1.12265898
  eigenvalues    EBANDS =    -16834.99806578
  atomic energy  EATOM  =    136002.60505376
  Solvation  Ediel_sol  =         0.00000000
  ---------------------------------------------------
  free energy    TOTEN  =      -339.54981857 eV

  energy without entropy =     -338.42715959  energy(sigma->0) =     -338.98848908


--------------------------------------------------------------------------------------------------------




--------------------------------------- Iteration      1(  20)  ---------------------------------------


    POTLOK:  cpu time    0.3171: real time    0.3172
    SETDIJ:  cpu time    0.0193: real time    0.0193
     EDDAV:  cpu time    9.1481: real time    9.1499
       DOS:  cpu time    0.0012: real time    0.0012
    CHARGE:  cpu time    0.2586: real time    0.2586
    MIXING:  cpu time    0.0178: real time    0.0178
    --------------------------------------------
      LOOP:  cpu time    9.7621: real time    9.7641

 eigenvalue-minimisations  :  1280
 total energy-change (2. order) : 0.2788359E-01  (-0.2358949E-01)
 number of electron     791.9997332 magnetization 
 augmentation part      311.9266641 magnetization 

 Broyden mixing:
  rms(total) = 0.25941E+00    rms(broyden)= 0.25917E+00
  rms(prec ) = 0.29358E+00
  weight for this iteration     100.00

 eigenvalues of (default mixing * dielectric matrix)
  average eigenvalue GAMMA=   0.6075
  2.1019  2.1019  0.9595  0.8712  0.8712  0.4502  0.4502  0.2328  0.1914  0.1914
  0.1485  0.1485  0.1209  0.1329  0.1393

 Free energy of the ion-electron system (eV)
  ---------------------------------------------------
  alpha Z        PSCENC =      1422.52235994
  Ewald energy   TEWEN  =    150333.08240327
  -Hartree energ DENC   =   -269934.44832430
  -exchange      EXHF   =         0.00000000
  -V(xc)+E(xc)   XCENC  =      3653.17828269
  PAW double counting   =    140853.01465905  -145843.68281675
  entropy T*S    EENTRO =        -1.10894354
  eigenvalues    EBANDS =    -16824.68460909
  atomic energy  EATOM  =    136002.60505376
  Solvation  Ediel_sol  =         0.00000000
  ---------------------------------------------------
  free energy    TOTEN  =      -339.52193498 eV

  energy without entropy =     -338.41299144  energy(sigma->0) =     -338.96746321


--------------------------------------------------------------------------------------------------------




--------------------------------------- Iteration      1(  21)  ---------------------------------------


    POTLOK:  cpu time    0.3182: real time    0.3182
    SETDIJ:  cpu time    0.0173: real time    0.0173
     EDDAV:  cpu time    8.6539: real time    8.6561
       DOS:  cpu time    0.0012: real time    0.0012
    CHARGE:  cpu time    0.5164: real time    0.5165
    MIXING:  cpu time    0.0178: real time    0.0178
    --------------------------------------------
      LOOP:  cpu time    9.5248: real time    9.5271

 eigenvalue-minimisations  :  1240
 total energy-change (2. order) : 0.2218455E-01  (-0.1082339E-01)
 number of electron     791.9997330 magnetization 
 augmentation part      312.0524682 magnetization 

 Broyden mixing:
  rms(total) = 0.16553E+00    rms(broyden)= 0.16538E+00
  rms(prec ) = 0.18053E+00
  weight for this iteration     100.00

 eigenvalues of (default mixing * dielectric matrix)
  average eigenvalue GAMMA=   0.6123
  2.2312  2.2312  0.9604  0.9604  0.8336  0.4489  0.4489  0.3973  0.2255  0.2001
  0.1492  0.1492  0.1647  0.1211  0.1310  0.1446

 Free energy of the ion-electron system (eV)
  ---------------------------------------------------
  alpha Z        PSCENC =      1422.52235994
  Ewald energy   TEWEN  =    150333.08240327
  -Hartree energ DENC   =   -269941.40717355
  -exchange      EXHF   =         0.00000000
  -V(xc)+E(xc)   XCENC  =      3653.14448060
  PAW double counting   =    140745.45718260  -145735.03781527
  entropy T*S    EENTRO =        -1.11558147
  eigenvalues    EBANDS =    -16818.75066031
  atomic energy  EATOM  =    136002.60505376
  Solvation  Ediel_sol  =         0.00000000
  ---------------------------------------------------
  free energy    TOTEN  =      -339.49975043 eV

  energy without entropy =     -338.38416897  energy(sigma->0) =     -338.94195970


--------------------------------------------------------------------------------------------------------




--------------------------------------- Iteration      1(  22)  ---------------------------------------


    POTLOK:  cpu time    0.3220: real time    0.3220
    SETDIJ:  cpu time    0.0170: real time    0.0170
     EDDAV:  cpu time    8.2087: real time    8.2101
       DOS:  cpu time    0.0011: real time    0.0011
    CHARGE:  cpu time    0.2557: real time    0.2557
    MIXING:  cpu time    0.0186: real time    0.0186
    --------------------------------------------
      LOOP:  cpu time    8.8231: real time    8.8245

 eigenvalue-minimisations  :  1152
 total energy-change (2. order) : 0.4064812E-02  (-0.3864873E-02)
 number of electron     791.9997330 magnetization 
 augmentation part      312.1008751 magnetization 

 Broyden mixing:
  rms(total) = 0.15240E+00    rms(broyden)= 0.15235E+00
  rms(prec ) = 0.16509E+00
  weight for this iteration     100.00

 eigenvalues of (default mixing * dielectric matrix)
  average eigenvalue GAMMA=   0.6079
  2.2924  2.2924  1.0316  1.0316  0.7522  0.4516  0.4516  0.4818  0.2757  0.2237
  0.1887  0.1705  0.1487  0.1487  0.1210  0.1319  0.1403

 Free energy of the ion-electron system (eV)
  ---------------------------------------------------
  alpha Z        PSCENC =      1422.52235994
  Ewald energy   TEWEN  =    150333.08240327
  -Hartree energ DENC   =   -269948.05775079
  -exchange      EXHF   =         0.00000000
  -V(xc)+E(xc)   XCENC  =      3653.14513445
  PAW double counting   =    140699.40342836  -145688.76337587
  entropy T*S    EENTRO =        -1.10914483
  eigenvalues    EBANDS =    -16812.32379391
  atomic energy  EATOM  =    136002.60505376
  Solvation  Ediel_sol  =         0.00000000
  ---------------------------------------------------
  free energy    TOTEN  =      -339.49568562 eV

  energy without entropy =     -338.38654079  energy(sigma->0) =     -338.94111320


--------------------------------------------------------------------------------------------------------




--------------------------------------- Iteration      1(  23)  ---------------------------------------


    POTLOK:  cpu time    0.3190: real time    0.3191
    SETDIJ:  cpu time    0.0171: real time    0.0171
     EDDAV:  cpu time    8.7517: real time    8.7536
       DOS:  cpu time    0.0012: real time    0.0012
    CHARGE:  cpu time    0.2572: real time    0.2572
    MIXING:  cpu time    0.0238: real time    0.0238
    --------------------------------------------
      LOOP:  cpu time    9.3701: real time    9.3720

 eigenvalue-minimisations  :  1216
 total energy-change (2. order) : 0.1211995E-02  (-0.2385111E-02)
 number of electron     791.9997329 magnetization 
 augmentation part      312.1287094 magnetization 

 Broyden mixing:
  rms(total) = 0.14455E+00    rms(broyden)= 0.14448E+00
  rms(prec ) = 0.15956E+00
  weight for this iteration     100.00

 eigenvalues of (default mixing * dielectric matrix)
  average eigenvalue GAMMA=   0.6652
  2.4246  2.4246  1.3978  1.3978  0.7662  0.7662  0.4534  0.4534  0.4426  0.2279
  0.1978  0.1793  0.1491  0.1491  0.1211  0.1312  0.1461  0.1461

 Free energy of the ion-electron system (eV)
  ---------------------------------------------------
  alpha Z        PSCENC =      1422.52235994
  Ewald energy   TEWEN  =    150333.08240327
  -Hartree energ DENC   =   -269952.00572665
  -exchange      EXHF   =         0.00000000
  -V(xc)+E(xc)   XCENC  =      3653.16674251
  PAW double counting   =    140696.15310699  -145685.75283286
  entropy T*S    EENTRO =        -1.11023545
  eigenvalues    EBANDS =    -16808.15534513
  atomic energy  EATOM  =    136002.60505376
  Solvation  Ediel_sol  =         0.00000000
  ---------------------------------------------------
  free energy    TOTEN  =      -339.49447363 eV

  energy without entropy =     -338.38423817  energy(sigma->0) =     -338.93935590


--------------------------------------------------------------------------------------------------------




--------------------------------------- Iteration      1(  24)  ---------------------------------------


    POTLOK:  cpu time    0.3176: real time    0.3177
    SETDIJ:  cpu time    0.0171: real time    0.0171
     EDDAV:  cpu time    9.1515: real time    9.1535
       DOS:  cpu time    0.0014: real time    0.0014
    CHARGE:  cpu time    0.2554: real time    0.2554
    MIXING:  cpu time    0.0198: real time    0.0198
    --------------------------------------------
      LOOP:  cpu time    9.7630: real time    9.7651

 eigenvalue-minimisations  :  1288
 total energy-change (2. order) : 0.3155344E-02  (-0.2259584E-02)
 number of electron     791.9997328 magnetization 
 augmentation part      312.1770067 magnetization 

 Broyden mixing:
  rms(total) = 0.10891E+00    rms(broyden)= 0.10883E+00
  rms(prec ) = 0.12655E+00
  weight for this iteration     100.00

 eigenvalues of (default mixing * dielectric matrix)
  average eigenvalue GAMMA=   0.6537
  2.5277  2.1524  1.5034  1.5034  0.8052  0.8052  0.5174  0.4527  0.4527  0.2637
  0.2205  0.2034  0.1738  0.1490  0.1490  0.1210  0.1314  0.1440  0.1440

 Free energy of the ion-electron system (eV)
  ---------------------------------------------------
  alpha Z        PSCENC =      1422.52235994
  Ewald energy   TEWEN  =    150333.08240327
  -Hartree energ DENC   =   -269962.00488846
  -exchange      EXHF   =         0.00000000
  -V(xc)+E(xc)   XCENC  =      3653.24057496
  PAW double counting   =    140765.15747477  -145756.31996799
  entropy T*S    EENTRO =        -1.11046812
  eigenvalues    EBANDS =    -16796.66386040
  atomic energy  EATOM  =    136002.60505376
  Solvation  Ediel_sol  =         0.00000000
  ---------------------------------------------------
  free energy    TOTEN  =      -339.49131828 eV

  energy without entropy =     -338.38085016  energy(sigma->0) =     -338.93608422


--------------------------------------------------------------------------------------------------------




--------------------------------------- Iteration      1(  25)  ---------------------------------------


    POTLOK:  cpu time    0.3222: real time    0.3225
    SETDIJ:  cpu time    0.0171: real time    0.0171
     EDDAV:  cpu time    8.3270: real time    8.3287
       DOS:  cpu time    0.0012: real time    0.0012
    CHARGE:  cpu time    0.2573: real time    0.2574
    MIXING:  cpu time    0.0208: real time    0.0208
    --------------------------------------------
      LOOP:  cpu time    8.9456: real time    8.9477

 eigenvalue-minimisations  :  1184
 total energy-change (2. order) : 0.3045744E-02  (-0.1674263E-02)
 number of electron     791.9997329 magnetization 
 augmentation part      312.2175359 magnetization 

 Broyden mixing:
  rms(total) = 0.79636E-01    rms(broyden)= 0.79547E-01
  rms(prec ) = 0.93387E-01
  weight for this iteration     100.00

 eigenvalues of (default mixing * dielectric matrix)
  average eigenvalue GAMMA=   0.6664
  2.8068  1.9788  1.6088  1.6088  0.8581  0.8581  0.6836  0.4525  0.4525  0.4135
  0.2229  0.2088  0.1715  0.1715  0.1489  0.1489  0.1211  0.1311  0.1408  0.1408

 Free energy of the ion-electron system (eV)
  ---------------------------------------------------
  alpha Z        PSCENC =      1422.52235994
  Ewald energy   TEWEN  =    150333.08240327
  -Hartree energ DENC   =   -269962.93677479
  -exchange      EXHF   =         0.00000000
  -V(xc)+E(xc)   XCENC  =      3653.24085662
  PAW double counting   =    140822.00870897  -145813.83732454
  entropy T*S    EENTRO =        -1.10303420
  eigenvalues    EBANDS =    -16795.07052155
  atomic energy  EATOM  =    136002.60505376
  Solvation  Ediel_sol  =         0.00000000
  ---------------------------------------------------
  free energy    TOTEN  =      -339.48827254 eV

  energy without entropy =     -338.38523834  energy(sigma->0) =     -338.93675544


--------------------------------------------------------------------------------------------------------




[...]
    FORCOR:  cpu time    0.4212: real time    0.4212
    FORHAR:  cpu time    0.1835: real time    0.1835
    MIXING:  cpu time    0.0299: real time    0.0299
    OFIELD:  cpu time    0.0001: real time    0.0001

  FORCE on cell =-STRESS in cart. coord.  units (eV):
  Direction    XX          YY          ZZ          XY          YZ          ZX
  --------------------------------------------------------------------------------------
  Alpha Z  1422.52236  1422.52236  1422.52236
  Ewald  194485.67634196220.14753************  -448.22717   381.09108 -1625.55746
  Hartree228226.72788231076.91053************  -249.46590   334.99429 -1651.28224
  E(xc)   -5053.30044 -5055.21700 -5062.29895    -0.54421     0.00874     0.49082
  Local  ************************417039.13808   687.09027  -716.47200  3290.29074
  n-local  -589.84482  -594.04663  -590.22238    -2.00560     0.93914     1.81128
  augment  5774.34277  5797.14494  5799.81793     4.32019    -0.83540    -6.32513
  Kinetic 11066.03953 11111.13868 11195.44852     9.20714    -0.96284    -3.82771
  Fock        0.00000     0.00000     0.00000     0.00000     0.00000     0.00000
  -------------------------------------------------------------------------------------
  Total     123.74625   120.43878   139.28647     0.37472    -1.23699     5.60030
  in kB      75.81768    73.79124    85.33897     0.22958    -0.75789     3.43123
  external pressure =       78.32 kB  Pullay stress =        0.00 kB


 VOLUME and BASIS-vectors are now :
 -----------------------------------------------------------------------------
  energy-cutoff  :      450.00
  volume of cell :     2615.00
      direct lattice vectors                 reciprocal lattice vectors
    16.884694054  0.000000000  0.000000000     0.059225237  0.000000000  0.000000000
     0.000000000  9.578410000  0.000000000     0.000000000  0.104401461  0.000000000
     0.000000000  0.000000000 16.169087120     0.000000000  0.000000000  0.061846411

  length of vectors
    16.884694054  9.578410000 16.169087120     0.059225237  0.104401461  0.061846411


 FORCES acting on ions
    electron-ion (+dipol)            ewald-force                    non-local-force                 convergence-correction
 -----------------------------------------------------------------------------------------------
   -.107E+04 0.327E+02 0.282E+04   0.108E+04 -.320E+02 -.283E+04   -.352E+01 -.980E+00 0.626E+01   0.272E-01 0.159E+00 0.163E+00
   -.114E+04 0.120E+03 -.177E+04   0.114E+04 -.122E+03 0.177E+04   -.389E+01 0.155E+01 -.643E+01   0.324E+00 0.135E-01 -.563E+00
   0.410E+03 -.139E+03 0.283E+04   -.408E+03 0.140E+03 -.284E+04   -.204E+00 -.858E+00 0.702E+01   -.257E+00 -.106E-01 -.186E+00
   0.712E+03 -.686E+02 -.117E+04   -.715E+03 0.690E+02 0.118E+04   0.195E+01 -.105E+00 -.575E+01   -.924E-01 -.106E+00 0.145E+00
   0.183E+03 0.405E+03 0.225E+04   -.184E+03 -.405E+03 -.226E+04   0.148E+01 -.269E+00 0.848E+01   -.626E-02 -.230E-01 -.143E+00
   0.159E+03 0.874E+02 -.192E+04   -.163E+03 -.879E+02 0.193E+04   0.314E+01 0.152E+00 -.793E+01   0.145E+00 0.496E-01 0.888E-01
   0.856E+03 -.213E+03 0.122E+04   -.862E+03 0.212E+03 -.123E+04   0.513E+01 -.448E+00 0.378E+01   -.207E+00 0.619E-01 -.200E+00
   0.556E+03 -.243E+03 -.315E+04   -.555E+03 0.245E+03 0.315E+04   -.830E+00 -.229E+01 0.106E+00   -.159E+00 -.417E-01 -.296E-01
   0.116E+04 0.180E+03 0.716E+03   -.116E+04 -.181E+03 -.720E+03   0.319E+01 0.192E+01 0.513E+01   -.343E+00 -.981E-02 -.185E-01
   0.916E+03 0.865E+02 -.372E+04   -.915E+03 -.859E+02 0.372E+04   -.717E+00 -.340E+00 -.228E+01   -.152E+00 0.608E-01 0.836E-01
   -.563E+03 0.147E+03 0.162E+04   0.566E+03 -.147E+03 -.163E+04   -.242E+01 -.340E-01 0.365E+01   0.433E+00 0.136E-01 -.251E+00
   -.184E+03 0.456E+02 -.241E+04   0.180E+03 -.457E+02 0.242E+04   0.230E+01 -.885E-01 -.701E+01   0.357E+00 -.568E-02 -.906E-01
   -.287E+03 0.230E+03 0.388E+04   0.284E+03 -.231E+03 -.388E+04   0.235E+01 0.600E+00 -.146E+01   0.113E+00 0.153E+00 -.329E+00
   -.328E+03 0.280E+03 -.380E+02   0.328E+03 -.282E+03 0.401E+02   -.146E-01 0.188E+01 -.177E+01   0.762E-01 -.195E-01 -.414E-02
   -.224E+03 0.152E+03 -.378E+04   0.224E+03 -.154E+03 0.378E+04   0.107E+01 0.295E+01 0.232E+01   -.235E-01 -.773E-01 0.258E+00
   0.229E+03 0.543E+03 0.319E+04   -.230E+03 -.544E+03 -.320E+04   -.155E+01 0.428E+00 0.670E+01   0.645E+00 0.113E+00 -.103E+00
   -.463E+03 0.496E+03 -.131E+04   0.464E+03 -.502E+03 0.131E+04   -.171E+01 0.458E+01 -.496E+01   0.754E+00 0.838E-02 -.301E+00
   0.317E+03 0.634E+03 0.194E+04   -.316E+03 -.640E+03 -.194E+04   -.517E+00 0.554E+01 0.441E+01   -.387E+00 -.334E-01 -.646E-01
   0.214E+03 0.169E+03 -.287E+04   -.215E+03 -.171E+03 0.287E+04   0.110E+01 0.165E+01 -.242E-02   -.208E+00 -.128E+00 0.107E+00
   0.307E+03 0.480E+03 0.135E+04   -.308E+03 -.483E+03 -.135E+04   0.169E+01 0.228E+01 0.489E+01   -.345E+00 0.219E-01 -.397E-01
   0.547E+02 0.373E+03 -.330E+04   -.545E+02 -.375E+03 0.330E+04   0.217E+00 0.205E+01 0.789E-01   -.245E+00 0.127E+00 0.240E+00
   -.212E+03 -.765E+03 0.194E+04   0.211E+03 0.769E+03 -.194E+04   -.162E-02 -.219E+01 0.499E+01   0.302E+00 -.382E+00 -.148E+00
   -.725E+03 0.444E+03 -.159E+04   0.728E+03 -.447E+03 0.160E+04   -.227E+01 0.368E+01 -.380E+01   0.103E+00 -.245E+00 -.261E+00
   -.405E+03 0.176E+03 0.236E+04   0.406E+03 -.175E+03 -.236E+04   0.600E-01 -.117E+01 0.543E+01   -.437E+00 -.154E+00 -.271E-01
   0.396E+03 0.516E+03 -.150E+04   -.396E+03 -.515E+03 0.151E+04   -.155E+01 -.567E+00 -.237E+01   -.282E+00 -.611E-01 -.121E+00
   0.282E+02 -.446E+03 0.396E+04   -.295E+02 0.447E+03 -.396E+04   0.788E+00 -.898E+00 0.520E+01   0.155E+00 0.209E-01 -.362E+00
   -.212E+03 -.631E+03 0.395E+03   0.212E+03 0.634E+03 -.396E+03   0.243E+00 -.289E+01 -.432E-01   0.852E-01 -.752E-01 -.238E+00
   -.182E+03 -.178E+03 -.374E+04   0.181E+03 0.181E+03 0.374E+04   0.113E+01 -.295E+01 0.255E+01   0.349E-01 -.997E-01 0.260E+00
   -.118E+03 -.102E+03 0.344E+04   0.115E+03 0.101E+03 -.344E+04   0.204E+01 0.697E+00 0.507E+01   0.611E+00 -.888E-01 -.304E+00
   -.539E+03 -.655E+03 -.979E+03   0.540E+03 0.662E+03 0.984E+03   -.142E+01 -.587E+01 -.470E+01   0.712E+00 -.922E-01 -.226E+00
   0.538E+03 -.893E+03 0.194E+04   -.536E+03 0.899E+03 -.194E+04   -.656E+00 -.645E+01 0.224E+01   -.496E+00 0.761E-01 -.171E+00
   0.355E+03 -.465E+03 -.260E+04   -.355E+03 0.465E+03 0.261E+04   0.902E+00 -.844E+00 -.142E+01   -.253E+00 0.450E-01 0.103E-01
   0.526E+03 -.365E+03 0.127E+04   -.526E+03 0.367E+03 -.127E+04   0.148E+01 -.165E+01 0.447E+01   -.347E+00 -.151E-02 0.464E-01
   0.556E+02 -.308E+03 -.334E+04   -.551E+02 0.311E+03 0.334E+04   -.709E-01 -.226E+01 0.859E+00   -.169E+00 0.361E-01 0.283E+00
   -.895E+03 0.647E+03 0.243E+04   0.898E+03 -.652E+03 -.243E+04   -.297E+01 0.274E+01 0.693E+01   0.853E-01 0.332E+00 -.135E+00
   -.929E+03 -.570E+03 -.184E+04   0.933E+03 0.574E+03 0.184E+04   -.273E+01 -.414E+01 -.720E+01   0.960E-01 0.255E+00 -.298E+00
   0.514E+03 0.199E+03 -.911E+03   -.518E+03 -.203E+03 0.914E+03   0.230E+01 0.332E+01 -.127E+01   -.846E-01 0.133E-01 -.209E-01
   -.345E+01 0.355E+03 0.798E+03   0.324E+01 -.358E+03 -.801E+03   0.110E+01 0.108E+01 0.171E+01   -.118E+00 -.445E-02 -.177E-01
   -.357E+03 -.123E+03 0.134E+04   0.361E+03 0.126E+03 -.135E+04   -.259E+01 -.254E+01 0.243E+01   0.726E-01 0.150E-02 -.155E+00
   -.250E+03 -.587E+01 -.869E+03   0.250E+03 0.564E+01 0.874E+03   0.790E+00 0.306E+00 -.391E+01   0.107E+00 -.947E-01 0.321E-03
   -.132E+03 -.229E+03 0.878E+03   0.129E+03 0.231E+03 -.883E+03   0.260E+01 -.729E+00 0.404E+01   0.395E+00 -.352E-01 -.483E-01
   -.321E+03 -.326E+01 -.154E+04   0.323E+03 0.316E+01 0.154E+04   -.120E+01 0.917E-01 -.241E+01   0.248E+00 -.327E-01 -.846E-01
   0.180E+03 0.129E+02 0.169E+04   -.178E+03 -.142E+02 -.170E+04   -.122E+01 0.121E+01 0.216E+01   -.184E+00 0.852E-02 -.118E+00
   -.483E+01 -.350E+01 -.342E+03   0.530E+01 0.338E+01 0.346E+03   0.114E+01 0.359E+00 -.308E+01   -.126E+00 -.428E-01 0.518E-01
   0.221E+03 0.985E+02 0.163E+04   -.222E+03 -.989E+02 -.164E+04   0.141E+01 0.265E+00 0.210E+01   -.105E+00 -.307E-01 -.146E+00
   -.768E+02 0.593E+02 -.545E+03   0.777E+02 -.595E+02 0.549E+03   0.732E+00 0.121E+00 -.389E+01   -.949E-01 0.295E-01 0.125E+00
   -.174E+03 0.119E+03 0.629E+03   0.174E+03 -.122E+03 -.633E+03   0.425E+00 0.163E+01 0.285E+01   -.162E-01 0.263E-01 -.971E-01
   -.147E+03 -.309E+02 -.122E+04   0.149E+03 0.310E+02 0.123E+04   -.806E+00 0.617E-01 -.329E+01   -.124E-02 0.459E-02 -.935E-02
   -.138E+03 -.176E+03 0.159E+04   0.138E+03 0.177E+03 -.160E+04   0.128E-01 -.712E+00 0.141E+01   -.695E-01 -.801E-01 0.139E+00
   -.236E+03 0.571E+02 -.565E+03   0.236E+03 -.574E+02 0.569E+03   0.773E-01 0.150E+00 -.158E+01   -.112E+00 -.117E+00 -.149E+00
   0.800E+02 -.379E+03 0.882E+03   -.804E+02 0.383E+03 -.885E+03   -.340E+00 -.199E+01 0.227E+01   0.103E-01 0.297E-01 -.100E+00
   0.258E+03 -.773E+01 -.104E+04   -.259E+03 0.788E+01 0.105E+04   0.379E+00 0.576E-01 -.121E+01   -.136E+00 0.106E-01 0.716E-01
   -.226E+03 -.201E+03 0.451E+03   0.226E+03 0.204E+03 -.451E+03   -.109E+01 -.202E+01 -.314E+00   0.117E+00 0.551E-01 -.444E-01
   -.202E+03 0.259E+02 -.139E+04   0.201E+03 -.252E+02 0.139E+04   0.857E+00 -.667E+00 -.228E+01   0.416E-01 0.390E-01 0.104E+00
   0.422E+03 -.582E+03 -.298E+03   -.426E+03 0.588E+03 0.299E+03   0.225E+01 -.317E+01 -.111E+01   -.123E+00 0.371E-01 -.824E-01
   0.290E+03 -.324E+03 0.135E+04   -.294E+03 0.327E+03 -.135E+04   0.222E+01 -.164E+01 0.148E+01   -.948E-01 0.199E-01 -.327E-01
   0.255E+03 0.631E+02 0.109E+04   -.255E+03 -.629E+02 -.110E+04   -.243E+00 -.489E-02 0.363E+01   -.142E+00 -.541E-01 -.165E-01
   0.280E+03 -.187E+03 -.742E+03   -.280E+03 0.191E+03 0.743E+03   0.388E+00 -.183E+01 -.421E+00   -.696E-01 -.143E-01 0.559E-01
   -.995E+02 0.807E+02 0.551E+02   0.974E+02 -.786E+02 -.538E+02   0.235E+00 -.248E+01 -.624E+00   0.187E+00 0.102E+00 -.126E+00
   -.162E+03 -.270E+03 -.156E+04   0.162E+03 0.274E+03 0.157E+04   0.218E+00 -.214E+01 -.754E+00   0.105E+00 0.490E-01 0.184E-01
   0.363E+03 0.197E+03 0.784E+03   -.366E+03 -.200E+03 -.785E+03   0.113E+01 0.169E+01 0.140E+00   -.644E-02 0.959E-02 -.573E-01
   0.260E+03 -.313E+02 -.111E+04   -.261E+03 0.311E+02 0.111E+04   0.811E+00 -.508E-01 -.146E+01   -.448E-01 -.587E-01 0.111E+00
   -.196E+03 0.169E+03 0.173E+04   0.197E+03 -.171E+03 -.173E+04   -.100E+00 0.242E+00 0.122E+01   0.840E-01 0.814E-01 0.840E-01
   -.647E+03 -.382E+02 -.229E+03   0.653E+03 0.405E+02 0.231E+03   -.282E+01 -.154E+01 -.549E+00   -.866E-01 0.141E+00 -.143E+00
   0.276E+03 0.217E+03 -.596E+03   -.277E+03 -.218E+03 0.598E+03   0.609E+00 0.697E+00 -.134E+01   -.799E-01 -.489E-01 -.208E-01
   0.135E+03 0.918E+02 0.121E+04   -.136E+03 -.904E+02 -.122E+04   0.577E+00 -.134E+01 0.336E+01   -.117E+00 -.264E-01 -.248E-01
   0.120E+03 0.279E+03 0.593E+03   -.123E+03 -.282E+03 -.594E+03   0.115E+01 0.187E+01 0.763E+00   0.162E+00 -.279E-01 -.878E-01
   -.180E+03 -.213E+02 -.138E+04   0.180E+03 0.206E+02 0.139E+04   0.504E+00 0.517E+00 -.307E+01   0.149E+00 0.689E-01 0.320E-01
   -.989E+02 -.233E+02 0.328E+03   0.970E+02 0.223E+02 -.331E+03   0.503E+00 0.110E+01 0.228E+01   0.222E+00 -.857E-01 -.138E+00
   -.142E+03 0.268E+03 -.155E+04   0.141E+03 -.272E+03 0.155E+04   0.684E-01 0.229E+01 -.779E+00   0.926E-01 -.511E-01 0.376E-01
   0.322E+03 -.688E+02 0.107E+04   -.323E+03 0.699E+02 -.108E+04   0.570E+00 -.854E+00 0.367E+01   -.136E+00 0.531E-01 -.204E-01
   0.309E+03 0.220E+03 -.746E+03   -.310E+03 -.223E+03 0.747E+03   0.459E+00 0.133E+01 -.827E+00   -.699E-01 0.717E-01 0.179E-01
 -----------------------------------------------------------------------------------------------
   -.169E+02 0.100E+02 -.310E+02   0.114E-12 0.102E-11 -.341E-12   0.163E+02 -.992E+01 0.348E+02   0.627E+00 -.609E-01 -.382E+01
 
 
 POSITION                                       TOTAL-FORCE (eV/Angst)
 -----------------------------------------------------------------------------------
     12.89967      0.73967      1.28493         1.136668     -0.083116      0.280092
     12.46734      1.35210      3.57972         0.680775      0.119830      0.229541
      3.64378      6.40318      1.55296         0.939738     -0.295544     -0.105885
      5.02033      6.18092      3.49202        -0.316415      0.177188      0.035333
      6.51928      1.62604      2.02638         0.733824     -0.305672     -0.384401
      7.93172      1.39171      4.00611        -0.818335     -0.322453     -1.109278
     16.08224      6.18092      2.46384        -0.963616     -0.839316      1.655362
     16.43443      6.32493      4.92793         0.093414     -0.434504      1.030757
      2.10894      1.39171      2.97793        -0.536378      0.234458      1.434365
      2.50950      1.39199      5.62526         0.625383      0.246927      1.748500
      9.62614      6.18934      2.58060         0.673244      0.086405     -0.150168
     10.84312      6.18092      4.52020        -0.924114     -0.233635     -1.038734
      7.00354      3.89657      0.95799         0.247757     -0.161451     -0.801834
      7.17375      4.91558      3.08454         0.367231      0.359879      0.285773
      7.66891      4.64627      5.50310         0.393596      0.246306      0.837259
     10.62001      8.98919      1.27923        -1.953365     -0.410610     -0.176022
     10.08514      0.12638      3.59863        -0.233669     -0.576802     -0.480904
      1.35096      4.91558      2.05636         0.013281     -0.474872      1.784791
      1.89093      4.82464      4.71043         0.418522      0.205671      0.827185
      4.26235      0.12638      2.57045         0.572733     -0.624307      1.501989
      4.83554      9.56924      5.19517         0.198483     -0.166913      0.720836
     12.42505      3.19608      2.07455        -0.676627      0.873415     -0.207610
     12.99653      4.91558      4.11272         1.166631     -0.256167     -2.332237
     15.03396      2.78755      1.64032         0.307965     -0.112648     -0.283559
     16.18749      2.64773      3.74175        -1.444046      0.011333      1.100540
      6.04435      6.19123      0.93838        -0.424537     -0.003744     -1.513567
      7.17375      7.44626      3.08454         0.151861      0.089336     -0.901939
      7.65530      7.70945      5.49767         0.332460     -0.240448      0.933848
      8.91998      1.37539      1.42153        -0.027618      0.160989     -1.593145
     10.08514      2.65705      3.59863         0.335685      0.875197     -0.647894
      1.35096      7.44626      2.05636         1.030685      0.021878      0.849492
      1.72603      7.61647      4.52013         0.756325     -0.215574      1.315644
      4.26235      2.65705      2.57045         0.407944      0.876250      1.270258
      4.84491      2.81229      5.18340         0.253620      0.057458      0.644888
     12.80942      7.83261      1.69225         0.484832     -1.010693     -0.285418
     12.99653      7.44626      4.11272         0.757588      0.192186     -2.006674
      0.71216      1.43971      4.61796        -2.360203     -1.340099      1.646536
     16.79910      1.73442      2.05246         0.785804     -1.702524     -1.932427
      8.00634      6.18092      1.40713         0.943382     -0.381307     -2.664884
      8.59001      6.18092      4.49167         0.903776     -0.014492      0.927836
     10.91773      1.39171      1.92122         0.775968      1.443867     -1.194329
     11.01148      1.39804      4.98109         1.128767     -0.047754      3.468243
      1.93261      6.14821      0.51497        -0.200040     -0.034269     -4.038697
      2.76722      6.18092      3.46349         1.478111      0.202077      1.253743
      4.75800      1.38810      1.01887         0.280294     -0.101795     -3.810282
      5.67861      1.39171      3.97758         1.601867     -0.042227      0.497012
     13.82913      6.18092      2.43531         0.528876     -0.966777     -1.127675
     14.38002      6.18828      5.06104         0.916499      0.137839      2.452230
     13.43299      2.52610      0.41843         0.014835      0.682110     -3.719394
     13.99844      3.00295      3.46826         0.205701     -0.211331      2.925937
      5.26426      7.79215      1.92599        -0.714260      1.846658     -0.489932
      5.77534      7.76258      4.71510        -0.872009      0.220303      1.869092
      8.17565      3.00295      2.44008        -0.195369      1.478429     -0.362782
      8.70442      2.93374      5.18920         0.212648      0.041392      2.680062
     16.79591      7.83845      3.59946        -1.464158      3.044165      0.615439
     16.50896      7.45822      0.96075        -1.178741      1.430612     -3.439057
      2.38427      3.10253      1.77917        -0.692579      0.150450     -3.071267
      2.93654      3.00295      4.49645        -0.141151      2.150832      0.323481
     11.08705      7.79215      2.95417        -1.683233     -0.254642      0.574990
     11.77322      7.53533      5.70953        -0.451675      1.279031      3.821317
      5.26426      4.56969      1.92599        -1.783176     -1.107383     -0.757745
      5.77112      4.63932      4.76160        -0.905089     -0.290984      1.670204
     12.22041      8.84599      0.02298         0.246837     -0.856252     -3.851409
     13.57765      9.24404      3.02784         2.492845      0.922634      1.475490
      0.02514      4.56969      3.98236        -0.551042     -0.627988      0.756795
     16.29912      4.43351      1.33298        -0.493992      0.007968     -3.073270
      8.17565      9.35889      2.44008        -1.222316     -1.481503     -0.599240
      8.69201      9.42008      5.18229         0.328220     -0.083418      2.498084
     11.08705      4.56969      2.95417        -1.184377      0.002824     -0.777528
     11.75045      4.78344      5.67998        -0.551633     -1.436562      3.933556
      2.37173      9.26773      1.79014        -0.779128      0.219892     -2.953809
      2.93654      9.35889      4.49645        -0.181783     -2.346013      0.006495
 -----------------------------------------------------------------------------------
    total drift:                                0.041849      0.063477      0.013432


--------------------------------------------------------------------------------------------------------



  FREE ENERGIE OF THE ION-ELECTRON SYSTEM (eV)
  ---------------------------------------------------
  free  energy   TOTEN  =      -339.48666615 eV

  energy  without entropy=     -338.38039372  energy(sigma->0) =     -338.93352994
 


--------------------------------------------------------------------------------------------------------


    POTLOK:  cpu time    0.3385: real time    0.3385


--------------------------------------------------------------------------------------------------------


     LOOP+:  cpu time  272.0243: real time  272.0866
    4ORBIT:  cpu time    0.0000: real time    0.0000

 total amount of memory used by VASP MPI-rank0    77165. kBytes
=======================================================================

   base      :      30000. kBytes
   nonlr-proj:       2056. kBytes
   fftplans  :       9935. kBytes
   grid      :      16773. kBytes
   one-center:         93. kBytes
   wavefun   :      18308. kBytes
 
  
  
 General timing and accounting informations for this job:
 ========================================================
  
                  Total CPU time used (sec):      275.165
                            User time (sec):      274.857
                          System time (sec):        0.308
                         Elapsed time (sec):      275.476
  
                   Maximum memory used (kb):      203008.
                   Average memory used (kb):           0.
  
                          Minor page faults:        93895
                          Major page faults:            0
                 Voluntary context switches:          140
