  96  96   0   0
  0.2109074E+02  0.6278560E-09  0.1125646E-08  0.2915682E-08  0.5000000E-15
  1.000000000000000E-004
  CAR 
 "Millerite NiS"                         
     12.98789692    -65.02564106  301      3.47680142      1.00000000
    -65.026  0.0000E+00  0.0000E+00
    -64.766  0.0000E+00  0.0000E+00
    -64.506  0.0000E+00  0.0000E+00
    -64.246  0.0000E+00  0.0000E+00
    -63.985  0.0000E+00  0.0000E+00
    -63.725  0.0000E+00  0.0000E+00
    -63.465  0.0000E+00  0.0000E+00
    -63.205  0.0000E+00  0.0000E+00
    -62.945  0.0000E+00  0.0000E+00
    -62.685  0.0000E+00  0.0000E+00
    -62.425  0.1962E-09  0.5103E-10
    -62.165  0.1191E-04  0.3097E-05
    -61.905  0.2929E-01  0.7619E-02
    -61.645  0.3590E+01  0.9413E+00
    -61.385  0.3810E+02  0.1085E+02
    -61.125  0.1221E+03  0.4259E+02
    -60.865  0.3573E+03  0.1355E+03
    -60.605  0.3155E+03  0.2176E+03
    -60.345  0.1741E+03  0.2628E+03
    -60.085  0.5707E+02  0.2777E+03
    -59.825  0.2963E+02  0.2854E+03
    -59.565  0.9452E+01  0.2878E+03
    -59.305  0.6448E+00  0.2880E+03
    -59.045  0.2722E-02  0.2880E+03
    -58.785  0.4815E-06  0.2880E+03
    -58.525  0.3206E-11  0.2880E+03
    -58.264  0.0000E+00  0.2880E+03
    -58.004  0.0000E+00  0.2880E+03
    -57.744  0.0000E+00  0.2880E+03
    -57.484  0.0000E+00  0.2880E+03
    -57.224  0.0000E+00  0.2880E+03
    -56.964  0.0000E+00  0.2880E+03
    -56.704  0.0000E+00  0.2880E+03
    -56.444  0.0000E+00  0.2880E+03
    -56.184  0.0000E+00  0.2880E+03
    -55.924  0.0000E+00  0.2880E+03
    -55.664  0.0000E+00  0.2880E+03
    -55.404  0.0000E+00  0.2880E+03
    -55.144  0.0000E+00  0.2880E+03
    -54.884  0.0000E+00  0.2880E+03
    -54.624  0.0000E+00  0.2880E+03
    -54.364  0.0000E+00  0.2880E+03
    -54.104  0.0000E+00  0.2880E+03
    -53.844  0.0000E+00  0.2880E+03
    -53.584  0.0000E+00  0.2880E+03
    -53.324  0.0000E+00  0.2880E+03
    -53.064  0.0000E+00  0.2880E+03
    -52.804  0.0000E+00  0.2880E+03
    -52.543  0.0000E+00  0.2880E+03
    -52.283  0.0000E+00  0.2880E+03
    -52.023  0.0000E+00  0.2880E+03
    -51.763  0.0000E+00  0.2880E+03
    -51.503  0.0000E+00  0.2880E+03
    -51.243  0.0000E+00  0.2880E+03
    -50.983  0.0000E+00  0.2880E+03
    -50.723  0.0000E+00  0.2880E+03
    -50.463  0.0000E+00  0.2880E+03
    -50.203  0.0000E+00  0.2880E+03
    -49.943  0.0000E+00  0.2880E+03
    -49.683  0.0000E+00  0.2880E+03
    -49.423  0.0000E+00  0.2880E+03
    -49.163  0.0000E+00  0.2880E+03
    -48.903  0.0000E+00  0.2880E+03
    -48.643  0.0000E+00  0.2880E+03
    -48.383  0.0000E+00  0.2880E+03
    -48.123  0.0000E+00  0.2880E+03
    -47.863  0.0000E+00  0.2880E+03
    -47.603  0.0000E+00  0.2880E+03
    -47.343  0.0000E+00  0.2880E+03
    -47.083  0.0000E+00  0.2880E+03
    -46.822  0.0000E+00  0.2880E+03
    -46.562  0.0000E+00  0.2880E+03
    -46.302  0.0000E+00  0.2880E+03
    -46.042  0.0000E+00  0.2880E+03
    -45.782  0.0000E+00  0.2880E+03
    -45.522  0.0000E+00  0.2880E+03
    -45.262  0.0000E+00  0.2880E+03
    -45.002  0.0000E+00  0.2880E+03
    -44.742  0.0000E+00  0.2880E+03
    -44.482  0.0000E+00  0.2880E+03
    -44.222  0.0000E+00  0.2880E+03
    -43.962  0.0000E+00  0.2880E+03
    -43.702  0.0000E+00  0.2880E+03
    -43.442  0.0000E+00  0.2880E+03
    -43.182  0.0000E+00  0.2880E+03
    -42.922  0.0000E+00  0.2880E+03
    -42.662  0.0000E+00  0.2880E+03
    -42.402  0.0000E+00  0.2880E+03
    -42.142  0.0000E+00  0.2880E+03
    -41.882  0.0000E+00  0.2880E+03
    -41.622  0.0000E+00  0.2880E+03
    -41.362  0.0000E+00  0.2880E+03
    -41.101  0.0000E+00  0.2880E+03
    -40.841  0.0000E+00  0.2880E+03
    -40.581  0.0000E+00  0.2880E+03
    -40.321  0.0000E+00  0.2880E+03
    -40.061  0.0000E+00  0.2880E+03
    -39.801  0.0000E+00  0.2880E+03
    -39.541  0.0000E+00  0.2880E+03
    -39.281  0.0000E+00  0.2880E+03
    -39.021  0.0000E+00  0.2880E+03
    -38.761  0.0000E+00  0.2880E+03
    -38.501  0.0000E+00  0.2880E+03
    -38.241  0.0000E+00  0.2880E+03
    -37.981  0.0000E+00  0.2880E+03
    -37.721  0.0000E+00  0.2880E+03
    -37.461  0.0000E+00  0.2880E+03
    -37.201  0.0000E+00  0.2880E+03
    -36.941  0.0000E+00  0.2880E+03
    -36.681  0.0000E+00  0.2880E+03
    -36.421  0.0000E+00  0.2880E+03
    -36.161  0.0000E+00  0.2880E+03
    -35.901  0.0000E+00  0.2880E+03
    -35.641  0.0000E+00  0.2880E+03
    -35.380  0.0000E+00  0.2880E+03
    -35.120  0.0000E+00  0.2880E+03
    -34.860  0.0000E+00  0.2880E+03
    -34.600  0.0000E+00  0.2880E+03
    -34.340  0.0000E+00  0.2880E+03
    -34.080  0.0000E+00  0.2880E+03
    -33.820  0.0000E+00  0.2880E+03
    -33.560  0.0000E+00  0.2880E+03
    -33.300  0.0000E+00  0.2880E+03
    -33.040  0.0000E+00  0.2880E+03
    -32.780  0.0000E+00  0.2880E+03
    -32.520  0.0000E+00  0.2880E+03
    -32.260  0.0000E+00  0.2880E+03
    -32.000  0.0000E+00  0.2880E+03
    -31.740  0.0000E+00  0.2880E+03
    -31.480  0.0000E+00  0.2880E+03
    -31.220  0.0000E+00  0.2880E+03
    -30.960  0.0000E+00  0.2880E+03
    -30.700  0.0000E+00  0.2880E+03
    -30.440  0.0000E+00  0.2880E+03
    -30.180  0.0000E+00  0.2880E+03
    -29.920  0.0000E+00  0.2880E+03
    -29.660  0.0000E+00  0.2880E+03
    -29.399  0.0000E+00  0.2880E+03
    -29.139  0.0000E+00  0.2880E+03
    -28.879  0.0000E+00  0.2880E+03
    -28.619  0.0000E+00  0.2880E+03
    -28.359  0.0000E+00  0.2880E+03
    -28.099  0.0000E+00  0.2880E+03
    -27.839  0.0000E+00  0.2880E+03
    -27.579  0.0000E+00  0.2880E+03
    -27.319  0.0000E+00  0.2880E+03
    -27.059  0.0000E+00  0.2880E+03
    -26.799  0.0000E+00  0.2880E+03
    -26.539  0.0000E+00  0.2880E+03
    -26.279  0.0000E+00  0.2880E+03
    -26.019  0.0000E+00  0.2880E+03
    -25.759  0.0000E+00  0.2880E+03
    -25.499  0.0000E+00  0.2880E+03
    -25.239  0.0000E+00  0.2880E+03
    -24.979  0.0000E+00  0.2880E+03
    -24.719  0.0000E+00  0.2880E+03
    -24.459  0.0000E+00  0.2880E+03
    -24.199  0.0000E+00  0.2880E+03
    -23.939  0.0000E+00  0.2880E+03
    -23.678  0.0000E+00  0.2880E+03
    -23.418  0.0000E+00  0.2880E+03
    -23.158  0.0000E+00  0.2880E+03
    -22.898  0.0000E+00  0.2880E+03
    -22.638  0.0000E+00  0.2880E+03
    -22.378  0.0000E+00  0.2880E+03
    -22.118  0.0000E+00  0.2880E+03
    -21.858  0.0000E+00  0.2880E+03
    -21.598  0.0000E+00  0.2880E+03
    -21.338  0.0000E+00  0.2880E+03
    -21.078  0.0000E+00  0.2880E+03
    -20.818  0.0000E+00  0.2880E+03
    -20.558  0.0000E+00  0.2880E+03
    -20.298  0.0000E+00  0.2880E+03
    -20.038  0.0000E+00  0.2880E+03
    -19.778  0.0000E+00  0.2880E+03
    -19.518  0.0000E+00  0.2880E+03
    -19.258  0.0000E+00  0.2880E+03
    -18.998  0.0000E+00  0.2880E+03
    -18.738  0.0000E+00  0.2880E+03
    -18.478  0.0000E+00  0.2880E+03
    -18.218  0.0000E+00  0.2880E+03
    -17.957  0.0000E+00  0.2880E+03
    -17.697  0.0000E+00  0.2880E+03
    -17.437  0.0000E+00  0.2880E+03
    -17.177  0.0000E+00  0.2880E+03
    -16.917  0.0000E+00  0.2880E+03
    -16.657  0.0000E+00  0.2880E+03
    -16.397  0.0000E+00  0.2880E+03
    -16.137  0.0000E+00  0.2880E+03
    -15.877  0.0000E+00  0.2880E+03
    -15.617  0.0000E+00  0.2880E+03
    -15.357  0.0000E+00  0.2880E+03
    -15.097  0.0000E+00  0.2880E+03
    -14.837  0.0000E+00  0.2880E+03
    -14.577  0.0000E+00  0.2880E+03
    -14.317  0.8539E-15  0.2880E+03
    -14.057  0.7044E-09  0.2880E+03
    -13.797  0.2204E-04  0.2880E+03
    -13.537  0.2687E-01  0.2880E+03
    -13.277  0.1479E+01  0.2884E+03
    -13.017  0.5606E+01  0.2898E+03
    -12.757  0.9095E+01  0.2922E+03
    -12.497  0.1041E+02  0.2949E+03
    -12.236  0.9006E+01  0.2973E+03
    -11.976  0.1307E+02  0.3007E+03
    -11.716  0.1991E+02  0.3058E+03
    -11.456  0.2840E+02  0.3132E+03
    -11.196  0.3020E+02  0.3211E+03
    -10.936  0.3982E+02  0.3314E+03
    -10.676  0.4806E+02  0.3439E+03
    -10.416  0.4166E+02  0.3548E+03
    -10.156  0.4480E+02  0.3664E+03
     -9.896  0.3608E+02  0.3758E+03
     -9.636  0.1492E+02  0.3797E+03
     -9.376  0.2837E+01  0.3804E+03
     -9.116  0.9459E+01  0.3829E+03
     -8.856  0.4202E+01  0.3840E+03
     -8.596  0.1206E+00  0.3840E+03
     -8.336  0.1631E-03  0.3840E+03
     -8.076  0.8808E-08  0.3840E+03
     -7.816  0.1793E-13  0.3840E+03
     -7.556  0.0000E+00  0.3840E+03
     -7.296  0.0000E+00  0.3840E+03
     -7.036  0.0000E+00  0.3840E+03
     -6.776  0.0000E+00  0.3840E+03
     -6.515  0.0000E+00  0.3840E+03
     -6.255  0.1454E-11  0.3840E+03
     -5.995  0.2246E-06  0.3840E+03
     -5.735  0.1330E-02  0.3840E+03
     -5.475  0.3574E+00  0.3841E+03
     -5.215  0.6684E+01  0.3858E+03
     -4.955  0.1712E+02  0.3903E+03
     -4.695  0.2457E+02  0.3967E+03
     -4.435  0.2376E+02  0.4029E+03
     -4.175  0.2973E+02  0.4106E+03
     -3.915  0.3835E+02  0.4206E+03
     -3.655  0.5717E+02  0.4354E+03
     -3.395  0.6664E+02  0.4527E+03
     -3.135  0.3722E+02  0.4624E+03
     -2.875  0.3630E+02  0.4719E+03
     -2.615  0.4299E+02  0.4830E+03
     -2.355  0.4175E+02  0.4939E+03
     -2.095  0.5320E+02  0.5077E+03
     -1.835  0.7093E+02  0.5262E+03
     -1.575  0.7212E+02  0.5449E+03
     -1.315  0.8372E+02  0.5667E+03
     -1.055  0.1020E+03  0.5932E+03
     -0.794  0.1020E+03  0.6197E+03
     -0.534  0.7367E+02  0.6389E+03
     -0.274  0.5341E+02  0.6528E+03
     -0.014  0.6019E+02  0.6684E+03
      0.246  0.8061E+02  0.6894E+03
      0.506  0.1011E+03  0.7157E+03
      0.766  0.1345E+03  0.7507E+03
      1.026  0.1459E+03  0.7886E+03
      1.286  0.1196E+03  0.8197E+03
      1.546  0.2018E+03  0.8722E+03
      1.806  0.2260E+03  0.9310E+03
      2.066  0.1530E+03  0.9708E+03
      2.326  0.1223E+03  0.1003E+04
      2.586  0.6891E+02  0.1020E+04
      2.846  0.4071E+02  0.1031E+04
      3.106  0.3400E+02  0.1040E+04
      3.366  0.3860E+02  0.1050E+04
      3.626  0.6915E+02  0.1068E+04
      3.886  0.1003E+03  0.1094E+04
      4.146  0.8204E+02  0.1115E+04
      4.406  0.5776E+02  0.1130E+04
      4.666  0.3813E+02  0.1140E+04
      4.926  0.2952E+02  0.1148E+04
      5.187  0.1127E+02  0.1151E+04
      5.447  0.4008E+01  0.1152E+04
      5.707  0.1127E+01  0.1152E+04
      5.967  0.1136E+02  0.1155E+04
      6.227  0.2149E+02  0.1161E+04
      6.487  0.1511E+02  0.1165E+04
      6.747  0.1619E+02  0.1169E+04
      7.007  0.1413E+02  0.1173E+04
      7.267  0.3058E+02  0.1181E+04
      7.527  0.3520E+02  0.1190E+04
      7.787  0.3575E+02  0.1199E+04
      8.047  0.4391E+02  0.1210E+04
      8.307  0.4131E+02  0.1221E+04
      8.567  0.4343E+02  0.1232E+04
      8.827  0.4449E+02  0.1244E+04
      9.087  0.3529E+02  0.1253E+04
      9.347  0.3903E+02  0.1263E+04
      9.607  0.1659E+02  0.1268E+04
      9.867  0.1380E+01  0.1268E+04
     10.127  0.1124E-01  0.1268E+04
     10.387  0.4936E-05  0.1268E+04
     10.647  0.8847E-10  0.1268E+04
     10.908  0.0000E+00  0.1268E+04
     11.168  0.0000E+00  0.1268E+04
     11.428  0.0000E+00  0.1268E+04
     11.688  0.0000E+00  0.1268E+04
     11.948  0.0000E+00  0.1268E+04
     12.208  0.0000E+00  0.1268E+04
     12.468  0.0000E+00  0.1268E+04
     12.728  0.0000E+00  0.1268E+04
     12.988  0.0000E+00  0.1268E+04
