<?xml version="1.0" encoding="ISO-8859-1"?>
<modeling>
 <generator>
  <i name="program" type="string">vasp </i>
  <i name="version" type="string">5.4.4.18Apr17-6-g9f103f2a35  </i>
  <i name="subversion" type="string">(build Aug 13 2019 17:33:20) gamma-only         parallel </i>
  <i name="platform" type="string">LinuxIFC </i>
  <i name="date" type="string">2020 05 12 </i>
  <i name="time" type="string">00:24:14 </i>
 </generator>
 <incar>
  <i type="string" name="SYSTEM">"Millerite NiS"</i>
  <i type="string" name="PREC">normal</i>
  <i type="int" name="NSIM">     4</i>
  <i type="int" name="NELM">   100</i>
  <i name="ENCUT">    450.00000000</i>
  <i type="string" name="LREAL">A</i>
  <i type="int" name="ISMEAR">     0</i>
  <i type="int" name="NWRITE">     2</i>
  <i type="logical" name="LWAVE"> F  </i>
  <i type="logical" name="LCHARG"> F  </i>
  <v type="int" name="KPOINT_BSE">    -1     0     0     0</v>
  <i type="int" name="NELM">   100</i>
 </incar>
 <structure name="primitive_cell" >
  <crystal>
   <varray name="basis" >
    <v>      16.88469405       0.00000000       0.00000000 </v>
    <v>       0.00000000       9.57841000       0.00000000 </v>
    <v>       0.00000000       0.00000000      16.65464569 </v>
   </varray>
   <i name="volume">   2693.53123734 </i>
   <varray name="rec_basis" >
    <v>       0.05922524       0.00000000       0.00000000 </v>
    <v>       0.00000000       0.10440146       0.00000000 </v>
    <v>       0.00000000       0.00000000       0.06004331 </v>
   </varray>
  </crystal>
  <varray name="positions" >
   <v>      -0.23346245       0.11491443       0.15248366 </v>
   <v>      -0.35339478       0.14529696       0.12175764 </v>
   <v>      -0.20122651       0.25532119       0.05994022 </v>
   <v>      -0.16492217      -0.03746339       0.22131341 </v>
   <v>      -0.24496206      -0.06307175       0.07071590 </v>
   <v>      -0.30320762       0.13830369       0.26643667 </v>
   <v>      -0.17093895       0.31351196       0.21464750 </v>
   <v>      -0.17879655       0.13900495       0.28771842 </v>
   <v>      -0.09555278       0.29424825       0.11582189 </v>
   <v>      -0.36500811      -0.05954314       0.08418230 </v>
   <v>      -0.22644271       0.43640847       0.11988230 </v>
   <v>      -0.40270525       0.01319396       0.22247530 </v>
   <v>      -0.40270525       0.27739996       0.22247530 </v>
   <v>      -0.34336694      -0.18648804       0.18377980 </v>
   <v>      -0.04571248       0.01929584       0.24232808 </v>
   <v>      -0.23027726      -0.22260004       0.25334300 </v>
   <v>      -0.27553758      -0.27003747       0.09510237 </v>
   <v>      -0.04940846       0.27534039       0.25715461 </v>
   <v>      -0.00211605       0.16464182       0.15963791 </v>
   <v>      -0.34336694       0.47708196       0.18377980 </v>
   <v>      -0.46969739       0.14351333       0.09397439 </v>
   <v>      -0.23027726      -0.48680604       0.25334300 </v>
   <v>      -0.18096679      -0.35470304       0.15262534 </v>
   <v>      -0.30270247      -0.21323115       0.34930391 </v>
   <v>      -0.02600424      -0.20311199       0.07449283 </v>
   <v>      -0.00835162       0.13312219       0.33989606 </v>
   <v>       0.48420507      -0.02291804       0.15291210 </v>
   <v>      -0.03253676       0.47113094       0.08176643 </v>
   <v>      -0.30544220       0.49734725       0.34715983 </v>
   <v>      -0.47236951       0.00235558       0.32401558 </v>
   <v>       0.48420507       0.31351196       0.15291210 </v>
   <v>      -0.46731174       0.27779183       0.32593308 </v>
   <v>       0.00148905      -0.18648804       0.24551520 </v>
   <v>       0.46975828       0.14529696       0.24694159 </v>
   <v>      -0.35781373      -0.35470304       0.27780929 </v>
   <v>      -0.14987826      -0.35459087       0.31350730 </v>
   <v>      -0.04752570      -0.35470304       0.15433850 </v>
   <v>       0.00148905       0.47708196       0.24551520 </v>
   <v>      -0.42659942      -0.35448430       0.15850315 </v>
   <v>       0.12490229       0.14529696       0.18520619 </v>
   <v>       0.08001077      -0.22260004       0.12987220 </v>
   <v>      -0.02580986      -0.35438467       0.31715330 </v>
   <v>       0.39075054       0.15490524       0.13114875 </v>
   <v>       0.46505477      -0.17472364       0.32919839 </v>
   <v>       0.11106569       0.14505540       0.32665473 </v>
   <v>       0.14038197      -0.03226396       0.10715861 </v>
   <v>       0.08001077      -0.48680604       0.12987220 </v>
   <v>      -0.49125482      -0.35470304       0.27609614 </v>
   <v>       0.47079024       0.45549803       0.32367220 </v>
   <v>       0.42486675      -0.22260004       0.19160760 </v>
   <v>       0.14039252       0.32236393       0.10638841 </v>
   <v>       0.46984215      -0.35613029       0.09797407 </v>
   <v>       0.42486675      -0.48680604       0.19160760 </v>
   <v>       0.11161592      -0.21562051       0.29515006 </v>
   <v>       0.17252770       0.14458999       0.04659801 </v>
   <v>       0.17391704      -0.02291804       0.27638290 </v>
   <v>       0.11179695      -0.49338370       0.29567891 </v>
   <v>       0.17391704       0.31351196       0.27638290 </v>
   <v>       0.33631719       0.14529696       0.24522844 </v>
   <v>       0.11115315      -0.35617933       0.03710886 </v>
   <v>       0.07723013      -0.35418701       0.38202427 </v>
   <v>       0.34986801      -0.20390342       0.29477999 </v>
   <v>       0.16388920      -0.35470304       0.21436074 </v>
   <v>       0.29021003       0.14435079       0.06438144 </v>
   <v>       0.31177707      -0.18648804       0.12204440 </v>
   <v>       0.35415616       0.49959837       0.29737238 </v>
   <v>       0.25243876       0.01319396       0.16073990 </v>
   <v>       0.25243876       0.27739996       0.16073990 </v>
   <v>       0.35477500      -0.36374399       0.06925110 </v>
   <v>       0.29077749      -0.01952512       0.30789709 </v>
   <v>       0.29252124       0.31684030       0.30394290 </v>
   <v>       0.29719114       0.48114914       0.13056187 </v>
   <v>       0.21423445      -0.33887746       0.09905567 </v>
   <v>       0.29733028      -0.35470304       0.21607389 </v>
  </varray>
 </structure>
 <varray name="primitive_index" >
  <v type="int" >        1 </v>
  <v type="int" >       42 </v>
  <v type="int" >       51 </v>
  <v type="int" >       66 </v>
  <v type="int" >       65 </v>
  <v type="int" >       43 </v>
  <v type="int" >       52 </v>
  <v type="int" >        2 </v>
  <v type="int" >       25 </v>
  <v type="int" >       17 </v>
  <v type="int" >       23 </v>
  <v type="int" >       18 </v>
  <v type="int" >       31 </v>
  <v type="int" >       61 </v>
  <v type="int" >       14 </v>
  <v type="int" >       37 </v>
  <v type="int" >       36 </v>
  <v type="int" >       26 </v>
  <v type="int" >       39 </v>
  <v type="int" >       71 </v>
  <v type="int" >       30 </v>
  <v type="int" >       24 </v>
  <v type="int" >       49 </v>
  <v type="int" >       62 </v>
  <v type="int" >       58 </v>
  <v type="int" >       38 </v>
  <v type="int" >       69 </v>
  <v type="int" >       68 </v>
  <v type="int" >       72 </v>
  <v type="int" >       70 </v>
  <v type="int" >       55 </v>
  <v type="int" >       56 </v>
  <v type="int" >       57 </v>
  <v type="int" >        6 </v>
  <v type="int" >       13 </v>
  <v type="int" >       50 </v>
  <v type="int" >        7 </v>
  <v type="int" >       67 </v>
  <v type="int" >       12 </v>
  <v type="int" >       10 </v>
  <v type="int" >       32 </v>
  <v type="int" >        8 </v>
  <v type="int" >        5 </v>
  <v type="int" >       29 </v>
  <v type="int" >       11 </v>
  <v type="int" >       73 </v>
  <v type="int" >       19 </v>
  <v type="int" >       41 </v>
  <v type="int" >       16 </v>
  <v type="int" >       28 </v>
  <v type="int" >       59 </v>
  <v type="int" >       40 </v>
  <v type="int" >       15 </v>
  <v type="int" >       33 </v>
  <v type="int" >        9 </v>
  <v type="int" >       74 </v>
  <v type="int" >       20 </v>
  <v type="int" >       60 </v>
  <v type="int" >       48 </v>
  <v type="int" >       44 </v>
  <v type="int" >       46 </v>
  <v type="int" >       54 </v>
  <v type="int" >       45 </v>
  <v type="int" >       47 </v>
  <v type="int" >       53 </v>
  <v type="int" >       64 </v>
  <v type="int" >       21 </v>
  <v type="int" >       34 </v>
  <v type="int" >       27 </v>
  <v type="int" >       22 </v>
  <v type="int" >       35 </v>
  <v type="int" >       63 </v>
  <v type="int" >        3 </v>
  <v type="int" >        4 </v>
 </varray>
 <kpoints>
  <generation param="Gamma">
   <v type="int" name="divisions">       1        1        1 </v>
   <v name="usershift">      0.00000000       0.00000000       0.00000000 </v>
   <v name="genvec1">      1.00000000       0.00000000       0.00000000 </v>
   <v name="genvec2">      0.00000000       1.00000000       0.00000000 </v>
   <v name="genvec3">      0.00000000       0.00000000       1.00000000 </v>
   <v name="shift">      0.00000000       0.00000000       0.00000000 </v>
  </generation>
  <varray name="kpointlist" >
   <v>       0.00000000       0.00000000       0.00000000 </v>
  </varray>
  <varray name="weights" >
   <v>       1.00000000 </v>
  </varray>
 </kpoints>
 <parameters>
  <separator name="general" >
   <i type="string" name="SYSTEM">"Millerite NiS"</i>
   <i type="logical" name="LCOMPAT"> F  </i>
  </separator>
  <separator name="electronic" >
   <i type="string" name="PREC">normal</i>
   <i name="ENMAX">    450.00000000</i>
   <i name="ENAUG">    703.44300000</i>
   <i name="EDIFF">      0.00010000</i>
   <i type="int" name="IALGO">    38</i>
   <i type="int" name="IWAVPR">    10</i>
   <i type="int" name="NBANDS">   488</i>
   <i name="NELECT">    814.00000000</i>
   <i type="int" name="TURBO">     0</i>
   <i type="int" name="IRESTART">     0</i>
   <i type="int" name="NREBOOT">     0</i>
   <i type="int" name="NMIN">     0</i>
   <i name="EREF">      0.00000000</i>
   <separator name="electronic smearing" >
    <i type="int" name="ISMEAR">     0</i>
    <i name="SIGMA">      0.20000000</i>
    <i name="KSPACING">      0.50000000</i>
    <i type="logical" name="KGAMMA"> T  </i>
   </separator>
   <separator name="electronic projectors" >
    <i type="logical" name="LREAL"> T  </i>
    <v name="ROPT">     -0.00050000     -0.00050000</v>
    <i type="int" name="LMAXPAW">  -100</i>
    <i type="int" name="LMAXMIX">     2</i>
    <i type="logical" name="NLSPLINE"> F  </i>
   </separator>
   <separator name="electronic startup" >
    <i type="int" name="ISTART">     0</i>
    <i type="int" name="ICHARG">     2</i>
    <i type="int" name="INIWAV">     1</i>
   </separator>
   <separator name="electronic spin" >
    <i type="int" name="ISPIN">     1</i>
    <i type="logical" name="LNONCOLLINEAR"> F  </i>
    <v name="MAGMOM">      1.00000000      1.00000000      1.00000000      1.00000000      1.00000000      1.00000000      1.00000000      1.00000000      1.00000000      1.00000000      1.00000000      1.00000000      1.00000000      1.00000000      1.00000000      1.00000000      1.00000000      1.00000000      1.00000000      1.00000000
      1.00000000      1.00000000      1.00000000      1.00000000      1.00000000      1.00000000      1.00000000      1.00000000      1.00000000      1.00000000      1.00000000      1.00000000      1.00000000      1.00000000      1.00000000      1.00000000      1.00000000      1.00000000      1.00000000      1.00000000
      1.00000000      1.00000000      1.00000000      1.00000000      1.00000000      1.00000000      1.00000000      1.00000000      1.00000000      1.00000000      1.00000000      1.00000000      1.00000000      1.00000000      1.00000000      1.00000000      1.00000000      1.00000000      1.00000000      1.00000000
      1.00000000      1.00000000      1.00000000      1.00000000      1.00000000      1.00000000      1.00000000      1.00000000      1.00000000      1.00000000      1.00000000      1.00000000      1.00000000      1.00000000</v>
    <i name="NUPDOWN">     -1.00000000</i>
    <i type="logical" name="LSORBIT"> F  </i>
    <v name="SAXIS">      0.00000000      0.00000000      1.00000000</v>
    <i type="logical" name="LSPIRAL"> F  </i>
    <v name="QSPIRAL">      0.00000000      0.00000000      0.00000000</v>
    <i type="logical" name="LZEROZ"> F  </i>
   </separator>
   <separator name="electronic exchange-correlation" >
    <i type="logical" name="LASPH"> F  </i>
    <i type="logical" name="LMETAGGA"> F  </i>
   </separator>
   <separator name="electronic convergence" >
    <i type="int" name="NELM">   100</i>
    <i type="int" name="NELMDL">    -5</i>
    <i type="int" name="NELMIN">     2</i>
    <i name="ENINI">    450.00000000</i>
    <separator name="electronic convergence detail" >
     <i type="logical" name="LDIAG"> T  </i>
     <i type="logical" name="LSUBROT"> F  </i>
     <i name="WEIMIN">      0.00000000</i>
     <i name="EBREAK">      0.00000005</i>
     <i name="DEPER">      0.30000000</i>
     <i type="int" name="NRMM">     4</i>
     <i name="TIME">      0.40000000</i>
    </separator>
   </separator>
   <separator name="electronic mixer" >
    <i name="AMIX">      0.40000000</i>
    <i name="BMIX">      1.00000000</i>
    <i name="AMIN">      0.10000000</i>
    <i name="AMIX_MAG">      1.60000000</i>
    <i name="BMIX_MAG">      1.00000000</i>
    <separator name="electronic mixer details" >
     <i type="int" name="IMIX">     4</i>
     <i type="logical" name="MIXFIRST"> F  </i>
     <i type="int" name="MAXMIX">   -45</i>
     <i name="WC">    100.00000000</i>
     <i type="int" name="INIMIX">     1</i>
     <i type="int" name="MIXPRE">     1</i>
     <i type="int" name="MREMOVE">     5</i>
    </separator>
   </separator>
   <separator name="electronic dipolcorrection" >
    <i type="logical" name="LDIPOL"> F  </i>
    <i type="logical" name="LMONO"> F  </i>
    <i type="int" name="IDIPOL">     0</i>
    <i name="EPSILON">      1.00000000</i>
    <v name="DIPOL">   -100.00000000   -100.00000000   -100.00000000</v>
    <i name="EFIELD">      0.00000000</i>
   </separator>
  </separator>
  <separator name="grids" >
   <i type="int" name="NGX">    90</i>
   <i type="int" name="NGY">    50</i>
   <i type="int" name="NGZ">    90</i>
   <i type="int" name="NGXF">   180</i>
   <i type="int" name="NGYF">   100</i>
   <i type="int" name="NGZF">   180</i>
   <i type="logical" name="ADDGRID"> F  </i>
  </separator>
  <separator name="ionic" >
   <i type="int" name="NSW">     0</i>
   <i type="int" name="IBRION">    -1</i>
   <i type="int" name="MDALGO">     0</i>
   <i type="int" name="ISIF">     2</i>
   <i name="PSTRESS">      0.00000000</i>
   <i name="EDIFFG">      0.00100000</i>
   <i type="int" name="NFREE">     0</i>
   <i name="POTIM">      0.50000000</i>
   <i name="SMASS">     -3.00000000</i>
   <i name="SCALEE">      1.00000000</i>
  </separator>
  <separator name="ionic md" >
   <i name="TEBEG">      0.00010000</i>
   <i name="TEEND">      0.00010000</i>
   <i type="int" name="NBLOCK">     1</i>
   <i type="int" name="KBLOCK">     1</i>
   <i type="int" name="NPACO">   256</i>
   <i name="APACO">     16.00000000</i>
  </separator>
  <separator name="symmetry" >
   <i type="int" name="ISYM">     2</i>
   <i name="SYMPREC">      0.00001000</i>
  </separator>
  <separator name="dos" >
   <i type="int" name="LORBIT">     0</i>
   <v name="RWIGS">     -1.00000000     -1.00000000</v>
   <i type="int" name="NEDOS">   301</i>
   <i name="EMIN">     10.00000000</i>
   <i name="EMAX">    -10.00000000</i>
   <i name="EFERMI">      0.00000000</i>
  </separator>
  <separator name="writing" >
   <i type="int" name="NWRITE">     2</i>
   <i type="logical" name="LWAVE"> F  </i>
   <i type="logical" name="LDOWNSAMPLE"> F  </i>
   <i type="logical" name="LCHARG"> F  </i>
   <i type="logical" name="LPARD"> F  </i>
   <i type="logical" name="LVTOT"> F  </i>
   <i type="logical" name="LVHAR"> F  </i>
   <i type="logical" name="LELF"> F  </i>
   <i type="logical" name="LOPTICS"> F  </i>
   <v name="STM">      0.00000000      0.00000000      0.00000000      0.00000000      0.00000000      0.00000000      0.00000000</v>
  </separator>
  <separator name="performance" >
   <i type="int" name="NPAR">     2</i>
   <i type="int" name="NSIM">     4</i>
   <i type="int" name="NBLK">    -1</i>
   <i type="logical" name="LPLANE"> T  </i>
   <i type="logical" name="LSCALAPACK"> T  </i>
   <i type="logical" name="LSCAAWARE"> F  </i>
   <i type="logical" name="LSCALU"> F  </i>
   <i type="logical" name="LASYNC"> F  </i>
   <i type="logical" name="LORBITALREAL"> F  </i>
  </separator>
  <separator name="miscellaneous" >
   <i type="int" name="IDIOT">     3</i>
   <i type="int" name="ISPECIAL">     0</i>
   <i type="logical" name="LMUSIC"> F  </i>
   <v name="POMASS">     58.69000000     32.06600000</v>
   <v name="DARWINR">      0.00000000      0.00000000</v>
   <v name="DARWINV">      1.00000000      1.00000000</v>
   <i type="logical" name="LCORR"> T  </i>
  </separator>
  <i type="logical" name="GGA_COMPAT"> T  </i>
  <i type="logical" name="LBERRY"> F  </i>
  <i type="int" name="ICORELEVEL">     0</i>
  <i type="logical" name="LDAU"> F  </i>
  <i type="int" name="I_CONSTRAINED_M">     0</i>
  <separator name="electronic exchange-correlation" >
   <i type="string" name="GGA">--</i>
   <i type="int" name="VOSKOWN">     0</i>
   <i type="logical" name="LHFCALC"> F  </i>
   <i type="string" name="PRECFOCK"></i>
   <i type="logical" name="LSYMGRAD"> F  </i>
   <i type="logical" name="LHFONE"> F  </i>
   <i type="logical" name="LRHFCALC"> F  </i>
   <i type="logical" name="LTHOMAS"> F  </i>
   <i type="logical" name="LMODELHF"> F  </i>
   <i name="ENCUT4O">     -1.00000000</i>
   <i type="int" name="EXXOEP">     0</i>
   <i type="int" name="FOURORBIT">     0</i>
   <i name="AEXX">      0.00000000</i>
   <i name="HFALPHA">      0.00000000</i>
   <i name="MCALPHA">      0.00000000</i>
   <i name="ALDAX">      1.00000000</i>
   <i name="AGGAX">      1.00000000</i>
   <i name="ALDAC">      1.00000000</i>
   <i name="AGGAC">      1.00000000</i>
   <i type="int" name="NKREDX">     1</i>
   <i type="int" name="NKREDY">     1</i>
   <i type="int" name="NKREDZ">     1</i>
   <i type="logical" name="SHIFTRED"> F  </i>
   <i type="logical" name="ODDONLY"> F  </i>
   <i type="logical" name="EVENONLY"> F  </i>
   <i type="int" name="LMAXFOCK">     0</i>
   <i type="int" name="NMAXFOCKAE">     0</i>
   <i type="logical" name="LFOCKAEDFT"> F  </i>
   <i name="HFSCREEN">      0.00000000</i>
   <i name="HFSCREENC">      0.00000000</i>
   <i type="int" name="NBANDSGWLOW">     0</i>
  </separator>
  <separator name="vdW DFT" >
   <i type="logical" name="LUSE_VDW"> F  </i>
   <i name="Zab_VDW">     -0.84910000</i>
   <i name="PARAM1">      0.12340000</i>
   <i name="PARAM2">      1.00000000</i>
   <i name="PARAM3">      0.00000000</i>
  </separator>
  <separator name="model GW" >
   <i type="int" name="MODEL_GW">     0</i>
   <i name="MODEL_EPS0">     21.83944246</i>
   <i name="MODEL_ALPHA">      1.00000000</i>
  </separator>
  <separator name="linear response parameters" >
   <i type="logical" name="LEPSILON"> F  </i>
   <i type="logical" name="LRPA"> F  </i>
   <i type="logical" name="LNABLA"> F  </i>
   <i type="logical" name="LVEL"> F  </i>
   <i type="int" name="KINTER">     0</i>
   <i name="CSHIFT">      0.10000000</i>
   <i name="OMEGAMAX">     -1.00000000</i>
   <i name="DEG_THRESHOLD">      0.00200000</i>
   <i name="RTIME">     -0.10000000</i>
   <i name="WPLASMAI">      0.00000000</i>
   <v name="DFIELD">      0.00000000      0.00000000      0.00000000</v>
   <v name="WPLASMA">      0.00000000      0.00000000      0.00000000      0.00000000      0.00000000      0.00000000      0.00000000      0.00000000      0.00000000</v>
  </separator>
  <separator name="orbital magnetization" >
   <i type="logical" name="NUCIND"> F  </i>
   <v name="MAGPOS">      0.00000000      0.00000000      0.00000000</v>
   <i type="logical" name="LNICSALL"> T  </i>
   <i type="logical" name="ORBITALMAG"> F  </i>
   <i type="logical" name="LMAGBLOCH"> F  </i>
   <i type="logical" name="LCHIMAG"> F  </i>
   <i type="logical" name="LGAUGE"> T  </i>
   <i type="int" name="MAGATOM">     0</i>
   <v name="MAGDIPOL">      0.00000000      0.00000000      0.00000000</v>
   <v name="AVECCONST">      0.00000000      0.00000000      0.00000000</v>
  </separator>
  <separator name="response functions" >
   <i type="logical" name="LADDER"> F  </i>
   <i type="logical" name="LRPAFORCE"> F  </i>
   <i type="logical" name="LFXC"> F  </i>
   <i type="logical" name="LHARTREE"> T  </i>
   <i type="int" name="IBSE">     0</i>
   <v type="int" name="KPOINT">    -1     0     0     0</v>
   <i type="logical" name="LTCTE"> F  </i>
   <i type="logical" name="LTETE"> F  </i>
   <i type="logical" name="LTRIPLET"> F  </i>
   <i type="logical" name="LFXCEPS"> F  </i>
   <i type="logical" name="LFXHEG"> F  </i>
   <i type="int" name="NATURALO">     2</i>
   <i type="logical" name="L2ORDER"> F  </i>
   <i type="logical" name="LMP2LT"> F  </i>
   <i type="logical" name="LUSEW"> F  </i>
   <i name="ENCUTGW">     -2.00000000</i>
   <i name="ENCUTGWSOFT">     -2.00000000</i>
   <i name="ENCUTLF">     -1.00000000</i>
   <i type="int" name="LMAXMP2">    -1</i>
   <i name="SCISSOR">      0.00000000</i>
   <i type="int" name="NOMEGA">     0</i>
   <i type="int" name="NOMEGAR">     0</i>
   <i type="int" name="NBANDSGW">    -1</i>
   <i type="int" name="NBANDSO">    -1</i>
   <i type="int" name="NBANDSV">    -1</i>
   <i type="int" name="NELM">   100</i>
   <i type="int" name="NELMHF">     1</i>
   <i type="int" name="DIM">     3</i>
   <i type="int" name="ANTIRES">     0</i>
   <i name="OMEGAMAX">    -30.00000000</i>
   <i name="OMEGAMIN">    -30.00000000</i>
   <i name="OMEGATL">   -200.00000000</i>
   <i type="int" name="OMEGAGRID">   140</i>
   <i name="CSHIFT">     -0.10000000</i>
   <i type="logical" name="SELFENERGY"> F  </i>
   <i type="logical" name="LSPECTRAL"> F  </i>
   <i type="logical" name="LSPECTRALGW"> F  </i>
   <i type="logical" name="LSINGLES"> F  </i>
   <i type="logical" name="LFERMIGW"> F  </i>
   <i type="logical" name="ODDONLYGW"> F  </i>
   <i type="logical" name="EVENONLYGW"> F  </i>
   <i type="int" name="NKREDLFX">     1</i>
   <i type="int" name="NKREDLFY">     1</i>
   <i type="int" name="NKREDLFZ">     1</i>
   <i type="int" name="MAXMEM">  2800</i>
   <i type="int" name="TELESCOPE">     0</i>
   <i type="int" name="TAUPAR">     1</i>
   <i type="int" name="OMEGAPAR">    -1</i>
   <i name="LAMBDA">      1.00000000</i>
  </separator>
  <separator name="External order field" >
   <i name="OFIELD_KAPPA">      0.00000000</i>
   <v name="OFIELD_K">      0.00000000      0.00000000      0.00000000</v>
   <i name="OFIELD_Q6_NEAR">      0.00000000</i>
   <i name="OFIELD_Q6_FAR">      0.00000000</i>
   <i name="OFIELD_A">      0.00000000</i>
  </separator>
 </parameters>
 <atominfo>
  <atoms>      74 </atoms>
  <types>       2 </types>
  <array name="atoms" >
   <dimension dim="1">ion</dimension>
   <field type="string">element</field>
   <field type="int">atomtype</field>
   <set>
    <rc><c>Ni</c><c>   1</c></rc>
    <rc><c>Ni</c><c>   1</c></rc>
    <rc><c>Ni</c><c>   1</c></rc>
    <rc><c>Ni</c><c>   1</c></rc>
    <rc><c>Ni</c><c>   1</c></rc>
    <rc><c>Ni</c><c>   1</c></rc>
    <rc><c>Ni</c><c>   1</c></rc>
    <rc><c>Ni</c><c>   1</c></rc>
    <rc><c>Ni</c><c>   1</c></rc>
    <rc><c>Ni</c><c>   1</c></rc>
    <rc><c>Ni</c><c>   1</c></rc>
    <rc><c>Ni</c><c>   1</c></rc>
    <rc><c>Ni</c><c>   1</c></rc>
    <rc><c>Ni</c><c>   1</c></rc>
    <rc><c>Ni</c><c>   1</c></rc>
    <rc><c>Ni</c><c>   1</c></rc>
    <rc><c>Ni</c><c>   1</c></rc>
    <rc><c>Ni</c><c>   1</c></rc>
    <rc><c>Ni</c><c>   1</c></rc>
    <rc><c>Ni</c><c>   1</c></rc>
    <rc><c>Ni</c><c>   1</c></rc>
    <rc><c>Ni</c><c>   1</c></rc>
    <rc><c>Ni</c><c>   1</c></rc>
    <rc><c>Ni</c><c>   1</c></rc>
    <rc><c>Ni</c><c>   1</c></rc>
    <rc><c>Ni</c><c>   1</c></rc>
    <rc><c>Ni</c><c>   1</c></rc>
    <rc><c>Ni</c><c>   1</c></rc>
    <rc><c>Ni</c><c>   1</c></rc>
    <rc><c>Ni</c><c>   1</c></rc>
    <rc><c>Ni</c><c>   1</c></rc>
    <rc><c>Ni</c><c>   1</c></rc>
    <rc><c>Ni</c><c>   1</c></rc>
    <rc><c>Ni</c><c>   1</c></rc>
    <rc><c>Ni</c><c>   1</c></rc>
    <rc><c>Ni</c><c>   1</c></rc>
    <rc><c>Ni</c><c>   1</c></rc>
    <rc><c>S </c><c>   2</c></rc>
    <rc><c>S </c><c>   2</c></rc>
    <rc><c>S </c><c>   2</c></rc>
    <rc><c>S </c><c>   2</c></rc>
    <rc><c>S </c><c>   2</c></rc>
    <rc><c>S </c><c>   2</c></rc>
    <rc><c>S </c><c>   2</c></rc>
    <rc><c>S </c><c>   2</c></rc>
    <rc><c>S </c><c>   2</c></rc>
    <rc><c>S </c><c>   2</c></rc>
    <rc><c>S </c><c>   2</c></rc>
    <rc><c>S </c><c>   2</c></rc>
    <rc><c>S </c><c>   2</c></rc>
    <rc><c>S </c><c>   2</c></rc>
    <rc><c>S </c><c>   2</c></rc>
    <rc><c>S </c><c>   2</c></rc>
    <rc><c>S </c><c>   2</c></rc>
    <rc><c>S </c><c>   2</c></rc>
    <rc><c>S </c><c>   2</c></rc>
    <rc><c>S </c><c>   2</c></rc>
    <rc><c>S </c><c>   2</c></rc>
    <rc><c>S </c><c>   2</c></rc>
    <rc><c>S </c><c>   2</c></rc>
    <rc><c>S </c><c>   2</c></rc>
    <rc><c>S </c><c>   2</c></rc>
    <rc><c>S </c><c>   2</c></rc>
    <rc><c>S </c><c>   2</c></rc>
    <rc><c>S </c><c>   2</c></rc>
    <rc><c>S </c><c>   2</c></rc>
    <rc><c>S </c><c>   2</c></rc>
    <rc><c>S </c><c>   2</c></rc>
    <rc><c>S </c><c>   2</c></rc>
    <rc><c>S </c><c>   2</c></rc>
    <rc><c>S </c><c>   2</c></rc>
    <rc><c>S </c><c>   2</c></rc>
    <rc><c>S </c><c>   2</c></rc>
    <rc><c>S </c><c>   2</c></rc>
   </set>
  </array>
  <array name="atomtypes" >
   <dimension dim="1">type</dimension>
   <field type="int">atomspertype</field>
   <field type="string">element</field>
   <field>mass</field>
   <field>valence</field>
   <field type="string">pseudopotential</field>
   <set>
    <rc><c>  37</c><c>Ni</c><c>     58.69000000</c><c>     16.00000000</c><c>  PAW_PBE Ni_pv 06Sep2000               </c></rc>
    <rc><c>  37</c><c>S </c><c>     32.06600000</c><c>      6.00000000</c><c>  PAW_PBE S 06Sep2000                   </c></rc>
   </set>
  </array>
 </atominfo>
 <structure name="initialpos" >
  <crystal>
   <varray name="basis" >
    <v>      16.88469405       0.00000000       0.00000000 </v>
    <v>       0.00000000       9.57841000       0.00000000 </v>
    <v>       0.00000000       0.00000000      16.65464569 </v>
   </varray>
   <i name="volume">   2693.53123734 </i>
   <varray name="rec_basis" >
    <v>       0.05922524       0.00000000       0.00000000 </v>
    <v>       0.00000000       0.10440146       0.00000000 </v>
    <v>       0.00000000       0.00000000       0.06004331 </v>
   </varray>
  </crystal>
  <varray name="positions" >
   <v>       0.76653755       0.11491443       0.15248366 </v>
   <v>       0.82120345       0.13900495       0.28771842 </v>
   <v>       0.21423445       0.66112254       0.09905567 </v>
   <v>       0.29733028       0.64529696       0.21607389 </v>
   <v>       0.39075054       0.15490524       0.13114875 </v>
   <v>       0.46975828       0.14529696       0.24694159 </v>
   <v>       0.95247430       0.64529696       0.15433850 </v>
   <v>       0.97419014       0.64561533       0.31715330 </v>
   <v>       0.17252770       0.14458999       0.04659801 </v>
   <v>       0.12490229       0.14529696       0.18520619 </v>
   <v>       0.11106569       0.14505540       0.32665473 </v>
   <v>       0.57340058       0.64551570       0.15850315 </v>
   <v>       0.64218627       0.64529696       0.27780929 </v>
   <v>       0.95428752       0.01929584       0.24232808 </v>
   <v>       0.42486675       0.51319396       0.19160760 </v>
   <v>       0.47079024       0.45549803       0.32367220 </v>
   <v>       0.63499189       0.94045686       0.08418230 </v>
   <v>       0.59729475       0.01319396       0.22247530 </v>
   <v>       0.08001077       0.51319396       0.12987220 </v>
   <v>       0.11179695       0.50661630       0.29567891 </v>
   <v>       0.25243876       0.01319396       0.16073990 </v>
   <v>       0.29077749       0.98047488       0.30789709 </v>
   <v>       0.77355729       0.43640847       0.11988230 </v>
   <v>       0.76972274       0.51319396       0.25334300 </v>
   <v>       0.90444722       0.29424825       0.11582189 </v>
   <v>       0.95059154       0.27534039       0.25715461 </v>
   <v>       0.35477500       0.63625601       0.06925110 </v>
   <v>       0.42486675       0.77739996       0.19160760 </v>
   <v>       0.46505477       0.82527636       0.32919839 </v>
   <v>       0.53030261       0.14351333       0.09397439 </v>
   <v>       0.59729475       0.27739996       0.22247530 </v>
   <v>       0.08001077       0.77739996       0.12987220 </v>
   <v>       0.11161592       0.78437949       0.29515006 </v>
   <v>       0.25243876       0.27739996       0.16073990 </v>
   <v>       0.29252124       0.31684030       0.30394290 </v>
   <v>       0.72446242       0.72996253       0.09510237 </v>
   <v>       0.76972274       0.77739996       0.25334300 </v>
   <v>       0.99164838       0.13312219       0.33989606 </v>
   <v>       0.99788395       0.16464182       0.15963791 </v>
   <v>       0.46984215       0.64386971       0.09797407 </v>
   <v>       0.50874518       0.64529696       0.27609614 </v>
   <v>       0.64660522       0.14529696       0.12175764 </v>
   <v>       0.69679238       0.13830369       0.26643667 </v>
   <v>       0.11115315       0.64382067       0.03710886 </v>
   <v>       0.16388920       0.64529696       0.21436074 </v>
   <v>       0.07723013       0.64581299       0.38202427 </v>
   <v>       0.29021003       0.14435079       0.06438144 </v>
   <v>       0.33631719       0.14529696       0.24522844 </v>
   <v>       0.81903321       0.64529696       0.15262534 </v>
   <v>       0.85012174       0.64540913       0.31350730 </v>
   <v>       0.79877349       0.25532119       0.05994022 </v>
   <v>       0.82906105       0.31351196       0.21464750 </v>
   <v>       0.31177707       0.81351196       0.12204440 </v>
   <v>       0.34986801       0.79609658       0.29477999 </v>
   <v>       0.48420507       0.31351196       0.15291210 </v>
   <v>       0.53268826       0.27779183       0.32593308 </v>
   <v>       0.00148905       0.81351196       0.24551520 </v>
   <v>       0.97399576       0.79688801       0.07449283 </v>
   <v>       0.14039252       0.32236393       0.10638841 </v>
   <v>       0.17391704       0.31351196       0.27638290 </v>
   <v>       0.65663306       0.81351196       0.18377980 </v>
   <v>       0.69729753       0.78676885       0.34930391 </v>
   <v>       0.29719114       0.48114914       0.13056187 </v>
   <v>       0.35415616       0.49959837       0.29737238 </v>
   <v>       0.75503794       0.93692825       0.07071590 </v>
   <v>       0.83507783       0.96253661       0.22131341 </v>
   <v>       0.00148905       0.47708196       0.24551520 </v>
   <v>       0.96746324       0.47113094       0.08176643 </v>
   <v>       0.48420507       0.97708196       0.15291210 </v>
   <v>       0.52763049       0.00235558       0.32401558 </v>
   <v>       0.65663306       0.47708196       0.18377980 </v>
   <v>       0.69455780       0.49734725       0.34715983 </v>
   <v>       0.14038197       0.96773604       0.10715861 </v>
   <v>       0.17391704       0.97708196       0.27638290 </v>
  </varray>
 </structure>
 <calculation>
  <scstep>
   <time name="dav">    9.24    9.24</time>
   <time name="total">    9.74    9.75</time>
   <energy>
    <i name="alphaZ">   1458.83996183 </i>
    <i name="ewald"> 169205.10509632 </i>
    <i name="hartreedc">-292817.30681634 </i>
    <i name="XCdc">   3785.60666954 </i>
    <i name="pawpsdc"> 115860.90926010 </i>
    <i name="pawaedc">-120909.33166199 </i>
    <i name="eentropy">     -0.50568181 </i>
    <i name="bandstr">  -7211.27169723 </i>
    <i name="atom"> 139780.45519414 </i>
    <i name="e_fr_energy">   9152.50032457 </i>
    <i name="e_wo_entrp">   9153.00600638 </i>
    <i name="e_0_energy">   9152.75316547 </i>
   </energy>
  </scstep>
  <scstep>
   <time name="dav">    8.55    8.55</time>
   <time name="total">    8.55    8.55</time>
   <energy>
    <i name="e_fr_energy">    492.71754385 </i>
    <i name="e_wo_entrp">    493.43506356 </i>
    <i name="e_0_energy">    493.07630370 </i>
   </energy>
  </scstep>
  <scstep>
   <time name="dav">    8.73    8.74</time>
   <time name="total">    8.73    8.74</time>
   <energy>
    <i name="e_fr_energy">   -356.74445019 </i>
    <i name="e_wo_entrp">   -355.57143742 </i>
    <i name="e_0_energy">   -356.15794380 </i>
   </energy>
  </scstep>
  <scstep>
   <time name="dav">    8.80    8.80</time>
   <time name="total">    8.80    8.80</time>
   <energy>
    <i name="e_fr_energy">   -400.84314012 </i>
    <i name="e_wo_entrp">   -399.66779612 </i>
    <i name="e_0_energy">   -400.25546812 </i>
   </energy>
  </scstep>
  <scstep>
   <time name="dav">    9.88    9.89</time>
   <time name="total">   10.20   10.20</time>
   <energy>
    <i name="e_fr_energy">   -402.71772062 </i>
    <i name="e_wo_entrp">   -401.54655477 </i>
    <i name="e_0_energy">   -402.13213769 </i>
   </energy>
  </scstep>
  <scstep>
   <time name="dav">    9.73    9.73</time>
   <time name="total">   10.39   10.40</time>
   <energy>
    <i name="e_fr_energy">   -466.36382605 </i>
    <i name="e_wo_entrp">   -465.65907351 </i>
    <i name="e_0_energy">   -466.01144978 </i>
   </energy>
  </scstep>
  <scstep>
   <time name="dav">    8.73    8.73</time>
   <time name="total">    9.64    9.64</time>
   <energy>
    <i name="e_fr_energy">   -366.52486879 </i>
    <i name="e_wo_entrp">   -365.55193204 </i>
    <i name="e_0_energy">   -366.03840042 </i>
   </energy>
  </scstep>
  <scstep>
   <time name="dav">   10.19   10.20</time>
   <time name="total">   11.04   11.05</time>
   <energy>
    <i name="e_fr_energy">   -406.01245536 </i>
    <i name="e_wo_entrp">   -405.00656664 </i>
    <i name="e_0_energy">   -405.50951100 </i>
   </energy>
  </scstep>
  <scstep>
   <time name="dav">    9.55    9.55</time>
   <time name="total">   10.42   10.42</time>
   <energy>
    <i name="e_fr_energy">   -371.66702212 </i>
    <i name="e_wo_entrp">   -370.47562753 </i>
    <i name="e_0_energy">   -371.07132483 </i>
   </energy>
  </scstep>
  <scstep>
   <time name="dav">   10.28   10.28</time>
   <time name="total">   11.23   11.23</time>
   <energy>
    <i name="e_fr_energy">   -398.33842849 </i>
    <i name="e_wo_entrp">   -397.19970453 </i>
    <i name="e_0_energy">   -397.76906651 </i>
   </energy>
  </scstep>
  <scstep>
   <time name="dav">   10.08   10.08</time>
   <time name="total">   10.93   10.93</time>
   <energy>
    <i name="e_fr_energy">   -369.30197242 </i>
    <i name="e_wo_entrp">   -368.41703980 </i>
    <i name="e_0_energy">   -368.85950611 </i>
   </energy>
  </scstep>
  <scstep>
   <time name="dav">   10.34   10.34</time>
   <time name="total">   11.01   11.01</time>
   <energy>
    <i name="e_fr_energy">   -358.32478302 </i>
    <i name="e_wo_entrp">   -357.25816297 </i>
    <i name="e_0_energy">   -357.79147300 </i>
   </energy>
  </scstep>
  <scstep>
   <time name="dav">    9.64    9.64</time>
   <time name="total">   10.56   10.56</time>
   <energy>
    <i name="e_fr_energy">   -356.64113461 </i>
    <i name="e_wo_entrp">   -355.48641804 </i>
    <i name="e_0_energy">   -356.06377633 </i>
   </energy>
  </scstep>
  <scstep>
   <time name="dav">    9.99    9.99</time>
   <time name="total">   10.91   10.91</time>
   <energy>
    <i name="e_fr_energy">   -353.72007963 </i>
    <i name="e_wo_entrp">   -352.71187762 </i>
    <i name="e_0_energy">   -353.21597862 </i>
   </energy>
  </scstep>
  <scstep>
   <time name="dav">   10.00   10.00</time>
   <time name="total">   10.82   10.82</time>
   <energy>
    <i name="e_fr_energy">   -352.57609306 </i>
    <i name="e_wo_entrp">   -351.50267913 </i>
    <i name="e_0_energy">   -352.03938609 </i>
   </energy>
  </scstep>
  <scstep>
   <time name="dav">    9.86    9.86</time>
   <time name="total">   10.78   10.79</time>
   <energy>
    <i name="e_fr_energy">   -352.24353483 </i>
    <i name="e_wo_entrp">   -351.17020769 </i>
    <i name="e_0_energy">   -351.70687126 </i>
   </energy>
  </scstep>
  <scstep>
   <time name="dav">    9.73    9.73</time>
   <time name="total">   10.57   10.57</time>
   <energy>
    <i name="e_fr_energy">   -352.01607402 </i>
    <i name="e_wo_entrp">   -350.95197407 </i>
    <i name="e_0_energy">   -351.48402405 </i>
   </energy>
  </scstep>
  <scstep>
   <time name="dav">    9.99    9.99</time>
   <time name="total">   10.79   10.79</time>
   <energy>
    <i name="e_fr_energy">   -351.66045748 </i>
    <i name="e_wo_entrp">   -350.58319536 </i>
    <i name="e_0_energy">   -351.12182642 </i>
   </energy>
  </scstep>
  <scstep>
   <time name="dav">   10.02   10.02</time>
   <time name="total">   10.82   10.82</time>
   <energy>
    <i name="e_fr_energy">   -351.43204193 </i>
    <i name="e_wo_entrp">   -350.35795502 </i>
    <i name="e_0_energy">   -350.89499848 </i>
   </energy>
  </scstep>
  <scstep>
   <time name="dav">   10.25   10.25</time>
   <time name="total">   11.29   11.29</time>
   <energy>
    <i name="e_fr_energy">   -351.16414585 </i>
    <i name="e_wo_entrp">   -350.07554840 </i>
    <i name="e_0_energy">   -350.61984712 </i>
   </energy>
  </scstep>
  <scstep>
   <time name="dav">   10.04   10.05</time>
   <time name="total">   10.98   10.99</time>
   <energy>
    <i name="e_fr_energy">   -351.05893603 </i>
    <i name="e_wo_entrp">   -349.98639916 </i>
    <i name="e_0_energy">   -350.52266760 </i>
   </energy>
  </scstep>
  <scstep>
   <time name="dav">    9.67    9.68</time>
   <time name="total">   10.39   10.39</time>
   <energy>
    <i name="e_fr_energy">   -351.04849596 </i>
    <i name="e_wo_entrp">   -349.97102280 </i>
    <i name="e_0_energy">   -350.50975938 </i>
   </energy>
  </scstep>
  <scstep>
   <time name="dav">    9.10    9.10</time>
   <time name="total">    9.91    9.91</time>
   <energy>
    <i name="e_fr_energy">   -351.03807880 </i>
    <i name="e_wo_entrp">   -349.96230791 </i>
    <i name="e_0_energy">   -350.50019336 </i>
   </energy>
  </scstep>
  <scstep>
   <time name="dav">   10.29   10.29</time>
   <time name="total">   10.98   10.98</time>
   <energy>
    <i name="e_fr_energy">   -351.04531753 </i>
    <i name="e_wo_entrp">   -349.96056390 </i>
    <i name="e_0_energy">   -350.50294071 </i>
   </energy>
  </scstep>
  <scstep>
   <time name="dav">   10.25   10.26</time>
   <time name="total">   10.95   10.95</time>
   <energy>
    <i name="e_fr_energy">   -351.02499763 </i>
    <i name="e_wo_entrp">   -349.95484937 </i>
    <i name="e_0_energy">   -350.48992350 </i>
   </energy>
  </scstep>
  <scstep>
   <time name="dav">   10.30   10.30</time>
   <time name="total">   11.00   11.00</time>
   <energy>
    <i name="e_fr_energy">   -351.02822579 </i>
    <i name="e_wo_entrp">   -349.95016784 </i>
    <i name="e_0_energy">   -350.48919682 </i>
   </energy>
  </scstep>
  <scstep>
   <time name="dav">    9.62    9.62</time>
   <time name="total">   10.32   10.33</time>
   <energy>
    <i name="e_fr_energy">   -351.02370196 </i>
    <i name="e_wo_entrp">   -349.95075052 </i>
    <i name="e_0_energy">   -350.48722624 </i>
   </energy>
  </scstep>
  <scstep>
   <time name="dav">   10.00   10.00</time>
   <time name="total">   10.73   10.73</time>
   <energy>
    <i name="e_fr_energy">   -351.02414986 </i>
    <i name="e_wo_entrp">   -349.95028669 </i>
    <i name="e_0_energy">   -350.48721827 </i>
   </energy>
  </scstep>
  <scstep>
   <time name="dav">    8.97    8.98</time>
   <time name="total">    9.68    9.68</time>
   <energy>
    <i name="e_fr_energy">   -351.02380964 </i>
    <i name="e_wo_entrp">   -349.94982374 </i>
    <i name="e_0_energy">   -350.48681669 </i>
   </energy>
  </scstep>
  <scstep>
   <time name="dav">    9.15    9.15</time>
   <time name="total">    9.85    9.86</time>
   <energy>
    <i name="e_fr_energy">   -351.02443826 </i>
    <i name="e_wo_entrp">   -349.95152801 </i>
    <i name="e_0_energy">   -350.48798314 </i>
   </energy>
  </scstep>
  <scstep>
   <time name="dav">    8.45    8.45</time>
   <time name="total">    9.17    9.17</time>
   <energy>
    <i name="e_fr_energy">   -351.02442156 </i>
    <i name="e_wo_entrp">   -349.95017940 </i>
    <i name="e_0_energy">   -350.48730048 </i>
   </energy>
  </scstep>
  <scstep>
   <time name="dav">    6.05    6.05</time>
   <time name="total">    6.90    6.90</time>
   <energy>
    <i name="e_fr_energy">   -351.02473914 </i>
    <i name="e_wo_entrp">   -349.95054449 </i>
    <i name="e_0_energy">   -350.48764181 </i>
   </energy>
  </scstep>
  <scstep>
   <time name="dav">    5.77    5.77</time>
   <time name="total">    6.49    6.49</time>
   <energy>
    <i name="e_fr_energy">   -351.02485624 </i>
    <i name="e_wo_entrp">   -349.95055500 </i>
    <i name="e_0_energy">   -350.48770562 </i>
   </energy>
  </scstep>
  <scstep>
   <time name="dav">    5.75    5.75</time>
   <time name="total">    6.48    6.48</time>
   <energy>
    <i name="e_fr_energy">   -351.02530879 </i>
    <i name="e_wo_entrp">   -349.95108904 </i>
    <i name="e_0_energy">   -350.48819892 </i>
   </energy>
  </scstep>
  <scstep>
   <time name="dav">    5.92    5.92</time>
   <time name="total">    6.65    6.65</time>
   <energy>
    <i name="e_fr_energy">   -351.02566242 </i>
    <i name="e_wo_entrp">   -349.95150684 </i>
    <i name="e_0_energy">   -350.48858463 </i>
   </energy>
  </scstep>
  <scstep>
   <time name="dav">    6.68    6.68</time>
   <time name="total">    7.41    7.41</time>
   <energy>
    <i name="e_fr_energy">   -351.02654238 </i>
    <i name="e_wo_entrp">   -349.95240015 </i>
    <i name="e_0_energy">   -350.48947127 </i>
   </energy>
  </scstep>
  <scstep>
   <time name="dav">    5.81    5.82</time>
   <time name="total">    6.54    6.54</time>
   <energy>
    <i name="e_fr_energy">   -351.02680015 </i>
    <i name="e_wo_entrp">   -349.95271210 </i>
    <i name="e_0_energy">   -350.48975613 </i>
   </energy>
  </scstep>
  <scstep>
   <time name="dav">    5.69    5.69</time>
   <time name="total">    6.42    6.42</time>
   <energy>
    <i name="e_fr_energy">   -351.02712644 </i>
    <i name="e_wo_entrp">   -349.95290509 </i>
    <i name="e_0_energy">   -350.49001577 </i>
   </energy>
  </scstep>
  <scstep>
   <time name="dav">    5.73    5.73</time>
   <time name="total">    6.47    6.47</time>
   <energy>
    <i name="e_fr_energy">   -351.02732030 </i>
    <i name="e_wo_entrp">   -349.95317214 </i>
    <i name="e_0_energy">   -350.49024622 </i>
   </energy>
  </scstep>
  <scstep>
   <time name="dav">    5.86    5.86</time>
   <time name="total">    6.65    6.65</time>
   <energy>
    <i name="e_fr_energy">   -351.02773557 </i>
    <i name="e_wo_entrp">   -349.95352769 </i>
    <i name="e_0_energy">   -350.49063163 </i>
   </energy>
  </scstep>
  <scstep>
   <time name="dav">    5.80    5.80</time>
   <time name="total">    6.30    6.30</time>
   <energy>
    <i name="alphaZ">   1458.83996183 </i>
    <i name="ewald"> 169205.10509632 </i>
    <i name="hartreedc">-292194.40860973 </i>
    <i name="XCdc">   3756.29983436 </i>
    <i name="pawpsdc"> 145113.95866468 </i>
    <i name="pawaedc">-150246.52150904 </i>
    <i name="eentropy">     -1.07416902 </i>
    <i name="bandstr"> -17223.68228452 </i>
    <i name="atom"> 139780.45519414 </i>
    <i name="e_fr_energy">   -351.02782097 </i>
    <i name="e_wo_entrp">   -349.95365196 </i>
    <i name="e_0_energy">   -350.49073647 </i>
   </energy>
  </scstep>
  <structure>
   <crystal>
    <varray name="basis" >
     <v>      16.88469405       0.00000000       0.00000000 </v>
     <v>       0.00000000       9.57841000       0.00000000 </v>
     <v>       0.00000000       0.00000000      16.65464569 </v>
    </varray>
    <i name="volume">   2693.53123734 </i>
    <varray name="rec_basis" >
     <v>       0.05922524       0.00000000       0.00000000 </v>
     <v>       0.00000000       0.10440146       0.00000000 </v>
     <v>       0.00000000       0.00000000       0.06004331 </v>
    </varray>
   </crystal>
   <varray name="positions" >
    <v>       0.76653755       0.11491443       0.15248366 </v>
    <v>       0.82120345       0.13900495       0.28771842 </v>
    <v>       0.21423445       0.66112254       0.09905567 </v>
    <v>       0.29733028       0.64529696       0.21607389 </v>
    <v>       0.39075054       0.15490524       0.13114875 </v>
    <v>       0.46975828       0.14529696       0.24694159 </v>
    <v>       0.95247430       0.64529696       0.15433850 </v>
    <v>       0.97419014       0.64561533       0.31715330 </v>
    <v>       0.17252770       0.14458999       0.04659801 </v>
    <v>       0.12490229       0.14529696       0.18520619 </v>
    <v>       0.11106569       0.14505540       0.32665473 </v>
    <v>       0.57340058       0.64551570       0.15850315 </v>
    <v>       0.64218627       0.64529696       0.27780929 </v>
    <v>       0.95428752       0.01929584       0.24232808 </v>
    <v>       0.42486675       0.51319396       0.19160760 </v>
    <v>       0.47079024       0.45549803       0.32367220 </v>
    <v>       0.63499189       0.94045686       0.08418230 </v>
    <v>       0.59729475       0.01319396       0.22247530 </v>
    <v>       0.08001077       0.51319396       0.12987220 </v>
    <v>       0.11179695       0.50661630       0.29567891 </v>
    <v>       0.25243876       0.01319396       0.16073990 </v>
    <v>       0.29077749       0.98047488       0.30789709 </v>
    <v>       0.77355729       0.43640847       0.11988230 </v>
    <v>       0.76972274       0.51319396       0.25334300 </v>
    <v>       0.90444722       0.29424825       0.11582189 </v>
    <v>       0.95059154       0.27534039       0.25715461 </v>
    <v>       0.35477500       0.63625601       0.06925110 </v>
    <v>       0.42486675       0.77739996       0.19160760 </v>
    <v>       0.46505477       0.82527636       0.32919839 </v>
    <v>       0.53030261       0.14351333       0.09397439 </v>
    <v>       0.59729475       0.27739996       0.22247530 </v>
    <v>       0.08001077       0.77739996       0.12987220 </v>
    <v>       0.11161592       0.78437949       0.29515006 </v>
    <v>       0.25243876       0.27739996       0.16073990 </v>
    <v>       0.29252124       0.31684030       0.30394290 </v>
    <v>       0.72446242       0.72996253       0.09510237 </v>
    <v>       0.76972274       0.77739996       0.25334300 </v>
    <v>       0.99164838       0.13312219       0.33989606 </v>
    <v>       0.99788395       0.16464182       0.15963791 </v>
    <v>       0.46984215       0.64386971       0.09797407 </v>
    <v>       0.50874518       0.64529696       0.27609614 </v>
    <v>       0.64660522       0.14529696       0.12175764 </v>
    <v>       0.69679238       0.13830369       0.26643667 </v>
    <v>       0.11115315       0.64382067       0.03710886 </v>
    <v>       0.16388920       0.64529696       0.21436074 </v>
    <v>       0.07723013       0.64581299       0.38202427 </v>
    <v>       0.29021003       0.14435079       0.06438144 </v>
    <v>       0.33631719       0.14529696       0.24522844 </v>
    <v>       0.81903321       0.64529696       0.15262534 </v>
    <v>       0.85012174       0.64540913       0.31350730 </v>
    <v>       0.79877349       0.25532119       0.05994022 </v>
    <v>       0.82906105       0.31351196       0.21464750 </v>
    <v>       0.31177707       0.81351196       0.12204440 </v>
    <v>       0.34986801       0.79609658       0.29477999 </v>
    <v>       0.48420507       0.31351196       0.15291210 </v>
    <v>       0.53268826       0.27779183       0.32593308 </v>
    <v>       0.00148905       0.81351196       0.24551520 </v>
    <v>       0.97399576       0.79688801       0.07449283 </v>
    <v>       0.14039252       0.32236393       0.10638841 </v>
    <v>       0.17391704       0.31351196       0.27638290 </v>
    <v>       0.65663306       0.81351196       0.18377980 </v>
    <v>       0.69729753       0.78676885       0.34930391 </v>
    <v>       0.29719114       0.48114914       0.13056187 </v>
    <v>       0.35415616       0.49959837       0.29737238 </v>
    <v>       0.75503794       0.93692825       0.07071590 </v>
    <v>       0.83507783       0.96253661       0.22131341 </v>
    <v>       0.00148905       0.47708196       0.24551520 </v>
    <v>       0.96746324       0.47113094       0.08176643 </v>
    <v>       0.48420507       0.97708196       0.15291210 </v>
    <v>       0.52763049       0.00235558       0.32401558 </v>
    <v>       0.65663306       0.47708196       0.18377980 </v>
    <v>       0.69455780       0.49734725       0.34715983 </v>
    <v>       0.14038197       0.96773604       0.10715861 </v>
    <v>       0.17391704       0.97708196       0.27638290 </v>
   </varray>
  </structure>
  <varray name="forces" >
   <v>       0.96311144      -0.51080917       0.35398370 </v>
   <v>       0.27125521       0.32993680       1.30562463 </v>
   <v>       0.88014859      -0.08216352      -0.36275742 </v>
   <v>      -0.37545767       0.35373961       0.81128478 </v>
   <v>       0.26372279      -0.13555382      -0.32392552 </v>
   <v>      -0.24432363      -0.08416590      -0.32930479 </v>
   <v>      -0.46709346      -0.55857052       2.53632169 </v>
   <v>      -1.65056585      -0.04224932       0.34607317 </v>
   <v>      -0.90335812       0.07655020      -1.94620452 </v>
   <v>      -0.45301969       0.26194662       0.20134488 </v>
   <v>       0.44729886      -0.00439919       1.10537883 </v>
   <v>       0.46691658      -0.05087812      -0.31598377 </v>
   <v>      -1.07252021      -0.24925937      -0.88741136 </v>
   <v>      -0.65550225      -0.97922302       0.01294653 </v>
   <v>       0.10338326      -0.43178728      -1.18736772 </v>
   <v>      -0.17539394       0.79137746       0.96236351 </v>
   <v>      -1.28370388      -0.26368737      -0.83673098 </v>
   <v>       0.52268520      -0.16320369      -0.98043994 </v>
   <v>       0.11573960      -0.46715829       1.41902581 </v>
   <v>       1.20540930      -1.23243865       0.37396449 </v>
   <v>       0.83512689      -0.63558528       0.78876157 </v>
   <v>       0.07020943      -0.08603648       0.70957551 </v>
   <v>      -0.45497178       1.02217422      -0.12838242 </v>
   <v>       0.84291618      -0.12729542      -0.98581698 </v>
   <v>       0.79094091      -0.10860773      -0.42172406 </v>
   <v>      -1.00194043       0.74947664       0.15543392 </v>
   <v>      -0.27246627      -0.40446583      -1.74610028 </v>
   <v>       0.44616641       0.34625472      -0.85408439 </v>
   <v>      -0.20349726      -0.59334386       0.88785014 </v>
   <v>      -0.28307435      -0.06306177      -1.86473326 </v>
   <v>       1.24118197       0.29625572      -1.67402330 </v>
   <v>       0.96326793       0.01457409       1.70801540 </v>
   <v>       1.41752005       1.23374989       0.40268535 </v>
   <v>       0.56455303       0.45897416       0.63568484 </v>
   <v>       0.07565477      -0.06548787       0.89300444 </v>
   <v>      -0.42164458      -0.49037054      -1.34396217 </v>
   <v>       0.93929633       0.03075923      -1.92871573 </v>
   <v>       0.07228645      -0.04387179       3.00433135 </v>
   <v>       0.54639404      -0.81432473      -1.53134930 </v>
   <v>       1.65508505       0.13998833      -2.95119966 </v>
   <v>       1.49909419       0.02283123       1.02870405 </v>
   <v>       0.13810309       1.76087415      -1.75202561 </v>
   <v>      -0.32932173       0.10001375       2.24475080 </v>
   <v>      -0.08584056       0.10683079      -3.70056558 </v>
   <v>       1.12756684       0.15715715      -0.00896590 </v>
   <v>       0.62942350      -0.02262931       4.28698053 </v>
   <v>       1.68458882      -0.03715177      -2.90298019 </v>
   <v>       0.79090554       0.04290338       1.15572143 </v>
   <v>       1.39485880      -0.72775728      -0.75208456 </v>
   <v>       0.70435574      -0.18915689       2.72345050 </v>
   <v>      -0.54933153      -0.50934000      -3.78348753 </v>
   <v>      -0.26965866       1.33772168       1.76551062 </v>
   <v>      -0.81650188       1.79325135      -0.54079143 </v>
   <v>      -1.16117686       0.49667396       1.90594581 </v>
   <v>      -0.87867697       1.62248379      -0.06572916 </v>
   <v>       0.17841548       0.10984435       3.00066669 </v>
   <v>      -1.16402389       1.79084984      -1.45077597 </v>
   <v>      -1.51716127       1.98362225      -3.18771692 </v>
   <v>      -0.84772399       0.76062596      -1.32063177 </v>
   <v>      -0.53204443       0.17140467       0.94928804 </v>
   <v>      -1.56443453       0.30849374       1.87811242 </v>
   <v>      -0.72112600       1.12641266       3.75909559 </v>
   <v>      -0.12356921      -1.37693057      -1.15550235 </v>
   <v>      -1.31821282      -0.64301223       1.89072234 </v>
   <v>       1.87976861       0.30956854      -2.89347447 </v>
   <v>       0.26182553      -1.23633769      -0.09572384 </v>
   <v>      -1.00791413      -1.48951127      -0.70069578 </v>
   <v>      -0.28093315      -0.33579988      -2.90535866 </v>
   <v>      -1.06725071      -1.54239196      -0.30097669 </v>
   <v>       0.39284726      -0.06789130       2.73868742 </v>
   <v>      -0.27807811      -1.13779921      -1.01465917 </v>
   <v>      -0.50327032      -1.20342379       3.72520302 </v>
   <v>      -0.89086720      -0.64513172      -1.23646282 </v>
   <v>      -0.55637233      -0.25505753       0.70233219 </v>
  </varray>
  <varray name="stress" >
   <v>      79.59915659       1.94346680      -1.13597689 </v>
   <v>       1.94346675      75.20843890      -1.85826519 </v>
   <v>      -1.13597707      -1.85826537      85.32632099 </v>
  </varray>
  <energy>
   <i name="e_fr_energy">   -351.02782097 </i>
   <i name="e_wo_entrp">   -350.49073647 </i>
   <i name="e_0_energy">     -1.07416902 </i>
  </energy>
  <time name="totalsc">  395.76  395.86</time>
  <eigenvalues>
   <array>
    <dimension dim="1">band</dimension>
    <dimension dim="2">kpoint</dimension>
    <dimension dim="3">spin</dimension>
    <field>eigene</field>
    <field>occ</field>
    <set>
     <set comment="spin 1">
      <set comment="kpoint 1">
       <r>  -65.0653    1.0000 </r>
       <r>  -65.0497    1.0000 </r>
       <r>  -64.9574    1.0000 </r>
       <r>  -64.9485    1.0000 </r>
       <r>  -64.9439    1.0000 </r>
       <r>  -64.9399    1.0000 </r>
       <r>  -64.9022    1.0000 </r>
       <r>  -64.8877    1.0000 </r>
       <r>  -64.8634    1.0000 </r>
       <r>  -64.8513    1.0000 </r>
       <r>  -64.8249    1.0000 </r>
       <r>  -64.8232    1.0000 </r>
       <r>  -64.8177    1.0000 </r>
       <r>  -64.7843    1.0000 </r>
       <r>  -64.7798    1.0000 </r>
       <r>  -64.7594    1.0000 </r>
       <r>  -64.7564    1.0000 </r>
       <r>  -64.7427    1.0000 </r>
       <r>  -64.7369    1.0000 </r>
       <r>  -64.7289    1.0000 </r>
       <r>  -64.7104    1.0000 </r>
       <r>  -64.7073    1.0000 </r>
       <r>  -64.6970    1.0000 </r>
       <r>  -64.6687    1.0000 </r>
       <r>  -64.6618    1.0000 </r>
       <r>  -64.6603    1.0000 </r>
       <r>  -64.6397    1.0000 </r>
       <r>  -64.6266    1.0000 </r>
       <r>  -64.6248    1.0000 </r>
       <r>  -64.6191    1.0000 </r>
       <r>  -64.6063    1.0000 </r>
       <r>  -64.5891    1.0000 </r>
       <r>  -64.5770    1.0000 </r>
       <r>  -64.5727    1.0000 </r>
       <r>  -64.5727    1.0000 </r>
       <r>  -64.5667    1.0000 </r>
       <r>  -64.5527    1.0000 </r>
       <r>  -64.5395    1.0000 </r>
       <r>  -64.5335    1.0000 </r>
       <r>  -64.5296    1.0000 </r>
       <r>  -64.5228    1.0000 </r>
       <r>  -64.5182    1.0000 </r>
       <r>  -64.5119    1.0000 </r>
       <r>  -64.5017    1.0000 </r>
       <r>  -64.4923    1.0000 </r>
       <r>  -64.4742    1.0000 </r>
       <r>  -64.4703    1.0000 </r>
       <r>  -64.4596    1.0000 </r>
       <r>  -64.4580    1.0000 </r>
       <r>  -64.4531    1.0000 </r>
       <r>  -64.4523    1.0000 </r>
       <r>  -64.4478    1.0000 </r>
       <r>  -64.4381    1.0000 </r>
       <r>  -64.4368    1.0000 </r>
       <r>  -64.4278    1.0000 </r>
       <r>  -64.4189    1.0000 </r>
       <r>  -64.4045    1.0000 </r>
       <r>  -64.4045    1.0000 </r>
       <r>  -64.4003    1.0000 </r>
       <r>  -64.3950    1.0000 </r>
       <r>  -64.3880    1.0000 </r>
       <r>  -64.3843    1.0000 </r>
       <r>  -64.3506    1.0000 </r>
       <r>  -64.3465    1.0000 </r>
       <r>  -64.3390    1.0000 </r>
       <r>  -64.3370    1.0000 </r>
       <r>  -64.3200    1.0000 </r>
       <r>  -64.3110    1.0000 </r>
       <r>  -64.3094    1.0000 </r>
       <r>  -64.2907    1.0000 </r>
       <r>  -64.2737    1.0000 </r>
       <r>  -64.2646    1.0000 </r>
       <r>  -64.2622    1.0000 </r>
       <r>  -64.2538    1.0000 </r>
       <r>  -64.2413    1.0000 </r>
       <r>  -64.2411    1.0000 </r>
       <r>  -64.2354    1.0000 </r>
       <r>  -64.2261    1.0000 </r>
       <r>  -64.2101    1.0000 </r>
       <r>  -64.2094    1.0000 </r>
       <r>  -64.2075    1.0000 </r>
       <r>  -64.1949    1.0000 </r>
       <r>  -64.1908    1.0000 </r>
       <r>  -64.1730    1.0000 </r>
       <r>  -64.1721    1.0000 </r>
       <r>  -64.1642    1.0000 </r>
       <r>  -64.1475    1.0000 </r>
       <r>  -64.1387    1.0000 </r>
       <r>  -64.1307    1.0000 </r>
       <r>  -64.1305    1.0000 </r>
       <r>  -64.1229    1.0000 </r>
       <r>  -64.1088    1.0000 </r>
       <r>  -64.1047    1.0000 </r>
       <r>  -64.0736    1.0000 </r>
       <r>  -64.0480    1.0000 </r>
       <r>  -64.0371    1.0000 </r>
       <r>  -64.0109    1.0000 </r>
       <r>  -63.9880    1.0000 </r>
       <r>  -63.9589    1.0000 </r>
       <r>  -63.9183    1.0000 </r>
       <r>  -63.8771    1.0000 </r>
       <r>  -63.8621    1.0000 </r>
       <r>  -63.8126    1.0000 </r>
       <r>  -63.7575    1.0000 </r>
       <r>  -63.7063    1.0000 </r>
       <r>  -63.6875    1.0000 </r>
       <r>  -63.6436    1.0000 </r>
       <r>  -63.5726    1.0000 </r>
       <r>  -63.5726    1.0000 </r>
       <r>  -63.4553    1.0000 </r>
       <r>  -63.4251    1.0000 </r>
       <r>  -16.6904    1.0000 </r>
       <r>  -16.3330    1.0000 </r>
       <r>  -16.1381    1.0000 </r>
       <r>  -15.9170    1.0000 </r>
       <r>  -15.7946    1.0000 </r>
       <r>  -15.6590    1.0000 </r>
       <r>  -15.4094    1.0000 </r>
       <r>  -15.2061    1.0000 </r>
       <r>  -15.1194    1.0000 </r>
       <r>  -15.0845    1.0000 </r>
       <r>  -15.0307    1.0000 </r>
       <r>  -15.0226    1.0000 </r>
       <r>  -14.8695    1.0000 </r>
       <r>  -14.7735    1.0000 </r>
       <r>  -14.7356    1.0000 </r>
       <r>  -14.6210    1.0000 </r>
       <r>  -14.6192    1.0000 </r>
       <r>  -14.5877    1.0000 </r>
       <r>  -14.5244    1.0000 </r>
       <r>  -14.4552    1.0000 </r>
       <r>  -14.3710    1.0000 </r>
       <r>  -14.2923    1.0000 </r>
       <r>  -14.1537    1.0000 </r>
       <r>  -14.1465    1.0000 </r>
       <r>  -14.0962    1.0000 </r>
       <r>  -14.0462    1.0000 </r>
       <r>  -13.9525    1.0000 </r>
       <r>  -13.8460    1.0000 </r>
       <r>  -13.8240    1.0000 </r>
       <r>  -13.7115    1.0000 </r>
       <r>  -13.5744    1.0000 </r>
       <r>  -13.4767    1.0000 </r>
       <r>  -13.4271    1.0000 </r>
       <r>  -13.2938    1.0000 </r>
       <r>  -13.2355    1.0000 </r>
       <r>  -13.0553    1.0000 </r>
       <r>  -12.7903    1.0000 </r>
       <r>   -8.3192    1.0000 </r>
       <r>   -8.2358    1.0000 </r>
       <r>   -8.0748    1.0000 </r>
       <r>   -8.0129    1.0000 </r>
       <r>   -7.9102    1.0000 </r>
       <r>   -7.8256    1.0000 </r>
       <r>   -7.8211    1.0000 </r>
       <r>   -7.7767    1.0000 </r>
       <r>   -7.7083    1.0000 </r>
       <r>   -7.6250    1.0000 </r>
       <r>   -7.5328    1.0000 </r>
       <r>   -7.5075    1.0000 </r>
       <r>   -7.4811    1.0000 </r>
       <r>   -7.4373    1.0000 </r>
       <r>   -7.3433    1.0000 </r>
       <r>   -7.3338    1.0000 </r>
       <r>   -7.2756    1.0000 </r>
       <r>   -7.2343    1.0000 </r>
       <r>   -7.1910    1.0000 </r>
       <r>   -7.0756    1.0000 </r>
       <r>   -7.0366    1.0000 </r>
       <r>   -6.9794    1.0000 </r>
       <r>   -6.9527    1.0000 </r>
       <r>   -6.8669    1.0000 </r>
       <r>   -6.8287    1.0000 </r>
       <r>   -6.7856    1.0000 </r>
       <r>   -6.7408    1.0000 </r>
       <r>   -6.6863    1.0000 </r>
       <r>   -6.6341    1.0000 </r>
       <r>   -6.5438    1.0000 </r>
       <r>   -6.4690    1.0000 </r>
       <r>   -6.4489    1.0000 </r>
       <r>   -6.4306    1.0000 </r>
       <r>   -6.4073    1.0000 </r>
       <r>   -6.3778    1.0000 </r>
       <r>   -6.3327    1.0000 </r>
       <r>   -6.2745    1.0000 </r>
       <r>   -6.2358    1.0000 </r>
       <r>   -6.2224    1.0000 </r>
       <r>   -6.1887    1.0000 </r>
       <r>   -6.1377    1.0000 </r>
       <r>   -6.1032    1.0000 </r>
       <r>   -6.0589    1.0000 </r>
       <r>   -5.9733    1.0000 </r>
       <r>   -5.9708    1.0000 </r>
       <r>   -5.9197    1.0000 </r>
       <r>   -5.8996    1.0000 </r>
       <r>   -5.8652    1.0000 </r>
       <r>   -5.8461    1.0000 </r>
       <r>   -5.8232    1.0000 </r>
       <r>   -5.7913    1.0000 </r>
       <r>   -5.7368    1.0000 </r>
       <r>   -5.6929    1.0000 </r>
       <r>   -5.6710    1.0000 </r>
       <r>   -5.6133    1.0000 </r>
       <r>   -5.5931    1.0000 </r>
       <r>   -5.5555    1.0000 </r>
       <r>   -5.4941    1.0000 </r>
       <r>   -5.4696    1.0000 </r>
       <r>   -5.4488    1.0000 </r>
       <r>   -5.3986    1.0000 </r>
       <r>   -5.3611    1.0000 </r>
       <r>   -5.3489    1.0000 </r>
       <r>   -5.3358    1.0000 </r>
       <r>   -5.3026    1.0000 </r>
       <r>   -5.2703    1.0000 </r>
       <r>   -5.2420    1.0000 </r>
       <r>   -5.1980    1.0000 </r>
       <r>   -5.1748    1.0000 </r>
       <r>   -5.1561    1.0000 </r>
       <r>   -5.1092    1.0000 </r>
       <r>   -5.0823    1.0000 </r>
       <r>   -5.0599    1.0000 </r>
       <r>   -5.0373    1.0000 </r>
       <r>   -5.0297    1.0000 </r>
       <r>   -4.9898    1.0000 </r>
       <r>   -4.9644    1.0000 </r>
       <r>   -4.9544    1.0000 </r>
       <r>   -4.9262    1.0000 </r>
       <r>   -4.8841    1.0000 </r>
       <r>   -4.8516    1.0000 </r>
       <r>   -4.8272    1.0000 </r>
       <r>   -4.7721    1.0000 </r>
       <r>   -4.7214    1.0000 </r>
       <r>   -4.7118    1.0000 </r>
       <r>   -4.6540    1.0000 </r>
       <r>   -4.6168    1.0000 </r>
       <r>   -4.5579    1.0000 </r>
       <r>   -4.5047    1.0000 </r>
       <r>   -4.4939    1.0000 </r>
       <r>   -4.4504    1.0000 </r>
       <r>   -4.4180    1.0000 </r>
       <r>   -4.3903    1.0000 </r>
       <r>   -4.3464    1.0000 </r>
       <r>   -4.3414    1.0000 </r>
       <r>   -4.2956    1.0000 </r>
       <r>   -4.2347    1.0000 </r>
       <r>   -4.1991    1.0000 </r>
       <r>   -4.1766    1.0000 </r>
       <r>   -4.1175    1.0000 </r>
       <r>   -4.0995    1.0000 </r>
       <r>   -4.0296    1.0000 </r>
       <r>   -3.9554    1.0000 </r>
       <r>   -3.8943    1.0000 </r>
       <r>   -3.8580    1.0000 </r>
       <r>   -3.8325    1.0000 </r>
       <r>   -3.8215    1.0000 </r>
       <r>   -3.7394    1.0000 </r>
       <r>   -3.7087    1.0000 </r>
       <r>   -3.6647    1.0000 </r>
       <r>   -3.6429    1.0000 </r>
       <r>   -3.5868    1.0000 </r>
       <r>   -3.5327    1.0000 </r>
       <r>   -3.5033    1.0000 </r>
       <r>   -3.4751    1.0000 </r>
       <r>   -3.4495    1.0000 </r>
       <r>   -3.4393    1.0000 </r>
       <r>   -3.4053    1.0000 </r>
       <r>   -3.3795    1.0000 </r>
       <r>   -3.3190    1.0000 </r>
       <r>   -3.2818    1.0000 </r>
       <r>   -3.2502    1.0000 </r>
       <r>   -3.2074    1.0000 </r>
       <r>   -3.1620    1.0000 </r>
       <r>   -3.1534    1.0000 </r>
       <r>   -3.0971    1.0000 </r>
       <r>   -3.0907    1.0000 </r>
       <r>   -3.0685    1.0000 </r>
       <r>   -3.0369    1.0000 </r>
       <r>   -2.9946    1.0000 </r>
       <r>   -2.9835    1.0000 </r>
       <r>   -2.9709    1.0000 </r>
       <r>   -2.9489    1.0000 </r>
       <r>   -2.9207    1.0000 </r>
       <r>   -2.9020    1.0000 </r>
       <r>   -2.8955    1.0000 </r>
       <r>   -2.8721    1.0000 </r>
       <r>   -2.8480    1.0000 </r>
       <r>   -2.8236    1.0000 </r>
       <r>   -2.8066    1.0000 </r>
       <r>   -2.7930    1.0000 </r>
       <r>   -2.7757    1.0000 </r>
       <r>   -2.7516    1.0000 </r>
       <r>   -2.7129    1.0000 </r>
       <r>   -2.7077    1.0000 </r>
       <r>   -2.7035    1.0000 </r>
       <r>   -2.6944    1.0000 </r>
       <r>   -2.6636    1.0000 </r>
       <r>   -2.6437    1.0000 </r>
       <r>   -2.6361    1.0000 </r>
       <r>   -2.6039    1.0000 </r>
       <r>   -2.5702    1.0000 </r>
       <r>   -2.5598    1.0000 </r>
       <r>   -2.5428    1.0000 </r>
       <r>   -2.5242    1.0000 </r>
       <r>   -2.5089    1.0000 </r>
       <r>   -2.4919    1.0000 </r>
       <r>   -2.4796    1.0000 </r>
       <r>   -2.4467    1.0000 </r>
       <r>   -2.4359    1.0000 </r>
       <r>   -2.4319    1.0000 </r>
       <r>   -2.4058    1.0000 </r>
       <r>   -2.3887    1.0000 </r>
       <r>   -2.3876    1.0000 </r>
       <r>   -2.3587    1.0000 </r>
       <r>   -2.3481    1.0000 </r>
       <r>   -2.3356    1.0000 </r>
       <r>   -2.3210    1.0000 </r>
       <r>   -2.3033    1.0000 </r>
       <r>   -2.2873    1.0000 </r>
       <r>   -2.2755    1.0000 </r>
       <r>   -2.2542    1.0000 </r>
       <r>   -2.2392    1.0000 </r>
       <r>   -2.2246    1.0000 </r>
       <r>   -2.2067    1.0000 </r>
       <r>   -2.1974    1.0000 </r>
       <r>   -2.1904    1.0000 </r>
       <r>   -2.1803    1.0000 </r>
       <r>   -2.1700    1.0000 </r>
       <r>   -2.1553    1.0000 </r>
       <r>   -2.1349    1.0000 </r>
       <r>   -2.1200    1.0000 </r>
       <r>   -2.1121    1.0000 </r>
       <r>   -2.0845    1.0000 </r>
       <r>   -2.0590    1.0000 </r>
       <r>   -2.0447    1.0000 </r>
       <r>   -2.0207    1.0000 </r>
       <r>   -2.0100    1.0000 </r>
       <r>   -1.9764    1.0000 </r>
       <r>   -1.9577    1.0000 </r>
       <r>   -1.9469    1.0000 </r>
       <r>   -1.9269    1.0000 </r>
       <r>   -1.9113    1.0000 </r>
       <r>   -1.9067    1.0000 </r>
       <r>   -1.8867    1.0000 </r>
       <r>   -1.8792    1.0000 </r>
       <r>   -1.8544    1.0000 </r>
       <r>   -1.8444    1.0000 </r>
       <r>   -1.8298    1.0000 </r>
       <r>   -1.8124    1.0000 </r>
       <r>   -1.7942    1.0000 </r>
       <r>   -1.7649    1.0000 </r>
       <r>   -1.7485    1.0000 </r>
       <r>   -1.7407    1.0000 </r>
       <r>   -1.7190    1.0000 </r>
       <r>   -1.7148    1.0000 </r>
       <r>   -1.7083    1.0000 </r>
       <r>   -1.6943    1.0000 </r>
       <r>   -1.6519    1.0000 </r>
       <r>   -1.6276    1.0000 </r>
       <r>   -1.6087    1.0000 </r>
       <r>   -1.5888    1.0000 </r>
       <r>   -1.5686    1.0000 </r>
       <r>   -1.5502    1.0000 </r>
       <r>   -1.5040    1.0000 </r>
       <r>   -1.4846    1.0000 </r>
       <r>   -1.4392    1.0000 </r>
       <r>   -1.4318    1.0000 </r>
       <r>   -1.3953    1.0000 </r>
       <r>   -1.3900    1.0000 </r>
       <r>   -1.3565    1.0000 </r>
       <r>   -1.3432    1.0000 </r>
       <r>   -1.3025    1.0000 </r>
       <r>   -1.2978    1.0000 </r>
       <r>   -1.2579    1.0000 </r>
       <r>   -1.2379    1.0000 </r>
       <r>   -1.2219    1.0000 </r>
       <r>   -1.1825    1.0000 </r>
       <r>   -1.1782    1.0000 </r>
       <r>   -1.1358    1.0000 </r>
       <r>   -1.1137    1.0000 </r>
       <r>   -1.0781    1.0000 </r>
       <r>   -1.0574    1.0000 </r>
       <r>   -1.0257    1.0000 </r>
       <r>   -1.0140    1.0000 </r>
       <r>   -0.9867    1.0000 </r>
       <r>   -0.9693    1.0000 </r>
       <r>   -0.9297    1.0000 </r>
       <r>   -0.8987    1.0000 </r>
       <r>   -0.8612    1.0000 </r>
       <r>   -0.7992    1.0000 </r>
       <r>   -0.7745    1.0000 </r>
       <r>   -0.7438    1.0000 </r>
       <r>   -0.7117    0.9999 </r>
       <r>   -0.6806    0.9998 </r>
       <r>   -0.6653    0.9996 </r>
       <r>   -0.6377    0.9993 </r>
       <r>   -0.5922    0.9980 </r>
       <r>   -0.5556    0.9955 </r>
       <r>   -0.4795    0.9810 </r>
       <r>   -0.4453    0.9666 </r>
       <r>   -0.4361    0.9615 </r>
       <r>   -0.4089    0.9424 </r>
       <r>   -0.3798    0.9146 </r>
       <r>   -0.3601    0.8907 </r>
       <r>   -0.3327    0.8500 </r>
       <r>   -0.2829    0.7532 </r>
       <r>   -0.2517    0.6785 </r>
       <r>   -0.2113    0.5706 </r>
       <r>   -0.1572    0.4190 </r>
       <r>   -0.1441    0.3833 </r>
       <r>   -0.1320    0.3510 </r>
       <r>   -0.0319    0.1378 </r>
       <r>    0.0194    0.0731 </r>
       <r>    0.0387    0.0560 </r>
       <r>    0.0849    0.0277 </r>
       <r>    0.1038    0.0202 </r>
       <r>    0.1204    0.0151 </r>
       <r>    0.1467    0.0093 </r>
       <r>    0.1817    0.0046 </r>
       <r>    0.2517    0.0010 </r>
       <r>    0.2688    0.0006 </r>
       <r>    0.3505    0.0001 </r>
       <r>    0.3641    0.0000 </r>
       <r>    0.4382    0.0000 </r>
       <r>    0.4901    0.0000 </r>
       <r>    0.5564    0.0000 </r>
       <r>    0.6131    0.0000 </r>
       <r>    0.6792    0.0000 </r>
       <r>    0.7446    0.0000 </r>
       <r>    0.7518    0.0000 </r>
       <r>    0.8204    0.0000 </r>
       <r>    0.8942    0.0000 </r>
       <r>    0.9206    0.0000 </r>
       <r>    0.9421    0.0000 </r>
       <r>    0.9986    0.0000 </r>
       <r>    1.0272    0.0000 </r>
       <r>    1.1231    0.0000 </r>
       <r>    1.1380    0.0000 </r>
       <r>    1.2103    0.0000 </r>
       <r>    1.2828    0.0000 </r>
       <r>    1.2991    0.0000 </r>
       <r>    1.3580    0.0000 </r>
       <r>    1.4283    0.0000 </r>
       <r>    1.4826    0.0000 </r>
       <r>    1.5679    0.0000 </r>
       <r>    2.3601    0.0000 </r>
       <r>    2.7379    0.0000 </r>
       <r>    2.7515    0.0000 </r>
       <r>    2.9907    0.0000 </r>
       <r>    3.0615    0.0000 </r>
       <r>    3.2609    0.0000 </r>
       <r>    3.4961    0.0000 </r>
       <r>    3.5689    0.0000 </r>
       <r>    3.7190    0.0000 </r>
       <r>    3.7996    0.0000 </r>
       <r>    3.9370    0.0000 </r>
       <r>    4.0650    0.0000 </r>
       <r>    4.1897    0.0000 </r>
       <r>    4.2645    0.0000 </r>
       <r>    4.3190    0.0000 </r>
       <r>    4.3750    0.0000 </r>
       <r>    4.4120    0.0000 </r>
       <r>    4.5341    0.0000 </r>
       <r>    4.6015    0.0000 </r>
       <r>    4.6730    0.0000 </r>
       <r>    4.6976    0.0000 </r>
       <r>    4.7596    0.0000 </r>
       <r>    4.7856    0.0000 </r>
       <r>    4.8308    0.0000 </r>
       <r>    4.8721    0.0000 </r>
       <r>    4.9686    0.0000 </r>
       <r>    4.9945    0.0000 </r>
       <r>    5.0136    0.0000 </r>
       <r>    5.0814    0.0000 </r>
       <r>    5.1230    0.0000 </r>
       <r>    5.1659    0.0000 </r>
       <r>    5.2132    0.0000 </r>
       <r>    5.2485    0.0000 </r>
       <r>    5.3067    0.0000 </r>
       <r>    5.3188    0.0000 </r>
       <r>    5.3803    0.0000 </r>
       <r>    5.4659    0.0000 </r>
       <r>    5.4942    0.0000 </r>
       <r>    5.5697    0.0000 </r>
       <r>    5.5911    0.0000 </r>
       <r>    5.6265    0.0000 </r>
       <r>    5.6643    0.0000 </r>
       <r>    5.7000    0.0000 </r>
       <r>    5.8134    0.0000 </r>
      </set>
     </set>
    </set>
   </array>
  </eigenvalues>
  <separator name="orbital magnetization" >
   <v name="MAGDIPOLOUT">      0.00000000      0.00000000      0.00000000</v>
  </separator>
  <dos>
   <i name="efermi">     -0.18608927 </i>
   <total>
    <array>
     <dimension dim="1">gridpoints</dimension>
     <dimension dim="2">spin</dimension>
     <field>energy</field>
     <field>total</field>
     <field>integrated</field>
     <set>
      <set comment="spin 1">
       <r>   -68.6092     0.0000     0.0000 </r>
       <r>   -68.3494     0.0000     0.0000 </r>
       <r>   -68.0895     0.0000     0.0000 </r>
       <r>   -67.8296     0.0000     0.0000 </r>
       <r>   -67.5697     0.0000     0.0000 </r>
       <r>   -67.3098     0.0000     0.0000 </r>
       <r>   -67.0499     0.0000     0.0000 </r>
       <r>   -66.7900     0.0000     0.0000 </r>
       <r>   -66.5301     0.0000     0.0000 </r>
       <r>   -66.2702     0.0000     0.0000 </r>
       <r>   -66.0104     0.0000     0.0000 </r>
       <r>   -65.7505     0.0000     0.0000 </r>
       <r>   -65.4906     0.0194     0.0050 </r>
       <r>   -65.2307     2.6558     0.6953 </r>
       <r>   -64.9708    38.1501    10.6100 </r>
       <r>   -64.7109   129.0079    44.1377 </r>
       <r>   -64.4510   217.2912   100.6093 </r>
       <r>   -64.1911   228.3381   159.9518 </r>
       <r>   -63.9312   138.1373   195.8521 </r>
       <r>   -63.6714    58.0031   210.9264 </r>
       <r>   -63.4115    33.3760   219.6005 </r>
       <r>   -63.1516     8.8811   221.9086 </r>
       <r>   -62.8917     0.3509   221.9998 </r>
       <r>   -62.6318     0.0009   222.0000 </r>
       <r>   -62.3719     0.0000   222.0000 </r>
       <r>   -62.1120     0.0000   222.0000 </r>
       <r>   -61.8521     0.0000   222.0000 </r>
       <r>   -61.5922     0.0000   222.0000 </r>
       <r>   -61.3324     0.0000   222.0000 </r>
       <r>   -61.0725     0.0000   222.0000 </r>
       <r>   -60.8126     0.0000   222.0000 </r>
       <r>   -60.5527     0.0000   222.0000 </r>
       <r>   -60.2928     0.0000   222.0000 </r>
       <r>   -60.0329     0.0000   222.0000 </r>
       <r>   -59.7730     0.0000   222.0000 </r>
       <r>   -59.5131     0.0000   222.0000 </r>
       <r>   -59.2532     0.0000   222.0000 </r>
       <r>   -58.9934     0.0000   222.0000 </r>
       <r>   -58.7335     0.0000   222.0000 </r>
       <r>   -58.4736     0.0000   222.0000 </r>
       <r>   -58.2137     0.0000   222.0000 </r>
       <r>   -57.9538     0.0000   222.0000 </r>
       <r>   -57.6939     0.0000   222.0000 </r>
       <r>   -57.4340     0.0000   222.0000 </r>
       <r>   -57.1741     0.0000   222.0000 </r>
       <r>   -56.9142     0.0000   222.0000 </r>
       <r>   -56.6544     0.0000   222.0000 </r>
       <r>   -56.3945     0.0000   222.0000 </r>
       <r>   -56.1346     0.0000   222.0000 </r>
       <r>   -55.8747     0.0000   222.0000 </r>
       <r>   -55.6148     0.0000   222.0000 </r>
       <r>   -55.3549     0.0000   222.0000 </r>
       <r>   -55.0950     0.0000   222.0000 </r>
       <r>   -54.8351     0.0000   222.0000 </r>
       <r>   -54.5752     0.0000   222.0000 </r>
       <r>   -54.3154     0.0000   222.0000 </r>
       <r>   -54.0555     0.0000   222.0000 </r>
       <r>   -53.7956     0.0000   222.0000 </r>
       <r>   -53.5357     0.0000   222.0000 </r>
       <r>   -53.2758     0.0000   222.0000 </r>
       <r>   -53.0159     0.0000   222.0000 </r>
       <r>   -52.7560     0.0000   222.0000 </r>
       <r>   -52.4961     0.0000   222.0000 </r>
       <r>   -52.2362     0.0000   222.0000 </r>
       <r>   -51.9764     0.0000   222.0000 </r>
       <r>   -51.7165     0.0000   222.0000 </r>
       <r>   -51.4566     0.0000   222.0000 </r>
       <r>   -51.1967     0.0000   222.0000 </r>
       <r>   -50.9368     0.0000   222.0000 </r>
       <r>   -50.6769     0.0000   222.0000 </r>
       <r>   -50.4170     0.0000   222.0000 </r>
       <r>   -50.1571     0.0000   222.0000 </r>
       <r>   -49.8973     0.0000   222.0000 </r>
       <r>   -49.6374     0.0000   222.0000 </r>
       <r>   -49.3775     0.0000   222.0000 </r>
       <r>   -49.1176     0.0000   222.0000 </r>
       <r>   -48.8577     0.0000   222.0000 </r>
       <r>   -48.5978     0.0000   222.0000 </r>
       <r>   -48.3379     0.0000   222.0000 </r>
       <r>   -48.0780     0.0000   222.0000 </r>
       <r>   -47.8181     0.0000   222.0000 </r>
       <r>   -47.5583     0.0000   222.0000 </r>
       <r>   -47.2984     0.0000   222.0000 </r>
       <r>   -47.0385     0.0000   222.0000 </r>
       <r>   -46.7786     0.0000   222.0000 </r>
       <r>   -46.5187     0.0000   222.0000 </r>
       <r>   -46.2588     0.0000   222.0000 </r>
       <r>   -45.9989     0.0000   222.0000 </r>
       <r>   -45.7390     0.0000   222.0000 </r>
       <r>   -45.4791     0.0000   222.0000 </r>
       <r>   -45.2193     0.0000   222.0000 </r>
       <r>   -44.9594     0.0000   222.0000 </r>
       <r>   -44.6995     0.0000   222.0000 </r>
       <r>   -44.4396     0.0000   222.0000 </r>
       <r>   -44.1797     0.0000   222.0000 </r>
       <r>   -43.9198     0.0000   222.0000 </r>
       <r>   -43.6599     0.0000   222.0000 </r>
       <r>   -43.4000     0.0000   222.0000 </r>
       <r>   -43.1401     0.0000   222.0000 </r>
       <r>   -42.8803     0.0000   222.0000 </r>
       <r>   -42.6204     0.0000   222.0000 </r>
       <r>   -42.3605     0.0000   222.0000 </r>
       <r>   -42.1006     0.0000   222.0000 </r>
       <r>   -41.8407     0.0000   222.0000 </r>
       <r>   -41.5808     0.0000   222.0000 </r>
       <r>   -41.3209     0.0000   222.0000 </r>
       <r>   -41.0610     0.0000   222.0000 </r>
       <r>   -40.8011     0.0000   222.0000 </r>
       <r>   -40.5413     0.0000   222.0000 </r>
       <r>   -40.2814     0.0000   222.0000 </r>
       <r>   -40.0215     0.0000   222.0000 </r>
       <r>   -39.7616     0.0000   222.0000 </r>
       <r>   -39.5017     0.0000   222.0000 </r>
       <r>   -39.2418     0.0000   222.0000 </r>
       <r>   -38.9819     0.0000   222.0000 </r>
       <r>   -38.7220     0.0000   222.0000 </r>
       <r>   -38.4621     0.0000   222.0000 </r>
       <r>   -38.2023     0.0000   222.0000 </r>
       <r>   -37.9424     0.0000   222.0000 </r>
       <r>   -37.6825     0.0000   222.0000 </r>
       <r>   -37.4226     0.0000   222.0000 </r>
       <r>   -37.1627     0.0000   222.0000 </r>
       <r>   -36.9028     0.0000   222.0000 </r>
       <r>   -36.6429     0.0000   222.0000 </r>
       <r>   -36.3830     0.0000   222.0000 </r>
       <r>   -36.1231     0.0000   222.0000 </r>
       <r>   -35.8633     0.0000   222.0000 </r>
       <r>   -35.6034     0.0000   222.0000 </r>
       <r>   -35.3435     0.0000   222.0000 </r>
       <r>   -35.0836     0.0000   222.0000 </r>
       <r>   -34.8237     0.0000   222.0000 </r>
       <r>   -34.5638     0.0000   222.0000 </r>
       <r>   -34.3039     0.0000   222.0000 </r>
       <r>   -34.0440     0.0000   222.0000 </r>
       <r>   -33.7841     0.0000   222.0000 </r>
       <r>   -33.5243     0.0000   222.0000 </r>
       <r>   -33.2644     0.0000   222.0000 </r>
       <r>   -33.0045     0.0000   222.0000 </r>
       <r>   -32.7446     0.0000   222.0000 </r>
       <r>   -32.4847     0.0000   222.0000 </r>
       <r>   -32.2248     0.0000   222.0000 </r>
       <r>   -31.9649     0.0000   222.0000 </r>
       <r>   -31.7050     0.0000   222.0000 </r>
       <r>   -31.4451     0.0000   222.0000 </r>
       <r>   -31.1853     0.0000   222.0000 </r>
       <r>   -30.9254     0.0000   222.0000 </r>
       <r>   -30.6655     0.0000   222.0000 </r>
       <r>   -30.4056     0.0000   222.0000 </r>
       <r>   -30.1457     0.0000   222.0000 </r>
       <r>   -29.8858     0.0000   222.0000 </r>
       <r>   -29.6259     0.0000   222.0000 </r>
       <r>   -29.3660     0.0000   222.0000 </r>
       <r>   -29.1062     0.0000   222.0000 </r>
       <r>   -28.8463     0.0000   222.0000 </r>
       <r>   -28.5864     0.0000   222.0000 </r>
       <r>   -28.3265     0.0000   222.0000 </r>
       <r>   -28.0666     0.0000   222.0000 </r>
       <r>   -27.8067     0.0000   222.0000 </r>
       <r>   -27.5468     0.0000   222.0000 </r>
       <r>   -27.2869     0.0000   222.0000 </r>
       <r>   -27.0270     0.0000   222.0000 </r>
       <r>   -26.7672     0.0000   222.0000 </r>
       <r>   -26.5073     0.0000   222.0000 </r>
       <r>   -26.2474     0.0000   222.0000 </r>
       <r>   -25.9875     0.0000   222.0000 </r>
       <r>   -25.7276     0.0000   222.0000 </r>
       <r>   -25.4677     0.0000   222.0000 </r>
       <r>   -25.2078     0.0000   222.0000 </r>
       <r>   -24.9479     0.0000   222.0000 </r>
       <r>   -24.6880     0.0000   222.0000 </r>
       <r>   -24.4282     0.0000   222.0000 </r>
       <r>   -24.1683     0.0000   222.0000 </r>
       <r>   -23.9084     0.0000   222.0000 </r>
       <r>   -23.6485     0.0000   222.0000 </r>
       <r>   -23.3886     0.0000   222.0000 </r>
       <r>   -23.1287     0.0000   222.0000 </r>
       <r>   -22.8688     0.0000   222.0000 </r>
       <r>   -22.6089     0.0000   222.0000 </r>
       <r>   -22.3490     0.0000   222.0000 </r>
       <r>   -22.0892     0.0000   222.0000 </r>
       <r>   -21.8293     0.0000   222.0000 </r>
       <r>   -21.5694     0.0000   222.0000 </r>
       <r>   -21.3095     0.0000   222.0000 </r>
       <r>   -21.0496     0.0000   222.0000 </r>
       <r>   -20.7897     0.0000   222.0000 </r>
       <r>   -20.5298     0.0000   222.0000 </r>
       <r>   -20.2699     0.0000   222.0000 </r>
       <r>   -20.0100     0.0000   222.0000 </r>
       <r>   -19.7502     0.0000   222.0000 </r>
       <r>   -19.4903     0.0000   222.0000 </r>
       <r>   -19.2304     0.0000   222.0000 </r>
       <r>   -18.9705     0.0000   222.0000 </r>
       <r>   -18.7106     0.0000   222.0000 </r>
       <r>   -18.4507     0.0000   222.0000 </r>
       <r>   -18.1908     0.0000   222.0000 </r>
       <r>   -17.9309     0.0000   222.0000 </r>
       <r>   -17.6710     0.0000   222.0000 </r>
       <r>   -17.4112     0.0000   222.0000 </r>
       <r>   -17.1513     0.0043   222.0011 </r>
       <r>   -16.8914     0.5939   222.1555 </r>
       <r>   -16.6315     4.6292   223.3585 </r>
       <r>   -16.3716     5.7800   224.8607 </r>
       <r>   -16.1117     9.0969   227.2248 </r>
       <r>   -15.8518    11.3372   230.1713 </r>
       <r>   -15.5919    12.4067   233.3956 </r>
       <r>   -15.3320    10.1849   236.0426 </r>
       <r>   -15.0722    21.6647   241.6730 </r>
       <r>   -14.8123    27.6270   248.8529 </r>
       <r>   -14.5524    32.1344   257.2043 </r>
       <r>   -14.2925    29.5444   264.8825 </r>
       <r>   -14.0326    29.1091   272.4477 </r>
       <r>   -13.7727    26.2203   279.2620 </r>
       <r>   -13.5128    20.7075   284.6437 </r>
       <r>   -13.2529    20.3662   289.9366 </r>
       <r>   -12.9930    13.2067   293.3689 </r>
       <r>   -12.7332     7.3941   295.2905 </r>
       <r>   -12.4733     2.6336   295.9750 </r>
       <r>   -12.2134     0.0961   296.0000 </r>
       <r>   -11.9535     0.0002   296.0000 </r>
       <r>   -11.6936     0.0000   296.0000 </r>
       <r>   -11.4337     0.0000   296.0000 </r>
       <r>   -11.1738     0.0000   296.0000 </r>
       <r>   -10.9139     0.0000   296.0000 </r>
       <r>   -10.6541     0.0000   296.0000 </r>
       <r>   -10.3942     0.0000   296.0000 </r>
       <r>   -10.1343     0.0000   296.0000 </r>
       <r>    -9.8744     0.0000   296.0000 </r>
       <r>    -9.6145     0.0000   296.0000 </r>
       <r>    -9.3546     0.0000   296.0000 </r>
       <r>    -9.0947     0.0000   296.0000 </r>
       <r>    -8.8348     0.0011   296.0003 </r>
       <r>    -8.5749     0.3355   296.0875 </r>
       <r>    -8.3151     6.3047   297.7260 </r>
       <r>    -8.0552    17.1608   302.1859 </r>
       <r>    -7.7953    28.2691   309.5327 </r>
       <r>    -7.5354    34.6357   318.5342 </r>
       <r>    -7.2755    39.2639   328.7384 </r>
       <r>    -7.0156    36.0678   338.1120 </r>
       <r>    -6.7557    37.9001   347.9618 </r>
       <r>    -6.4958    39.8192   358.3104 </r>
       <r>    -6.2359    51.2769   371.6367 </r>
       <r>    -5.9761    52.0681   385.1686 </r>
       <r>    -5.7162    56.8822   399.9516 </r>
       <r>    -5.4563    56.5760   414.6551 </r>
       <r>    -5.1964    66.4000   431.9117 </r>
       <r>    -4.9365    71.5927   450.5179 </r>
       <r>    -4.6766    58.4212   465.7009 </r>
       <r>    -4.4167    52.5382   479.3550 </r>
       <r>    -4.1568    52.3445   492.9587 </r>
       <r>    -3.8969    43.5510   504.2771 </r>
       <r>    -3.6371    48.4565   516.8704 </r>
       <r>    -3.3772    56.9625   531.6743 </r>
       <r>    -3.1173    62.7923   547.9933 </r>
       <r>    -2.8574    86.7983   570.5512 </r>
       <r>    -2.5975   105.2830   597.9131 </r>
       <r>    -2.3376   119.4948   628.9684 </r>
       <r>    -2.0777   128.3330   662.3208 </r>
       <r>    -1.8178   119.3771   693.3455 </r>
       <r>    -1.5579   103.9570   720.3628 </r>
       <r>    -1.2981    83.2729   742.0045 </r>
       <r>    -1.0382    78.0060   762.2773 </r>
       <r>    -0.7783    65.5496   779.3129 </r>
       <r>    -0.5184    58.8410   794.6051 </r>
       <r>    -0.2585    59.2288   809.9980 </r>
       <r>     0.0014    52.9627   823.7624 </r>
       <r>     0.2613    52.2183   837.3333 </r>
       <r>     0.5212    40.2997   847.8068 </r>
       <r>     0.7811    37.3233   857.5067 </r>
       <r>     1.0409    41.9060   868.3975 </r>
       <r>     1.3008    38.2291   878.3329 </r>
       <r>     1.5607    28.5236   885.7458 </r>
       <r>     1.8206     8.2979   887.9023 </r>
       <r>     2.0805     0.5595   888.0477 </r>
       <r>     2.3404     3.2713   888.8979 </r>
       <r>     2.6003     6.2909   890.5329 </r>
       <r>     2.8602    12.1297   893.6853 </r>
       <r>     3.1201    13.8071   897.2736 </r>
       <r>     3.3799    11.1922   900.1823 </r>
       <r>     3.6398    14.4566   903.9394 </r>
       <r>     3.8997    17.1050   908.3848 </r>
       <r>     4.1596    18.2594   913.1302 </r>
       <r>     4.4195    27.1678   920.1908 </r>
       <r>     4.6794    32.0291   928.5148 </r>
       <r>     4.9393    40.8137   939.1218 </r>
       <r>     5.1992    43.8663   950.5222 </r>
       <r>     5.4591    42.5002   961.5675 </r>
       <r>     5.7189    38.3283   971.5286 </r>
       <r>     5.9788    15.8945   975.6594 </r>
       <r>     6.2387     1.2997   975.9972 </r>
       <r>     6.4986     0.0110   976.0000 </r>
       <r>     6.7585     0.0000   976.0000 </r>
       <r>     7.0184     0.0000   976.0000 </r>
       <r>     7.2783     0.0000   976.0000 </r>
       <r>     7.5382     0.0000   976.0000 </r>
       <r>     7.7981     0.0000   976.0000 </r>
       <r>     8.0579     0.0000   976.0000 </r>
       <r>     8.3178     0.0000   976.0000 </r>
       <r>     8.5777     0.0000   976.0000 </r>
       <r>     8.8376     0.0000   976.0000 </r>
       <r>     9.0975     0.0000   976.0000 </r>
       <r>     9.3574     0.0000   976.0000 </r>
      </set>
     </set>
    </array>
   </total>
  </dos>
 </calculation>
 <structure name="finalpos" >
  <crystal>
   <varray name="basis" >
    <v>      16.88469405       0.00000000       0.00000000 </v>
    <v>       0.00000000       9.57841000       0.00000000 </v>
    <v>       0.00000000       0.00000000      16.65464569 </v>
   </varray>
   <i name="volume">   2693.53123734 </i>
   <varray name="rec_basis" >
    <v>       0.05922524       0.00000000       0.00000000 </v>
    <v>       0.00000000       0.10440146       0.00000000 </v>
    <v>       0.00000000       0.00000000       0.06004331 </v>
   </varray>
  </crystal>
  <varray name="positions" >
   <v>       0.76653755       0.11491443       0.15248366 </v>
   <v>       0.82120345       0.13900495       0.28771842 </v>
   <v>       0.21423445       0.66112254       0.09905567 </v>
   <v>       0.29733028       0.64529696       0.21607389 </v>
   <v>       0.39075054       0.15490524       0.13114875 </v>
   <v>       0.46975828       0.14529696       0.24694159 </v>
   <v>       0.95247430       0.64529696       0.15433850 </v>
   <v>       0.97419014       0.64561533       0.31715330 </v>
   <v>       0.17252770       0.14458999       0.04659801 </v>
   <v>       0.12490229       0.14529696       0.18520619 </v>
   <v>       0.11106569       0.14505540       0.32665473 </v>
   <v>       0.57340058       0.64551570       0.15850315 </v>
   <v>       0.64218627       0.64529696       0.27780929 </v>
   <v>       0.95428752       0.01929584       0.24232808 </v>
   <v>       0.42486675       0.51319396       0.19160760 </v>
   <v>       0.47079024       0.45549803       0.32367220 </v>
   <v>       0.63499189       0.94045686       0.08418230 </v>
   <v>       0.59729475       0.01319396       0.22247530 </v>
   <v>       0.08001077       0.51319396       0.12987220 </v>
   <v>       0.11179695       0.50661630       0.29567891 </v>
   <v>       0.25243876       0.01319396       0.16073990 </v>
   <v>       0.29077749       0.98047488       0.30789709 </v>
   <v>       0.77355729       0.43640847       0.11988230 </v>
   <v>       0.76972274       0.51319396       0.25334300 </v>
   <v>       0.90444722       0.29424825       0.11582189 </v>
   <v>       0.95059154       0.27534039       0.25715461 </v>
   <v>       0.35477500       0.63625601       0.06925110 </v>
   <v>       0.42486675       0.77739996       0.19160760 </v>
   <v>       0.46505477       0.82527636       0.32919839 </v>
   <v>       0.53030261       0.14351333       0.09397439 </v>
   <v>       0.59729475       0.27739996       0.22247530 </v>
   <v>       0.08001077       0.77739996       0.12987220 </v>
   <v>       0.11161592       0.78437949       0.29515006 </v>
   <v>       0.25243876       0.27739996       0.16073990 </v>
   <v>       0.29252124       0.31684030       0.30394290 </v>
   <v>       0.72446242       0.72996253       0.09510237 </v>
   <v>       0.76972274       0.77739996       0.25334300 </v>
   <v>       0.99164838       0.13312219       0.33989606 </v>
   <v>       0.99788395       0.16464182       0.15963791 </v>
   <v>       0.46984215       0.64386971       0.09797407 </v>
   <v>       0.50874518       0.64529696       0.27609614 </v>
   <v>       0.64660522       0.14529696       0.12175764 </v>
   <v>       0.69679238       0.13830369       0.26643667 </v>
   <v>       0.11115315       0.64382067       0.03710886 </v>
   <v>       0.16388920       0.64529696       0.21436074 </v>
   <v>       0.07723013       0.64581299       0.38202427 </v>
   <v>       0.29021003       0.14435079       0.06438144 </v>
   <v>       0.33631719       0.14529696       0.24522844 </v>
   <v>       0.81903321       0.64529696       0.15262534 </v>
   <v>       0.85012174       0.64540913       0.31350730 </v>
   <v>       0.79877349       0.25532119       0.05994022 </v>
   <v>       0.82906105       0.31351196       0.21464750 </v>
   <v>       0.31177707       0.81351196       0.12204440 </v>
   <v>       0.34986801       0.79609658       0.29477999 </v>
   <v>       0.48420507       0.31351196       0.15291210 </v>
   <v>       0.53268826       0.27779183       0.32593308 </v>
   <v>       0.00148905       0.81351196       0.24551520 </v>
   <v>       0.97399576       0.79688801       0.07449283 </v>
   <v>       0.14039252       0.32236393       0.10638841 </v>
   <v>       0.17391704       0.31351196       0.27638290 </v>
   <v>       0.65663306       0.81351196       0.18377980 </v>
   <v>       0.69729753       0.78676885       0.34930391 </v>
   <v>       0.29719114       0.48114914       0.13056187 </v>
   <v>       0.35415616       0.49959837       0.29737238 </v>
   <v>       0.75503794       0.93692825       0.07071590 </v>
   <v>       0.83507783       0.96253661       0.22131341 </v>
   <v>       0.00148905       0.47708196       0.24551520 </v>
   <v>       0.96746324       0.47113094       0.08176643 </v>
   <v>       0.48420507       0.97708196       0.15291210 </v>
   <v>       0.52763049       0.00235558       0.32401558 </v>
   <v>       0.65663306       0.47708196       0.18377980 </v>
   <v>       0.69455780       0.49734725       0.34715983 </v>
   <v>       0.14038197       0.96773604       0.10715861 </v>
   <v>       0.17391704       0.97708196       0.27638290 </v>
  </varray>
 </structure>
</modeling>
