<?xml version="1.0" encoding="ISO-8859-1"?>
<modeling>
 <generator>
  <i name="program" type="string">vasp </i>
  <i name="version" type="string">6.1.0  </i>
  <i name="subversion" type="string">28Jan20 (build Mar 31 2020 17:42:31) gamma-only                       parallel </i>
  <i name="platform" type="string">LinuxIFC </i>
  <i name="date" type="string">2020 04 12 </i>
  <i name="time" type="string">18:20:30 </i>
 </generator>
 <incar>
  <i type="string" name="SYSTEM">"Millerite NiS"</i>
  <i type="int" name="NSIM">     4</i>
  <i type="int" name="NELM">   100</i>
  <i name="ENCUT">    450.00000000</i>
  <i type="string" name="LREAL">A</i>
  <i type="int" name="ISMEAR">     0</i>
  <i type="int" name="NWRITE">     2</i>
  <i type="logical" name="LWAVE"> F  </i>
  <i type="logical" name="LCHARG"> F  </i>
  <i type="int" name="NCORE">     6</i>
  <i type="int" name="NELM">   100</i>
 </incar>
 <structure name="primitive_cell" >
  <crystal>
   <varray name="basis" >
    <v>       9.42510255       3.57329804       0.00000000 </v>
    <v>       0.00000000      10.07973298       0.00000000 </v>
    <v>       0.00000000       0.00000000      20.68350356 </v>
   </varray>
   <i name="volume">   1964.98490008 </i>
   <varray name="rec_basis" >
    <v>       0.10609964       0.00000000       0.00000000 </v>
    <v>      -0.03761267       0.09920898       0.00000000 </v>
    <v>       0.00000000       0.00000000       0.04834771 </v>
   </varray>
  </crystal>
  <varray name="positions" >
   <v>       0.39705889       0.79495179       0.11816221 </v>
   <v>       0.54732740       0.64468328       0.24509923 </v>
   <v>       0.69759592       0.49441477       0.37203625 </v>
   <v>       0.11381506       0.41152895       0.16047455 </v>
   <v>       0.26408357       0.26126044       0.28741157 </v>
   <v>       0.41435209       0.11099193       0.41434860 </v>
   <v>       0.96354655       0.56179747       0.03353752 </v>
   <v>       0.68030272       0.17837463       0.07584987 </v>
   <v>       0.83057123       0.02810612       0.20278689 </v>
   <v>       0.98083974       0.87783760       0.32972391 </v>
   <v>       0.35735705       0.57044763       0.08462468 </v>
   <v>       0.50762556       0.42017912       0.21156171 </v>
   <v>       0.65789407       0.26991061       0.33849873 </v>
   <v>       0.80816258       0.11964210       0.46543576 </v>
   <v>       0.07411322       0.18702480       0.12693702 </v>
   <v>       0.22438173       0.03675628       0.25387405 </v>
   <v>       0.37465024       0.88648777       0.38081107 </v>
   <v>       0.52491876       0.73621926       0.50774810 </v>
   <v>       0.92384471       0.33729331       0.00000000 </v>
   <v>       0.09140641       0.50306493       0.42312341 </v>
   <v>       0.64060088       0.95387047       0.04231234 </v>
   <v>       0.79086939       0.80360196       0.16924937 </v>
   <v>       0.94113790       0.65333345       0.29618639 </v>
   <v>       0.03266674       0.15934394       0.43189823 </v>
   <v>       0.58186121       0.61014948       0.05108716 </v>
   <v>       0.73212972       0.45988096       0.17802418 </v>
   <v>       0.88239823       0.30961245       0.30496121 </v>
   <v>       0.29861738       0.22672664       0.09339950 </v>
   <v>       0.44888589       0.07645813       0.22033653 </v>
   <v>       0.59915440       0.92618961       0.34727355 </v>
   <v>       0.74942291       0.77592110       0.47421057 </v>
   <v>       0.01537355       0.84330380       0.13571184 </v>
   <v>       0.16564206       0.69303529       0.26264887 </v>
   <v>       0.31591057       0.54276678       0.38958589 </v>
   <v>       0.46617908       0.39249826       0.51652292 </v>
   <v>       0.86510503       0.99357231       0.00877482 </v>
   <v>       0.03660483       0.95519385       0.48928282 </v>
   <v>       0.58579929       0.40599939       0.10847175 </v>
   <v>       0.73606780       0.25573088       0.23540877 </v>
   <v>       0.88633632       0.10546237       0.36234580 </v>
   <v>       0.15228695       0.17284506       0.02384707 </v>
   <v>       0.30255546       0.02257655       0.15078409 </v>
   <v>       0.45282398       0.87230804       0.27772111 </v>
   <v>       0.60309249       0.72203953       0.40465814 </v>
   <v>       0.01931163       0.63915371       0.19309643 </v>
   <v>       0.16958015       0.48888520       0.32003346 </v>
   <v>       0.31984866       0.33861669       0.44697048 </v>
   <v>       0.86904312       0.78942223       0.06615941 </v>
   <v>       0.48608562       0.84214307       0.02424015 </v>
   <v>       0.63635413       0.69187455       0.15117717 </v>
   <v>       0.78662264       0.54160604       0.27811420 </v>
   <v>       0.93689115       0.39133753       0.40505122 </v>
   <v>       0.20284179       0.45872023       0.06655249 </v>
   <v>       0.35311030       0.30845172       0.19348951 </v>
   <v>       0.50337881       0.15818320       0.32042654 </v>
   <v>       0.65364732       0.00791469       0.44736356 </v>
   <v>       0.06986647       0.92502888       0.23580185 </v>
   <v>       0.22013498       0.77476037       0.36273888 </v>
   <v>       0.37040349       0.62449185       0.48967590 </v>
   <v>       0.91959796       0.07529739       0.10886483 </v>
   <v>       0.20021045       0.79158823       0.06694557 </v>
   <v>       0.35047896       0.64131972       0.19388259 </v>
   <v>       0.50074747       0.49105121       0.32081962 </v>
   <v>       0.65101599       0.34078269       0.44775664 </v>
   <v>       0.06723513       0.25789688       0.23619494 </v>
   <v>       0.21750365       0.10762837       0.36313196 </v>
   <v>       0.36777216       0.95735986       0.49006899 </v>
   <v>       0.91696662       0.40816539       0.10925791 </v>
   <v>       0.48345428       0.17501107       0.02463323 </v>
   <v>       0.63372279       0.02474256       0.15157025 </v>
   <v>       0.78399130       0.87447404       0.27850728 </v>
   <v>       0.93425982       0.72420553       0.40544430 </v>
  </varray>
 </structure>
 <varray name="primitive_index" >
  <v type="int" >        1 </v>
  <v type="int" >        2 </v>
  <v type="int" >        3 </v>
  <v type="int" >        4 </v>
  <v type="int" >        5 </v>
  <v type="int" >        6 </v>
  <v type="int" >        7 </v>
  <v type="int" >        8 </v>
  <v type="int" >        9 </v>
  <v type="int" >       10 </v>
  <v type="int" >       11 </v>
  <v type="int" >       12 </v>
  <v type="int" >       13 </v>
  <v type="int" >       14 </v>
  <v type="int" >       15 </v>
  <v type="int" >       16 </v>
  <v type="int" >       17 </v>
  <v type="int" >       18 </v>
  <v type="int" >       19 </v>
  <v type="int" >       20 </v>
  <v type="int" >       21 </v>
  <v type="int" >       22 </v>
  <v type="int" >       23 </v>
  <v type="int" >       24 </v>
  <v type="int" >       25 </v>
  <v type="int" >       26 </v>
  <v type="int" >       27 </v>
  <v type="int" >       28 </v>
  <v type="int" >       29 </v>
  <v type="int" >       30 </v>
  <v type="int" >       31 </v>
  <v type="int" >       32 </v>
  <v type="int" >       33 </v>
  <v type="int" >       34 </v>
  <v type="int" >       35 </v>
  <v type="int" >       36 </v>
  <v type="int" >       37 </v>
  <v type="int" >       38 </v>
  <v type="int" >       39 </v>
  <v type="int" >       40 </v>
  <v type="int" >       41 </v>
  <v type="int" >       42 </v>
  <v type="int" >       43 </v>
  <v type="int" >       44 </v>
  <v type="int" >       45 </v>
  <v type="int" >       46 </v>
  <v type="int" >       47 </v>
  <v type="int" >       48 </v>
  <v type="int" >       49 </v>
  <v type="int" >       50 </v>
  <v type="int" >       51 </v>
  <v type="int" >       52 </v>
  <v type="int" >       53 </v>
  <v type="int" >       54 </v>
  <v type="int" >       55 </v>
  <v type="int" >       56 </v>
  <v type="int" >       57 </v>
  <v type="int" >       58 </v>
  <v type="int" >       59 </v>
  <v type="int" >       60 </v>
  <v type="int" >       61 </v>
  <v type="int" >       62 </v>
  <v type="int" >       63 </v>
  <v type="int" >       64 </v>
  <v type="int" >       65 </v>
  <v type="int" >       66 </v>
  <v type="int" >       67 </v>
  <v type="int" >       68 </v>
  <v type="int" >       69 </v>
  <v type="int" >       70 </v>
  <v type="int" >       71 </v>
  <v type="int" >       72 </v>
 </varray>
 <kpoints>
  <generation param="Gamma">
   <v type="int" name="divisions">       1        1        1 </v>
   <v name="usershift">      0.00000000       0.00000000       0.00000000 </v>
   <v name="genvec1">      1.00000000       0.00000000       0.00000000 </v>
   <v name="genvec2">     -0.00000000       1.00000000       0.00000000 </v>
   <v name="genvec3">      0.00000000       0.00000000       1.00000000 </v>
   <v name="shift">      0.00000000       0.00000000       0.00000000 </v>
  </generation>
  <varray name="kpointlist" >
   <v>       0.00000000       0.00000000       0.00000000 </v>
  </varray>
  <varray name="weights" >
   <v>       1.00000000 </v>
  </varray>
 </kpoints>
 <parameters>
  <separator name="general" >
   <i type="string" name="SYSTEM">"Millerite NiS"</i>
   <i type="logical" name="LCOMPAT"> F  </i>
  </separator>
  <separator name="electronic" >
   <i type="string" name="PREC">normal</i>
   <i name="ENMAX">    450.00000000</i>
   <i name="ENAUG">    703.44300000</i>
   <i name="EDIFF">      0.00010000</i>
   <i type="int" name="IALGO">    38</i>
   <i type="int" name="IWAVPR">    10</i>
   <i type="int" name="NBANDS">   480</i>
   <i type="int" name="NBANDSLOW">    -1</i>
   <i type="int" name="NBANDSHIGH">    -1</i>
   <i name="NELECT">    792.00000000</i>
   <i type="int" name="TURBO">     0</i>
   <i type="int" name="IRESTART">     0</i>
   <i type="int" name="NREBOOT">     0</i>
   <i type="int" name="NMIN">     0</i>
   <i name="EREF">      0.00000000</i>
   <separator name="electronic smearing" >
    <i type="int" name="ISMEAR">     0</i>
    <i name="SIGMA">      0.20000000</i>
    <i name="KSPACING">      0.50000000</i>
    <i type="logical" name="KGAMMA"> T  </i>
    <i type="logical" name="KBLOWUP"> T  </i>
   </separator>
   <separator name="electronic projectors" >
    <i type="logical" name="LREAL"> T  </i>
    <v name="ROPT">     -0.00050000     -0.00050000</v>
    <i type="int" name="LMAXPAW">  -100</i>
    <i type="int" name="LMAXMIX">     2</i>
    <i type="logical" name="NLSPLINE"> F  </i>
   </separator>
   <separator name="electronic startup" >
    <i type="int" name="ISTART">     0</i>
    <i type="int" name="ICHARG">     2</i>
    <i type="int" name="INIWAV">     1</i>
   </separator>
   <separator name="electronic spin" >
    <i type="int" name="ISPIN">     1</i>
    <i type="logical" name="LNONCOLLINEAR"> F  </i>
    <v name="MAGMOM">      1.00000000      1.00000000      1.00000000      1.00000000      1.00000000      1.00000000      1.00000000      1.00000000      1.00000000      1.00000000      1.00000000      1.00000000      1.00000000      1.00000000      1.00000000      1.00000000      1.00000000      1.00000000      1.00000000      1.00000000
      1.00000000      1.00000000      1.00000000      1.00000000      1.00000000      1.00000000      1.00000000      1.00000000      1.00000000      1.00000000      1.00000000      1.00000000      1.00000000      1.00000000      1.00000000      1.00000000      1.00000000      1.00000000      1.00000000      1.00000000
      1.00000000      1.00000000      1.00000000      1.00000000      1.00000000      1.00000000      1.00000000      1.00000000      1.00000000      1.00000000      1.00000000      1.00000000      1.00000000      1.00000000      1.00000000      1.00000000      1.00000000      1.00000000      1.00000000      1.00000000
      1.00000000      1.00000000      1.00000000      1.00000000      1.00000000      1.00000000      1.00000000      1.00000000      1.00000000      1.00000000      1.00000000      1.00000000</v>
    <i name="NUPDOWN">     -1.00000000</i>
    <i type="logical" name="LSORBIT"> F  </i>
    <v name="SAXIS">      0.00000000      0.00000000      1.00000000</v>
    <i type="logical" name="LSPIRAL"> F  </i>
    <v name="QSPIRAL">      0.00000000      0.00000000      0.00000000</v>
    <i type="logical" name="LZEROZ"> F  </i>
   </separator>
   <separator name="electronic exchange-correlation" >
    <i type="logical" name="LASPH"> F  </i>
    <i type="logical" name="LMETAGGA"> F  </i>
   </separator>
   <separator name="electronic convergence" >
    <i type="int" name="NELM">   100</i>
    <i type="int" name="NELMDL">    -5</i>
    <i type="int" name="NELMIN">     2</i>
    <i name="ENINI">    450.00000000</i>
    <separator name="electronic convergence detail" >
     <i type="logical" name="LDIAG"> T  </i>
     <i type="logical" name="LSUBROT"> F  </i>
     <i name="WEIMIN">      0.00000000</i>
     <i name="EBREAK">      0.00000005</i>
     <i name="DEPER">      0.30000000</i>
     <i type="int" name="NRMM">     4</i>
     <i name="TIME">      0.40000000</i>
    </separator>
   </separator>
   <separator name="electronic mixer" >
    <i name="AMIX">      0.40000000</i>
    <i name="BMIX">      1.00000000</i>
    <i name="AMIN">      0.10000000</i>
    <i name="AMIX_MAG">      1.60000000</i>
    <i name="BMIX_MAG">      1.00000000</i>
    <separator name="electronic mixer details" >
     <i type="int" name="IMIX">     4</i>
     <i type="logical" name="MIXFIRST"> F  </i>
     <i type="int" name="MAXMIX">   -45</i>
     <i name="WC">    100.00000000</i>
     <i type="int" name="INIMIX">     1</i>
     <i type="int" name="MIXPRE">     1</i>
     <i type="int" name="MREMOVE">     5</i>
    </separator>
   </separator>
   <separator name="electronic dipolcorrection" >
    <i type="logical" name="LDIPOL"> F  </i>
    <i type="logical" name="LMONO"> F  </i>
    <i type="int" name="IDIPOL">     0</i>
    <i name="EPSILON">      1.00000000</i>
    <v name="DIPOL">   -100.00000000   -100.00000000   -100.00000000</v>
    <i name="EFIELD">      0.00000000</i>
   </separator>
  </separator>
  <separator name="grids" >
   <i type="int" name="NGX">    54</i>
   <i type="int" name="NGY">    54</i>
   <i type="int" name="NGZ">   108</i>
   <i type="int" name="NGXF">   108</i>
   <i type="int" name="NGYF">   108</i>
   <i type="int" name="NGZF">   216</i>
   <i type="logical" name="ADDGRID"> F  </i>
  </separator>
  <separator name="ionic" >
   <i type="int" name="NSW">     0</i>
   <i type="int" name="IBRION">    -1</i>
   <i type="int" name="MDALGO">     0</i>
   <i type="int" name="ISIF">     2</i>
   <i name="PSTRESS">      0.00000000</i>
   <i name="EDIFFG">      0.00100000</i>
   <i type="int" name="NFREE">     0</i>
   <i name="POTIM">      0.50000000</i>
   <i name="SMASS">     -3.00000000</i>
   <i name="SCALEE">      1.00000000</i>
  </separator>
  <separator name="ionic md" >
   <i name="TEBEG">      0.00010000</i>
   <i name="TEEND">      0.00010000</i>
   <i type="int" name="NBLOCK">     1</i>
   <i type="int" name="KBLOCK">     1</i>
   <i type="int" name="NPACO">   256</i>
   <i name="APACO">     16.00000000</i>
  </separator>
  <separator name="symmetry" >
   <i type="int" name="ISYM">     2</i>
   <i name="SYMPREC">      0.00001000</i>
  </separator>
  <separator name="dos" >
   <i type="int" name="LORBIT">     0</i>
   <v name="RWIGS">     -1.00000000     -1.00000000</v>
   <i type="int" name="NEDOS">   301</i>
   <i name="EMIN">     10.00000000</i>
   <i name="EMAX">    -10.00000000</i>
   <i name="EFERMI">      0.00000000</i>
  </separator>
  <separator name="writing" >
   <i type="int" name="NWRITE">     2</i>
   <i type="logical" name="LWAVE"> F  </i>
   <i type="logical" name="LDOWNSAMPLE"> F  </i>
   <i type="logical" name="LCHARG"> F  </i>
   <i type="logical" name="LPARD"> F  </i>
   <i type="logical" name="LVTOT"> F  </i>
   <i type="logical" name="LVHAR"> F  </i>
   <i type="logical" name="LELF"> F  </i>
   <i type="logical" name="LOPTICS"> F  </i>
   <v name="STM">      0.00000000      0.00000000      0.00000000      0.00000000      0.00000000      0.00000000      0.00000000</v>
  </separator>
  <separator name="performance" >
   <i type="int" name="NPAR">     8</i>
   <i type="int" name="NSIM">     4</i>
   <i type="int" name="NBLK">    -1</i>
   <i type="logical" name="LPLANE"> T  </i>
   <i type="logical" name="LSCALAPACK"> T  </i>
   <i type="logical" name="LSCAAWARE"> F  </i>
   <i type="logical" name="LSCALU"> F  </i>
   <i type="logical" name="LASYNC"> F  </i>
   <i type="logical" name="LORBITALREAL"> F  </i>
  </separator>
  <separator name="miscellaneous" >
   <i type="int" name="IDIOT">     3</i>
   <i type="int" name="PHON_NSTRUCT">    -1</i>
   <i type="logical" name="LMUSIC"> F  </i>
   <v name="POMASS">     58.69000000     32.06600000</v>
   <v name="DARWINR">      0.00000000      0.00000000</v>
   <v name="DARWINV">      1.00000000      1.00000000</v>
   <i type="logical" name="LCORR"> T  </i>
  </separator>
  <i type="logical" name="GGA_COMPAT"> T  </i>
  <i type="logical" name="LBERRY"> F  </i>
  <i type="int" name="ICORELEVEL">     0</i>
  <i type="logical" name="LDAU"> F  </i>
  <i type="int" name="I_CONSTRAINED_M">     0</i>
  <separator name="electronic exchange-correlation" >
   <i type="string" name="GGA">--</i>
   <i type="int" name="VOSKOWN">     0</i>
   <i type="logical" name="LHFCALC"> F  </i>
   <i type="string" name="PRECFOCK"></i>
   <i type="logical" name="LSYMGRAD"> F  </i>
   <i type="logical" name="LHFONE"> F  </i>
   <i type="logical" name="LRHFCALC"> F  </i>
   <i type="logical" name="LTHOMAS"> F  </i>
   <i type="logical" name="LMODELHF"> F  </i>
   <i type="logical" name="LFOCKACE"> F  </i>
   <i name="ENCUT4O">     -1.00000000</i>
   <i type="int" name="EXXOEP">     0</i>
   <i type="int" name="FOURORBIT">     0</i>
   <i name="AEXX">      0.00000000</i>
   <i name="HFALPHA">      0.00000000</i>
   <i name="MCALPHA">      0.00000000</i>
   <i name="ALDAX">      1.00000000</i>
   <i name="AGGAX">      1.00000000</i>
   <i name="ALDAC">      1.00000000</i>
   <i name="AGGAC">      1.00000000</i>
   <i type="int" name="NKREDX">     1</i>
   <i type="int" name="NKREDY">     1</i>
   <i type="int" name="NKREDZ">     1</i>
   <i type="logical" name="SHIFTRED"> F  </i>
   <i type="logical" name="ODDONLY"> F  </i>
   <i type="logical" name="EVENONLY"> F  </i>
   <i type="int" name="LMAXFOCK">     0</i>
   <i type="int" name="NMAXFOCKAE">     0</i>
   <i type="logical" name="LFOCKAEDFT"> F  </i>
   <i name="HFSCREEN">      0.00000000</i>
   <i name="HFSCREENC">      0.00000000</i>
   <i type="int" name="NBANDSGWLOW">     0</i>
  </separator>
  <separator name="vdW DFT" >
   <i type="logical" name="LUSE_VDW"> F  </i>
   <i name="Zab_VDW">     -0.84910000</i>
   <i name="PARAM1">      0.12340000</i>
   <i name="PARAM2">      1.00000000</i>
   <i name="PARAM3">      0.00000000</i>
  </separator>
  <separator name="model GW" >
   <i type="int" name="MODEL_GW">     0</i>
   <i name="MODEL_EPS0">     16.37487417</i>
   <i name="MODEL_ALPHA">      1.00000000</i>
  </separator>
  <separator name="linear response parameters" >
   <i type="logical" name="LEPSILON"> F  </i>
   <i type="logical" name="LRPA"> F  </i>
   <i type="logical" name="LNABLA"> F  </i>
   <i type="logical" name="LVEL"> F  </i>
   <i type="int" name="KINTER">     0</i>
   <i name="CSHIFT">      0.10000000</i>
   <i name="OMEGAMAX">     -1.00000000</i>
   <i name="DEG_THRESHOLD">      0.00200000</i>
   <i name="RTIME">     -0.10000000</i>
   <i name="WPLASMAI">      0.00000000</i>
   <v name="DFIELD">      0.00000000      0.00000000      0.00000000</v>
   <v name="WPLASMA">      0.00000000      0.00000000      0.00000000      0.00000000      0.00000000      0.00000000      0.00000000      0.00000000      0.00000000</v>
  </separator>
  <separator name="orbital magnetization" >
   <i type="logical" name="NUCIND"> F  </i>
   <v name="MAGPOS">      0.00000000      0.00000000      0.00000000</v>
   <i type="logical" name="LNICSALL"> T  </i>
   <i type="logical" name="ORBITALMAG"> F  </i>
   <i type="logical" name="LMAGBLOCH"> F  </i>
   <i type="logical" name="LCHIMAG"> F  </i>
   <i type="logical" name="LGAUGE"> T  </i>
   <i type="int" name="MAGATOM">     0</i>
   <v name="MAGDIPOL">      0.00000000      0.00000000      0.00000000</v>
   <v name="AVECCONST">      0.00000000      0.00000000      0.00000000</v>
  </separator>
  <separator name="response functions" >
   <i type="logical" name="LFINITE_TEMPERATURE"> F  </i>
   <i type="logical" name="LADDER"> F  </i>
   <i type="logical" name="LRPAFORCE"> F  </i>
   <i type="logical" name="LFXC"> F  </i>
   <i type="logical" name="LHARTREE"> T  </i>
   <i type="int" name="IBSE">     0</i>
   <v type="int" name="KPOINT">    -1     0     0     0</v>
   <i type="logical" name="LTCTC"> F  </i>
   <i type="logical" name="LTCTE"> F  </i>
   <i type="logical" name="LTETE"> F  </i>
   <i type="logical" name="LTRIPLET"> F  </i>
   <i type="logical" name="LFXCEPS"> F  </i>
   <i type="logical" name="LFXHEG"> F  </i>
   <i type="int" name="NATURALO">     2</i>
   <i type="logical" name="LHOLEGF"> F  </i>
   <i type="logical" name="L2ORDER"> F  </i>
   <i type="logical" name="LDMP1"> F  </i>
   <i type="logical" name="LMP2LT"> F  </i>
   <i type="logical" name="LSMP2LT"> F  </i>
   <i type="logical" name="LGWLF"> F  </i>
   <i name="ENCUTGW">     -2.00000000</i>
   <i name="ENCUTGWSOFT">     -2.00000000</i>
   <i name="ENCUTLF">     -1.00000000</i>
   <i type="logical" name="LESF_SPLINES"> F  </i>
   <i type="int" name="LMAXMP2">    -1</i>
   <i name="SCISSOR">      0.00000000</i>
   <i type="int" name="NOMEGA">     0</i>
   <i type="int" name="NOMEGAR">     0</i>
   <i type="int" name="NBANDSGW">    -1</i>
   <i type="int" name="NBANDSO">    -1</i>
   <i type="int" name="NBANDSV">    -1</i>
   <i type="int" name="NELM">   100</i>
   <i type="int" name="NELMHF">     1</i>
   <i type="int" name="DIM">     3</i>
   <i type="int" name="IESPILON">     4</i>
   <i type="int" name="ANTIRES">     0</i>
   <i name="OMEGAMAX">    -30.00000000</i>
   <i name="OMEGAMIN">    -30.00000000</i>
   <i name="OMEGATL">   -200.00000000</i>
   <i type="int" name="OMEGAGRID">     0</i>
   <i name="CSHIFT">     -0.10000000</i>
   <i type="logical" name="LSELFENERGY"> F  </i>
   <i type="logical" name="LSPECTRAL"> F  </i>
   <i type="logical" name="LSPECTRALGW"> F  </i>
   <i type="logical" name="LSINGLES"> F  </i>
   <i type="logical" name="LFERMIGW"> F  </i>
   <i type="logical" name="ODDONLYGW"> F  </i>
   <i type="logical" name="EVENONLYGW"> F  </i>
   <i type="int" name="NKREDLFX">     1</i>
   <i type="int" name="NKREDLFY">     1</i>
   <i type="int" name="NKREDLFZ">     1</i>
   <i type="int" name="MAXMEM">  2800</i>
   <i type="int" name="TELESCOPE">     0</i>
   <i type="int" name="NTAUPAR">    -1</i>
   <i type="int" name="NOMEGAPAR">    -1</i>
   <i name="LAMBDA">      1.00000000</i>
  </separator>
  <separator name="External order field" >
   <i name="OFIELD_KAPPA">      0.00000000</i>
   <v name="OFIELD_K">      0.00000000      0.00000000      0.00000000</v>
   <i name="OFIELD_Q6_NEAR">      0.00000000</i>
   <i name="OFIELD_Q6_FAR">      0.00000000</i>
   <i name="OFIELD_A">      0.00000000</i>
  </separator>
 </parameters>
 <atominfo>
  <atoms>      72 </atoms>
  <types>       2 </types>
  <array name="atoms" >
   <dimension dim="1">ion</dimension>
   <field type="string">element</field>
   <field type="int">atomtype</field>
   <set>
    <rc><c>Ni</c><c>   1</c></rc>
    <rc><c>Ni</c><c>   1</c></rc>
    <rc><c>Ni</c><c>   1</c></rc>
    <rc><c>Ni</c><c>   1</c></rc>
    <rc><c>Ni</c><c>   1</c></rc>
    <rc><c>Ni</c><c>   1</c></rc>
    <rc><c>Ni</c><c>   1</c></rc>
    <rc><c>Ni</c><c>   1</c></rc>
    <rc><c>Ni</c><c>   1</c></rc>
    <rc><c>Ni</c><c>   1</c></rc>
    <rc><c>Ni</c><c>   1</c></rc>
    <rc><c>Ni</c><c>   1</c></rc>
    <rc><c>Ni</c><c>   1</c></rc>
    <rc><c>Ni</c><c>   1</c></rc>
    <rc><c>Ni</c><c>   1</c></rc>
    <rc><c>Ni</c><c>   1</c></rc>
    <rc><c>Ni</c><c>   1</c></rc>
    <rc><c>Ni</c><c>   1</c></rc>
    <rc><c>Ni</c><c>   1</c></rc>
    <rc><c>Ni</c><c>   1</c></rc>
    <rc><c>Ni</c><c>   1</c></rc>
    <rc><c>Ni</c><c>   1</c></rc>
    <rc><c>Ni</c><c>   1</c></rc>
    <rc><c>Ni</c><c>   1</c></rc>
    <rc><c>Ni</c><c>   1</c></rc>
    <rc><c>Ni</c><c>   1</c></rc>
    <rc><c>Ni</c><c>   1</c></rc>
    <rc><c>Ni</c><c>   1</c></rc>
    <rc><c>Ni</c><c>   1</c></rc>
    <rc><c>Ni</c><c>   1</c></rc>
    <rc><c>Ni</c><c>   1</c></rc>
    <rc><c>Ni</c><c>   1</c></rc>
    <rc><c>Ni</c><c>   1</c></rc>
    <rc><c>Ni</c><c>   1</c></rc>
    <rc><c>Ni</c><c>   1</c></rc>
    <rc><c>Ni</c><c>   1</c></rc>
    <rc><c>S </c><c>   2</c></rc>
    <rc><c>S </c><c>   2</c></rc>
    <rc><c>S </c><c>   2</c></rc>
    <rc><c>S </c><c>   2</c></rc>
    <rc><c>S </c><c>   2</c></rc>
    <rc><c>S </c><c>   2</c></rc>
    <rc><c>S </c><c>   2</c></rc>
    <rc><c>S </c><c>   2</c></rc>
    <rc><c>S </c><c>   2</c></rc>
    <rc><c>S </c><c>   2</c></rc>
    <rc><c>S </c><c>   2</c></rc>
    <rc><c>S </c><c>   2</c></rc>
    <rc><c>S </c><c>   2</c></rc>
    <rc><c>S </c><c>   2</c></rc>
    <rc><c>S </c><c>   2</c></rc>
    <rc><c>S </c><c>   2</c></rc>
    <rc><c>S </c><c>   2</c></rc>
    <rc><c>S </c><c>   2</c></rc>
    <rc><c>S </c><c>   2</c></rc>
    <rc><c>S </c><c>   2</c></rc>
    <rc><c>S </c><c>   2</c></rc>
    <rc><c>S </c><c>   2</c></rc>
    <rc><c>S </c><c>   2</c></rc>
    <rc><c>S </c><c>   2</c></rc>
    <rc><c>S </c><c>   2</c></rc>
    <rc><c>S </c><c>   2</c></rc>
    <rc><c>S </c><c>   2</c></rc>
    <rc><c>S </c><c>   2</c></rc>
    <rc><c>S </c><c>   2</c></rc>
    <rc><c>S </c><c>   2</c></rc>
    <rc><c>S </c><c>   2</c></rc>
    <rc><c>S </c><c>   2</c></rc>
    <rc><c>S </c><c>   2</c></rc>
    <rc><c>S </c><c>   2</c></rc>
    <rc><c>S </c><c>   2</c></rc>
    <rc><c>S </c><c>   2</c></rc>
   </set>
  </array>
  <array name="atomtypes" >
   <dimension dim="1">type</dimension>
   <field type="int">atomspertype</field>
   <field type="string">element</field>
   <field>mass</field>
   <field>valence</field>
   <field type="string">pseudopotential</field>
   <set>
    <rc><c>  36</c><c>Ni</c><c>     58.69000000</c><c>     16.00000000</c><c>  PAW_PBE Ni_pv 06Sep2000               </c></rc>
    <rc><c>  36</c><c>S </c><c>     32.06600000</c><c>      6.00000000</c><c>  PAW_PBE S 06Sep2000                   </c></rc>
   </set>
  </array>
 </atominfo>
 <structure name="initialpos" >
  <crystal>
   <varray name="basis" >
    <v>       9.42510255       3.57329804       0.00000000 </v>
    <v>       0.00000000      10.07973298       0.00000000 </v>
    <v>       0.00000000       0.00000000      20.68350356 </v>
   </varray>
   <i name="volume">   1964.98490008 </i>
   <varray name="rec_basis" >
    <v>       0.10609964       0.00000000       0.00000000 </v>
    <v>      -0.03761267       0.09920898       0.00000000 </v>
    <v>       0.00000000       0.00000000       0.04834771 </v>
   </varray>
  </crystal>
  <varray name="positions" >
   <v>       0.39705889       0.79495179       0.11816221 </v>
   <v>       0.54732740       0.64468328       0.24509923 </v>
   <v>       0.69759592       0.49441477       0.37203625 </v>
   <v>       0.11381506       0.41152895       0.16047455 </v>
   <v>       0.26408357       0.26126044       0.28741157 </v>
   <v>       0.41435209       0.11099193       0.41434860 </v>
   <v>       0.96354655       0.56179747       0.03353752 </v>
   <v>       0.68030272       0.17837463       0.07584987 </v>
   <v>       0.83057123       0.02810612       0.20278689 </v>
   <v>       0.98083974       0.87783760       0.32972391 </v>
   <v>       0.35735705       0.57044763       0.08462468 </v>
   <v>       0.50762556       0.42017912       0.21156171 </v>
   <v>       0.65789407       0.26991061       0.33849873 </v>
   <v>       0.80816258       0.11964210       0.46543576 </v>
   <v>       0.07411322       0.18702480       0.12693702 </v>
   <v>       0.22438173       0.03675628       0.25387405 </v>
   <v>       0.37465024       0.88648777       0.38081107 </v>
   <v>       0.52491876       0.73621926       0.50774810 </v>
   <v>       0.92384471       0.33729331       0.00000000 </v>
   <v>       0.09140641       0.50306493       0.42312341 </v>
   <v>       0.64060088       0.95387047       0.04231234 </v>
   <v>       0.79086939       0.80360196       0.16924937 </v>
   <v>       0.94113790       0.65333345       0.29618639 </v>
   <v>       0.03266674       0.15934394       0.43189823 </v>
   <v>       0.58186121       0.61014948       0.05108716 </v>
   <v>       0.73212972       0.45988096       0.17802418 </v>
   <v>       0.88239823       0.30961245       0.30496121 </v>
   <v>       0.29861738       0.22672664       0.09339950 </v>
   <v>       0.44888589       0.07645813       0.22033653 </v>
   <v>       0.59915440       0.92618961       0.34727355 </v>
   <v>       0.74942291       0.77592110       0.47421057 </v>
   <v>       0.01537355       0.84330380       0.13571184 </v>
   <v>       0.16564206       0.69303529       0.26264887 </v>
   <v>       0.31591057       0.54276678       0.38958589 </v>
   <v>       0.46617908       0.39249826       0.51652292 </v>
   <v>       0.86510503       0.99357231       0.00877482 </v>
   <v>       0.03660483       0.95519385       0.48928282 </v>
   <v>       0.58579929       0.40599939       0.10847175 </v>
   <v>       0.73606780       0.25573088       0.23540877 </v>
   <v>       0.88633632       0.10546237       0.36234580 </v>
   <v>       0.15228695       0.17284506       0.02384707 </v>
   <v>       0.30255546       0.02257655       0.15078409 </v>
   <v>       0.45282398       0.87230804       0.27772111 </v>
   <v>       0.60309249       0.72203953       0.40465814 </v>
   <v>       0.01931163       0.63915371       0.19309643 </v>
   <v>       0.16958015       0.48888520       0.32003346 </v>
   <v>       0.31984866       0.33861669       0.44697048 </v>
   <v>       0.86904312       0.78942223       0.06615941 </v>
   <v>       0.48608562       0.84214307       0.02424015 </v>
   <v>       0.63635413       0.69187455       0.15117717 </v>
   <v>       0.78662264       0.54160604       0.27811420 </v>
   <v>       0.93689115       0.39133753       0.40505122 </v>
   <v>       0.20284179       0.45872023       0.06655249 </v>
   <v>       0.35311030       0.30845172       0.19348951 </v>
   <v>       0.50337881       0.15818320       0.32042654 </v>
   <v>       0.65364732       0.00791469       0.44736356 </v>
   <v>       0.06986647       0.92502888       0.23580185 </v>
   <v>       0.22013498       0.77476037       0.36273888 </v>
   <v>       0.37040349       0.62449185       0.48967590 </v>
   <v>       0.91959796       0.07529739       0.10886483 </v>
   <v>       0.20021045       0.79158823       0.06694557 </v>
   <v>       0.35047896       0.64131972       0.19388259 </v>
   <v>       0.50074747       0.49105121       0.32081962 </v>
   <v>       0.65101599       0.34078269       0.44775664 </v>
   <v>       0.06723513       0.25789688       0.23619494 </v>
   <v>       0.21750365       0.10762837       0.36313196 </v>
   <v>       0.36777216       0.95735986       0.49006899 </v>
   <v>       0.91696662       0.40816539       0.10925791 </v>
   <v>       0.48345428       0.17501107       0.02463323 </v>
   <v>       0.63372279       0.02474256       0.15157025 </v>
   <v>       0.78399130       0.87447404       0.27850728 </v>
   <v>       0.93425982       0.72420553       0.40544430 </v>
  </varray>
 </structure>
 <calculation>
  <scstep>
   <time name="dav">    2.10    2.11</time>
   <time name="total">    2.15    2.16</time>
   <energy>
    <i name="alphaZ">   1893.09323658 </i>
    <i name="ewald"> 166179.95640698 </i>
    <i name="hartreedc">-288760.98441121 </i>
    <i name="XCdc">   3651.72838153 </i>
    <i name="pawpsdc"> 112729.53333415 </i>
    <i name="pawaedc">-117641.51188735 </i>
    <i name="eentropy">     -0.39270759 </i>
    <i name="bandstr">  -4340.38133117 </i>
    <i name="atom"> 136002.60505376 </i>
    <i name="e_fr_energy">   9713.64607567 </i>
    <i name="e_wo_entrp">   9714.03878327 </i>
    <i name="e_0_energy">   9713.84242947 </i>
   </energy>
  </scstep>
  <scstep>
   <time name="dav">    1.82    1.83</time>
   <time name="total">    1.82    1.83</time>
   <energy>
    <i name="e_fr_energy">    604.03186385 </i>
    <i name="e_wo_entrp">    604.77891451 </i>
    <i name="e_0_energy">    604.40538918 </i>
   </energy>
  </scstep>
  <scstep>
   <time name="dav">    1.95    1.96</time>
   <time name="total">    1.95    1.96</time>
   <energy>
    <i name="e_fr_energy">   -340.96049538 </i>
    <i name="e_wo_entrp">   -339.79317435 </i>
    <i name="e_0_energy">   -340.37683486 </i>
   </energy>
  </scstep>
  <scstep>
   <time name="dav">    2.00    2.00</time>
   <time name="total">    2.00    2.00</time>
   <energy>
    <i name="e_fr_energy">   -403.39766693 </i>
    <i name="e_wo_entrp">   -402.12938020 </i>
    <i name="e_0_energy">   -402.76352356 </i>
   </energy>
  </scstep>
  <scstep>
   <time name="dav">    2.14    2.15</time>
   <time name="total">    2.19    2.20</time>
   <energy>
    <i name="e_fr_energy">   -405.79493276 </i>
    <i name="e_wo_entrp">   -404.52377222 </i>
    <i name="e_0_energy">   -405.15935249 </i>
   </energy>
  </scstep>
  <scstep>
   <time name="dav">    2.03    2.03</time>
   <time name="total">    2.11    2.12</time>
   <energy>
    <i name="e_fr_energy">   -486.41086623 </i>
    <i name="e_wo_entrp">   -485.54133258 </i>
    <i name="e_0_energy">   -485.97609941 </i>
   </energy>
  </scstep>
  <scstep>
   <time name="dav">    1.98    1.99</time>
   <time name="total">    2.07    2.08</time>
   <energy>
    <i name="e_fr_energy">   -373.75883481 </i>
    <i name="e_wo_entrp">   -372.88800600 </i>
    <i name="e_0_energy">   -373.32342040 </i>
   </energy>
  </scstep>
  <scstep>
   <time name="dav">    2.32    2.33</time>
   <time name="total">    2.41    2.42</time>
   <energy>
    <i name="e_fr_energy">   -421.49477820 </i>
    <i name="e_wo_entrp">   -420.02836101 </i>
    <i name="e_0_energy">   -420.76156961 </i>
   </energy>
  </scstep>
  <scstep>
   <time name="dav">    2.11    2.12</time>
   <time name="total">    2.20    2.21</time>
   <energy>
    <i name="e_fr_energy">   -371.83918290 </i>
    <i name="e_wo_entrp">   -370.81153770 </i>
    <i name="e_0_energy">   -371.32536030 </i>
   </energy>
  </scstep>
  <scstep>
   <time name="dav">    2.23    2.23</time>
   <time name="total">    2.32    2.32</time>
   <energy>
    <i name="e_fr_energy">   -379.82561479 </i>
    <i name="e_wo_entrp">   -378.64711685 </i>
    <i name="e_0_energy">   -379.23636582 </i>
   </energy>
  </scstep>
  <scstep>
   <time name="dav">    2.27    2.28</time>
   <time name="total">    2.37    2.37</time>
   <energy>
    <i name="e_fr_energy">   -370.44014774 </i>
    <i name="e_wo_entrp">   -369.28137435 </i>
    <i name="e_0_energy">   -369.86076105 </i>
   </energy>
  </scstep>
  <scstep>
   <time name="dav">    2.22    2.23</time>
   <time name="total">    2.32    2.32</time>
   <energy>
    <i name="e_fr_energy">   -366.02490293 </i>
    <i name="e_wo_entrp">   -365.07748037 </i>
    <i name="e_0_energy">   -365.55119165 </i>
   </energy>
  </scstep>
  <scstep>
   <time name="dav">    2.22    2.23</time>
   <time name="total">    2.31    2.32</time>
   <energy>
    <i name="e_fr_energy">   -361.98005240 </i>
    <i name="e_wo_entrp">   -360.98001625 </i>
    <i name="e_0_energy">   -361.48003432 </i>
   </energy>
  </scstep>
  <scstep>
   <time name="dav">    2.22    2.23</time>
   <time name="total">    2.32    2.33</time>
   <energy>
    <i name="e_fr_energy">   -360.55763455 </i>
    <i name="e_wo_entrp">   -359.65732537 </i>
    <i name="e_0_energy">   -360.10747996 </i>
   </energy>
  </scstep>
  <scstep>
   <time name="dav">    2.16    2.17</time>
   <time name="total">    2.26    2.27</time>
   <energy>
    <i name="e_fr_energy">   -357.91389111 </i>
    <i name="e_wo_entrp">   -356.91355427 </i>
    <i name="e_0_energy">   -357.41372269 </i>
   </energy>
  </scstep>
  <scstep>
   <time name="dav">    2.22    2.23</time>
   <time name="total">    2.31    2.32</time>
   <energy>
    <i name="e_fr_energy">   -357.26570668 </i>
    <i name="e_wo_entrp">   -356.27772147 </i>
    <i name="e_0_energy">   -356.77171407 </i>
   </energy>
  </scstep>
  <scstep>
   <time name="dav">    2.23    2.24</time>
   <time name="total">    2.32    2.33</time>
   <energy>
    <i name="e_fr_energy">   -356.90792736 </i>
    <i name="e_wo_entrp">   -355.89234991 </i>
    <i name="e_0_energy">   -356.40013864 </i>
   </energy>
  </scstep>
  <scstep>
   <time name="dav">    2.13    2.14</time>
   <time name="total">    2.23    2.23</time>
   <energy>
    <i name="e_fr_energy">   -356.73824383 </i>
    <i name="e_wo_entrp">   -355.73713883 </i>
    <i name="e_0_energy">   -356.23769133 </i>
   </energy>
  </scstep>
  <scstep>
   <time name="dav">    2.27    2.27</time>
   <time name="total">    2.36    2.37</time>
   <energy>
    <i name="e_fr_energy">   -356.47057390 </i>
    <i name="e_wo_entrp">   -355.44584771 </i>
    <i name="e_0_energy">   -355.95821081 </i>
   </energy>
  </scstep>
  <scstep>
   <time name="dav">    2.30    2.30</time>
   <time name="total">    2.39    2.40</time>
   <energy>
    <i name="e_fr_energy">   -356.22135140 </i>
    <i name="e_wo_entrp">   -355.15206722 </i>
    <i name="e_0_energy">   -355.68670931 </i>
   </energy>
  </scstep>
  <scstep>
   <time name="dav">    2.35    2.35</time>
   <time name="total">    2.44    2.44</time>
   <energy>
    <i name="e_fr_energy">   -356.02798871 </i>
    <i name="e_wo_entrp">   -354.96011750 </i>
    <i name="e_0_energy">   -355.49405310 </i>
   </energy>
  </scstep>
  <scstep>
   <time name="dav">    2.19    2.20</time>
   <time name="total">    2.28    2.29</time>
   <energy>
    <i name="e_fr_energy">   -355.98235557 </i>
    <i name="e_wo_entrp">   -354.91357889 </i>
    <i name="e_0_energy">   -355.44796723 </i>
   </energy>
  </scstep>
  <scstep>
   <time name="dav">    2.19    2.20</time>
   <time name="total">    2.28    2.29</time>
   <energy>
    <i name="e_fr_energy">   -355.98983096 </i>
    <i name="e_wo_entrp">   -354.92033138 </i>
    <i name="e_0_energy">   -355.45508117 </i>
   </energy>
  </scstep>
  <scstep>
   <time name="dav">    2.08    2.08</time>
   <time name="total">    2.17    2.18</time>
   <energy>
    <i name="e_fr_energy">   -355.97867577 </i>
    <i name="e_wo_entrp">   -354.90742943 </i>
    <i name="e_0_energy">   -355.44305260 </i>
   </energy>
  </scstep>
  <scstep>
   <time name="dav">    2.21    2.22</time>
   <time name="total">    2.30    2.31</time>
   <energy>
    <i name="e_fr_energy">   -356.01428503 </i>
    <i name="e_wo_entrp">   -354.95418584 </i>
    <i name="e_0_energy">   -355.48423543 </i>
   </energy>
  </scstep>
  <scstep>
   <time name="dav">    2.18    2.19</time>
   <time name="total">    2.28    2.28</time>
   <energy>
    <i name="e_fr_energy">   -355.99208799 </i>
    <i name="e_wo_entrp">   -354.92935865 </i>
    <i name="e_0_energy">   -355.46072332 </i>
   </energy>
  </scstep>
  <scstep>
   <time name="dav">    2.29    2.30</time>
   <time name="total">    2.39    2.39</time>
   <energy>
    <i name="e_fr_energy">   -355.96598503 </i>
    <i name="e_wo_entrp">   -354.90633763 </i>
    <i name="e_0_energy">   -355.43616133 </i>
   </energy>
  </scstep>
  <scstep>
   <time name="dav">    2.25    2.26</time>
   <time name="total">    2.35    2.35</time>
   <energy>
    <i name="e_fr_energy">   -355.96759267 </i>
    <i name="e_wo_entrp">   -354.90699186 </i>
    <i name="e_0_energy">   -355.43729226 </i>
   </energy>
  </scstep>
  <scstep>
   <time name="dav">    2.11    2.11</time>
   <time name="total">    2.20    2.21</time>
   <energy>
    <i name="e_fr_energy">   -355.96541819 </i>
    <i name="e_wo_entrp">   -354.90587881 </i>
    <i name="e_0_energy">   -355.43564850 </i>
   </energy>
  </scstep>
  <scstep>
   <time name="dav">    2.19    2.19</time>
   <time name="total">    2.28    2.29</time>
   <energy>
    <i name="e_fr_energy">   -355.96493242 </i>
    <i name="e_wo_entrp">   -354.90544037 </i>
    <i name="e_0_energy">   -355.43518639 </i>
   </energy>
  </scstep>
  <scstep>
   <time name="dav">    1.89    1.89</time>
   <time name="total">    1.98    1.98</time>
   <energy>
    <i name="e_fr_energy">   -355.96516609 </i>
    <i name="e_wo_entrp">   -354.90518777 </i>
    <i name="e_0_energy">   -355.43517693 </i>
   </energy>
  </scstep>
  <scstep>
   <time name="dav">    1.84    1.85</time>
   <time name="total">    1.89    1.90</time>
   <energy>
    <i name="alphaZ">   1893.09323658 </i>
    <i name="ewald"> 166179.95640698 </i>
    <i name="hartreedc">-288031.26166426 </i>
    <i name="XCdc">   3622.33406453 </i>
    <i name="pawpsdc"> 130537.92255723 </i>
    <i name="pawaedc">-135507.93937699 </i>
    <i name="eentropy">     -1.05905013 </i>
    <i name="bandstr"> -15051.61633150 </i>
    <i name="atom"> 136002.60505376 </i>
    <i name="e_fr_energy">   -355.96510381 </i>
    <i name="e_wo_entrp">   -354.90605368 </i>
    <i name="e_0_energy">   -355.43557875 </i>
   </energy>
  </scstep>
  <structure>
   <crystal>
    <varray name="basis" >
     <v>       9.42510255       3.57329804       0.00000000 </v>
     <v>       0.00000000      10.07973298       0.00000000 </v>
     <v>       0.00000000       0.00000000      20.68350356 </v>
    </varray>
    <i name="volume">   1964.98490008 </i>
    <varray name="rec_basis" >
     <v>       0.10609964       0.00000000       0.00000000 </v>
     <v>      -0.03761267       0.09920898       0.00000000 </v>
     <v>       0.00000000       0.00000000       0.04834771 </v>
    </varray>
   </crystal>
   <varray name="positions" >
    <v>       0.39705889       0.79495179       0.11816221 </v>
    <v>       0.54732740       0.64468328       0.24509923 </v>
    <v>       0.69759592       0.49441477       0.37203625 </v>
    <v>       0.11381506       0.41152895       0.16047455 </v>
    <v>       0.26408357       0.26126044       0.28741157 </v>
    <v>       0.41435209       0.11099193       0.41434860 </v>
    <v>       0.96354655       0.56179747       0.03353752 </v>
    <v>       0.68030272       0.17837463       0.07584987 </v>
    <v>       0.83057123       0.02810612       0.20278689 </v>
    <v>       0.98083974       0.87783760       0.32972391 </v>
    <v>       0.35735705       0.57044763       0.08462468 </v>
    <v>       0.50762556       0.42017912       0.21156171 </v>
    <v>       0.65789407       0.26991061       0.33849873 </v>
    <v>       0.80816258       0.11964210       0.46543576 </v>
    <v>       0.07411322       0.18702480       0.12693702 </v>
    <v>       0.22438173       0.03675628       0.25387405 </v>
    <v>       0.37465024       0.88648777       0.38081107 </v>
    <v>       0.52491876       0.73621926       0.50774810 </v>
    <v>       0.92384471       0.33729331       0.00000000 </v>
    <v>       0.09140641       0.50306493       0.42312341 </v>
    <v>       0.64060088       0.95387047       0.04231234 </v>
    <v>       0.79086939       0.80360196       0.16924937 </v>
    <v>       0.94113790       0.65333345       0.29618639 </v>
    <v>       0.03266674       0.15934394       0.43189823 </v>
    <v>       0.58186121       0.61014948       0.05108716 </v>
    <v>       0.73212972       0.45988096       0.17802418 </v>
    <v>       0.88239823       0.30961245       0.30496121 </v>
    <v>       0.29861738       0.22672664       0.09339950 </v>
    <v>       0.44888589       0.07645813       0.22033653 </v>
    <v>       0.59915440       0.92618961       0.34727355 </v>
    <v>       0.74942291       0.77592110       0.47421057 </v>
    <v>       0.01537355       0.84330380       0.13571184 </v>
    <v>       0.16564206       0.69303529       0.26264887 </v>
    <v>       0.31591057       0.54276678       0.38958589 </v>
    <v>       0.46617908       0.39249826       0.51652292 </v>
    <v>       0.86510503       0.99357231       0.00877482 </v>
    <v>       0.03660483       0.95519385       0.48928282 </v>
    <v>       0.58579929       0.40599939       0.10847175 </v>
    <v>       0.73606780       0.25573088       0.23540877 </v>
    <v>       0.88633632       0.10546237       0.36234580 </v>
    <v>       0.15228695       0.17284506       0.02384707 </v>
    <v>       0.30255546       0.02257655       0.15078409 </v>
    <v>       0.45282398       0.87230804       0.27772111 </v>
    <v>       0.60309249       0.72203953       0.40465814 </v>
    <v>       0.01931163       0.63915371       0.19309643 </v>
    <v>       0.16958015       0.48888520       0.32003346 </v>
    <v>       0.31984866       0.33861669       0.44697048 </v>
    <v>       0.86904312       0.78942223       0.06615941 </v>
    <v>       0.48608562       0.84214307       0.02424015 </v>
    <v>       0.63635413       0.69187455       0.15117717 </v>
    <v>       0.78662264       0.54160604       0.27811420 </v>
    <v>       0.93689115       0.39133753       0.40505122 </v>
    <v>       0.20284179       0.45872023       0.06655249 </v>
    <v>       0.35311030       0.30845172       0.19348951 </v>
    <v>       0.50337881       0.15818320       0.32042654 </v>
    <v>       0.65364732       0.00791469       0.44736356 </v>
    <v>       0.06986647       0.92502888       0.23580185 </v>
    <v>       0.22013498       0.77476037       0.36273888 </v>
    <v>       0.37040349       0.62449185       0.48967590 </v>
    <v>       0.91959796       0.07529739       0.10886483 </v>
    <v>       0.20021045       0.79158823       0.06694557 </v>
    <v>       0.35047896       0.64131972       0.19388259 </v>
    <v>       0.50074747       0.49105121       0.32081962 </v>
    <v>       0.65101599       0.34078269       0.44775664 </v>
    <v>       0.06723513       0.25789688       0.23619494 </v>
    <v>       0.21750365       0.10762837       0.36313196 </v>
    <v>       0.36777216       0.95735986       0.49006899 </v>
    <v>       0.91696662       0.40816539       0.10925791 </v>
    <v>       0.48345428       0.17501107       0.02463323 </v>
    <v>       0.63372279       0.02474256       0.15157025 </v>
    <v>       0.78399130       0.87447404       0.27850728 </v>
    <v>       0.93425982       0.72420553       0.40544430 </v>
   </varray>
  </structure>
  <varray name="forces" >
   <v>      -0.29323098       0.10833142      -0.34501513 </v>
   <v>      -0.00927781      -0.20699638      -0.09830441 </v>
   <v>       0.22660433      -0.09436767       0.31918871 </v>
   <v>       0.00466608       0.19527852      -0.16228378 </v>
   <v>      -0.04977962      -0.20734462      -0.05593015 </v>
   <v>       0.06250618      -0.18483528       0.57584395 </v>
   <v>       0.25342205      -0.17880919       1.29055004 </v>
   <v>      -0.48493243      -0.15426475       0.12414666 </v>
   <v>      -0.02082521       0.00884915      -0.03281383 </v>
   <v>       0.24979663      -0.28250980       0.26054637 </v>
   <v>      -0.75630049      -0.09487483       0.45026856 </v>
   <v>      -0.06052392       0.17679682      -0.00859614 </v>
   <v>       0.02775693      -0.02274718       0.16677223 </v>
   <v>       0.60323183      -0.56850702      -0.71549206 </v>
   <v>       0.02048893       0.02236679      -0.38299778 </v>
   <v>       0.03439416       0.05833588       0.01656722 </v>
   <v>      -0.01092288      -0.11818935       0.45295732 </v>
   <v>      -1.32119383       0.23738370      -1.68398387 </v>
   <v>       1.40785199       0.08252932       1.83301026 </v>
   <v>      -0.12707219      -0.33292435      -0.78224333 </v>
   <v>      -0.55564245      -0.02413673       0.36397719 </v>
   <v>      -0.06938738       0.03932727       0.02782278 </v>
   <v>      -0.07234561       0.04637218       0.21510617 </v>
   <v>      -0.55568287      -0.98866326      -0.33437969 </v>
   <v>      -0.12725445       0.39745408       1.00680114 </v>
   <v>      -0.10848327       0.16792551      -0.11312224 </v>
   <v>       0.00728702       0.09844065       0.11473998 </v>
   <v>      -0.04149794       0.19430695      -0.53834711 </v>
   <v>      -0.07361767      -0.00217322      -0.11524801 </v>
   <v>       0.12057519       0.05079690       0.14406021 </v>
   <v>      -0.56849564       0.60898919      -1.84262393 </v>
   <v>       0.09625471       0.08550000      -0.25597587 </v>
   <v>       0.06194193       0.12937518       0.02441030 </v>
   <v>      -0.38907430       0.13836640       0.55300406 </v>
   <v>      -0.33608033       0.91040331      -2.20441637 </v>
   <v>       0.18480883      -0.36832423       1.93717501 </v>
   <v>      -1.14838754       1.97812260      -0.47135078 </v>
   <v>      -0.10626870       0.20076535      -1.67640202 </v>
   <v>       0.03132894       0.01518791       0.15289669 </v>
   <v>      -0.11123233       0.48208034       0.30817928 </v>
   <v>      -1.40121874       0.14956424      -0.26038080 </v>
   <v>       0.11736996       0.07022483      -0.17317935 </v>
   <v>       0.10690829       0.00830486       0.18410760 </v>
   <v>       0.48972081       0.09527885       1.16065364 </v>
   <v>       0.07798410       0.06258297       0.10661148 </v>
   <v>       0.17346303       0.42383789       0.23318219 </v>
   <v>      -0.13803529       0.92688524       1.13493105 </v>
   <v>      -0.31394791      -0.21078561      -1.81841894 </v>
   <v>       1.02125146      -0.67207813       0.00691223 </v>
   <v>      -0.22448747      -0.11034955      -0.00215053 </v>
   <v>      -0.01484854      -0.01479124       0.14177121 </v>
   <v>       0.37910633      -0.31971998       0.52813705 </v>
   <v>       0.09096441       0.45570202      -0.27317773 </v>
   <v>       0.01056847      -0.15347182       0.08937792 </v>
   <v>      -0.04922714      -0.03954568       0.04931248 </v>
   <v>       0.24479819      -0.41571354       0.64069322 </v>
   <v>      -0.05061863       0.02689808       0.23765114 </v>
   <v>      -0.01215037      -0.47822314      -0.22312330 </v>
   <v>       0.84722092      -0.90617344       0.74628788 </v>
   <v>      -0.52605648       0.17442124      -0.97733221 </v>
   <v>       0.49024661      -0.47663021       0.11785601 </v>
   <v>       0.28571061       0.19897227       0.09614563 </v>
   <v>       0.14861464       0.16691989      -0.01585119 </v>
   <v>       0.09688901      -0.47372403       0.64044609 </v>
   <v>       0.04390146       0.05744616      -0.21189205 </v>
   <v>       0.04532435       0.20743169       0.20234061 </v>
   <v>       0.29529294      -0.38084039      -0.57044900 </v>
   <v>      -0.20878591       0.15901873      -1.18601436 </v>
   <v>       1.10471772      -0.42232881       0.33021178 </v>
   <v>       0.34504236      -0.12744899       0.17102364 </v>
   <v>       0.13772036      -0.00073000      -0.10022613 </v>
   <v>       0.39115455      -0.58455197       0.47604508 </v>
  </varray>
  <varray name="stress" >
   <v>     -23.03616126       3.65515073      -8.08146614 </v>
   <v>       3.65515113     -23.74556955       5.07889030 </v>
   <v>      -8.08146625       5.07889037     -18.63417394 </v>
  </varray>
  <energy>
   <i name="e_fr_energy">   -355.96510381 </i>
   <i name="e_wo_entrp">   -354.90605368 </i>
   <i name="e_0_energy">   -355.43557875 </i>
  </energy>
  <time name="totalsc">   72.90   73.15</time>
  <eigenvalues>
   <array>
    <dimension dim="1">band</dimension>
    <dimension dim="2">kpoint</dimension>
    <dimension dim="3">spin</dimension>
    <field>eigene</field>
    <field>occ</field>
    <set>
     <set comment="spin 1">
      <set comment="kpoint 1">
       <r>  -62.7491    1.0000 </r>
       <r>  -62.7418    1.0000 </r>
       <r>  -62.7173    1.0000 </r>
       <r>  -62.7160    1.0000 </r>
       <r>  -62.7092    1.0000 </r>
       <r>  -62.7074    1.0000 </r>
       <r>  -62.7049    1.0000 </r>
       <r>  -62.7020    1.0000 </r>
       <r>  -62.7000    1.0000 </r>
       <r>  -62.6986    1.0000 </r>
       <r>  -62.6942    1.0000 </r>
       <r>  -62.6894    1.0000 </r>
       <r>  -62.6857    1.0000 </r>
       <r>  -62.6846    1.0000 </r>
       <r>  -62.6834    1.0000 </r>
       <r>  -62.6772    1.0000 </r>
       <r>  -62.6715    1.0000 </r>
       <r>  -62.6672    1.0000 </r>
       <r>  -62.6671    1.0000 </r>
       <r>  -62.6623    1.0000 </r>
       <r>  -62.6622    1.0000 </r>
       <r>  -62.6609    1.0000 </r>
       <r>  -62.6604    1.0000 </r>
       <r>  -62.6603    1.0000 </r>
       <r>  -62.6568    1.0000 </r>
       <r>  -62.6532    1.0000 </r>
       <r>  -62.6518    1.0000 </r>
       <r>  -62.6489    1.0000 </r>
       <r>  -62.6487    1.0000 </r>
       <r>  -62.6421    1.0000 </r>
       <r>  -62.6402    1.0000 </r>
       <r>  -62.6398    1.0000 </r>
       <r>  -62.6362    1.0000 </r>
       <r>  -62.6346    1.0000 </r>
       <r>  -62.6290    1.0000 </r>
       <r>  -62.6246    1.0000 </r>
       <r>  -62.6243    1.0000 </r>
       <r>  -62.6236    1.0000 </r>
       <r>  -62.6221    1.0000 </r>
       <r>  -62.6152    1.0000 </r>
       <r>  -62.6084    1.0000 </r>
       <r>  -62.6041    1.0000 </r>
       <r>  -62.6041    1.0000 </r>
       <r>  -62.6038    1.0000 </r>
       <r>  -62.5822    1.0000 </r>
       <r>  -62.5804    1.0000 </r>
       <r>  -62.5772    1.0000 </r>
       <r>  -62.5659    1.0000 </r>
       <r>  -62.5420    1.0000 </r>
       <r>  -62.5272    1.0000 </r>
       <r>  -62.5270    1.0000 </r>
       <r>  -62.5203    1.0000 </r>
       <r>  -62.5179    1.0000 </r>
       <r>  -62.4997    1.0000 </r>
       <r>  -62.4977    1.0000 </r>
       <r>  -62.4876    1.0000 </r>
       <r>  -62.4752    1.0000 </r>
       <r>  -62.4715    1.0000 </r>
       <r>  -62.4649    1.0000 </r>
       <r>  -62.4478    1.0000 </r>
       <r>  -62.4411    1.0000 </r>
       <r>  -62.4410    1.0000 </r>
       <r>  -62.4399    1.0000 </r>
       <r>  -62.4292    1.0000 </r>
       <r>  -62.4253    1.0000 </r>
       <r>  -62.4250    1.0000 </r>
       <r>  -62.4234    1.0000 </r>
       <r>  -62.4211    1.0000 </r>
       <r>  -62.4159    1.0000 </r>
       <r>  -62.4033    1.0000 </r>
       <r>  -62.3887    1.0000 </r>
       <r>  -62.3686    1.0000 </r>
       <r>  -62.3564    1.0000 </r>
       <r>  -62.3230    1.0000 </r>
       <r>  -62.3227    1.0000 </r>
       <r>  -62.2908    1.0000 </r>
       <r>  -62.2732    1.0000 </r>
       <r>  -62.2580    1.0000 </r>
       <r>  -62.2351    1.0000 </r>
       <r>  -62.2243    1.0000 </r>
       <r>  -62.1928    1.0000 </r>
       <r>  -62.1089    1.0000 </r>
       <r>  -62.1029    1.0000 </r>
       <r>  -62.0670    1.0000 </r>
       <r>  -62.0294    1.0000 </r>
       <r>  -62.0174    1.0000 </r>
       <r>  -62.0128    1.0000 </r>
       <r>  -62.0118    1.0000 </r>
       <r>  -61.9644    1.0000 </r>
       <r>  -61.9380    1.0000 </r>
       <r>  -61.9286    1.0000 </r>
       <r>  -61.9031    1.0000 </r>
       <r>  -61.8864    1.0000 </r>
       <r>  -61.8795    1.0000 </r>
       <r>  -61.8157    1.0000 </r>
       <r>  -61.8066    1.0000 </r>
       <r>  -61.7880    1.0000 </r>
       <r>  -61.7243    1.0000 </r>
       <r>  -61.6861    1.0000 </r>
       <r>  -61.6640    1.0000 </r>
       <r>  -61.5514    1.0000 </r>
       <r>  -61.5427    1.0000 </r>
       <r>  -61.4821    1.0000 </r>
       <r>  -61.4352    1.0000 </r>
       <r>  -61.3511    1.0000 </r>
       <r>  -61.3280    1.0000 </r>
       <r>  -61.3043    1.0000 </r>
       <r>  -61.1415    1.0000 </r>
       <r>  -14.0283    1.0000 </r>
       <r>  -13.3648    1.0000 </r>
       <r>  -13.2126    1.0000 </r>
       <r>  -13.1772    1.0000 </r>
       <r>  -13.0456    1.0000 </r>
       <r>  -13.0110    1.0000 </r>
       <r>  -12.8281    1.0000 </r>
       <r>  -12.7731    1.0000 </r>
       <r>  -12.6818    1.0000 </r>
       <r>  -12.6539    1.0000 </r>
       <r>  -12.5959    1.0000 </r>
       <r>  -12.5202    1.0000 </r>
       <r>  -12.4695    1.0000 </r>
       <r>  -12.3766    1.0000 </r>
       <r>  -12.2339    1.0000 </r>
       <r>  -12.1963    1.0000 </r>
       <r>  -12.1573    1.0000 </r>
       <r>  -12.1053    1.0000 </r>
       <r>  -12.0794    1.0000 </r>
       <r>  -12.0174    1.0000 </r>
       <r>  -11.9669    1.0000 </r>
       <r>  -11.9015    1.0000 </r>
       <r>  -11.8195    1.0000 </r>
       <r>  -11.7567    1.0000 </r>
       <r>  -11.7077    1.0000 </r>
       <r>  -11.6383    1.0000 </r>
       <r>  -11.5832    1.0000 </r>
       <r>  -11.4388    1.0000 </r>
       <r>  -11.3236    1.0000 </r>
       <r>  -11.2990    1.0000 </r>
       <r>  -11.2851    1.0000 </r>
       <r>  -11.0857    1.0000 </r>
       <r>  -11.0491    1.0000 </r>
       <r>  -10.8895    1.0000 </r>
       <r>  -10.8627    1.0000 </r>
       <r>  -10.1766    1.0000 </r>
       <r>   -5.7845    1.0000 </r>
       <r>   -5.6904    1.0000 </r>
       <r>   -5.6824    1.0000 </r>
       <r>   -5.4285    1.0000 </r>
       <r>   -5.4138    1.0000 </r>
       <r>   -5.2167    1.0000 </r>
       <r>   -5.1972    1.0000 </r>
       <r>   -5.1616    1.0000 </r>
       <r>   -5.1226    1.0000 </r>
       <r>   -4.9900    1.0000 </r>
       <r>   -4.9580    1.0000 </r>
       <r>   -4.9168    1.0000 </r>
       <r>   -4.9073    1.0000 </r>
       <r>   -4.8564    1.0000 </r>
       <r>   -4.8350    1.0000 </r>
       <r>   -4.8016    1.0000 </r>
       <r>   -4.7670    1.0000 </r>
       <r>   -4.7318    1.0000 </r>
       <r>   -4.6643    1.0000 </r>
       <r>   -4.6060    1.0000 </r>
       <r>   -4.5962    1.0000 </r>
       <r>   -4.5228    1.0000 </r>
       <r>   -4.4957    1.0000 </r>
       <r>   -4.4593    1.0000 </r>
       <r>   -4.4168    1.0000 </r>
       <r>   -4.3739    1.0000 </r>
       <r>   -4.3427    1.0000 </r>
       <r>   -4.3164    1.0000 </r>
       <r>   -4.2805    1.0000 </r>
       <r>   -4.1373    1.0000 </r>
       <r>   -4.0725    1.0000 </r>
       <r>   -4.0277    1.0000 </r>
       <r>   -3.9943    1.0000 </r>
       <r>   -3.9691    1.0000 </r>
       <r>   -3.8964    1.0000 </r>
       <r>   -3.8619    1.0000 </r>
       <r>   -3.7452    1.0000 </r>
       <r>   -3.7260    1.0000 </r>
       <r>   -3.6936    1.0000 </r>
       <r>   -3.6033    1.0000 </r>
       <r>   -3.5432    1.0000 </r>
       <r>   -3.5106    1.0000 </r>
       <r>   -3.4682    1.0000 </r>
       <r>   -3.3903    1.0000 </r>
       <r>   -3.3532    1.0000 </r>
       <r>   -3.2980    1.0000 </r>
       <r>   -3.2704    1.0000 </r>
       <r>   -3.2372    1.0000 </r>
       <r>   -3.2122    1.0000 </r>
       <r>   -3.1840    1.0000 </r>
       <r>   -3.1455    1.0000 </r>
       <r>   -3.1165    1.0000 </r>
       <r>   -3.0893    1.0000 </r>
       <r>   -3.0671    1.0000 </r>
       <r>   -3.0414    1.0000 </r>
       <r>   -3.0344    1.0000 </r>
       <r>   -3.0176    1.0000 </r>
       <r>   -3.0043    1.0000 </r>
       <r>   -2.9413    1.0000 </r>
       <r>   -2.9247    1.0000 </r>
       <r>   -2.8674    1.0000 </r>
       <r>   -2.8415    1.0000 </r>
       <r>   -2.8244    1.0000 </r>
       <r>   -2.7898    1.0000 </r>
       <r>   -2.7736    1.0000 </r>
       <r>   -2.7656    1.0000 </r>
       <r>   -2.7190    1.0000 </r>
       <r>   -2.6820    1.0000 </r>
       <r>   -2.6604    1.0000 </r>
       <r>   -2.6471    1.0000 </r>
       <r>   -2.6079    1.0000 </r>
       <r>   -2.5884    1.0000 </r>
       <r>   -2.5765    1.0000 </r>
       <r>   -2.5601    1.0000 </r>
       <r>   -2.5399    1.0000 </r>
       <r>   -2.5108    1.0000 </r>
       <r>   -2.4872    1.0000 </r>
       <r>   -2.4821    1.0000 </r>
       <r>   -2.4209    1.0000 </r>
       <r>   -2.4188    1.0000 </r>
       <r>   -2.4107    1.0000 </r>
       <r>   -2.3586    1.0000 </r>
       <r>   -2.2954    1.0000 </r>
       <r>   -2.2827    1.0000 </r>
       <r>   -2.2300    1.0000 </r>
       <r>   -2.1719    1.0000 </r>
       <r>   -2.1465    1.0000 </r>
       <r>   -2.1182    1.0000 </r>
       <r>   -2.0871    1.0000 </r>
       <r>   -2.0164    1.0000 </r>
       <r>   -1.9880    1.0000 </r>
       <r>   -1.9485    1.0000 </r>
       <r>   -1.8588    1.0000 </r>
       <r>   -1.8341    1.0000 </r>
       <r>   -1.7989    1.0000 </r>
       <r>   -1.7723    1.0000 </r>
       <r>   -1.7574    1.0000 </r>
       <r>   -1.6603    1.0000 </r>
       <r>   -1.6325    1.0000 </r>
       <r>   -1.6121    1.0000 </r>
       <r>   -1.5108    1.0000 </r>
       <r>   -1.4930    1.0000 </r>
       <r>   -1.4432    1.0000 </r>
       <r>   -1.4341    1.0000 </r>
       <r>   -1.4128    1.0000 </r>
       <r>   -1.3756    1.0000 </r>
       <r>   -1.3347    1.0000 </r>
       <r>   -1.3246    1.0000 </r>
       <r>   -1.2766    1.0000 </r>
       <r>   -1.2426    1.0000 </r>
       <r>   -1.2177    1.0000 </r>
       <r>   -1.1567    1.0000 </r>
       <r>   -1.1224    1.0000 </r>
       <r>   -1.0833    1.0000 </r>
       <r>   -1.0425    1.0000 </r>
       <r>   -1.0301    1.0000 </r>
       <r>   -1.0153    1.0000 </r>
       <r>   -0.9864    1.0000 </r>
       <r>   -0.9581    1.0000 </r>
       <r>   -0.9394    1.0000 </r>
       <r>   -0.9303    1.0000 </r>
       <r>   -0.9087    1.0000 </r>
       <r>   -0.8810    1.0000 </r>
       <r>   -0.8597    1.0000 </r>
       <r>   -0.8258    1.0000 </r>
       <r>   -0.8174    1.0000 </r>
       <r>   -0.8054    1.0000 </r>
       <r>   -0.7866    1.0000 </r>
       <r>   -0.7774    1.0000 </r>
       <r>   -0.7380    1.0000 </r>
       <r>   -0.7253    1.0000 </r>
       <r>   -0.6945    1.0000 </r>
       <r>   -0.6910    1.0000 </r>
       <r>   -0.6731    1.0000 </r>
       <r>   -0.6452    1.0000 </r>
       <r>   -0.6214    1.0000 </r>
       <r>   -0.5983    1.0000 </r>
       <r>   -0.5850    1.0000 </r>
       <r>   -0.5715    1.0000 </r>
       <r>   -0.5526    1.0000 </r>
       <r>   -0.5317    1.0000 </r>
       <r>   -0.5261    1.0000 </r>
       <r>   -0.5217    1.0000 </r>
       <r>   -0.4982    1.0000 </r>
       <r>   -0.4932    1.0000 </r>
       <r>   -0.4792    1.0000 </r>
       <r>   -0.4701    1.0000 </r>
       <r>   -0.4469    1.0000 </r>
       <r>   -0.4326    1.0000 </r>
       <r>   -0.4202    1.0000 </r>
       <r>   -0.3979    1.0000 </r>
       <r>   -0.3939    1.0000 </r>
       <r>   -0.3834    1.0000 </r>
       <r>   -0.3771    1.0000 </r>
       <r>   -0.3665    1.0000 </r>
       <r>   -0.3590    1.0000 </r>
       <r>   -0.3444    1.0000 </r>
       <r>   -0.3377    1.0000 </r>
       <r>   -0.3324    1.0000 </r>
       <r>   -0.3249    1.0000 </r>
       <r>   -0.3112    1.0000 </r>
       <r>   -0.2984    1.0000 </r>
       <r>   -0.2927    1.0000 </r>
       <r>   -0.2694    1.0000 </r>
       <r>   -0.2639    1.0000 </r>
       <r>   -0.2570    1.0000 </r>
       <r>   -0.2353    1.0000 </r>
       <r>   -0.2305    1.0000 </r>
       <r>   -0.2229    1.0000 </r>
       <r>   -0.2113    1.0000 </r>
       <r>   -0.2079    1.0000 </r>
       <r>   -0.1935    1.0000 </r>
       <r>   -0.1756    1.0000 </r>
       <r>   -0.1683    1.0000 </r>
       <r>   -0.1562    1.0000 </r>
       <r>   -0.1463    1.0000 </r>
       <r>   -0.1401    1.0000 </r>
       <r>   -0.1319    1.0000 </r>
       <r>   -0.1209    1.0000 </r>
       <r>   -0.1010    1.0000 </r>
       <r>   -0.0806    1.0000 </r>
       <r>   -0.0735    1.0000 </r>
       <r>   -0.0672    1.0000 </r>
       <r>   -0.0528    1.0000 </r>
       <r>   -0.0378    1.0000 </r>
       <r>   -0.0318    1.0000 </r>
       <r>   -0.0157    1.0000 </r>
       <r>    0.0032    1.0000 </r>
       <r>    0.0095    1.0000 </r>
       <r>    0.0127    1.0000 </r>
       <r>    0.0290    1.0000 </r>
       <r>    0.0464    1.0000 </r>
       <r>    0.0487    1.0000 </r>
       <r>    0.0662    1.0000 </r>
       <r>    0.0688    1.0000 </r>
       <r>    0.0770    1.0000 </r>
       <r>    0.1029    1.0000 </r>
       <r>    0.1146    1.0000 </r>
       <r>    0.1283    1.0000 </r>
       <r>    0.1374    1.0000 </r>
       <r>    0.1526    1.0000 </r>
       <r>    0.1751    1.0000 </r>
       <r>    0.1905    1.0000 </r>
       <r>    0.1985    1.0000 </r>
       <r>    0.2117    1.0000 </r>
       <r>    0.2350    1.0000 </r>
       <r>    0.2574    1.0000 </r>
       <r>    0.2708    1.0000 </r>
       <r>    0.2899    1.0000 </r>
       <r>    0.2950    1.0000 </r>
       <r>    0.3135    1.0000 </r>
       <r>    0.3434    1.0000 </r>
       <r>    0.3609    1.0000 </r>
       <r>    0.3830    1.0000 </r>
       <r>    0.4203    1.0000 </r>
       <r>    0.4394    1.0000 </r>
       <r>    0.4467    1.0000 </r>
       <r>    0.4878    1.0000 </r>
       <r>    0.5034    1.0000 </r>
       <r>    0.5179    1.0000 </r>
       <r>    0.5429    1.0000 </r>
       <r>    0.5624    1.0000 </r>
       <r>    0.5856    1.0000 </r>
       <r>    0.5961    1.0000 </r>
       <r>    0.6349    1.0000 </r>
       <r>    0.6514    1.0000 </r>
       <r>    0.6629    1.0000 </r>
       <r>    0.6772    1.0000 </r>
       <r>    0.6853    1.0000 </r>
       <r>    0.7120    1.0000 </r>
       <r>    0.7199    1.0000 </r>
       <r>    0.7630    1.0000 </r>
       <r>    0.7967    1.0000 </r>
       <r>    0.8109    1.0000 </r>
       <r>    0.8412    1.0000 </r>
       <r>    0.8601    1.0000 </r>
       <r>    0.9045    0.9999 </r>
       <r>    0.9288    0.9998 </r>
       <r>    0.9387    0.9997 </r>
       <r>    0.9616    0.9995 </r>
       <r>    1.0029    0.9987 </r>
       <r>    1.0128    0.9983 </r>
       <r>    1.0644    0.9949 </r>
       <r>    1.0890    0.9917 </r>
       <r>    1.1396    0.9792 </r>
       <r>    1.1917    0.9525 </r>
       <r>    1.2270    0.9223 </r>
       <r>    1.2552    0.8890 </r>
       <r>    1.2694    0.8687 </r>
       <r>    1.3306    0.7541 </r>
       <r>    1.3672    0.6659 </r>
       <r>    1.4389    0.4688 </r>
       <r>    1.4610    0.4074 </r>
       <r>    1.4723    0.3766 </r>
       <r>    1.5094    0.2821 </r>
       <r>    1.5754    0.1483 </r>
       <r>    1.5844    0.1341 </r>
       <r>    1.6350    0.0715 </r>
       <r>    1.6701    0.0434 </r>
       <r>    1.6972    0.0284 </r>
       <r>    1.7631    0.0089 </r>
       <r>    1.7791    0.0065 </r>
       <r>    1.8057    0.0038 </r>
       <r>    1.8059    0.0038 </r>
       <r>    1.8559    0.0012 </r>
       <r>    1.8758    0.0008 </r>
       <r>    1.9136    0.0003 </r>
       <r>    1.9694    0.0001 </r>
       <r>    2.0139    0.0000 </r>
       <r>    2.0640    0.0000 </r>
       <r>    2.0761    0.0000 </r>
       <r>    2.0930    0.0000 </r>
       <r>    2.1242    0.0000 </r>
       <r>    2.1568    0.0000 </r>
       <r>    2.1750    0.0000 </r>
       <r>    2.2250    0.0000 </r>
       <r>    2.2704    0.0000 </r>
       <r>    2.3035    0.0000 </r>
       <r>    2.3318    0.0000 </r>
       <r>    2.3406    0.0000 </r>
       <r>    2.3628    0.0000 </r>
       <r>    2.4182    0.0000 </r>
       <r>    2.4198    0.0000 </r>
       <r>    2.4872    0.0000 </r>
       <r>    2.5153    0.0000 </r>
       <r>    2.5515    0.0000 </r>
       <r>    2.5949    0.0000 </r>
       <r>    2.6633    0.0000 </r>
       <r>    2.8156    0.0000 </r>
       <r>    3.1356    0.0000 </r>
       <r>    3.1934    0.0000 </r>
       <r>    3.9315    0.0000 </r>
       <r>    4.2760    0.0000 </r>
       <r>    4.5834    0.0000 </r>
       <r>    4.6425    0.0000 </r>
       <r>    4.8143    0.0000 </r>
       <r>    4.8160    0.0000 </r>
       <r>    4.9373    0.0000 </r>
       <r>    5.0740    0.0000 </r>
       <r>    5.3165    0.0000 </r>
       <r>    5.3513    0.0000 </r>
       <r>    5.4408    0.0000 </r>
       <r>    5.5321    0.0000 </r>
       <r>    5.7566    0.0000 </r>
       <r>    5.7742    0.0000 </r>
       <r>    5.8371    0.0000 </r>
       <r>    5.9769    0.0000 </r>
       <r>    6.0256    0.0000 </r>
       <r>    6.1091    0.0000 </r>
       <r>    6.1895    0.0000 </r>
       <r>    6.2567    0.0000 </r>
       <r>    6.2872    0.0000 </r>
       <r>    6.3128    0.0000 </r>
       <r>    6.3611    0.0000 </r>
       <r>    6.4326    0.0000 </r>
       <r>    6.5091    0.0000 </r>
       <r>    6.6491    0.0000 </r>
       <r>    6.7145    0.0000 </r>
       <r>    6.7582    0.0000 </r>
       <r>    6.8225    0.0000 </r>
       <r>    6.8600    0.0000 </r>
       <r>    6.9045    0.0000 </r>
       <r>    6.9328    0.0000 </r>
       <r>    6.9779    0.0000 </r>
       <r>    7.0686    0.0000 </r>
       <r>    7.0992    0.0000 </r>
       <r>    7.1282    0.0000 </r>
       <r>    7.2048    0.0000 </r>
       <r>    7.2613    0.0000 </r>
       <r>    7.2868    0.0000 </r>
       <r>    7.3298    0.0000 </r>
       <r>    7.3723    0.0000 </r>
       <r>    7.4233    0.0000 </r>
       <r>    7.4524    0.0000 </r>
       <r>    7.4814    0.0000 </r>
       <r>    7.5027    0.0000 </r>
      </set>
     </set>
    </set>
   </array>
  </eigenvalues>
  <separator name="orbital magnetization" >
   <v name="MAGDIPOLOUT">      0.00000000      0.00000000      0.00000000</v>
  </separator>
  <dos>
   <i name="efermi">      1.42784206 </i>
   <total>
    <array>
     <dimension dim="1">gridpoints</dimension>
     <dimension dim="2">spin</dimension>
     <field>energy</field>
     <field>total</field>
     <field>integrated</field>
     <set>
      <set comment="spin 1">
       <r>   -66.2617     0.0000     0.0000 </r>
       <r>   -66.0041     0.0000     0.0000 </r>
       <r>   -65.7465     0.0000     0.0000 </r>
       <r>   -65.4889     0.0000     0.0000 </r>
       <r>   -65.2314     0.0000     0.0000 </r>
       <r>   -64.9738     0.0000     0.0000 </r>
       <r>   -64.7162     0.0000     0.0000 </r>
       <r>   -64.4586     0.0000     0.0000 </r>
       <r>   -64.2010     0.0000     0.0000 </r>
       <r>   -63.9434     0.0000     0.0000 </r>
       <r>   -63.6858     0.0000     0.0000 </r>
       <r>   -63.4282     0.0000     0.0000 </r>
       <r>   -63.1706     0.0904     0.0233 </r>
       <r>   -62.9130    15.3709     3.9827 </r>
       <r>   -62.6555   189.2588    52.7339 </r>
       <r>   -62.3979   290.4127   127.5413 </r>
       <r>   -62.1403   135.4542   162.4329 </r>
       <r>   -61.8827    82.0652   183.5721 </r>
       <r>   -61.6251    59.5868   198.9210 </r>
       <r>   -61.3675    38.7976   208.9149 </r>
       <r>   -61.1099    22.7010   214.7625 </r>
       <r>   -60.8523     4.6355   215.9565 </r>
       <r>   -60.5947     0.1684   215.9999 </r>
       <r>   -60.3371     0.0004   216.0000 </r>
       <r>   -60.0796     0.0000   216.0000 </r>
       <r>   -59.8220     0.0000   216.0000 </r>
       <r>   -59.5644     0.0000   216.0000 </r>
       <r>   -59.3068     0.0000   216.0000 </r>
       <r>   -59.0492     0.0000   216.0000 </r>
       <r>   -58.7916     0.0000   216.0000 </r>
       <r>   -58.5340     0.0000   216.0000 </r>
       <r>   -58.2764     0.0000   216.0000 </r>
       <r>   -58.0188     0.0000   216.0000 </r>
       <r>   -57.7612     0.0000   216.0000 </r>
       <r>   -57.5037     0.0000   216.0000 </r>
       <r>   -57.2461     0.0000   216.0000 </r>
       <r>   -56.9885     0.0000   216.0000 </r>
       <r>   -56.7309     0.0000   216.0000 </r>
       <r>   -56.4733     0.0000   216.0000 </r>
       <r>   -56.2157     0.0000   216.0000 </r>
       <r>   -55.9581     0.0000   216.0000 </r>
       <r>   -55.7005     0.0000   216.0000 </r>
       <r>   -55.4429     0.0000   216.0000 </r>
       <r>   -55.1853     0.0000   216.0000 </r>
       <r>   -54.9278     0.0000   216.0000 </r>
       <r>   -54.6702     0.0000   216.0000 </r>
       <r>   -54.4126     0.0000   216.0000 </r>
       <r>   -54.1550     0.0000   216.0000 </r>
       <r>   -53.8974     0.0000   216.0000 </r>
       <r>   -53.6398     0.0000   216.0000 </r>
       <r>   -53.3822     0.0000   216.0000 </r>
       <r>   -53.1246     0.0000   216.0000 </r>
       <r>   -52.8670     0.0000   216.0000 </r>
       <r>   -52.6094     0.0000   216.0000 </r>
       <r>   -52.3519     0.0000   216.0000 </r>
       <r>   -52.0943     0.0000   216.0000 </r>
       <r>   -51.8367     0.0000   216.0000 </r>
       <r>   -51.5791     0.0000   216.0000 </r>
       <r>   -51.3215     0.0000   216.0000 </r>
       <r>   -51.0639     0.0000   216.0000 </r>
       <r>   -50.8063     0.0000   216.0000 </r>
       <r>   -50.5487     0.0000   216.0000 </r>
       <r>   -50.2911     0.0000   216.0000 </r>
       <r>   -50.0335     0.0000   216.0000 </r>
       <r>   -49.7760     0.0000   216.0000 </r>
       <r>   -49.5184     0.0000   216.0000 </r>
       <r>   -49.2608     0.0000   216.0000 </r>
       <r>   -49.0032     0.0000   216.0000 </r>
       <r>   -48.7456     0.0000   216.0000 </r>
       <r>   -48.4880     0.0000   216.0000 </r>
       <r>   -48.2304     0.0000   216.0000 </r>
       <r>   -47.9728     0.0000   216.0000 </r>
       <r>   -47.7152     0.0000   216.0000 </r>
       <r>   -47.4577     0.0000   216.0000 </r>
       <r>   -47.2001     0.0000   216.0000 </r>
       <r>   -46.9425     0.0000   216.0000 </r>
       <r>   -46.6849     0.0000   216.0000 </r>
       <r>   -46.4273     0.0000   216.0000 </r>
       <r>   -46.1697     0.0000   216.0000 </r>
       <r>   -45.9121     0.0000   216.0000 </r>
       <r>   -45.6545     0.0000   216.0000 </r>
       <r>   -45.3969     0.0000   216.0000 </r>
       <r>   -45.1393     0.0000   216.0000 </r>
       <r>   -44.8818     0.0000   216.0000 </r>
       <r>   -44.6242     0.0000   216.0000 </r>
       <r>   -44.3666     0.0000   216.0000 </r>
       <r>   -44.1090     0.0000   216.0000 </r>
       <r>   -43.8514     0.0000   216.0000 </r>
       <r>   -43.5938     0.0000   216.0000 </r>
       <r>   -43.3362     0.0000   216.0000 </r>
       <r>   -43.0786     0.0000   216.0000 </r>
       <r>   -42.8210     0.0000   216.0000 </r>
       <r>   -42.5634     0.0000   216.0000 </r>
       <r>   -42.3059     0.0000   216.0000 </r>
       <r>   -42.0483     0.0000   216.0000 </r>
       <r>   -41.7907     0.0000   216.0000 </r>
       <r>   -41.5331     0.0000   216.0000 </r>
       <r>   -41.2755     0.0000   216.0000 </r>
       <r>   -41.0179     0.0000   216.0000 </r>
       <r>   -40.7603     0.0000   216.0000 </r>
       <r>   -40.5027     0.0000   216.0000 </r>
       <r>   -40.2451     0.0000   216.0000 </r>
       <r>   -39.9875     0.0000   216.0000 </r>
       <r>   -39.7300     0.0000   216.0000 </r>
       <r>   -39.4724     0.0000   216.0000 </r>
       <r>   -39.2148     0.0000   216.0000 </r>
       <r>   -38.9572     0.0000   216.0000 </r>
       <r>   -38.6996     0.0000   216.0000 </r>
       <r>   -38.4420     0.0000   216.0000 </r>
       <r>   -38.1844     0.0000   216.0000 </r>
       <r>   -37.9268     0.0000   216.0000 </r>
       <r>   -37.6692     0.0000   216.0000 </r>
       <r>   -37.4116     0.0000   216.0000 </r>
       <r>   -37.1541     0.0000   216.0000 </r>
       <r>   -36.8965     0.0000   216.0000 </r>
       <r>   -36.6389     0.0000   216.0000 </r>
       <r>   -36.3813     0.0000   216.0000 </r>
       <r>   -36.1237     0.0000   216.0000 </r>
       <r>   -35.8661     0.0000   216.0000 </r>
       <r>   -35.6085     0.0000   216.0000 </r>
       <r>   -35.3509     0.0000   216.0000 </r>
       <r>   -35.0933     0.0000   216.0000 </r>
       <r>   -34.8357     0.0000   216.0000 </r>
       <r>   -34.5782     0.0000   216.0000 </r>
       <r>   -34.3206     0.0000   216.0000 </r>
       <r>   -34.0630     0.0000   216.0000 </r>
       <r>   -33.8054     0.0000   216.0000 </r>
       <r>   -33.5478     0.0000   216.0000 </r>
       <r>   -33.2902     0.0000   216.0000 </r>
       <r>   -33.0326     0.0000   216.0000 </r>
       <r>   -32.7750     0.0000   216.0000 </r>
       <r>   -32.5174     0.0000   216.0000 </r>
       <r>   -32.2598     0.0000   216.0000 </r>
       <r>   -32.0023     0.0000   216.0000 </r>
       <r>   -31.7447     0.0000   216.0000 </r>
       <r>   -31.4871     0.0000   216.0000 </r>
       <r>   -31.2295     0.0000   216.0000 </r>
       <r>   -30.9719     0.0000   216.0000 </r>
       <r>   -30.7143     0.0000   216.0000 </r>
       <r>   -30.4567     0.0000   216.0000 </r>
       <r>   -30.1991     0.0000   216.0000 </r>
       <r>   -29.9415     0.0000   216.0000 </r>
       <r>   -29.6839     0.0000   216.0000 </r>
       <r>   -29.4264     0.0000   216.0000 </r>
       <r>   -29.1688     0.0000   216.0000 </r>
       <r>   -28.9112     0.0000   216.0000 </r>
       <r>   -28.6536     0.0000   216.0000 </r>
       <r>   -28.3960     0.0000   216.0000 </r>
       <r>   -28.1384     0.0000   216.0000 </r>
       <r>   -27.8808     0.0000   216.0000 </r>
       <r>   -27.6232     0.0000   216.0000 </r>
       <r>   -27.3656     0.0000   216.0000 </r>
       <r>   -27.1080     0.0000   216.0000 </r>
       <r>   -26.8505     0.0000   216.0000 </r>
       <r>   -26.5929     0.0000   216.0000 </r>
       <r>   -26.3353     0.0000   216.0000 </r>
       <r>   -26.0777     0.0000   216.0000 </r>
       <r>   -25.8201     0.0000   216.0000 </r>
       <r>   -25.5625     0.0000   216.0000 </r>
       <r>   -25.3049     0.0000   216.0000 </r>
       <r>   -25.0473     0.0000   216.0000 </r>
       <r>   -24.7897     0.0000   216.0000 </r>
       <r>   -24.5321     0.0000   216.0000 </r>
       <r>   -24.2746     0.0000   216.0000 </r>
       <r>   -24.0170     0.0000   216.0000 </r>
       <r>   -23.7594     0.0000   216.0000 </r>
       <r>   -23.5018     0.0000   216.0000 </r>
       <r>   -23.2442     0.0000   216.0000 </r>
       <r>   -22.9866     0.0000   216.0000 </r>
       <r>   -22.7290     0.0000   216.0000 </r>
       <r>   -22.4714     0.0000   216.0000 </r>
       <r>   -22.2138     0.0000   216.0000 </r>
       <r>   -21.9562     0.0000   216.0000 </r>
       <r>   -21.6987     0.0000   216.0000 </r>
       <r>   -21.4411     0.0000   216.0000 </r>
       <r>   -21.1835     0.0000   216.0000 </r>
       <r>   -20.9259     0.0000   216.0000 </r>
       <r>   -20.6683     0.0000   216.0000 </r>
       <r>   -20.4107     0.0000   216.0000 </r>
       <r>   -20.1531     0.0000   216.0000 </r>
       <r>   -19.8955     0.0000   216.0000 </r>
       <r>   -19.6379     0.0000   216.0000 </r>
       <r>   -19.3803     0.0000   216.0000 </r>
       <r>   -19.1228     0.0000   216.0000 </r>
       <r>   -18.8652     0.0000   216.0000 </r>
       <r>   -18.6076     0.0000   216.0000 </r>
       <r>   -18.3500     0.0000   216.0000 </r>
       <r>   -18.0924     0.0000   216.0000 </r>
       <r>   -17.8348     0.0000   216.0000 </r>
       <r>   -17.5772     0.0000   216.0000 </r>
       <r>   -17.3196     0.0000   216.0000 </r>
       <r>   -17.0620     0.0000   216.0000 </r>
       <r>   -16.8044     0.0000   216.0000 </r>
       <r>   -16.5469     0.0000   216.0000 </r>
       <r>   -16.2893     0.0000   216.0000 </r>
       <r>   -16.0317     0.0000   216.0000 </r>
       <r>   -15.7741     0.0000   216.0000 </r>
       <r>   -15.5165     0.0000   216.0000 </r>
       <r>   -15.2589     0.0000   216.0000 </r>
       <r>   -15.0013     0.0000   216.0000 </r>
       <r>   -14.7437     0.0000   216.0000 </r>
       <r>   -14.4861     0.0047   216.0012 </r>
       <r>   -14.2285     0.6041   216.1568 </r>
       <r>   -13.9710     4.4961   217.3150 </r>
       <r>   -13.7134     2.6140   217.9883 </r>
       <r>   -13.4558     2.6069   218.6598 </r>
       <r>   -13.1982    13.7524   222.2023 </r>
       <r>   -12.9406    20.8119   227.5633 </r>
       <r>   -12.6830    24.6823   233.9212 </r>
       <r>   -12.4254    29.1585   241.4321 </r>
       <r>   -12.1678    29.3150   248.9834 </r>
       <r>   -11.9102    36.1464   258.2943 </r>
       <r>   -11.6526    30.6861   266.1988 </r>
       <r>   -11.3951    24.5561   272.5242 </r>
       <r>   -11.1375    23.6053   278.6047 </r>
       <r>   -10.8799    19.2824   283.5716 </r>
       <r>   -10.6223     8.8453   285.8501 </r>
       <r>   -10.3647     1.2917   286.1828 </r>
       <r>   -10.1071     4.6349   287.3767 </r>
       <r>    -9.8495     2.3391   287.9793 </r>
       <r>    -9.5919     0.0804   288.0000 </r>
       <r>    -9.3343     0.0001   288.0000 </r>
       <r>    -9.0767     0.0000   288.0000 </r>
       <r>    -8.8192     0.0000   288.0000 </r>
       <r>    -8.5616     0.0000   288.0000 </r>
       <r>    -8.3040     0.0000   288.0000 </r>
       <r>    -8.0464     0.0000   288.0000 </r>
       <r>    -7.7888     0.0000   288.0000 </r>
       <r>    -7.5312     0.0000   288.0000 </r>
       <r>    -7.2736     0.0000   288.0000 </r>
       <r>    -7.0160     0.0000   288.0000 </r>
       <r>    -6.7584     0.0000   288.0000 </r>
       <r>    -6.5008     0.0000   288.0000 </r>
       <r>    -6.2433     0.0052   288.0013 </r>
       <r>    -5.9857     0.8634   288.2237 </r>
       <r>    -5.7281    10.4178   290.9073 </r>
       <r>    -5.4705    17.2270   295.3448 </r>
       <r>    -5.2129    22.6022   301.1669 </r>
       <r>    -4.9553    37.0660   310.7147 </r>
       <r>    -4.6977    49.6216   323.4967 </r>
       <r>    -4.4401    47.9071   335.8371 </r>
       <r>    -4.1825    40.9275   346.3797 </r>
       <r>    -3.9249    36.1696   355.6966 </r>
       <r>    -3.6674    36.4880   365.0955 </r>
       <r>    -3.4098    39.3607   375.2344 </r>
       <r>    -3.1522    56.4291   389.7700 </r>
       <r>    -2.8946    72.1730   408.3611 </r>
       <r>    -2.6370    76.4350   428.0500 </r>
       <r>    -2.3794    77.0744   447.9035 </r>
       <r>    -2.1218    55.5556   462.2141 </r>
       <r>    -1.8642    46.8039   474.2703 </r>
       <r>    -1.6066    46.9386   486.3612 </r>
       <r>    -1.3490    54.4046   500.3753 </r>
       <r>    -1.0915    62.0409   516.3564 </r>
       <r>    -0.8339    85.0753   538.2710 </r>
       <r>    -0.5763   111.3657   566.9577 </r>
       <r>    -0.3187   156.5140   607.2741 </r>
       <r>    -0.0611   177.3807   652.9656 </r>
       <r>     0.1965   152.5770   692.2679 </r>
       <r>     0.4541   110.6896   720.7804 </r>
       <r>     0.7117    95.3302   745.3365 </r>
       <r>     0.9693    80.2350   766.0042 </r>
       <r>     1.2269    59.8914   781.4317 </r>
       <r>     1.4844    52.7569   795.0213 </r>
       <r>     1.7420    56.7322   809.6350 </r>
       <r>     1.9996    59.9900   825.0878 </r>
       <r>     2.2572    61.8955   841.0314 </r>
       <r>     2.5148    57.5399   855.8531 </r>
       <r>     2.7724    31.0750   863.8577 </r>
       <r>     3.0300    10.4933   866.5607 </r>
       <r>     3.2876    10.2895   869.2112 </r>
       <r>     3.5452     3.0222   869.9897 </r>
       <r>     3.8028     1.4516   870.3636 </r>
       <r>     4.0603     5.4425   871.7655 </r>
       <r>     4.3179     5.9971   873.3103 </r>
       <r>     4.5755     9.4669   875.7489 </r>
       <r>     4.8331    18.4349   880.4975 </r>
       <r>     5.0907    17.0988   884.9020 </r>
       <r>     5.3483    15.2041   888.8184 </r>
       <r>     5.6059    18.8622   893.6772 </r>
       <r>     5.8635    20.4148   898.9358 </r>
       <r>     6.1211    26.2427   905.6957 </r>
       <r>     6.3786    33.9406   914.4384 </r>
       <r>     6.6362    28.1726   921.6954 </r>
       <r>     6.8938    35.0422   930.7219 </r>
       <r>     7.1514    41.0580   941.2981 </r>
       <r>     7.4090    43.4734   952.4964 </r>
       <r>     7.6666    26.3367   959.2804 </r>
       <r>     7.9242     2.7702   959.9940 </r>
       <r>     8.1818     0.0233   960.0000 </r>
       <r>     8.4394     0.0000   960.0000 </r>
       <r>     8.6970     0.0000   960.0000 </r>
       <r>     8.9545     0.0000   960.0000 </r>
       <r>     9.2121     0.0000   960.0000 </r>
       <r>     9.4697     0.0000   960.0000 </r>
       <r>     9.7273     0.0000   960.0000 </r>
       <r>     9.9849     0.0000   960.0000 </r>
       <r>    10.2425     0.0000   960.0000 </r>
       <r>    10.5001     0.0000   960.0000 </r>
       <r>    10.7577     0.0000   960.0000 </r>
       <r>    11.0153     0.0000   960.0000 </r>
      </set>
     </set>
    </array>
   </total>
  </dos>
 </calculation>
 <structure name="finalpos" >
  <crystal>
   <varray name="basis" >
    <v>       9.42510255       3.57329804       0.00000000 </v>
    <v>       0.00000000      10.07973298       0.00000000 </v>
    <v>       0.00000000       0.00000000      20.68350356 </v>
   </varray>
   <i name="volume">   1964.98490008 </i>
   <varray name="rec_basis" >
    <v>       0.10609964       0.00000000       0.00000000 </v>
    <v>      -0.03761267       0.09920898       0.00000000 </v>
    <v>       0.00000000       0.00000000       0.04834771 </v>
   </varray>
  </crystal>
  <varray name="positions" >
   <v>       0.39705889       0.79495179       0.11816221 </v>
   <v>       0.54732740       0.64468328       0.24509923 </v>
   <v>       0.69759592       0.49441477       0.37203625 </v>
   <v>       0.11381506       0.41152895       0.16047455 </v>
   <v>       0.26408357       0.26126044       0.28741157 </v>
   <v>       0.41435209       0.11099193       0.41434860 </v>
   <v>       0.96354655       0.56179747       0.03353752 </v>
   <v>       0.68030272       0.17837463       0.07584987 </v>
   <v>       0.83057123       0.02810612       0.20278689 </v>
   <v>       0.98083974       0.87783760       0.32972391 </v>
   <v>       0.35735705       0.57044763       0.08462468 </v>
   <v>       0.50762556       0.42017912       0.21156171 </v>
   <v>       0.65789407       0.26991061       0.33849873 </v>
   <v>       0.80816258       0.11964210       0.46543576 </v>
   <v>       0.07411322       0.18702480       0.12693702 </v>
   <v>       0.22438173       0.03675628       0.25387405 </v>
   <v>       0.37465024       0.88648777       0.38081107 </v>
   <v>       0.52491876       0.73621926       0.50774810 </v>
   <v>       0.92384471       0.33729331       0.00000000 </v>
   <v>       0.09140641       0.50306493       0.42312341 </v>
   <v>       0.64060088       0.95387047       0.04231234 </v>
   <v>       0.79086939       0.80360196       0.16924937 </v>
   <v>       0.94113790       0.65333345       0.29618639 </v>
   <v>       0.03266674       0.15934394       0.43189823 </v>
   <v>       0.58186121       0.61014948       0.05108716 </v>
   <v>       0.73212972       0.45988096       0.17802418 </v>
   <v>       0.88239823       0.30961245       0.30496121 </v>
   <v>       0.29861738       0.22672664       0.09339950 </v>
   <v>       0.44888589       0.07645813       0.22033653 </v>
   <v>       0.59915440       0.92618961       0.34727355 </v>
   <v>       0.74942291       0.77592110       0.47421057 </v>
   <v>       0.01537355       0.84330380       0.13571184 </v>
   <v>       0.16564206       0.69303529       0.26264887 </v>
   <v>       0.31591057       0.54276678       0.38958589 </v>
   <v>       0.46617908       0.39249826       0.51652292 </v>
   <v>       0.86510503       0.99357231       0.00877482 </v>
   <v>       0.03660483       0.95519385       0.48928282 </v>
   <v>       0.58579929       0.40599939       0.10847175 </v>
   <v>       0.73606780       0.25573088       0.23540877 </v>
   <v>       0.88633632       0.10546237       0.36234580 </v>
   <v>       0.15228695       0.17284506       0.02384707 </v>
   <v>       0.30255546       0.02257655       0.15078409 </v>
   <v>       0.45282398       0.87230804       0.27772111 </v>
   <v>       0.60309249       0.72203953       0.40465814 </v>
   <v>       0.01931163       0.63915371       0.19309643 </v>
   <v>       0.16958015       0.48888520       0.32003346 </v>
   <v>       0.31984866       0.33861669       0.44697048 </v>
   <v>       0.86904312       0.78942223       0.06615941 </v>
   <v>       0.48608562       0.84214307       0.02424015 </v>
   <v>       0.63635413       0.69187455       0.15117717 </v>
   <v>       0.78662264       0.54160604       0.27811420 </v>
   <v>       0.93689115       0.39133753       0.40505122 </v>
   <v>       0.20284179       0.45872023       0.06655249 </v>
   <v>       0.35311030       0.30845172       0.19348951 </v>
   <v>       0.50337881       0.15818320       0.32042654 </v>
   <v>       0.65364732       0.00791469       0.44736356 </v>
   <v>       0.06986647       0.92502888       0.23580185 </v>
   <v>       0.22013498       0.77476037       0.36273888 </v>
   <v>       0.37040349       0.62449185       0.48967590 </v>
   <v>       0.91959796       0.07529739       0.10886483 </v>
   <v>       0.20021045       0.79158823       0.06694557 </v>
   <v>       0.35047896       0.64131972       0.19388259 </v>
   <v>       0.50074747       0.49105121       0.32081962 </v>
   <v>       0.65101599       0.34078269       0.44775664 </v>
   <v>       0.06723513       0.25789688       0.23619494 </v>
   <v>       0.21750365       0.10762837       0.36313196 </v>
   <v>       0.36777216       0.95735986       0.49006899 </v>
   <v>       0.91696662       0.40816539       0.10925791 </v>
   <v>       0.48345428       0.17501107       0.02463323 </v>
   <v>       0.63372279       0.02474256       0.15157025 </v>
   <v>       0.78399130       0.87447404       0.27850728 </v>
   <v>       0.93425982       0.72420553       0.40544430 </v>
  </varray>
 </structure>
</modeling>
