       N       E                     dE             d eps       ncg     rms          rms(c)
DAV:   1     0.861761898150E+04    0.86176E+04   -0.49950E+05  1168   0.152E+03
DAV:   2     0.475513207454E+03   -0.81421E+04   -0.78500E+04  1024   0.483E+02
DAV:   3    -0.346944605170E+03   -0.82246E+03   -0.77692E+03  1128   0.156E+02
DAV:   4    -0.395358849920E+03   -0.48414E+02   -0.47881E+02  1144   0.349E+01
DAV:   5    -0.397032842524E+03   -0.16740E+01   -0.16715E+01  1192   0.675E+00    0.820E+01
DAV:   6    -0.511642269515E+03   -0.11461E+03   -0.10601E+03  1160   0.128E+02    0.177E+02
DAV:   7    -0.375149781618E+03    0.13649E+03   -0.19859E+02  1112   0.605E+01    0.754E+01
DAV:   8    -0.389077298286E+03   -0.13928E+02   -0.19527E+02  1360   0.829E+01    0.108E+02
DAV:   9    -0.362104829877E+03    0.26972E+02   -0.10430E+02  1288   0.450E+01    0.589E+01
DAV:  10    -0.353754717259E+03    0.83501E+01   -0.48257E+01  1320   0.434E+01    0.601E+01
DAV:  11    -0.360637935597E+03   -0.68832E+01   -0.55001E+01  1312   0.357E+01    0.662E+01
DAV:  12    -0.351386348327E+03    0.92516E+01   -0.31539E+01  1344   0.297E+01    0.413E+01
DAV:  13    -0.349686650467E+03    0.16997E+01   -0.34607E+01  1320   0.199E+01    0.302E+01
DAV:  14    -0.347325008703E+03    0.23616E+01   -0.10230E+01  1272   0.179E+01    0.299E+01
DAV:  15    -0.345397552639E+03    0.19275E+01   -0.66718E+00  1224   0.150E+01    0.214E+01
DAV:  16    -0.344123784028E+03    0.12738E+01   -0.28777E+00  1288   0.965E+00    0.185E+01
DAV:  17    -0.343279450694E+03    0.84433E+00   -0.18567E+00  1280   0.790E+00    0.119E+01
DAV:  18    -0.343054697663E+03    0.22475E+00   -0.11429E+00  1288   0.611E+00    0.953E+00
DAV:  19    -0.342879614356E+03    0.17508E+00   -0.80199E-01  1288   0.563E+00    0.701E+00
DAV:  20    -0.342967542953E+03   -0.87929E-01   -0.68206E-01  1288   0.509E+00    0.812E+00
DAV:  21    -0.342899069766E+03    0.68473E-01   -0.57789E-01  1264   0.371E+00    0.713E+00
DAV:  22    -0.342793935921E+03    0.10513E+00   -0.28546E-01  1304   0.323E+00    0.471E+00
DAV:  23    -0.342836130199E+03   -0.42194E-01   -0.23916E-01  1288   0.290E+00    0.575E+00
DAV:  24    -0.342755779551E+03    0.80351E-01   -0.16527E-01  1256   0.261E+00    0.376E+00
DAV:  25    -0.342744379828E+03    0.11400E-01   -0.70957E-02  1304   0.147E+00    0.314E+00
DAV:  26    -0.342739335379E+03    0.50444E-02   -0.69972E-02  1288   0.118E+00    0.320E+00
DAV:  27    -0.342721541554E+03    0.17794E-01   -0.25737E-02  1304   0.912E-01    0.214E+00
DAV:  28    -0.342720991119E+03    0.55043E-03   -0.20668E-02  1312   0.933E-01    0.208E+00
DAV:  29    -0.342713364181E+03    0.76269E-02   -0.10507E-02  1320   0.705E-01    0.163E+00
DAV:  30    -0.342710020016E+03    0.33442E-02   -0.13371E-02  1328   0.701E-01    0.126E+00
DAV:  31    -0.342707064921E+03    0.29551E-02   -0.68793E-03  1288   0.567E-01    0.926E-01
DAV:  32    -0.342706227997E+03    0.83692E-03   -0.62001E-03  1296   0.472E-01    0.602E-01
DAV:  33    -0.342705772928E+03    0.45507E-03   -0.29486E-03  1248   0.386E-01    0.396E-01
DAV:  34    -0.342706269160E+03   -0.49623E-03   -0.21245E-03  1096   0.261E-01    0.417E-01
DAV:  35    -0.342706006127E+03    0.26303E-03   -0.12922E-03   952   0.225E-01    0.203E-01
DAV:  36    -0.342706551849E+03   -0.54572E-03   -0.49041E-04   784   0.146E-01    0.227E-01
DAV:  37    -0.342706758359E+03   -0.20651E-03   -0.32341E-04   744   0.146E-01    0.154E-01
DAV:  38    -0.342707369544E+03   -0.61118E-03   -0.27676E-04   680   0.108E-01    0.156E-01
DAV:  39    -0.342707723134E+03   -0.35359E-03   -0.28131E-04   728   0.120E-01    0.107E-01
DAV:  40    -0.342708262590E+03   -0.53946E-03   -0.18059E-04   624   0.720E-02    0.834E-02
DAV:  41    -0.342708615339E+03   -0.35275E-03   -0.13656E-04   624   0.815E-02    0.926E-02
DAV:  42    -0.342709026003E+03   -0.41066E-03   -0.11361E-04   640   0.634E-02    0.720E-02
DAV:  43    -0.342709376345E+03   -0.35034E-03   -0.99248E-05   624   0.667E-02    0.822E-02
DAV:  44    -0.342709840963E+03   -0.46462E-03   -0.13926E-04   672   0.503E-02    0.470E-02
DAV:  45    -0.342709977587E+03   -0.13662E-03   -0.54956E-05   600   0.405E-02    0.384E-02
DAV:  46    -0.342710170696E+03   -0.19311E-03   -0.40893E-05   616   0.235E-02    0.334E-02
DAV:  47    -0.342710225241E+03   -0.54545E-04   -0.22411E-05   584   0.222E-02
   1 F= -.34271023E+03 E0= -.34204950E+03  d E =-.132145E+01
