LAMMPS data file via write_data, version 5 Jun 2019, timestep = 69

52 atoms
2 atom types

0.0000000000000000e+00 1.1256463038200000e+01 xlo xhi
0.0000000000000000e+00 9.5784099999999999e+00 ylo yhi
0.0000000000000000e+00 1.7192492404700001e+01 zlo zhi
0.0000000000000000e+00 0.0000000000000000e+00 0.0000000000000000e+00 xy xz yz

Masses

1 58.71
2 32.06

Atoms # atomic

1 1 4.9453580762999998e+00 4.4433094293000002e+00 2.7995183711000000e+00 0 0 0
2 1 5.3764253087694600e+00 4.6201558921360117e+00 5.5111084452936829e+00 0 0 0
3 1 2.0755003949350370e+00 9.1481559106254426e+00 1.5573455404322685e+00 0 0 0
4 1 2.3320363197711513e+00 9.3170466444671725e+00 4.0977042154308121e+00 0 0 0
5 1 4.7918711523370652e+00 1.8518465575552128e+00 3.1669132952008239e+00 0 0 0
6 1 5.5690693201025345e+00 2.0857408197574121e+00 5.6163624267934882e+00 0 0 0
7 1 1.7858817676239671e+00 6.5288762451093127e+00 1.7675951756788795e+00 0 0 0
8 1 2.4230770848000001e+00 6.7018410369000003e+00 4.3417901406999988e+00 0 0 0
9 1 1.4705409881000000e+00 3.1779727330999998e+00 2.3920409138999998e+00 0 0 0
10 1 2.0542103667000000e+00 3.1779727330999998e+00 5.4765844701999997e+00 0 0 0
11 1 5.8677525027914816e+00 6.4419018287717105e+00 1.8365108411007147e+00 0 0 0
12 1 4.4665509101604624e+00 7.9569128600743975e+00 3.6290891448944413e+00 0 0 0
13 1 6.1211464750284543e+00 7.7416205924132990e+00 5.2771768139216748e+00 0 0 0
14 1 1.0573589595400000e+01 4.4433094293000002e+00 2.7995183711000000e+00 0 0 0
15 1 1.0917791926732535e+01 4.7366693289510406e+00 5.3898228152595244e+00 0 0 0
16 1 8.3059013575772926e+00 7.9256251408346525e+00 1.8089253207700640e+00 0 0 0
17 1 7.9444788297641358e+00 9.2811182612596106e+00 4.0952381039835286e+00 0 0 0
18 1 1.0573589595400000e+01 1.9126360368999999e+00 2.7995183711000000e+00 0 0 0
19 1 1.1226056802803686e+01 2.1420499331962022e+00 5.7030518362166900e+00 0 0 0
20 1 7.9199415726874767e+00 5.1442662380814728e+00 1.8731998739414297e+00 0 0 0
21 1 8.0513086039000008e+00 6.7018410369000003e+00 4.3417901406999988e+00 0 0 0
22 1 7.0194829052534198e+00 3.1098205953093094e+00 2.7182376051072579e+00 0 0 0
23 1 7.7196125911884677e+00 3.1954455298665083e+00 5.1824123390612131e+00 0 0 0
24 1 1.1022779124952223e+01 8.9164886637365406e+00 1.4942126839636947e+00 0 0 0
25 1 1.0102380759819901e+01 7.9745692461365110e+00 3.6864302215646814e+00 0 0 0
26 1 5.3229049237256365e-01 7.7536704483548347e+00 5.3321100002071891e+00 1 0 0
27 2 7.5561364995795210e-01 1.2618248814308977e+00 1.4410469253751690e+00 0 0 0
28 2 1.2549722353999999e+00 1.5667404949999999e+00 4.1079488450000001e+00 0 0 0
29 2 1.6938009166475456e+00 1.5465940621344780e+00 6.6471605920753412e+00 0 0 0
30 2 3.7772532155999996e+00 6.3559454950000003e+00 2.5656770582999990e+00 0 0 0
31 2 4.4553686583932777e+00 6.5039627511587774e+00 5.2390180201275243e+00 0 0 0
32 2 7.5839148213056984e-01 4.7772251761304085e+00 1.3459868260033481e+00 0 0 0
33 2 1.2549722353999999e+00 4.7892049713000002e+00 4.1079488450000001e+00 0 0 0
34 2 6.2372745445851219e-01 3.7326459113789494e+00 6.8667834596173138e+00 0 0 0
35 2 3.7772532155999996e+00 9.5784099712999993e+00 2.5656770582999990e+00 0 -1 0
36 2 3.5296459771466830e+00 3.0694367476110829e+00 2.0229286703791023e+00 0 0 0
37 2 4.1411267131000002e+00 3.1779727330999998e+00 4.6268153430999996e+00 0 0 0
38 2 1.0938416452311708e+00 7.8440209910096277e+00 3.2544356829846094e-01 0 0 0
39 2 1.0351763544000001e+00 7.9671777330999998e+00 3.0845435562999990e+00 0 0 0
40 2 2.4293987025233945e+00 8.1905424404051193e+00 5.8171453886598954e+00 0 0 0
41 2 6.8832037545000002e+00 1.5667404949999999e+00 4.1079488450000001e+00 0 0 0
42 2 9.4054847346999999e+00 6.3559454950000003e+00 2.5656770582999990e+00 0 0 0
43 2 1.0051529830632340e+01 6.6272738761905661e+00 5.3355812816148482e+00 0 0 0
44 2 6.1559785067462025e+00 4.3253870257405600e+00 1.1618809571591870e+00 0 0 0
45 2 6.8832037545000002e+00 4.7892049713000002e+00 4.1079488450000001e+00 0 0 0
46 2 6.4781327611358712e+00 3.4573704990021041e+00 6.7971303554541365e+00 0 0 0
47 2 9.4054847346999999e+00 9.5784099712999993e+00 2.5656770582999990e+00 0 -1 0
48 2 9.0384080297102489e+00 3.2851296227032254e+00 1.9650543515635031e+00 0 0 0
49 2 9.7693582322000001e+00 3.1779727330999998e+00 4.6268153430999996e+00 0 0 0
50 2 7.3987899193490323e+00 6.6463819602980383e+00 4.8501624825908757e-01 0 0 0
51 2 6.6634078734999997e+00 7.9671777330999998e+00 3.0845435562999990e+00 0 0 0
52 2 7.9806851307179887e+00 8.2105061315127266e+00 5.8405630691795665e+00 0 0 0

Velocities

1 0.0000000000000000e+00 0.0000000000000000e+00 0.0000000000000000e+00
2 0.0000000000000000e+00 0.0000000000000000e+00 0.0000000000000000e+00
3 0.0000000000000000e+00 0.0000000000000000e+00 0.0000000000000000e+00
4 0.0000000000000000e+00 0.0000000000000000e+00 0.0000000000000000e+00
5 0.0000000000000000e+00 0.0000000000000000e+00 0.0000000000000000e+00
6 0.0000000000000000e+00 0.0000000000000000e+00 0.0000000000000000e+00
7 0.0000000000000000e+00 0.0000000000000000e+00 0.0000000000000000e+00
8 0.0000000000000000e+00 0.0000000000000000e+00 0.0000000000000000e+00
9 0.0000000000000000e+00 0.0000000000000000e+00 0.0000000000000000e+00
10 0.0000000000000000e+00 0.0000000000000000e+00 0.0000000000000000e+00
11 0.0000000000000000e+00 0.0000000000000000e+00 0.0000000000000000e+00
12 0.0000000000000000e+00 0.0000000000000000e+00 0.0000000000000000e+00
13 0.0000000000000000e+00 0.0000000000000000e+00 0.0000000000000000e+00
14 0.0000000000000000e+00 0.0000000000000000e+00 0.0000000000000000e+00
15 0.0000000000000000e+00 0.0000000000000000e+00 0.0000000000000000e+00
16 0.0000000000000000e+00 0.0000000000000000e+00 0.0000000000000000e+00
17 0.0000000000000000e+00 0.0000000000000000e+00 0.0000000000000000e+00
18 0.0000000000000000e+00 0.0000000000000000e+00 0.0000000000000000e+00
19 0.0000000000000000e+00 0.0000000000000000e+00 0.0000000000000000e+00
20 0.0000000000000000e+00 0.0000000000000000e+00 0.0000000000000000e+00
21 0.0000000000000000e+00 0.0000000000000000e+00 0.0000000000000000e+00
22 0.0000000000000000e+00 0.0000000000000000e+00 0.0000000000000000e+00
23 0.0000000000000000e+00 0.0000000000000000e+00 0.0000000000000000e+00
24 0.0000000000000000e+00 0.0000000000000000e+00 0.0000000000000000e+00
25 0.0000000000000000e+00 0.0000000000000000e+00 0.0000000000000000e+00
26 0.0000000000000000e+00 0.0000000000000000e+00 0.0000000000000000e+00
27 0.0000000000000000e+00 0.0000000000000000e+00 0.0000000000000000e+00
28 0.0000000000000000e+00 0.0000000000000000e+00 0.0000000000000000e+00
29 0.0000000000000000e+00 0.0000000000000000e+00 0.0000000000000000e+00
30 0.0000000000000000e+00 0.0000000000000000e+00 0.0000000000000000e+00
31 0.0000000000000000e+00 0.0000000000000000e+00 0.0000000000000000e+00
32 0.0000000000000000e+00 0.0000000000000000e+00 0.0000000000000000e+00
33 0.0000000000000000e+00 0.0000000000000000e+00 0.0000000000000000e+00
34 0.0000000000000000e+00 0.0000000000000000e+00 0.0000000000000000e+00
35 0.0000000000000000e+00 0.0000000000000000e+00 0.0000000000000000e+00
36 0.0000000000000000e+00 0.0000000000000000e+00 0.0000000000000000e+00
37 0.0000000000000000e+00 0.0000000000000000e+00 0.0000000000000000e+00
38 0.0000000000000000e+00 0.0000000000000000e+00 0.0000000000000000e+00
39 0.0000000000000000e+00 0.0000000000000000e+00 0.0000000000000000e+00
40 0.0000000000000000e+00 0.0000000000000000e+00 0.0000000000000000e+00
41 0.0000000000000000e+00 0.0000000000000000e+00 0.0000000000000000e+00
42 0.0000000000000000e+00 0.0000000000000000e+00 0.0000000000000000e+00
43 0.0000000000000000e+00 0.0000000000000000e+00 0.0000000000000000e+00
44 0.0000000000000000e+00 0.0000000000000000e+00 0.0000000000000000e+00
45 0.0000000000000000e+00 0.0000000000000000e+00 0.0000000000000000e+00
46 0.0000000000000000e+00 0.0000000000000000e+00 0.0000000000000000e+00
47 0.0000000000000000e+00 0.0000000000000000e+00 0.0000000000000000e+00
48 0.0000000000000000e+00 0.0000000000000000e+00 0.0000000000000000e+00
49 0.0000000000000000e+00 0.0000000000000000e+00 0.0000000000000000e+00
50 0.0000000000000000e+00 0.0000000000000000e+00 0.0000000000000000e+00
51 0.0000000000000000e+00 0.0000000000000000e+00 0.0000000000000000e+00
52 0.0000000000000000e+00 0.0000000000000000e+00 0.0000000000000000e+00
