<?xml version="1.0" encoding="ISO-8859-1"?>
<modeling>
 <generator>
  <i name="program" type="string">vasp </i>
  <i name="version" type="string">5.4.4.18Apr17-6-g9f103f2a35  </i>
  <i name="subversion" type="string">(build Aug 13 2019 17:33:20) gamma-only         parallel </i>
  <i name="platform" type="string">LinuxIFC </i>
  <i name="date" type="string">2020 05 10 </i>
  <i name="time" type="string">11:42:17 </i>
 </generator>
 <incar>
  <i type="string" name="SYSTEM">"Millerite NiS"</i>
  <i type="string" name="PREC">normal</i>
  <i type="int" name="NSIM">     4</i>
  <i type="int" name="NELM">   100</i>
  <i name="ENCUT">    450.00000000</i>
  <i type="string" name="LREAL">A</i>
  <i type="int" name="ISMEAR">     0</i>
  <i type="int" name="NWRITE">     2</i>
  <i type="logical" name="LWAVE"> F  </i>
  <i type="logical" name="LCHARG"> F  </i>
  <v type="int" name="KPOINT_BSE">    -1     0     0     0</v>
  <i type="int" name="NELM">   100</i>
 </incar>
 <structure name="primitive_cell" >
  <crystal>
   <varray name="basis" >
    <v>      11.25646304       0.00000000       0.00000000 </v>
    <v>       0.00000000       9.57841000       0.00000000 </v>
    <v>       0.00000000       0.00000000      17.19249240 </v>
   </varray>
   <i name="volume">   1853.67765028 </i>
   <varray name="rec_basis" >
    <v>       0.08883785       0.00000000       0.00000000 </v>
    <v>       0.00000000       0.10440146       0.00000000 </v>
    <v>       0.00000000       0.00000000       0.05816492 </v>
   </varray>
  </crystal>
  <varray name="positions" >
   <v>       0.43933499       0.46388800       0.16283377 </v>
   <v>      -0.43663725       0.49508863       0.07524238 </v>
   <v>       0.30300041       0.33913207       0.11512278 </v>
   <v>       0.33556306      -0.33643000       0.14923241 </v>
   <v>       0.36788880       0.33178500       0.26911836 </v>
   <v>      -0.38851096       0.50000000       0.23893853 </v>
   <v>       0.43933499       0.19968200       0.16283377 </v>
   <v>      -0.36936030       0.33178500       0.13913288 </v>
   <v>       0.46574002       0.48670941       0.31814295 </v>
   <v>       0.20831527      -0.46591470       0.10303568 </v>
   <v>      -0.45831549      -0.29607584       0.27637746 </v>
   <v>      -0.34731177      -0.32684570       0.10886161 </v>
   <v>       0.36420207      -0.32079741       0.31050461 </v>
   <v>      -0.44157713       0.16998447       0.07476036 </v>
   <v>       0.20680429      -0.30992954       0.23651792 </v>
   <v>      -0.38851096       0.16357000       0.23893853 </v>
   <v>       0.38440915      -0.16463903       0.22253567 </v>
   <v>       0.12488766       0.32772622       0.16108323 </v>
   <v>       0.49770839       0.22114236       0.33144880 </v>
   <v>       0.11148904       0.50000000       0.23893853 </v>
   <v>      -0.40803716      -0.16821500       0.17941224 </v>
   <v>      -0.31750836       0.33178500       0.31854512 </v>
   <v>       0.46470531      -0.13238006       0.09176155 </v>
   <v>       0.18249164       0.33178500       0.31854512 </v>
   <v>       0.23676751      -0.17222466       0.10432756 </v>
   <v>      -0.25688684      -0.31441229       0.25101193 </v>
   <v>      -0.44303637       0.38336231       0.40192781 </v>
   <v>       0.15587276      -0.30524506       0.02689342 </v>
   <v>      -0.18324677       0.31286151       0.12093522 </v>
   <v>       0.33556306      -0.00000000       0.14923241 </v>
   <v>       0.04746962       0.45057927       0.06867283 </v>
   <v>      -0.37986482      -0.16090862       0.03145591 </v>
   <v>       0.11148904       0.16357000       0.23893853 </v>
   <v>      -0.16443694      -0.33643000       0.14923241 </v>
   <v>       0.02547075      -0.32982410       0.10946217 </v>
   <v>      -0.34435538       0.00008156       0.11104501 </v>
   <v>      -0.32944096      -0.18639903       0.33975437 </v>
   <v>       0.09196284      -0.16821500       0.17941224 </v>
   <v>      -0.13211120       0.33178500       0.26911836 </v>
   <v>      -0.34616254       0.15218120       0.38154762 </v>
   <v>       0.12610569       0.47200459       0.39918482 </v>
   <v>       0.20205225      -0.02503411       0.23138178 </v>
   <v>      -0.06066501       0.46388800       0.16283377 </v>
   <v>      -0.01069129       0.45771242       0.32576755 </v>
   <v>      -0.28473904      -0.03611200       0.25253989 </v>
   <v>       0.12479537       0.20226130       0.40349129 </v>
   <v>      -0.07743769       0.17774137       0.19212417 </v>
   <v>      -0.16443694      -0.00000000       0.14923241 </v>
   <v>      -0.01152233       0.19758591       0.32864390 </v>
   <v>      -0.09008898      -0.15949505       0.21251369 </v>
   <v>      -0.15263470      -0.16801309       0.34935963 </v>
   <v>      -0.10835445       0.01477809       0.29682137 </v>
  </varray>
 </structure>
 <varray name="primitive_index" >
  <v type="int" >        1 </v>
  <v type="int" >       43 </v>
  <v type="int" >       35 </v>
  <v type="int" >       29 </v>
  <v type="int" >       36 </v>
  <v type="int" >       44 </v>
  <v type="int" >        5 </v>
  <v type="int" >       22 </v>
  <v type="int" >        2 </v>
  <v type="int" >        7 </v>
  <v type="int" >       13 </v>
  <v type="int" >       20 </v>
  <v type="int" >       30 </v>
  <v type="int" >       39 </v>
  <v type="int" >        8 </v>
  <v type="int" >       40 </v>
  <v type="int" >       12 </v>
  <v type="int" >        9 </v>
  <v type="int" >        6 </v>
  <v type="int" >       32 </v>
  <v type="int" >       51 </v>
  <v type="int" >       23 </v>
  <v type="int" >       11 </v>
  <v type="int" >       10 </v>
  <v type="int" >        3 </v>
  <v type="int" >       21 </v>
  <v type="int" >       45 </v>
  <v type="int" >       37 </v>
  <v type="int" >       48 </v>
  <v type="int" >       34 </v>
  <v type="int" >       31 </v>
  <v type="int" >       50 </v>
  <v type="int" >       27 </v>
  <v type="int" >       42 </v>
  <v type="int" >       24 </v>
  <v type="int" >       16 </v>
  <v type="int" >       52 </v>
  <v type="int" >       38 </v>
  <v type="int" >       49 </v>
  <v type="int" >       41 </v>
  <v type="int" >       33 </v>
  <v type="int" >        4 </v>
  <v type="int" >       14 </v>
  <v type="int" >       15 </v>
  <v type="int" >       17 </v>
  <v type="int" >       28 </v>
  <v type="int" >       18 </v>
  <v type="int" >       46 </v>
  <v type="int" >       19 </v>
  <v type="int" >       25 </v>
  <v type="int" >       26 </v>
  <v type="int" >       47 </v>
 </varray>
 <kpoints>
  <generation param="Gamma">
   <v type="int" name="divisions">       1        1        1 </v>
   <v name="usershift">      0.00000000       0.00000000       0.00000000 </v>
   <v name="genvec1">      1.00000000       0.00000000       0.00000000 </v>
   <v name="genvec2">      0.00000000       1.00000000       0.00000000 </v>
   <v name="genvec3">      0.00000000       0.00000000       1.00000000 </v>
   <v name="shift">      0.00000000       0.00000000       0.00000000 </v>
  </generation>
  <varray name="kpointlist" >
   <v>       0.00000000       0.00000000       0.00000000 </v>
  </varray>
  <varray name="weights" >
   <v>       1.00000000 </v>
  </varray>
 </kpoints>
 <parameters>
  <separator name="general" >
   <i type="string" name="SYSTEM">"Millerite NiS"</i>
   <i type="logical" name="LCOMPAT"> F  </i>
  </separator>
  <separator name="electronic" >
   <i type="string" name="PREC">normal</i>
   <i name="ENMAX">    450.00000000</i>
   <i name="ENAUG">    703.44300000</i>
   <i name="EDIFF">      0.00010000</i>
   <i type="int" name="IALGO">    38</i>
   <i type="int" name="IWAVPR">    10</i>
   <i type="int" name="NBANDS">   344</i>
   <i name="NELECT">    572.00000000</i>
   <i type="int" name="TURBO">     0</i>
   <i type="int" name="IRESTART">     0</i>
   <i type="int" name="NREBOOT">     0</i>
   <i type="int" name="NMIN">     0</i>
   <i name="EREF">      0.00000000</i>
   <separator name="electronic smearing" >
    <i type="int" name="ISMEAR">     0</i>
    <i name="SIGMA">      0.20000000</i>
    <i name="KSPACING">      0.50000000</i>
    <i type="logical" name="KGAMMA"> T  </i>
   </separator>
   <separator name="electronic projectors" >
    <i type="logical" name="LREAL"> T  </i>
    <v name="ROPT">     -0.00050000     -0.00050000</v>
    <i type="int" name="LMAXPAW">  -100</i>
    <i type="int" name="LMAXMIX">     2</i>
    <i type="logical" name="NLSPLINE"> F  </i>
   </separator>
   <separator name="electronic startup" >
    <i type="int" name="ISTART">     0</i>
    <i type="int" name="ICHARG">     2</i>
    <i type="int" name="INIWAV">     1</i>
   </separator>
   <separator name="electronic spin" >
    <i type="int" name="ISPIN">     1</i>
    <i type="logical" name="LNONCOLLINEAR"> F  </i>
    <v name="MAGMOM">      1.00000000      1.00000000      1.00000000      1.00000000      1.00000000      1.00000000      1.00000000      1.00000000      1.00000000      1.00000000      1.00000000      1.00000000      1.00000000      1.00000000      1.00000000      1.00000000      1.00000000      1.00000000      1.00000000      1.00000000
      1.00000000      1.00000000      1.00000000      1.00000000      1.00000000      1.00000000      1.00000000      1.00000000      1.00000000      1.00000000      1.00000000      1.00000000      1.00000000      1.00000000      1.00000000      1.00000000      1.00000000      1.00000000      1.00000000      1.00000000
      1.00000000      1.00000000      1.00000000      1.00000000      1.00000000      1.00000000      1.00000000      1.00000000      1.00000000      1.00000000      1.00000000      1.00000000</v>
    <i name="NUPDOWN">     -1.00000000</i>
    <i type="logical" name="LSORBIT"> F  </i>
    <v name="SAXIS">      0.00000000      0.00000000      1.00000000</v>
    <i type="logical" name="LSPIRAL"> F  </i>
    <v name="QSPIRAL">      0.00000000      0.00000000      0.00000000</v>
    <i type="logical" name="LZEROZ"> F  </i>
   </separator>
   <separator name="electronic exchange-correlation" >
    <i type="logical" name="LASPH"> F  </i>
    <i type="logical" name="LMETAGGA"> F  </i>
   </separator>
   <separator name="electronic convergence" >
    <i type="int" name="NELM">   100</i>
    <i type="int" name="NELMDL">    -5</i>
    <i type="int" name="NELMIN">     2</i>
    <i name="ENINI">    450.00000000</i>
    <separator name="electronic convergence detail" >
     <i type="logical" name="LDIAG"> T  </i>
     <i type="logical" name="LSUBROT"> F  </i>
     <i name="WEIMIN">      0.00000000</i>
     <i name="EBREAK">      0.00000007</i>
     <i name="DEPER">      0.30000000</i>
     <i type="int" name="NRMM">     4</i>
     <i name="TIME">      0.40000000</i>
    </separator>
   </separator>
   <separator name="electronic mixer" >
    <i name="AMIX">      0.40000000</i>
    <i name="BMIX">      1.00000000</i>
    <i name="AMIN">      0.10000000</i>
    <i name="AMIX_MAG">      1.60000000</i>
    <i name="BMIX_MAG">      1.00000000</i>
    <separator name="electronic mixer details" >
     <i type="int" name="IMIX">     4</i>
     <i type="logical" name="MIXFIRST"> F  </i>
     <i type="int" name="MAXMIX">   -45</i>
     <i name="WC">    100.00000000</i>
     <i type="int" name="INIMIX">     1</i>
     <i type="int" name="MIXPRE">     1</i>
     <i type="int" name="MREMOVE">     5</i>
    </separator>
   </separator>
   <separator name="electronic dipolcorrection" >
    <i type="logical" name="LDIPOL"> F  </i>
    <i type="logical" name="LMONO"> F  </i>
    <i type="int" name="IDIPOL">     0</i>
    <i name="EPSILON">      1.00000000</i>
    <v name="DIPOL">   -100.00000000   -100.00000000   -100.00000000</v>
    <i name="EFIELD">      0.00000000</i>
   </separator>
  </separator>
  <separator name="grids" >
   <i type="int" name="NGX">    60</i>
   <i type="int" name="NGY">    50</i>
   <i type="int" name="NGZ">    90</i>
   <i type="int" name="NGXF">   120</i>
   <i type="int" name="NGYF">   100</i>
   <i type="int" name="NGZF">   180</i>
   <i type="logical" name="ADDGRID"> F  </i>
  </separator>
  <separator name="ionic" >
   <i type="int" name="NSW">     0</i>
   <i type="int" name="IBRION">    -1</i>
   <i type="int" name="MDALGO">     0</i>
   <i type="int" name="ISIF">     2</i>
   <i name="PSTRESS">      0.00000000</i>
   <i name="EDIFFG">      0.00100000</i>
   <i type="int" name="NFREE">     0</i>
   <i name="POTIM">      0.50000000</i>
   <i name="SMASS">     -3.00000000</i>
   <i name="SCALEE">      1.00000000</i>
  </separator>
  <separator name="ionic md" >
   <i name="TEBEG">      0.00010000</i>
   <i name="TEEND">      0.00010000</i>
   <i type="int" name="NBLOCK">     1</i>
   <i type="int" name="KBLOCK">     1</i>
   <i type="int" name="NPACO">   256</i>
   <i name="APACO">     16.00000000</i>
  </separator>
  <separator name="symmetry" >
   <i type="int" name="ISYM">     2</i>
   <i name="SYMPREC">      0.00001000</i>
  </separator>
  <separator name="dos" >
   <i type="int" name="LORBIT">     0</i>
   <v name="RWIGS">     -1.00000000     -1.00000000</v>
   <i type="int" name="NEDOS">   301</i>
   <i name="EMIN">     10.00000000</i>
   <i name="EMAX">    -10.00000000</i>
   <i name="EFERMI">      0.00000000</i>
  </separator>
  <separator name="writing" >
   <i type="int" name="NWRITE">     2</i>
   <i type="logical" name="LWAVE"> F  </i>
   <i type="logical" name="LDOWNSAMPLE"> F  </i>
   <i type="logical" name="LCHARG"> F  </i>
   <i type="logical" name="LPARD"> F  </i>
   <i type="logical" name="LVTOT"> F  </i>
   <i type="logical" name="LVHAR"> F  </i>
   <i type="logical" name="LELF"> F  </i>
   <i type="logical" name="LOPTICS"> F  </i>
   <v name="STM">      0.00000000      0.00000000      0.00000000      0.00000000      0.00000000      0.00000000      0.00000000</v>
  </separator>
  <separator name="performance" >
   <i type="int" name="NPAR">     2</i>
   <i type="int" name="NSIM">     4</i>
   <i type="int" name="NBLK">    -1</i>
   <i type="logical" name="LPLANE"> T  </i>
   <i type="logical" name="LSCALAPACK"> T  </i>
   <i type="logical" name="LSCAAWARE"> F  </i>
   <i type="logical" name="LSCALU"> F  </i>
   <i type="logical" name="LASYNC"> F  </i>
   <i type="logical" name="LORBITALREAL"> F  </i>
  </separator>
  <separator name="miscellaneous" >
   <i type="int" name="IDIOT">     3</i>
   <i type="int" name="ISPECIAL">     0</i>
   <i type="logical" name="LMUSIC"> F  </i>
   <v name="POMASS">     58.69000000     32.06600000</v>
   <v name="DARWINR">      0.00000000      0.00000000</v>
   <v name="DARWINV">      1.00000000      1.00000000</v>
   <i type="logical" name="LCORR"> T  </i>
  </separator>
  <i type="logical" name="GGA_COMPAT"> T  </i>
  <i type="logical" name="LBERRY"> F  </i>
  <i type="int" name="ICORELEVEL">     0</i>
  <i type="logical" name="LDAU"> F  </i>
  <i type="int" name="I_CONSTRAINED_M">     0</i>
  <separator name="electronic exchange-correlation" >
   <i type="string" name="GGA">--</i>
   <i type="int" name="VOSKOWN">     0</i>
   <i type="logical" name="LHFCALC"> F  </i>
   <i type="string" name="PRECFOCK"></i>
   <i type="logical" name="LSYMGRAD"> F  </i>
   <i type="logical" name="LHFONE"> F  </i>
   <i type="logical" name="LRHFCALC"> F  </i>
   <i type="logical" name="LTHOMAS"> F  </i>
   <i type="logical" name="LMODELHF"> F  </i>
   <i name="ENCUT4O">     -1.00000000</i>
   <i type="int" name="EXXOEP">     0</i>
   <i type="int" name="FOURORBIT">     0</i>
   <i name="AEXX">      0.00000000</i>
   <i name="HFALPHA">      0.00000000</i>
   <i name="MCALPHA">      0.00000000</i>
   <i name="ALDAX">      1.00000000</i>
   <i name="AGGAX">      1.00000000</i>
   <i name="ALDAC">      1.00000000</i>
   <i name="AGGAC">      1.00000000</i>
   <i type="int" name="NKREDX">     1</i>
   <i type="int" name="NKREDY">     1</i>
   <i type="int" name="NKREDZ">     1</i>
   <i type="logical" name="SHIFTRED"> F  </i>
   <i type="logical" name="ODDONLY"> F  </i>
   <i type="logical" name="EVENONLY"> F  </i>
   <i type="int" name="LMAXFOCK">     0</i>
   <i type="int" name="NMAXFOCKAE">     0</i>
   <i type="logical" name="LFOCKAEDFT"> F  </i>
   <i name="HFSCREEN">      0.00000000</i>
   <i name="HFSCREENC">      0.00000000</i>
   <i type="int" name="NBANDSGWLOW">     0</i>
  </separator>
  <separator name="vdW DFT" >
   <i type="logical" name="LUSE_VDW"> F  </i>
   <i name="Zab_VDW">     -0.84910000</i>
   <i name="PARAM1">      0.12340000</i>
   <i name="PARAM2">      1.00000000</i>
   <i name="PARAM3">      0.00000000</i>
  </separator>
  <separator name="model GW" >
   <i type="int" name="MODEL_GW">     0</i>
   <i name="MODEL_EPS0">     21.38858827</i>
   <i name="MODEL_ALPHA">      1.00000000</i>
  </separator>
  <separator name="linear response parameters" >
   <i type="logical" name="LEPSILON"> F  </i>
   <i type="logical" name="LRPA"> F  </i>
   <i type="logical" name="LNABLA"> F  </i>
   <i type="logical" name="LVEL"> F  </i>
   <i type="int" name="KINTER">     0</i>
   <i name="CSHIFT">      0.10000000</i>
   <i name="OMEGAMAX">     -1.00000000</i>
   <i name="DEG_THRESHOLD">      0.00200000</i>
   <i name="RTIME">     -0.10000000</i>
   <i name="WPLASMAI">      0.00000000</i>
   <v name="DFIELD">      0.00000000      0.00000000      0.00000000</v>
   <v name="WPLASMA">      0.00000000      0.00000000      0.00000000      0.00000000      0.00000000      0.00000000      0.00000000      0.00000000      0.00000000</v>
  </separator>
  <separator name="orbital magnetization" >
   <i type="logical" name="NUCIND"> F  </i>
   <v name="MAGPOS">      0.00000000      0.00000000      0.00000000</v>
   <i type="logical" name="LNICSALL"> T  </i>
   <i type="logical" name="ORBITALMAG"> F  </i>
   <i type="logical" name="LMAGBLOCH"> F  </i>
   <i type="logical" name="LCHIMAG"> F  </i>
   <i type="logical" name="LGAUGE"> T  </i>
   <i type="int" name="MAGATOM">     0</i>
   <v name="MAGDIPOL">      0.00000000      0.00000000      0.00000000</v>
   <v name="AVECCONST">      0.00000000      0.00000000      0.00000000</v>
  </separator>
  <separator name="response functions" >
   <i type="logical" name="LADDER"> F  </i>
   <i type="logical" name="LRPAFORCE"> F  </i>
   <i type="logical" name="LFXC"> F  </i>
   <i type="logical" name="LHARTREE"> T  </i>
   <i type="int" name="IBSE">     0</i>
   <v type="int" name="KPOINT">    -1     0     0     0</v>
   <i type="logical" name="LTCTE"> F  </i>
   <i type="logical" name="LTETE"> F  </i>
   <i type="logical" name="LTRIPLET"> F  </i>
   <i type="logical" name="LFXCEPS"> F  </i>
   <i type="logical" name="LFXHEG"> F  </i>
   <i type="int" name="NATURALO">     2</i>
   <i type="logical" name="L2ORDER"> F  </i>
   <i type="logical" name="LMP2LT"> F  </i>
   <i type="logical" name="LUSEW"> F  </i>
   <i name="ENCUTGW">     -2.00000000</i>
   <i name="ENCUTGWSOFT">     -2.00000000</i>
   <i name="ENCUTLF">     -1.00000000</i>
   <i type="int" name="LMAXMP2">    -1</i>
   <i name="SCISSOR">      0.00000000</i>
   <i type="int" name="NOMEGA">     0</i>
   <i type="int" name="NOMEGAR">     0</i>
   <i type="int" name="NBANDSGW">    -1</i>
   <i type="int" name="NBANDSO">    -1</i>
   <i type="int" name="NBANDSV">    -1</i>
   <i type="int" name="NELM">   100</i>
   <i type="int" name="NELMHF">     1</i>
   <i type="int" name="DIM">     3</i>
   <i type="int" name="ANTIRES">     0</i>
   <i name="OMEGAMAX">    -30.00000000</i>
   <i name="OMEGAMIN">    -30.00000000</i>
   <i name="OMEGATL">   -200.00000000</i>
   <i type="int" name="OMEGAGRID">   140</i>
   <i name="CSHIFT">     -0.10000000</i>
   <i type="logical" name="SELFENERGY"> F  </i>
   <i type="logical" name="LSPECTRAL"> F  </i>
   <i type="logical" name="LSPECTRALGW"> F  </i>
   <i type="logical" name="LSINGLES"> F  </i>
   <i type="logical" name="LFERMIGW"> F  </i>
   <i type="logical" name="ODDONLYGW"> F  </i>
   <i type="logical" name="EVENONLYGW"> F  </i>
   <i type="int" name="NKREDLFX">     1</i>
   <i type="int" name="NKREDLFY">     1</i>
   <i type="int" name="NKREDLFZ">     1</i>
   <i type="int" name="MAXMEM">  2800</i>
   <i type="int" name="TELESCOPE">     0</i>
   <i type="int" name="TAUPAR">     1</i>
   <i type="int" name="OMEGAPAR">    -1</i>
   <i name="LAMBDA">      1.00000000</i>
  </separator>
  <separator name="External order field" >
   <i name="OFIELD_KAPPA">      0.00000000</i>
   <v name="OFIELD_K">      0.00000000      0.00000000      0.00000000</v>
   <i name="OFIELD_Q6_NEAR">      0.00000000</i>
   <i name="OFIELD_Q6_FAR">      0.00000000</i>
   <i name="OFIELD_A">      0.00000000</i>
  </separator>
 </parameters>
 <atominfo>
  <atoms>      52 </atoms>
  <types>       2 </types>
  <array name="atoms" >
   <dimension dim="1">ion</dimension>
   <field type="string">element</field>
   <field type="int">atomtype</field>
   <set>
    <rc><c>Ni</c><c>   1</c></rc>
    <rc><c>Ni</c><c>   1</c></rc>
    <rc><c>Ni</c><c>   1</c></rc>
    <rc><c>Ni</c><c>   1</c></rc>
    <rc><c>Ni</c><c>   1</c></rc>
    <rc><c>Ni</c><c>   1</c></rc>
    <rc><c>Ni</c><c>   1</c></rc>
    <rc><c>Ni</c><c>   1</c></rc>
    <rc><c>Ni</c><c>   1</c></rc>
    <rc><c>Ni</c><c>   1</c></rc>
    <rc><c>Ni</c><c>   1</c></rc>
    <rc><c>Ni</c><c>   1</c></rc>
    <rc><c>Ni</c><c>   1</c></rc>
    <rc><c>Ni</c><c>   1</c></rc>
    <rc><c>Ni</c><c>   1</c></rc>
    <rc><c>Ni</c><c>   1</c></rc>
    <rc><c>Ni</c><c>   1</c></rc>
    <rc><c>Ni</c><c>   1</c></rc>
    <rc><c>Ni</c><c>   1</c></rc>
    <rc><c>Ni</c><c>   1</c></rc>
    <rc><c>Ni</c><c>   1</c></rc>
    <rc><c>Ni</c><c>   1</c></rc>
    <rc><c>Ni</c><c>   1</c></rc>
    <rc><c>Ni</c><c>   1</c></rc>
    <rc><c>Ni</c><c>   1</c></rc>
    <rc><c>Ni</c><c>   1</c></rc>
    <rc><c>S </c><c>   2</c></rc>
    <rc><c>S </c><c>   2</c></rc>
    <rc><c>S </c><c>   2</c></rc>
    <rc><c>S </c><c>   2</c></rc>
    <rc><c>S </c><c>   2</c></rc>
    <rc><c>S </c><c>   2</c></rc>
    <rc><c>S </c><c>   2</c></rc>
    <rc><c>S </c><c>   2</c></rc>
    <rc><c>S </c><c>   2</c></rc>
    <rc><c>S </c><c>   2</c></rc>
    <rc><c>S </c><c>   2</c></rc>
    <rc><c>S </c><c>   2</c></rc>
    <rc><c>S </c><c>   2</c></rc>
    <rc><c>S </c><c>   2</c></rc>
    <rc><c>S </c><c>   2</c></rc>
    <rc><c>S </c><c>   2</c></rc>
    <rc><c>S </c><c>   2</c></rc>
    <rc><c>S </c><c>   2</c></rc>
    <rc><c>S </c><c>   2</c></rc>
    <rc><c>S </c><c>   2</c></rc>
    <rc><c>S </c><c>   2</c></rc>
    <rc><c>S </c><c>   2</c></rc>
    <rc><c>S </c><c>   2</c></rc>
    <rc><c>S </c><c>   2</c></rc>
    <rc><c>S </c><c>   2</c></rc>
    <rc><c>S </c><c>   2</c></rc>
   </set>
  </array>
  <array name="atomtypes" >
   <dimension dim="1">type</dimension>
   <field type="int">atomspertype</field>
   <field type="string">element</field>
   <field>mass</field>
   <field>valence</field>
   <field type="string">pseudopotential</field>
   <set>
    <rc><c>  26</c><c>Ni</c><c>     58.69000000</c><c>     16.00000000</c><c>  PAW_PBE Ni_pv 06Sep2000               </c></rc>
    <rc><c>  26</c><c>S </c><c>     32.06600000</c><c>      6.00000000</c><c>  PAW_PBE S 06Sep2000                   </c></rc>
   </set>
  </array>
 </atominfo>
 <structure name="initialpos" >
  <crystal>
   <varray name="basis" >
    <v>      11.25646304       0.00000000       0.00000000 </v>
    <v>       0.00000000       9.57841000       0.00000000 </v>
    <v>       0.00000000       0.00000000      17.19249240 </v>
   </varray>
   <i name="volume">   1853.67765028 </i>
   <varray name="rec_basis" >
    <v>       0.08883785       0.00000000       0.00000000 </v>
    <v>       0.00000000       0.10440146       0.00000000 </v>
    <v>       0.00000000       0.00000000       0.05816492 </v>
   </varray>
  </crystal>
  <varray name="positions" >
   <v>       0.43933499       0.46388800       0.16283377 </v>
   <v>       0.46574002       0.48670941       0.31814295 </v>
   <v>       0.23676751       0.82777534       0.10432756 </v>
   <v>       0.20205225       0.97496589       0.23138178 </v>
   <v>       0.43933499       0.19968200       0.16283377 </v>
   <v>       0.49770839       0.22114236       0.33144880 </v>
   <v>       0.20831527       0.53408530       0.10303568 </v>
   <v>       0.20680429       0.69007046       0.23651792 </v>
   <v>       0.12488766       0.32772622       0.16108323 </v>
   <v>       0.18249164       0.33178500       0.31854512 </v>
   <v>       0.46470531       0.86761994       0.09176155 </v>
   <v>       0.38440915       0.83536097       0.22253567 </v>
   <v>       0.54168451       0.70392416       0.27637746 </v>
   <v>       0.93933499       0.46388800       0.16283377 </v>
   <v>       0.98930871       0.45771242       0.32576755 </v>
   <v>       0.65564462       0.00008156       0.11104501 </v>
   <v>       0.71526096       0.96388800       0.25253989 </v>
   <v>       0.92256231       0.17774137       0.19212417 </v>
   <v>       0.98847767       0.19758591       0.32864390 </v>
   <v>       0.65268823       0.67315430       0.10886161 </v>
   <v>       0.74311316       0.68558771       0.25101193 </v>
   <v>       0.63063970       0.33178500       0.13913288 </v>
   <v>       0.68249164       0.33178500       0.31854512 </v>
   <v>       0.02547075       0.67017590       0.10946217 </v>
   <v>       0.90991102       0.84050495       0.21251369 </v>
   <v>       0.84736530       0.83198691       0.34935963 </v>
   <v>       0.11148904       0.16357000       0.23893853 </v>
   <v>       0.12479537       0.20226130       0.40349129 </v>
   <v>       0.33556306       0.66357000       0.14923241 </v>
   <v>       0.36420207       0.67920259       0.31050461 </v>
   <v>       0.04746962       0.45057927       0.06867283 </v>
   <v>       0.11148904       0.50000000       0.23893853 </v>
   <v>       0.12610569       0.47200459       0.39918482 </v>
   <v>       0.33556306       1.00000000       0.14923241 </v>
   <v>       0.30300041       0.33913207       0.11512278 </v>
   <v>       0.36788880       0.33178500       0.26911836 </v>
   <v>       0.15587276       0.69475494       0.02689342 </v>
   <v>       0.09196284       0.83178500       0.17941224 </v>
   <v>       0.55842287       0.16998447       0.07476036 </v>
   <v>       0.61148904       0.16357000       0.23893853 </v>
   <v>       0.65383746       0.15218120       0.38154762 </v>
   <v>       0.83556306       0.66357000       0.14923241 </v>
   <v>       0.56336275       0.49508863       0.07524238 </v>
   <v>       0.61148904       0.50000000       0.23893853 </v>
   <v>       0.55696363       0.38336231       0.40192781 </v>
   <v>       0.83556306       1.00000000       0.14923241 </v>
   <v>       0.89164555       0.01477809       0.29682137 </v>
   <v>       0.81675323       0.31286151       0.12093522 </v>
   <v>       0.86788880       0.33178500       0.26911836 </v>
   <v>       0.62013518       0.83909138       0.03145591 </v>
   <v>       0.59196284       0.83178500       0.17941224 </v>
   <v>       0.67055904       0.81360097       0.33975437 </v>
  </varray>
 </structure>
 <calculation>
  <scstep>
   <time name="dav">    4.08    4.08</time>
   <time name="total">    4.31    4.31</time>
   <energy>
    <i name="alphaZ">   1046.73971423 </i>
    <i name="ewald"> 126122.21497971 </i>
    <i name="hartreedc">-213051.70724388 </i>
    <i name="XCdc">   2660.83775288 </i>
    <i name="pawpsdc">  81415.77407466 </i>
    <i name="pawaedc"> -84963.31414086 </i>
    <i name="eentropy">     -0.27660774 </i>
    <i name="bandstr">  -4981.00323735 </i>
    <i name="atom">  98224.10364994 </i>
    <i name="e_fr_energy">   6473.36894158 </i>
    <i name="e_wo_entrp">   6473.64554932 </i>
    <i name="e_0_energy">   6473.50724545 </i>
   </energy>
  </scstep>
  <scstep>
   <time name="dav">    3.64    3.64</time>
   <time name="total">    3.64    3.64</time>
   <energy>
    <i name="e_fr_energy">    360.60459861 </i>
    <i name="e_wo_entrp">    361.11026161 </i>
    <i name="e_0_energy">    360.85743011 </i>
   </energy>
  </scstep>
  <scstep>
   <time name="dav">    3.84    3.84</time>
   <time name="total">    3.84    3.84</time>
   <energy>
    <i name="e_fr_energy">   -248.95229369 </i>
    <i name="e_wo_entrp">   -248.24898200 </i>
    <i name="e_0_energy">   -248.60063785 </i>
   </energy>
  </scstep>
  <scstep>
   <time name="dav">    3.78    3.78</time>
   <time name="total">    3.78    3.78</time>
   <energy>
    <i name="e_fr_energy">   -280.30217727 </i>
    <i name="e_wo_entrp">   -279.59549056 </i>
    <i name="e_0_energy">   -279.94883391 </i>
   </energy>
  </scstep>
  <scstep>
   <time name="dav">    4.04    4.05</time>
   <time name="total">    4.19    4.20</time>
   <energy>
    <i name="e_fr_energy">   -281.39842155 </i>
    <i name="e_wo_entrp">   -280.69622161 </i>
    <i name="e_0_energy">   -281.04732158 </i>
   </energy>
  </scstep>
  <scstep>
   <time name="dav">    4.14    4.14</time>
   <time name="total">    4.51    4.51</time>
   <energy>
    <i name="e_fr_energy">   -329.94134812 </i>
    <i name="e_wo_entrp">   -329.41837561 </i>
    <i name="e_0_energy">   -329.67986187 </i>
   </energy>
  </scstep>
  <scstep>
   <time name="dav">    3.87    3.87</time>
   <time name="total">    4.23    4.23</time>
   <energy>
    <i name="e_fr_energy">   -257.06752900 </i>
    <i name="e_wo_entrp">   -256.46385035 </i>
    <i name="e_0_energy">   -256.76568967 </i>
   </energy>
  </scstep>
  <scstep>
   <time name="dav">    4.24    4.24</time>
   <time name="total">    4.61    4.61</time>
   <energy>
    <i name="e_fr_energy">   -292.61600955 </i>
    <i name="e_wo_entrp">   -291.93026881 </i>
    <i name="e_0_energy">   -292.27313918 </i>
   </energy>
  </scstep>
  <scstep>
   <time name="dav">    4.19    4.19</time>
   <time name="total">    4.61    4.61</time>
   <energy>
    <i name="e_fr_energy">   -259.07691955 </i>
    <i name="e_wo_entrp">   -258.36141669 </i>
    <i name="e_0_energy">   -258.71916812 </i>
   </energy>
  </scstep>
  <scstep>
   <time name="dav">    4.41    4.41</time>
   <time name="total">    4.78    4.78</time>
   <energy>
    <i name="e_fr_energy">   -273.08572083 </i>
    <i name="e_wo_entrp">   -272.36368723 </i>
    <i name="e_0_energy">   -272.72470403 </i>
   </energy>
  </scstep>
  <scstep>
   <time name="dav">    4.31    4.31</time>
   <time name="total">    4.68    4.68</time>
   <energy>
    <i name="e_fr_energy">   -255.10590455 </i>
    <i name="e_wo_entrp">   -254.44807827 </i>
    <i name="e_0_energy">   -254.77699141 </i>
   </energy>
  </scstep>
  <scstep>
   <time name="dav">    4.31    4.37</time>
   <time name="total">    4.69    4.75</time>
   <energy>
    <i name="e_fr_energy">   -250.25686880 </i>
    <i name="e_wo_entrp">   -249.52495313 </i>
    <i name="e_0_energy">   -249.89091096 </i>
   </energy>
  </scstep>
  <scstep>
   <time name="dav">    4.43    4.43</time>
   <time name="total">    4.80    4.80</time>
   <energy>
    <i name="e_fr_energy">   -249.17964805 </i>
    <i name="e_wo_entrp">   -248.51693968 </i>
    <i name="e_0_energy">   -248.84829387 </i>
   </energy>
  </scstep>
  <scstep>
   <time name="dav">    4.42    4.42</time>
   <time name="total">    4.80    4.80</time>
   <energy>
    <i name="e_fr_energy">   -247.51926898 </i>
    <i name="e_wo_entrp">   -246.80044731 </i>
    <i name="e_0_energy">   -247.15985814 </i>
   </energy>
  </scstep>
  <scstep>
   <time name="dav">    4.17    4.22</time>
   <time name="total">    4.72    4.77</time>
   <energy>
    <i name="e_fr_energy">   -247.03897433 </i>
    <i name="e_wo_entrp">   -246.33076398 </i>
    <i name="e_0_energy">   -246.68486916 </i>
   </energy>
  </scstep>
  <scstep>
   <time name="dav">    4.14    4.14</time>
   <time name="total">    4.53    4.53</time>
   <energy>
    <i name="e_fr_energy">   -246.82267496 </i>
    <i name="e_wo_entrp">   -246.10054026 </i>
    <i name="e_0_energy">   -246.46160761 </i>
   </energy>
  </scstep>
  <scstep>
   <time name="dav">    4.47    4.47</time>
   <time name="total">    4.84    4.84</time>
   <energy>
    <i name="e_fr_energy">   -246.57424998 </i>
    <i name="e_wo_entrp">   -245.85781906 </i>
    <i name="e_0_energy">   -246.21603452 </i>
   </energy>
  </scstep>
  <scstep>
   <time name="dav">    4.45    4.45</time>
   <time name="total">    4.82    4.82</time>
   <energy>
    <i name="e_fr_energy">   -246.22546901 </i>
    <i name="e_wo_entrp">   -245.50556446 </i>
    <i name="e_0_energy">   -245.86551673 </i>
   </energy>
  </scstep>
  <scstep>
   <time name="dav">    4.44    4.49</time>
   <time name="total">    4.82    4.88</time>
   <energy>
    <i name="e_fr_energy">   -245.94860407 </i>
    <i name="e_wo_entrp">   -245.21109467 </i>
    <i name="e_0_energy">   -245.57984937 </i>
   </energy>
  </scstep>
  <scstep>
   <time name="dav">    4.43    4.43</time>
   <time name="total">    4.80    4.80</time>
   <energy>
    <i name="e_fr_energy">   -245.94086884 </i>
    <i name="e_wo_entrp">   -245.19372848 </i>
    <i name="e_0_energy">   -245.56729866 </i>
   </energy>
  </scstep>
  <scstep>
   <time name="dav">    4.11    4.12</time>
   <time name="total">    4.50    4.50</time>
   <energy>
    <i name="e_fr_energy">   -245.91532733 </i>
    <i name="e_wo_entrp">   -245.16317797 </i>
    <i name="e_0_energy">   -245.53925265 </i>
   </energy>
  </scstep>
  <scstep>
   <time name="dav">    3.70    3.70</time>
   <time name="total">    4.17    4.18</time>
   <energy>
    <i name="e_fr_energy">   -245.90273368 </i>
    <i name="e_wo_entrp">   -245.15687500 </i>
    <i name="e_0_energy">   -245.52980434 </i>
   </energy>
  </scstep>
  <scstep>
   <time name="dav">    3.85    3.85</time>
   <time name="total">    4.29    4.29</time>
   <energy>
    <i name="e_fr_energy">   -245.91489147 </i>
    <i name="e_wo_entrp">   -245.16712662 </i>
    <i name="e_0_energy">   -245.54100904 </i>
   </energy>
  </scstep>
  <scstep>
   <time name="dav">    4.44    4.44</time>
   <time name="total">    4.81    4.82</time>
   <energy>
    <i name="e_fr_energy">   -245.89519813 </i>
    <i name="e_wo_entrp">   -245.15452681 </i>
    <i name="e_0_energy">   -245.52486247 </i>
   </energy>
  </scstep>
  <scstep>
   <time name="dav">    4.46    4.46</time>
   <time name="total">    4.83    4.83</time>
   <energy>
    <i name="e_fr_energy">   -245.88685833 </i>
    <i name="e_wo_entrp">   -245.14892422 </i>
    <i name="e_0_energy">   -245.51789127 </i>
   </energy>
  </scstep>
  <scstep>
   <time name="dav">    4.46    4.46</time>
   <time name="total">    4.84    4.84</time>
   <energy>
    <i name="e_fr_energy">   -245.88051487 </i>
    <i name="e_wo_entrp">   -245.14517239 </i>
    <i name="e_0_energy">   -245.51284363 </i>
   </energy>
  </scstep>
  <scstep>
   <time name="dav">    4.38    4.38</time>
   <time name="total">    4.76    4.76</time>
   <energy>
    <i name="e_fr_energy">   -245.88123254 </i>
    <i name="e_wo_entrp">   -245.14917547 </i>
    <i name="e_0_energy">   -245.51520400 </i>
   </energy>
  </scstep>
  <scstep>
   <time name="dav">    3.91    3.91</time>
   <time name="total">    4.29    4.29</time>
   <energy>
    <i name="e_fr_energy">   -245.88042026 </i>
    <i name="e_wo_entrp">   -245.14787021 </i>
    <i name="e_0_energy">   -245.51414523 </i>
   </energy>
  </scstep>
  <scstep>
   <time name="dav">    3.67    3.67</time>
   <time name="total">    4.06    4.06</time>
   <energy>
    <i name="e_fr_energy">   -245.88061669 </i>
    <i name="e_wo_entrp">   -245.14708235 </i>
    <i name="e_0_energy">   -245.51384952 </i>
   </energy>
  </scstep>
  <scstep>
   <time name="dav">    3.58    3.58</time>
   <time name="total">    3.96    3.96</time>
   <energy>
    <i name="e_fr_energy">   -245.88033338 </i>
    <i name="e_wo_entrp">   -245.14675292 </i>
    <i name="e_0_energy">   -245.51354315 </i>
   </energy>
  </scstep>
  <scstep>
   <time name="dav">    2.95    2.95</time>
   <time name="total">    3.33    3.33</time>
   <energy>
    <i name="e_fr_energy">   -245.88048700 </i>
    <i name="e_wo_entrp">   -245.14591086 </i>
    <i name="e_0_energy">   -245.51319893 </i>
   </energy>
  </scstep>
  <scstep>
   <time name="dav">    2.94    2.94</time>
   <time name="total">    3.33    3.33</time>
   <energy>
    <i name="e_fr_energy">   -245.88064399 </i>
    <i name="e_wo_entrp">   -245.14617482 </i>
    <i name="e_0_energy">   -245.51340941 </i>
   </energy>
  </scstep>
  <scstep>
   <time name="dav">    2.70    2.70</time>
   <time name="total">    3.09    3.09</time>
   <energy>
    <i name="e_fr_energy">   -245.88090876 </i>
    <i name="e_wo_entrp">   -245.14622496 </i>
    <i name="e_0_energy">   -245.51356686 </i>
   </energy>
  </scstep>
  <scstep>
   <time name="dav">    2.38    2.38</time>
   <time name="total">    2.75    2.76</time>
   <energy>
    <i name="e_fr_energy">   -245.88102338 </i>
    <i name="e_wo_entrp">   -245.14641793 </i>
    <i name="e_0_energy">   -245.51372065 </i>
   </energy>
  </scstep>
  <scstep>
   <time name="dav">    2.69    2.69</time>
   <time name="total">    3.07    3.07</time>
   <energy>
    <i name="e_fr_energy">   -245.88134509 </i>
    <i name="e_wo_entrp">   -245.14667100 </i>
    <i name="e_0_energy">   -245.51400804 </i>
   </energy>
  </scstep>
  <scstep>
   <time name="dav">    2.36    2.36</time>
   <time name="total">    2.75    2.75</time>
   <energy>
    <i name="e_fr_energy">   -245.88150052 </i>
    <i name="e_wo_entrp">   -245.14697527 </i>
    <i name="e_0_energy">   -245.51423790 </i>
   </energy>
  </scstep>
  <scstep>
   <time name="dav">    2.62    2.62</time>
   <time name="total">    3.02    3.02</time>
   <energy>
    <i name="e_fr_energy">   -245.88176784 </i>
    <i name="e_wo_entrp">   -245.14730293 </i>
    <i name="e_0_energy">   -245.51453539 </i>
   </energy>
  </scstep>
  <scstep>
   <time name="dav">    2.37    2.37</time>
   <time name="total">    2.88    2.88</time>
   <energy>
    <i name="e_fr_energy">   -245.88189612 </i>
    <i name="e_wo_entrp">   -245.14760934 </i>
    <i name="e_0_energy">   -245.51475273 </i>
   </energy>
  </scstep>
  <scstep>
   <time name="dav">    2.35    2.35</time>
   <time name="total">    2.78    2.78</time>
   <energy>
    <i name="e_fr_energy">   -245.88206083 </i>
    <i name="e_wo_entrp">   -245.14781239 </i>
    <i name="e_0_energy">   -245.51493661 </i>
   </energy>
  </scstep>
  <scstep>
   <time name="dav">    2.49    2.49</time>
   <time name="total">    2.89    2.89</time>
   <energy>
    <i name="e_fr_energy">   -245.88217637 </i>
    <i name="e_wo_entrp">   -245.14794857 </i>
    <i name="e_0_energy">   -245.51506247 </i>
   </energy>
  </scstep>
  <scstep>
   <time name="dav">    2.40    2.40</time>
   <time name="total">    2.79    2.79</time>
   <energy>
    <i name="e_fr_energy">   -245.88236224 </i>
    <i name="e_wo_entrp">   -245.14807287 </i>
    <i name="e_0_energy">   -245.51521755 </i>
   </energy>
  </scstep>
  <scstep>
   <time name="dav">    2.56    2.56</time>
   <time name="total">    2.79    2.79</time>
   <energy>
    <i name="alphaZ">   1046.73971423 </i>
    <i name="ewald"> 126122.21497971 </i>
    <i name="hartreedc">-212588.81881530 </i>
    <i name="XCdc">   2640.23795671 </i>
    <i name="pawpsdc"> 102449.61720352 </i>
    <i name="pawaedc">-106056.38110345 </i>
    <i name="eentropy">     -0.73428555 </i>
    <i name="bandstr"> -12082.86174599 </i>
    <i name="atom">  98224.10364994 </i>
    <i name="e_fr_energy">   -245.88244619 </i>
    <i name="e_wo_entrp">   -245.14816065 </i>
    <i name="e_0_energy">   -245.51530342 </i>
   </energy>
  </scstep>
  <structure>
   <crystal>
    <varray name="basis" >
     <v>      11.25646304       0.00000000       0.00000000 </v>
     <v>       0.00000000       9.57841000       0.00000000 </v>
     <v>       0.00000000       0.00000000      17.19249240 </v>
    </varray>
    <i name="volume">   1853.67765028 </i>
    <varray name="rec_basis" >
     <v>       0.08883785       0.00000000       0.00000000 </v>
     <v>       0.00000000       0.10440146       0.00000000 </v>
     <v>       0.00000000       0.00000000       0.05816492 </v>
    </varray>
   </crystal>
   <varray name="positions" >
    <v>       0.43933499       0.46388800       0.16283377 </v>
    <v>       0.46574002       0.48670941       0.31814295 </v>
    <v>       0.23676751       0.82777534       0.10432756 </v>
    <v>       0.20205225       0.97496589       0.23138178 </v>
    <v>       0.43933499       0.19968200       0.16283377 </v>
    <v>       0.49770839       0.22114236       0.33144880 </v>
    <v>       0.20831527       0.53408530       0.10303568 </v>
    <v>       0.20680429       0.69007046       0.23651792 </v>
    <v>       0.12488766       0.32772622       0.16108323 </v>
    <v>       0.18249164       0.33178500       0.31854512 </v>
    <v>       0.46470531       0.86761994       0.09176155 </v>
    <v>       0.38440915       0.83536097       0.22253567 </v>
    <v>       0.54168451       0.70392416       0.27637746 </v>
    <v>       0.93933499       0.46388800       0.16283377 </v>
    <v>       0.98930871       0.45771242       0.32576755 </v>
    <v>       0.65564462       0.00008156       0.11104501 </v>
    <v>       0.71526096       0.96388800       0.25253989 </v>
    <v>       0.92256231       0.17774137       0.19212417 </v>
    <v>       0.98847767       0.19758591       0.32864390 </v>
    <v>       0.65268823       0.67315430       0.10886161 </v>
    <v>       0.74311316       0.68558771       0.25101193 </v>
    <v>       0.63063970       0.33178500       0.13913288 </v>
    <v>       0.68249164       0.33178500       0.31854512 </v>
    <v>       0.02547075       0.67017590       0.10946217 </v>
    <v>       0.90991102       0.84050495       0.21251369 </v>
    <v>       0.84736530       0.83198691       0.34935963 </v>
    <v>       0.11148904       0.16357000       0.23893853 </v>
    <v>       0.12479537       0.20226130       0.40349129 </v>
    <v>       0.33556306       0.66357000       0.14923241 </v>
    <v>       0.36420207       0.67920259       0.31050461 </v>
    <v>       0.04746962       0.45057927       0.06867283 </v>
    <v>       0.11148904       0.50000000       0.23893853 </v>
    <v>       0.12610569       0.47200459       0.39918482 </v>
    <v>       0.33556306       1.00000000       0.14923241 </v>
    <v>       0.30300041       0.33913207       0.11512278 </v>
    <v>       0.36788880       0.33178500       0.26911836 </v>
    <v>       0.15587276       0.69475494       0.02689342 </v>
    <v>       0.09196284       0.83178500       0.17941224 </v>
    <v>       0.55842287       0.16998447       0.07476036 </v>
    <v>       0.61148904       0.16357000       0.23893853 </v>
    <v>       0.65383746       0.15218120       0.38154762 </v>
    <v>       0.83556306       0.66357000       0.14923241 </v>
    <v>       0.56336275       0.49508863       0.07524238 </v>
    <v>       0.61148904       0.50000000       0.23893853 </v>
    <v>       0.55696363       0.38336231       0.40192781 </v>
    <v>       0.83556306       1.00000000       0.14923241 </v>
    <v>       0.89164555       0.01477809       0.29682137 </v>
    <v>       0.81675323       0.31286151       0.12093522 </v>
    <v>       0.86788880       0.33178500       0.26911836 </v>
    <v>       0.62013518       0.83909138       0.03145591 </v>
    <v>       0.59196284       0.83178500       0.17941224 </v>
    <v>       0.67055904       0.81360097       0.33975437 </v>
   </varray>
  </structure>
  <varray name="forces" >
   <v>       0.00179301       0.01359656       1.75440900 </v>
   <v>      -0.61878946       1.49750969       0.07931796 </v>
   <v>       0.15944452       1.46017738      -1.45482780 </v>
   <v>      -0.14946186       0.10598078       0.46609300 </v>
   <v>      -1.19752900      -0.09289703       1.50121051 </v>
   <v>      -1.96231940      -1.23338957      -0.22722809 </v>
   <v>       0.80059263      -0.73197649       0.02199540 </v>
   <v>      -0.09279592       0.22779296       1.11263623 </v>
   <v>       0.11694611      -0.51908128      -0.76488412 </v>
   <v>       1.80055045      -0.31267467      -2.66286745 </v>
   <v>      -0.86508200      -0.01526344      -0.25139087 </v>
   <v>       0.57219275       0.58017320       0.79656873 </v>
   <v>      -0.16502813      -0.35438926       0.29540617 </v>
   <v>      -1.48550162      -0.22300581       2.73824967 </v>
   <v>      -1.46370605       0.97249173      -0.05368289 </v>
   <v>       0.56512416       0.15963715      -0.49492073 </v>
   <v>       0.11312154       0.79392986      -1.18345969 </v>
   <v>       0.70031424       0.16977858      -0.81606089 </v>
   <v>      -1.11231010      -0.36821712       0.25140955 </v>
   <v>       0.98319514      -0.14969283      -0.49623347 </v>
   <v>      -0.13605806      -1.08694232       0.24817127 </v>
   <v>       0.75368256      -0.19210801       1.46642752 </v>
   <v>       2.19513685       1.57310830      -1.59300883 </v>
   <v>      -1.91611355      -0.11584464      -0.06083075 </v>
   <v>       0.57887925      -0.95441013      -0.00762693 </v>
   <v>       1.27175048      -0.99287139       0.83410724 </v>
   <v>       1.16326904      -1.25218027      -0.97281424 </v>
   <v>       0.94447791      -0.84467876       3.65846119 </v>
   <v>       3.18345982      -0.81588454      -0.97309111 </v>
   <v>      -0.98790919       0.25924868       2.40822504 </v>
   <v>      -0.68378198      -0.71868532      -3.08925710 </v>
   <v>       0.07166239       0.75284869       0.26682225 </v>
   <v>       0.70011810       1.21650858       3.22980416 </v>
   <v>       1.05124916       2.70620922      -0.59237093 </v>
   <v>      -0.55390537      -1.48907289      -2.18979708 </v>
   <v>      -2.19372946      -1.16717877      -0.29931088 </v>
   <v>       0.31494938       0.49949766      -4.03727981 </v>
   <v>      -2.01536211       0.87430084       1.95156154 </v>
   <v>       0.07762598      -0.10740038      -2.58672034 </v>
   <v>       0.10257440      -0.46449288      -0.85967891 </v>
   <v>       0.93234627      -1.93708123       2.49051159 </v>
   <v>       1.30383428      -0.98678150      -1.18113097 </v>
   <v>      -0.24712701       0.41282398      -3.24747757 </v>
   <v>       1.85471601       0.06701122       0.10418603 </v>
   <v>       0.33667994       0.59024512       3.57170814 </v>
   <v>      -0.22916832       0.61355744      -2.25488225 </v>
   <v>       0.36419820      -0.23759383       1.70486693 </v>
   <v>      -0.32565226      -0.06530448      -2.01751120 </v>
   <v>      -2.70845870       1.57197974       1.42175046 </v>
   <v>       0.57085453      -0.36385500      -3.29182051 </v>
   <v>      -1.34225441       0.19355059       2.24673869 </v>
   <v>      -1.13269512       0.48099587       3.03952711 </v>
  </varray>
  <varray name="stress" >
   <v>      85.24987461       2.59660321       0.37371829 </v>
   <v>       2.59660312      81.43839359       0.16863089 </v>
   <v>       0.37371822       0.16863092      87.66370358 </v>
  </varray>
  <energy>
   <i name="e_fr_energy">   -245.88244619 </i>
   <i name="e_wo_entrp">   -245.51530342 </i>
   <i name="e_0_energy">     -0.73428555 </i>
  </energy>
  <time name="totalsc">  173.74  173.95</time>
  <eigenvalues>
   <array>
    <dimension dim="1">band</dimension>
    <dimension dim="2">kpoint</dimension>
    <dimension dim="3">spin</dimension>
    <field>eigene</field>
    <field>occ</field>
    <set>
     <set comment="spin 1">
      <set comment="kpoint 1">
       <r>  -64.8940    1.0000 </r>
       <r>  -64.8354    1.0000 </r>
       <r>  -64.7907    1.0000 </r>
       <r>  -64.7378    1.0000 </r>
       <r>  -64.6930    1.0000 </r>
       <r>  -64.6792    1.0000 </r>
       <r>  -64.6573    1.0000 </r>
       <r>  -64.6444    1.0000 </r>
       <r>  -64.6294    1.0000 </r>
       <r>  -64.6257    1.0000 </r>
       <r>  -64.6202    1.0000 </r>
       <r>  -64.6138    1.0000 </r>
       <r>  -64.6134    1.0000 </r>
       <r>  -64.6025    1.0000 </r>
       <r>  -64.5969    1.0000 </r>
       <r>  -64.5933    1.0000 </r>
       <r>  -64.5924    1.0000 </r>
       <r>  -64.5819    1.0000 </r>
       <r>  -64.5721    1.0000 </r>
       <r>  -64.5588    1.0000 </r>
       <r>  -64.5570    1.0000 </r>
       <r>  -64.5428    1.0000 </r>
       <r>  -64.5268    1.0000 </r>
       <r>  -64.5182    1.0000 </r>
       <r>  -64.5020    1.0000 </r>
       <r>  -64.4869    1.0000 </r>
       <r>  -64.4835    1.0000 </r>
       <r>  -64.4833    1.0000 </r>
       <r>  -64.4796    1.0000 </r>
       <r>  -64.4764    1.0000 </r>
       <r>  -64.4737    1.0000 </r>
       <r>  -64.4705    1.0000 </r>
       <r>  -64.4582    1.0000 </r>
       <r>  -64.4495    1.0000 </r>
       <r>  -64.4472    1.0000 </r>
       <r>  -64.4458    1.0000 </r>
       <r>  -64.4315    1.0000 </r>
       <r>  -64.4194    1.0000 </r>
       <r>  -64.4138    1.0000 </r>
       <r>  -64.4026    1.0000 </r>
       <r>  -64.3855    1.0000 </r>
       <r>  -64.3794    1.0000 </r>
       <r>  -64.3751    1.0000 </r>
       <r>  -64.3626    1.0000 </r>
       <r>  -64.3612    1.0000 </r>
       <r>  -64.3502    1.0000 </r>
       <r>  -64.3452    1.0000 </r>
       <r>  -64.2894    1.0000 </r>
       <r>  -64.2678    1.0000 </r>
       <r>  -64.2516    1.0000 </r>
       <r>  -64.2498    1.0000 </r>
       <r>  -64.2461    1.0000 </r>
       <r>  -64.2380    1.0000 </r>
       <r>  -64.2248    1.0000 </r>
       <r>  -64.2131    1.0000 </r>
       <r>  -64.2088    1.0000 </r>
       <r>  -64.2015    1.0000 </r>
       <r>  -64.1810    1.0000 </r>
       <r>  -64.1691    1.0000 </r>
       <r>  -64.1654    1.0000 </r>
       <r>  -64.1498    1.0000 </r>
       <r>  -64.1311    1.0000 </r>
       <r>  -64.1166    1.0000 </r>
       <r>  -64.1123    1.0000 </r>
       <r>  -64.1037    1.0000 </r>
       <r>  -64.1022    1.0000 </r>
       <r>  -64.0887    1.0000 </r>
       <r>  -64.0455    1.0000 </r>
       <r>  -64.0150    1.0000 </r>
       <r>  -63.9160    1.0000 </r>
       <r>  -63.8229    1.0000 </r>
       <r>  -63.7559    1.0000 </r>
       <r>  -63.7408    1.0000 </r>
       <r>  -63.7227    1.0000 </r>
       <r>  -63.7151    1.0000 </r>
       <r>  -63.5867    1.0000 </r>
       <r>  -63.4639    1.0000 </r>
       <r>  -63.1672    1.0000 </r>
       <r>  -16.7312    1.0000 </r>
       <r>  -16.2701    1.0000 </r>
       <r>  -16.1445    1.0000 </r>
       <r>  -15.9400    1.0000 </r>
       <r>  -15.5999    1.0000 </r>
       <r>  -15.2486    1.0000 </r>
       <r>  -15.2338    1.0000 </r>
       <r>  -15.1340    1.0000 </r>
       <r>  -15.0765    1.0000 </r>
       <r>  -14.9822    1.0000 </r>
       <r>  -14.7830    1.0000 </r>
       <r>  -14.6337    1.0000 </r>
       <r>  -14.6128    1.0000 </r>
       <r>  -14.4848    1.0000 </r>
       <r>  -14.4789    1.0000 </r>
       <r>  -14.1665    1.0000 </r>
       <r>  -14.0981    1.0000 </r>
       <r>  -13.9839    1.0000 </r>
       <r>  -13.8802    1.0000 </r>
       <r>  -13.7393    1.0000 </r>
       <r>  -13.5881    1.0000 </r>
       <r>  -13.5468    1.0000 </r>
       <r>  -13.4628    1.0000 </r>
       <r>  -13.2507    1.0000 </r>
       <r>  -12.7817    1.0000 </r>
       <r>  -12.7390    1.0000 </r>
       <r>   -8.3825    1.0000 </r>
       <r>   -8.2518    1.0000 </r>
       <r>   -8.1659    1.0000 </r>
       <r>   -8.0123    1.0000 </r>
       <r>   -7.9178    1.0000 </r>
       <r>   -7.8015    1.0000 </r>
       <r>   -7.7467    1.0000 </r>
       <r>   -7.5992    1.0000 </r>
       <r>   -7.5433    1.0000 </r>
       <r>   -7.4044    1.0000 </r>
       <r>   -7.3343    1.0000 </r>
       <r>   -7.2193    1.0000 </r>
       <r>   -7.1536    1.0000 </r>
       <r>   -7.1411    1.0000 </r>
       <r>   -7.1094    1.0000 </r>
       <r>   -7.0190    1.0000 </r>
       <r>   -6.8515    1.0000 </r>
       <r>   -6.8411    1.0000 </r>
       <r>   -6.7433    1.0000 </r>
       <r>   -6.6693    1.0000 </r>
       <r>   -6.5933    1.0000 </r>
       <r>   -6.5425    1.0000 </r>
       <r>   -6.5239    1.0000 </r>
       <r>   -6.4479    1.0000 </r>
       <r>   -6.3622    1.0000 </r>
       <r>   -6.3349    1.0000 </r>
       <r>   -6.2627    1.0000 </r>
       <r>   -6.1909    1.0000 </r>
       <r>   -6.0128    1.0000 </r>
       <r>   -5.9520    1.0000 </r>
       <r>   -5.9260    1.0000 </r>
       <r>   -5.8866    1.0000 </r>
       <r>   -5.8058    1.0000 </r>
       <r>   -5.7864    1.0000 </r>
       <r>   -5.7221    1.0000 </r>
       <r>   -5.6802    1.0000 </r>
       <r>   -5.6322    1.0000 </r>
       <r>   -5.6289    1.0000 </r>
       <r>   -5.5713    1.0000 </r>
       <r>   -5.5386    1.0000 </r>
       <r>   -5.4554    1.0000 </r>
       <r>   -5.3840    1.0000 </r>
       <r>   -5.3302    1.0000 </r>
       <r>   -5.3131    1.0000 </r>
       <r>   -5.2737    1.0000 </r>
       <r>   -5.2193    1.0000 </r>
       <r>   -5.2119    1.0000 </r>
       <r>   -5.1639    1.0000 </r>
       <r>   -5.0957    1.0000 </r>
       <r>   -5.0384    1.0000 </r>
       <r>   -5.0106    1.0000 </r>
       <r>   -4.9805    1.0000 </r>
       <r>   -4.9340    1.0000 </r>
       <r>   -4.8827    1.0000 </r>
       <r>   -4.8655    1.0000 </r>
       <r>   -4.7719    1.0000 </r>
       <r>   -4.7279    1.0000 </r>
       <r>   -4.7081    1.0000 </r>
       <r>   -4.6544    1.0000 </r>
       <r>   -4.6431    1.0000 </r>
       <r>   -4.5982    1.0000 </r>
       <r>   -4.5458    1.0000 </r>
       <r>   -4.5353    1.0000 </r>
       <r>   -4.3522    1.0000 </r>
       <r>   -4.3147    1.0000 </r>
       <r>   -4.2550    1.0000 </r>
       <r>   -4.2137    1.0000 </r>
       <r>   -4.1146    1.0000 </r>
       <r>   -4.0314    1.0000 </r>
       <r>   -4.0087    1.0000 </r>
       <r>   -3.9374    1.0000 </r>
       <r>   -3.8797    1.0000 </r>
       <r>   -3.8268    1.0000 </r>
       <r>   -3.7396    1.0000 </r>
       <r>   -3.7016    1.0000 </r>
       <r>   -3.6693    1.0000 </r>
       <r>   -3.6024    1.0000 </r>
       <r>   -3.5270    1.0000 </r>
       <r>   -3.4910    1.0000 </r>
       <r>   -3.4473    1.0000 </r>
       <r>   -3.4316    1.0000 </r>
       <r>   -3.3865    1.0000 </r>
       <r>   -3.3534    1.0000 </r>
       <r>   -3.2731    1.0000 </r>
       <r>   -3.2531    1.0000 </r>
       <r>   -3.2494    1.0000 </r>
       <r>   -3.1347    1.0000 </r>
       <r>   -3.1301    1.0000 </r>
       <r>   -3.0871    1.0000 </r>
       <r>   -3.0659    1.0000 </r>
       <r>   -3.0208    1.0000 </r>
       <r>   -2.9877    1.0000 </r>
       <r>   -2.9747    1.0000 </r>
       <r>   -2.9232    1.0000 </r>
       <r>   -2.8999    1.0000 </r>
       <r>   -2.8858    1.0000 </r>
       <r>   -2.8353    1.0000 </r>
       <r>   -2.8012    1.0000 </r>
       <r>   -2.7564    1.0000 </r>
       <r>   -2.7293    1.0000 </r>
       <r>   -2.7048    1.0000 </r>
       <r>   -2.6845    1.0000 </r>
       <r>   -2.6471    1.0000 </r>
       <r>   -2.6211    1.0000 </r>
       <r>   -2.5958    1.0000 </r>
       <r>   -2.5877    1.0000 </r>
       <r>   -2.5671    1.0000 </r>
       <r>   -2.4833    1.0000 </r>
       <r>   -2.4785    1.0000 </r>
       <r>   -2.4639    1.0000 </r>
       <r>   -2.4462    1.0000 </r>
       <r>   -2.4398    1.0000 </r>
       <r>   -2.4289    1.0000 </r>
       <r>   -2.4019    1.0000 </r>
       <r>   -2.3434    1.0000 </r>
       <r>   -2.3157    1.0000 </r>
       <r>   -2.2989    1.0000 </r>
       <r>   -2.2747    1.0000 </r>
       <r>   -2.2286    1.0000 </r>
       <r>   -2.2103    1.0000 </r>
       <r>   -2.1878    1.0000 </r>
       <r>   -2.1723    1.0000 </r>
       <r>   -2.1495    1.0000 </r>
       <r>   -2.1462    1.0000 </r>
       <r>   -2.1238    1.0000 </r>
       <r>   -2.1015    1.0000 </r>
       <r>   -2.0718    1.0000 </r>
       <r>   -2.0495    1.0000 </r>
       <r>   -2.0382    1.0000 </r>
       <r>   -2.0317    1.0000 </r>
       <r>   -2.0009    1.0000 </r>
       <r>   -1.9714    1.0000 </r>
       <r>   -1.9373    1.0000 </r>
       <r>   -1.9271    1.0000 </r>
       <r>   -1.9025    1.0000 </r>
       <r>   -1.8770    1.0000 </r>
       <r>   -1.8729    1.0000 </r>
       <r>   -1.8449    1.0000 </r>
       <r>   -1.8187    1.0000 </r>
       <r>   -1.7748    1.0000 </r>
       <r>   -1.7658    1.0000 </r>
       <r>   -1.7279    1.0000 </r>
       <r>   -1.7033    1.0000 </r>
       <r>   -1.6868    1.0000 </r>
       <r>   -1.6654    1.0000 </r>
       <r>   -1.6113    1.0000 </r>
       <r>   -1.5988    1.0000 </r>
       <r>   -1.5708    1.0000 </r>
       <r>   -1.5442    1.0000 </r>
       <r>   -1.5346    1.0000 </r>
       <r>   -1.4790    1.0000 </r>
       <r>   -1.4195    1.0000 </r>
       <r>   -1.4158    1.0000 </r>
       <r>   -1.3875    1.0000 </r>
       <r>   -1.3254    1.0000 </r>
       <r>   -1.3187    1.0000 </r>
       <r>   -1.2892    1.0000 </r>
       <r>   -1.2263    1.0000 </r>
       <r>   -1.1915    1.0000 </r>
       <r>   -1.1773    1.0000 </r>
       <r>   -1.1642    1.0000 </r>
       <r>   -1.0862    1.0000 </r>
       <r>   -1.0811    1.0000 </r>
       <r>   -1.0421    1.0000 </r>
       <r>   -0.9837    1.0000 </r>
       <r>   -0.9712    1.0000 </r>
       <r>   -0.9083    1.0000 </r>
       <r>   -0.8855    1.0000 </r>
       <r>   -0.8129    1.0000 </r>
       <r>   -0.7785    1.0000 </r>
       <r>   -0.7683    1.0000 </r>
       <r>   -0.7469    1.0000 </r>
       <r>   -0.6772    0.9999 </r>
       <r>   -0.5938    0.9993 </r>
       <r>   -0.5744    0.9989 </r>
       <r>   -0.4834    0.9921 </r>
       <r>   -0.4373    0.9817 </r>
       <r>   -0.3712    0.9476 </r>
       <r>   -0.3328    0.9116 </r>
       <r>   -0.3272    0.9050 </r>
       <r>   -0.2307    0.7351 </r>
       <r>   -0.1171    0.4307 </r>
       <r>   -0.1055    0.3987 </r>
       <r>   -0.0783    0.3266 </r>
       <r>   -0.0201    0.1947 </r>
       <r>    0.0331    0.1081 </r>
       <r>    0.0915    0.0495 </r>
       <r>    0.1749    0.0126 </r>
       <r>    0.2152    0.0058 </r>
       <r>    0.2733    0.0017 </r>
       <r>    0.3246    0.0005 </r>
       <r>    0.4211    0.0000 </r>
       <r>    0.5389    0.0000 </r>
       <r>    0.5600    0.0000 </r>
       <r>    0.6132    0.0000 </r>
       <r>    0.6436    0.0000 </r>
       <r>    0.7293    0.0000 </r>
       <r>    0.8595    0.0000 </r>
       <r>    0.9004    0.0000 </r>
       <r>    0.9776    0.0000 </r>
       <r>    1.0423    0.0000 </r>
       <r>    1.0806    0.0000 </r>
       <r>    1.1649    0.0000 </r>
       <r>    1.2508    0.0000 </r>
       <r>    1.3103    0.0000 </r>
       <r>    1.4865    0.0000 </r>
       <r>    1.6600    0.0000 </r>
       <r>    1.7974    0.0000 </r>
       <r>    2.1616    0.0000 </r>
       <r>    2.7692    0.0000 </r>
       <r>    3.3249    0.0000 </r>
       <r>    3.5510    0.0000 </r>
       <r>    3.7218    0.0000 </r>
       <r>    3.8355    0.0000 </r>
       <r>    4.0270    0.0000 </r>
       <r>    4.1315    0.0000 </r>
       <r>    4.2690    0.0000 </r>
       <r>    4.3572    0.0000 </r>
       <r>    4.3643    0.0000 </r>
       <r>    4.5761    0.0000 </r>
       <r>    4.6294    0.0000 </r>
       <r>    4.6777    0.0000 </r>
       <r>    4.7332    0.0000 </r>
       <r>    4.7625    0.0000 </r>
       <r>    4.7981    0.0000 </r>
       <r>    4.9269    0.0000 </r>
       <r>    5.0215    0.0000 </r>
       <r>    5.0780    0.0000 </r>
       <r>    5.1438    0.0000 </r>
       <r>    5.1537    0.0000 </r>
       <r>    5.1997    0.0000 </r>
       <r>    5.2716    0.0000 </r>
       <r>    5.3516    0.0000 </r>
       <r>    5.4216    0.0000 </r>
       <r>    5.5170    0.0000 </r>
       <r>    5.5758    0.0000 </r>
       <r>    5.6117    0.0000 </r>
       <r>    5.6540    0.0000 </r>
       <r>    5.7198    0.0000 </r>
       <r>    5.7572    0.0000 </r>
      </set>
     </set>
    </set>
   </array>
  </eigenvalues>
  <separator name="orbital magnetization" >
   <v name="MAGDIPOLOUT">      0.00000000      0.00000000      0.00000000</v>
  </separator>
  <dos>
   <i name="efermi">     -0.14181837 </i>
   <total>
    <array>
     <dimension dim="1">gridpoints</dimension>
     <dimension dim="2">spin</dimension>
     <field>energy</field>
     <field>total</field>
     <field>integrated</field>
     <set>
      <set comment="spin 1">
       <r>   -68.4266     0.0000     0.0000 </r>
       <r>   -68.1675     0.0000     0.0000 </r>
       <r>   -67.9085     0.0000     0.0000 </r>
       <r>   -67.6494     0.0000     0.0000 </r>
       <r>   -67.3904     0.0000     0.0000 </r>
       <r>   -67.1313     0.0000     0.0000 </r>
       <r>   -66.8723     0.0000     0.0000 </r>
       <r>   -66.6132     0.0000     0.0000 </r>
       <r>   -66.3542     0.0000     0.0000 </r>
       <r>   -66.0951     0.0000     0.0000 </r>
       <r>   -65.8360     0.0000     0.0000 </r>
       <r>   -65.5770     0.0000     0.0000 </r>
       <r>   -65.3179     0.0140     0.0036 </r>
       <r>   -65.0589     1.8424     0.4809 </r>
       <r>   -64.7998    29.9111     8.2295 </r>
       <r>   -64.5408   141.7731    44.9565 </r>
       <r>   -64.2817   199.9843    96.7633 </r>
       <r>   -64.0227   131.7178   130.8854 </r>
       <r>   -63.7636    52.0959   144.3811 </r>
       <r>   -63.5046    28.5253   151.7707 </r>
       <r>   -63.2455    10.2999   154.4389 </r>
       <r>   -62.9864     5.2463   155.7980 </r>
       <r>   -62.7274     0.7724   155.9981 </r>
       <r>   -62.4683     0.0072   156.0000 </r>
       <r>   -62.2093     0.0000   156.0000 </r>
       <r>   -61.9502     0.0000   156.0000 </r>
       <r>   -61.6912     0.0000   156.0000 </r>
       <r>   -61.4321     0.0000   156.0000 </r>
       <r>   -61.1731     0.0000   156.0000 </r>
       <r>   -60.9140     0.0000   156.0000 </r>
       <r>   -60.6550     0.0000   156.0000 </r>
       <r>   -60.3959     0.0000   156.0000 </r>
       <r>   -60.1368     0.0000   156.0000 </r>
       <r>   -59.8778     0.0000   156.0000 </r>
       <r>   -59.6187     0.0000   156.0000 </r>
       <r>   -59.3597     0.0000   156.0000 </r>
       <r>   -59.1006     0.0000   156.0000 </r>
       <r>   -58.8416     0.0000   156.0000 </r>
       <r>   -58.5825     0.0000   156.0000 </r>
       <r>   -58.3235     0.0000   156.0000 </r>
       <r>   -58.0644     0.0000   156.0000 </r>
       <r>   -57.8054     0.0000   156.0000 </r>
       <r>   -57.5463     0.0000   156.0000 </r>
       <r>   -57.2872     0.0000   156.0000 </r>
       <r>   -57.0282     0.0000   156.0000 </r>
       <r>   -56.7691     0.0000   156.0000 </r>
       <r>   -56.5101     0.0000   156.0000 </r>
       <r>   -56.2510     0.0000   156.0000 </r>
       <r>   -55.9920     0.0000   156.0000 </r>
       <r>   -55.7329     0.0000   156.0000 </r>
       <r>   -55.4739     0.0000   156.0000 </r>
       <r>   -55.2148     0.0000   156.0000 </r>
       <r>   -54.9558     0.0000   156.0000 </r>
       <r>   -54.6967     0.0000   156.0000 </r>
       <r>   -54.4376     0.0000   156.0000 </r>
       <r>   -54.1786     0.0000   156.0000 </r>
       <r>   -53.9195     0.0000   156.0000 </r>
       <r>   -53.6605     0.0000   156.0000 </r>
       <r>   -53.4014     0.0000   156.0000 </r>
       <r>   -53.1424     0.0000   156.0000 </r>
       <r>   -52.8833     0.0000   156.0000 </r>
       <r>   -52.6243     0.0000   156.0000 </r>
       <r>   -52.3652     0.0000   156.0000 </r>
       <r>   -52.1062     0.0000   156.0000 </r>
       <r>   -51.8471     0.0000   156.0000 </r>
       <r>   -51.5880     0.0000   156.0000 </r>
       <r>   -51.3290     0.0000   156.0000 </r>
       <r>   -51.0699     0.0000   156.0000 </r>
       <r>   -50.8109     0.0000   156.0000 </r>
       <r>   -50.5518     0.0000   156.0000 </r>
       <r>   -50.2928     0.0000   156.0000 </r>
       <r>   -50.0337     0.0000   156.0000 </r>
       <r>   -49.7747     0.0000   156.0000 </r>
       <r>   -49.5156     0.0000   156.0000 </r>
       <r>   -49.2566     0.0000   156.0000 </r>
       <r>   -48.9975     0.0000   156.0000 </r>
       <r>   -48.7384     0.0000   156.0000 </r>
       <r>   -48.4794     0.0000   156.0000 </r>
       <r>   -48.2203     0.0000   156.0000 </r>
       <r>   -47.9613     0.0000   156.0000 </r>
       <r>   -47.7022     0.0000   156.0000 </r>
       <r>   -47.4432     0.0000   156.0000 </r>
       <r>   -47.1841     0.0000   156.0000 </r>
       <r>   -46.9251     0.0000   156.0000 </r>
       <r>   -46.6660     0.0000   156.0000 </r>
       <r>   -46.4070     0.0000   156.0000 </r>
       <r>   -46.1479     0.0000   156.0000 </r>
       <r>   -45.8888     0.0000   156.0000 </r>
       <r>   -45.6298     0.0000   156.0000 </r>
       <r>   -45.3707     0.0000   156.0000 </r>
       <r>   -45.1117     0.0000   156.0000 </r>
       <r>   -44.8526     0.0000   156.0000 </r>
       <r>   -44.5936     0.0000   156.0000 </r>
       <r>   -44.3345     0.0000   156.0000 </r>
       <r>   -44.0755     0.0000   156.0000 </r>
       <r>   -43.8164     0.0000   156.0000 </r>
       <r>   -43.5574     0.0000   156.0000 </r>
       <r>   -43.2983     0.0000   156.0000 </r>
       <r>   -43.0392     0.0000   156.0000 </r>
       <r>   -42.7802     0.0000   156.0000 </r>
       <r>   -42.5211     0.0000   156.0000 </r>
       <r>   -42.2621     0.0000   156.0000 </r>
       <r>   -42.0030     0.0000   156.0000 </r>
       <r>   -41.7440     0.0000   156.0000 </r>
       <r>   -41.4849     0.0000   156.0000 </r>
       <r>   -41.2259     0.0000   156.0000 </r>
       <r>   -40.9668     0.0000   156.0000 </r>
       <r>   -40.7078     0.0000   156.0000 </r>
       <r>   -40.4487     0.0000   156.0000 </r>
       <r>   -40.1896     0.0000   156.0000 </r>
       <r>   -39.9306     0.0000   156.0000 </r>
       <r>   -39.6715     0.0000   156.0000 </r>
       <r>   -39.4125     0.0000   156.0000 </r>
       <r>   -39.1534     0.0000   156.0000 </r>
       <r>   -38.8944     0.0000   156.0000 </r>
       <r>   -38.6353     0.0000   156.0000 </r>
       <r>   -38.3763     0.0000   156.0000 </r>
       <r>   -38.1172     0.0000   156.0000 </r>
       <r>   -37.8582     0.0000   156.0000 </r>
       <r>   -37.5991     0.0000   156.0000 </r>
       <r>   -37.3400     0.0000   156.0000 </r>
       <r>   -37.0810     0.0000   156.0000 </r>
       <r>   -36.8219     0.0000   156.0000 </r>
       <r>   -36.5629     0.0000   156.0000 </r>
       <r>   -36.3038     0.0000   156.0000 </r>
       <r>   -36.0448     0.0000   156.0000 </r>
       <r>   -35.7857     0.0000   156.0000 </r>
       <r>   -35.5267     0.0000   156.0000 </r>
       <r>   -35.2676     0.0000   156.0000 </r>
       <r>   -35.0086     0.0000   156.0000 </r>
       <r>   -34.7495     0.0000   156.0000 </r>
       <r>   -34.4904     0.0000   156.0000 </r>
       <r>   -34.2314     0.0000   156.0000 </r>
       <r>   -33.9723     0.0000   156.0000 </r>
       <r>   -33.7133     0.0000   156.0000 </r>
       <r>   -33.4542     0.0000   156.0000 </r>
       <r>   -33.1952     0.0000   156.0000 </r>
       <r>   -32.9361     0.0000   156.0000 </r>
       <r>   -32.6771     0.0000   156.0000 </r>
       <r>   -32.4180     0.0000   156.0000 </r>
       <r>   -32.1590     0.0000   156.0000 </r>
       <r>   -31.8999     0.0000   156.0000 </r>
       <r>   -31.6408     0.0000   156.0000 </r>
       <r>   -31.3818     0.0000   156.0000 </r>
       <r>   -31.1227     0.0000   156.0000 </r>
       <r>   -30.8637     0.0000   156.0000 </r>
       <r>   -30.6046     0.0000   156.0000 </r>
       <r>   -30.3456     0.0000   156.0000 </r>
       <r>   -30.0865     0.0000   156.0000 </r>
       <r>   -29.8275     0.0000   156.0000 </r>
       <r>   -29.5684     0.0000   156.0000 </r>
       <r>   -29.3094     0.0000   156.0000 </r>
       <r>   -29.0503     0.0000   156.0000 </r>
       <r>   -28.7912     0.0000   156.0000 </r>
       <r>   -28.5322     0.0000   156.0000 </r>
       <r>   -28.2731     0.0000   156.0000 </r>
       <r>   -28.0141     0.0000   156.0000 </r>
       <r>   -27.7550     0.0000   156.0000 </r>
       <r>   -27.4960     0.0000   156.0000 </r>
       <r>   -27.2369     0.0000   156.0000 </r>
       <r>   -26.9779     0.0000   156.0000 </r>
       <r>   -26.7188     0.0000   156.0000 </r>
       <r>   -26.4598     0.0000   156.0000 </r>
       <r>   -26.2007     0.0000   156.0000 </r>
       <r>   -25.9416     0.0000   156.0000 </r>
       <r>   -25.6826     0.0000   156.0000 </r>
       <r>   -25.4235     0.0000   156.0000 </r>
       <r>   -25.1645     0.0000   156.0000 </r>
       <r>   -24.9054     0.0000   156.0000 </r>
       <r>   -24.6464     0.0000   156.0000 </r>
       <r>   -24.3873     0.0000   156.0000 </r>
       <r>   -24.1283     0.0000   156.0000 </r>
       <r>   -23.8692     0.0000   156.0000 </r>
       <r>   -23.6102     0.0000   156.0000 </r>
       <r>   -23.3511     0.0000   156.0000 </r>
       <r>   -23.0920     0.0000   156.0000 </r>
       <r>   -22.8330     0.0000   156.0000 </r>
       <r>   -22.5739     0.0000   156.0000 </r>
       <r>   -22.3149     0.0000   156.0000 </r>
       <r>   -22.0558     0.0000   156.0000 </r>
       <r>   -21.7968     0.0000   156.0000 </r>
       <r>   -21.5377     0.0000   156.0000 </r>
       <r>   -21.2787     0.0000   156.0000 </r>
       <r>   -21.0196     0.0000   156.0000 </r>
       <r>   -20.7606     0.0000   156.0000 </r>
       <r>   -20.5015     0.0000   156.0000 </r>
       <r>   -20.2424     0.0000   156.0000 </r>
       <r>   -19.9834     0.0000   156.0000 </r>
       <r>   -19.7243     0.0000   156.0000 </r>
       <r>   -19.4653     0.0000   156.0000 </r>
       <r>   -19.2062     0.0000   156.0000 </r>
       <r>   -18.9472     0.0000   156.0000 </r>
       <r>   -18.6881     0.0000   156.0000 </r>
       <r>   -18.4291     0.0000   156.0000 </r>
       <r>   -18.1700     0.0000   156.0000 </r>
       <r>   -17.9110     0.0000   156.0000 </r>
       <r>   -17.6519     0.0000   156.0000 </r>
       <r>   -17.3928     0.0000   156.0000 </r>
       <r>   -17.1338     0.0170   156.0044 </r>
       <r>   -16.8747     1.1801   156.3101 </r>
       <r>   -16.6157     4.9844   157.6014 </r>
       <r>   -16.3566     4.1224   158.6693 </r>
       <r>   -16.0976    10.1662   161.3029 </r>
       <r>   -15.8385     8.8126   163.5858 </r>
       <r>   -15.5795     5.9985   165.1398 </r>
       <r>   -15.3204     8.6974   167.3929 </r>
       <r>   -15.0614    20.4784   172.6979 </r>
       <r>   -14.8023    16.8878   177.0727 </r>
       <r>   -14.5432    19.4075   182.1003 </r>
       <r>   -14.2842    16.1066   186.2728 </r>
       <r>   -14.0251    15.1448   190.1962 </r>
       <r>   -13.7661    17.1697   194.6441 </r>
       <r>   -13.5070    18.2403   199.3693 </r>
       <r>   -13.2480    13.3842   202.8365 </r>
       <r>   -12.9889     5.0898   204.1550 </r>
       <r>   -12.7299     8.4249   206.3375 </r>
       <r>   -12.4708     6.0862   207.9142 </r>
       <r>   -12.2118     0.3303   207.9998 </r>
       <r>   -11.9527     0.0010   208.0000 </r>
       <r>   -11.6936     0.0000   208.0000 </r>
       <r>   -11.4346     0.0000   208.0000 </r>
       <r>   -11.1755     0.0000   208.0000 </r>
       <r>   -10.9165     0.0000   208.0000 </r>
       <r>   -10.6574     0.0000   208.0000 </r>
       <r>   -10.3984     0.0000   208.0000 </r>
       <r>   -10.1393     0.0000   208.0000 </r>
       <r>    -9.8803     0.0000   208.0000 </r>
       <r>    -9.6212     0.0000   208.0000 </r>
       <r>    -9.3622     0.0000   208.0000 </r>
       <r>    -9.1031     0.0000   208.0000 </r>
       <r>    -8.8440     0.0044   208.0011 </r>
       <r>    -8.5850     0.6666   208.1738 </r>
       <r>    -8.3259     7.8206   210.1998 </r>
       <r>    -8.0669    16.1215   214.3761 </r>
       <r>    -7.8078    18.7690   219.2383 </r>
       <r>    -7.5488    20.1939   224.4696 </r>
       <r>    -7.2897    22.2585   230.2358 </r>
       <r>    -7.0307    29.0271   237.7554 </r>
       <r>    -6.7716    25.7333   244.4217 </r>
       <r>    -6.5126    31.1885   252.5012 </r>
       <r>    -6.2535    31.1502   260.5708 </r>
       <r>    -5.9944    25.2790   267.1195 </r>
       <r>    -5.7354    38.2992   277.0411 </r>
       <r>    -5.4763    43.3361   288.2675 </r>
       <r>    -5.2173    43.7904   299.6116 </r>
       <r>    -4.9582    46.2417   311.5907 </r>
       <r>    -4.6992    45.7487   323.4421 </r>
       <r>    -4.4401    39.2603   333.6127 </r>
       <r>    -4.1811    29.5473   341.2670 </r>
       <r>    -3.9220    32.0024   349.5574 </r>
       <r>    -3.6630    35.5421   358.7647 </r>
       <r>    -3.4039    42.9921   369.9020 </r>
       <r>    -3.1448    49.5004   382.7253 </r>
       <r>    -2.8858    58.6697   397.9240 </r>
       <r>    -2.6267    67.3152   415.3623 </r>
       <r>    -2.3677    78.1399   435.6048 </r>
       <r>    -2.1086    86.3358   457.9704 </r>
       <r>    -1.8496    89.8367   481.2430 </r>
       <r>    -1.5905    76.5903   501.0841 </r>
       <r>    -1.3315    63.6721   517.5787 </r>
       <r>    -1.0724    57.8476   532.5644 </r>
       <r>    -0.8134    51.5201   545.9109 </r>
       <r>    -0.5543    42.4131   556.8982 </r>
       <r>    -0.2952    36.8528   566.4451 </r>
       <r>    -0.0362    36.5972   575.9257 </r>
       <r>     0.2229    35.1235   585.0246 </r>
       <r>     0.4819    29.9953   592.7950 </r>
       <r>     0.7410    30.2624   600.6346 </r>
       <r>     1.0000    28.1614   607.9300 </r>
       <r>     1.2591    27.1989   614.9760 </r>
       <r>     1.5181    16.7897   619.3254 </r>
       <r>     1.7772    12.0397   622.4444 </r>
       <r>     2.0362     7.0717   624.2763 </r>
       <r>     2.2953     5.3259   625.6560 </r>
       <r>     2.5544     1.8033   626.1232 </r>
       <r>     2.8134     4.3325   627.2455 </r>
       <r>     3.0725     3.0784   628.0430 </r>
       <r>     3.3315     4.3285   629.1643 </r>
       <r>     3.5906     9.3995   631.5993 </r>
       <r>     3.8496    12.8889   634.9382 </r>
       <r>     4.1087    14.3534   638.6566 </r>
       <r>     4.3677    19.5994   643.7339 </r>
       <r>     4.6268    23.8331   649.9080 </r>
       <r>     4.8858    31.2576   658.0054 </r>
       <r>     5.1449    31.1044   666.0631 </r>
       <r>     5.4040    32.2780   674.4249 </r>
       <r>     5.6630    31.4229   682.5651 </r>
       <r>     5.9221    19.0435   687.4984 </r>
       <r>     6.1811     1.9203   687.9959 </r>
       <r>     6.4402     0.0158   688.0000 </r>
       <r>     6.6992     0.0000   688.0000 </r>
       <r>     6.9583     0.0000   688.0000 </r>
       <r>     7.2173     0.0000   688.0000 </r>
       <r>     7.4764     0.0000   688.0000 </r>
       <r>     7.7354     0.0000   688.0000 </r>
       <r>     7.9945     0.0000   688.0000 </r>
       <r>     8.2536     0.0000   688.0000 </r>
       <r>     8.5126     0.0000   688.0000 </r>
       <r>     8.7717     0.0000   688.0000 </r>
       <r>     9.0307     0.0000   688.0000 </r>
       <r>     9.2898     0.0000   688.0000 </r>
      </set>
     </set>
    </array>
   </total>
  </dos>
 </calculation>
 <structure name="finalpos" >
  <crystal>
   <varray name="basis" >
    <v>      11.25646304       0.00000000       0.00000000 </v>
    <v>       0.00000000       9.57841000       0.00000000 </v>
    <v>       0.00000000       0.00000000      17.19249240 </v>
   </varray>
   <i name="volume">   1853.67765028 </i>
   <varray name="rec_basis" >
    <v>       0.08883785       0.00000000       0.00000000 </v>
    <v>       0.00000000       0.10440146       0.00000000 </v>
    <v>       0.00000000       0.00000000       0.05816492 </v>
   </varray>
  </crystal>
  <varray name="positions" >
   <v>       0.43933499       0.46388800       0.16283377 </v>
   <v>       0.46574002       0.48670941       0.31814295 </v>
   <v>       0.23676751       0.82777534       0.10432756 </v>
   <v>       0.20205225       0.97496589       0.23138178 </v>
   <v>       0.43933499       0.19968200       0.16283377 </v>
   <v>       0.49770839       0.22114236       0.33144880 </v>
   <v>       0.20831527       0.53408530       0.10303568 </v>
   <v>       0.20680429       0.69007046       0.23651792 </v>
   <v>       0.12488766       0.32772622       0.16108323 </v>
   <v>       0.18249164       0.33178500       0.31854512 </v>
   <v>       0.46470531       0.86761994       0.09176155 </v>
   <v>       0.38440915       0.83536097       0.22253567 </v>
   <v>       0.54168451       0.70392416       0.27637746 </v>
   <v>       0.93933499       0.46388800       0.16283377 </v>
   <v>       0.98930871       0.45771242       0.32576755 </v>
   <v>       0.65564462       0.00008156       0.11104501 </v>
   <v>       0.71526096       0.96388800       0.25253989 </v>
   <v>       0.92256231       0.17774137       0.19212417 </v>
   <v>       0.98847767       0.19758591       0.32864390 </v>
   <v>       0.65268823       0.67315430       0.10886161 </v>
   <v>       0.74311316       0.68558771       0.25101193 </v>
   <v>       0.63063970       0.33178500       0.13913288 </v>
   <v>       0.68249164       0.33178500       0.31854512 </v>
   <v>       0.02547075       0.67017590       0.10946217 </v>
   <v>       0.90991102       0.84050495       0.21251369 </v>
   <v>       0.84736530       0.83198691       0.34935963 </v>
   <v>       0.11148904       0.16357000       0.23893853 </v>
   <v>       0.12479537       0.20226130       0.40349129 </v>
   <v>       0.33556306       0.66357000       0.14923241 </v>
   <v>       0.36420207       0.67920259       0.31050461 </v>
   <v>       0.04746962       0.45057927       0.06867283 </v>
   <v>       0.11148904       0.50000000       0.23893853 </v>
   <v>       0.12610569       0.47200459       0.39918482 </v>
   <v>       0.33556306       1.00000000       0.14923241 </v>
   <v>       0.30300041       0.33913207       0.11512278 </v>
   <v>       0.36788880       0.33178500       0.26911836 </v>
   <v>       0.15587276       0.69475494       0.02689342 </v>
   <v>       0.09196284       0.83178500       0.17941224 </v>
   <v>       0.55842287       0.16998447       0.07476036 </v>
   <v>       0.61148904       0.16357000       0.23893853 </v>
   <v>       0.65383746       0.15218120       0.38154762 </v>
   <v>       0.83556306       0.66357000       0.14923241 </v>
   <v>       0.56336275       0.49508863       0.07524238 </v>
   <v>       0.61148904       0.50000000       0.23893853 </v>
   <v>       0.55696363       0.38336231       0.40192781 </v>
   <v>       0.83556306       1.00000000       0.14923241 </v>
   <v>       0.89164555       0.01477809       0.29682137 </v>
   <v>       0.81675323       0.31286151       0.12093522 </v>
   <v>       0.86788880       0.33178500       0.26911836 </v>
   <v>       0.62013518       0.83909138       0.03145591 </v>
   <v>       0.59196284       0.83178500       0.17941224 </v>
   <v>       0.67055904       0.81360097       0.33975437 </v>
  </varray>
 </structure>
</modeling>
