LAMMPS data file via write_data, version 5 Jun 2019, timestep = 70

74 atoms
2 atom types

0.0000000000000000e+00 1.6884694054200001e+01 xlo xhi
0.0000000000000000e+00 9.5784099999999999e+00 ylo yhi
0.0000000000000000e+00 1.6654645685100000e+01 zlo zhi
0.0000000000000000e+00 0.0000000000000000e+00 0.0000000000000000e+00 xy xz yz

Masses

1 58.71
2 32.06

Atoms # atomic

1 1 1.3170843208000003e+01 1.3917138258999999e+00 2.0563623765000001e+00 0 0 0
2 1 1.3553787489522751e+01 1.3943353756556724e+00 4.7568986948677656e+00 0 0 0
3 1 3.6766288988333820e+00 6.2394918018998391e+00 1.6451985057380725e+00 0 0 0
4 1 5.0203308784000003e+00 6.1809188259000001e+00 3.5986341463999998e+00 0 0 0
5 1 6.6025121445800430e+00 1.5222724197238868e+00 2.1408455409170739e+00 0 0 0
6 1 7.9317247696999997e+00 1.3917138258999999e+00 4.1127247530000002e+00 0 0 0
7 1 1.6082237116200002e+01 6.1809188259000001e+00 2.5704529665000000e+00 0 0 0
8 1 1.6464513809587203e+01 6.1781187019973469e+00 5.2923922234911664e+00 0 0 0
9 1 2.8971151118506744e+00 1.4167413693385633e+00 7.8612504553447182e-01 0 0 0
10 1 2.1089369701999998e+00 1.3917138258999999e+00 3.0845435563999999e+00 0 0 0
11 1 1.1502181431867899e+00 9.1636800762961912e-01 5.1931502757569676e+00 0 0 0
12 1 1.0843118677900000e+01 6.1809188259000001e+00 4.6268153428999996e+00 0 0 0
13 1 1.5357097932206727e+01 4.6520300850573383e-02 1.9777310434577402e+00 0 0 0
14 1 1.5868997577444450e+01 6.6243523312059724e-02 4.4699449744984987e+00 0 0 0
15 1 7.3738664886125234e+00 4.1070418829148965e+00 9.9910136113384407e-01 0 0 0
16 1 7.1737451382000001e+00 4.9155821296999997e+00 3.1911566886000000e+00 0 0 0
17 1 7.7440384539341993e+00 4.6130681224153127e+00 5.5758819966959905e+00 0 0 0
18 1 8.9536276105393551e+00 1.3903120953460748e+00 1.5323602560169354e+00 0 0 0
19 1 1.0085139046400000e+01 1.2637712970000001e-01 3.7052472952000000e+00 0 0 0
20 1 1.3509573217999999e+00 4.9155821296999997e+00 2.1629755087000002e+00 0 0 0
21 1 1.8932391789723850e+00 4.7955478389600641e+00 4.8813561862082961e+00 0 0 0
22 1 4.2623512300000002e+00 1.2637712970000001e-01 2.6770660986000001e+00 0 0 0
23 1 5.0071057915802335e+00 9.2247710855086194e+00 4.8966433392513737e+00 0 -1 0
24 1 1.2976178267792619e+01 4.0369217352191260e+00 1.9996285224674395e+00 0 0 0
25 1 1.2996532937700001e+01 4.9155821296999997e+00 4.2193378850999999e+00 0 0 0
26 1 1.5369125861809502e+01 2.7558083658904637e+00 2.0038567480978444e+00 0 0 0
27 1 1.5956043744855176e+01 2.6535879463144871e+00 4.5090110033437654e+00 0 0 0
28 1 6.1354205835104052e+00 6.2003800271494001e+00 1.1243935212846421e+00 0 0 0
29 1 7.1737451382000001e+00 7.4462555221000031e+00 3.1911566886000000e+00 0 0 0
30 1 7.9617155333293956e+00 7.9561203360055854e+00 5.4168630556841544e+00 0 0 0
31 1 1.0532343281735606e+01 3.3483030399963361e+00 1.4840872634820299e+00 0 0 0
32 1 1.0085139046400000e+01 2.6570505221000000e+00 3.7052472952000000e+00 0 0 0
33 1 1.3509573217999999e+00 7.4462555221000031e+00 2.1629755087000002e+00 0 0 0
34 1 1.8956155802107582e+00 7.5303738700194955e+00 4.9159669929832521e+00 0 0 0
35 1 4.2623512300000002e+00 2.6570505221000000e+00 2.6770660986000001e+00 0 0 0
36 1 1.3111599878953744e+01 8.1959018658055367e+00 2.0124705271291399e+00 0 0 0
37 1 1.2996532937700001e+01 7.4462555221000031e+00 4.2193378850999999e+00 0 0 0
38 2 1.6218850154776536e+01 1.3276884242630731e+00 6.0498279014933205e+00 -1 0 0
39 2 1.6740519096100002e+01 1.3917138258999999e+00 3.0560115336000000e+00 0 0 0
40 2 8.0795741995705619e+00 6.0045734003845297e+00 1.6649342906560407e+00 0 0 0
41 2 8.5900067496000005e+00 6.1809188259000001e+00 4.5982833201000002e+00 0 0 0
42 2 1.0917731279800000e+01 1.3917138258999999e+00 2.0278303370000001e+00 0 0 0
43 2 1.1472494803495310e+01 1.3880588589852525e+00 4.6982769778215960e+00 0 0 0
44 2 1.9146966225148088e+00 6.1823151363097955e+00 6.4127022103652531e-01 0 0 0
45 2 2.7672189501000002e+00 6.1809188259000001e+00 3.5701021234999999e+00 0 0 0
46 2 1.3492466536947740e+00 6.1414278035919834e+00 6.3236709058059350e+00 0 0 0
47 2 4.8821561577215427e+00 1.3913111362423887e+00 1.0537934802342195e+00 0 0 0
48 2 5.5381025292689356e+00 1.3983130576787643e+00 3.9302972545350596e+00 0 0 0
49 2 1.3829125188000001e+01 6.1809188259000001e+00 2.5419209436000001e+00 0 0 0
50 2 1.4367777713403575e+01 6.1687700446804463e+00 5.2163916643381514e+00 0 0 0
51 2 1.3815749797385026e+01 2.7794592980248178e+00 6.4656927563448041e-01 0 0 0
52 2 1.3998442232200000e+01 3.0029460640000001e+00 3.5748780264000000e+00 0 0 0
53 2 5.2642605076000004e+00 7.7921510639999996e+00 2.0326062398999998e+00 0 0 0
54 2 6.0126494656048628e+00 7.4705275606664410e+00 4.9786626254201503e+00 0 0 0
55 2 8.1756544158000004e+00 3.0029460640000001e+00 2.5466968465000002e+00 0 0 0
56 2 8.7713292042793807e+00 2.8962500984582187e+00 5.3147015791379539e+00 0 0 0
57 2 2.5142086099999999e-02 7.7921510639999996e+00 4.0889686162999999e+00 0 0 0
58 2 1.6332457495053820e+01 7.8623998324113940e+00 1.3849967713600682e+00 0 0 0
59 2 2.3939971066352999e+00 3.1064947384729469e+00 1.8328832229212326e+00 0 0 0
60 2 2.1373741711912255e+00 2.6846591965765638e+00 4.7698343767740843e+00 0 0 0
61 2 1.1267507759637441e+01 7.9244213713524765e+00 3.1809101757457880e+00 0 0 0
62 2 1.1782346152642310e+01 7.4740900346280963e+00 5.8422604682043797e+00 0 0 0
63 2 5.2642605076000004e+00 4.5696865876999997e+00 2.0326062398999998e+00 0 0 0
64 2 5.8704403196487878e+00 4.6738641047936378e+00 4.8144564505131653e+00 0 0 0
65 2 1.3771675648159039e+01 9.5468769868543255e+00 6.6518052440056874e-01 0 0 0
66 2 1.3998442232200000e+01 9.3588915877000023e+00 3.5748780264000000e+00 0 0 0
67 2 2.5142086099999999e-02 4.5696865876999997e+00 4.0889686162999999e+00 0 0 0
68 2 1.6342322238883781e+01 4.5059625734498301e+00 1.3793753694027340e+00 0 0 0
69 2 8.1756544158000004e+00 9.3588915877000023e+00 2.5466968465000002e+00 0 0 0
70 2 8.9401055549398443e+00 1.2469861656444374e-01 5.4189036440054101e+00 0 1 0
71 2 1.1185261272093607e+01 4.4882959642435551e+00 3.0892275275607495e+00 0 0 0
72 2 1.1698935826416761e+01 4.7557515402633870e+00 5.7650561361076571e+00 0 0 0
73 2 2.3685988421416262e+00 9.2770422168113349e+00 1.7720868094875777e+00 0 0 0
74 2 2.9365359774000002e+00 9.3588915877000023e+00 4.6030592063000002e+00 0 0 0

Velocities

1 0.0000000000000000e+00 0.0000000000000000e+00 0.0000000000000000e+00
2 0.0000000000000000e+00 0.0000000000000000e+00 0.0000000000000000e+00
3 0.0000000000000000e+00 0.0000000000000000e+00 0.0000000000000000e+00
4 0.0000000000000000e+00 0.0000000000000000e+00 0.0000000000000000e+00
5 0.0000000000000000e+00 0.0000000000000000e+00 0.0000000000000000e+00
6 0.0000000000000000e+00 0.0000000000000000e+00 0.0000000000000000e+00
7 0.0000000000000000e+00 0.0000000000000000e+00 0.0000000000000000e+00
8 0.0000000000000000e+00 0.0000000000000000e+00 0.0000000000000000e+00
9 0.0000000000000000e+00 0.0000000000000000e+00 0.0000000000000000e+00
10 0.0000000000000000e+00 0.0000000000000000e+00 0.0000000000000000e+00
11 0.0000000000000000e+00 0.0000000000000000e+00 0.0000000000000000e+00
12 0.0000000000000000e+00 0.0000000000000000e+00 0.0000000000000000e+00
13 0.0000000000000000e+00 0.0000000000000000e+00 0.0000000000000000e+00
14 0.0000000000000000e+00 0.0000000000000000e+00 0.0000000000000000e+00
15 0.0000000000000000e+00 0.0000000000000000e+00 0.0000000000000000e+00
16 0.0000000000000000e+00 0.0000000000000000e+00 0.0000000000000000e+00
17 0.0000000000000000e+00 0.0000000000000000e+00 0.0000000000000000e+00
18 0.0000000000000000e+00 0.0000000000000000e+00 0.0000000000000000e+00
19 0.0000000000000000e+00 0.0000000000000000e+00 0.0000000000000000e+00
20 0.0000000000000000e+00 0.0000000000000000e+00 0.0000000000000000e+00
21 0.0000000000000000e+00 0.0000000000000000e+00 0.0000000000000000e+00
22 0.0000000000000000e+00 0.0000000000000000e+00 0.0000000000000000e+00
23 0.0000000000000000e+00 0.0000000000000000e+00 0.0000000000000000e+00
24 0.0000000000000000e+00 0.0000000000000000e+00 0.0000000000000000e+00
25 0.0000000000000000e+00 0.0000000000000000e+00 0.0000000000000000e+00
26 0.0000000000000000e+00 0.0000000000000000e+00 0.0000000000000000e+00
27 0.0000000000000000e+00 0.0000000000000000e+00 0.0000000000000000e+00
28 0.0000000000000000e+00 0.0000000000000000e+00 0.0000000000000000e+00
29 0.0000000000000000e+00 0.0000000000000000e+00 0.0000000000000000e+00
30 0.0000000000000000e+00 0.0000000000000000e+00 0.0000000000000000e+00
31 0.0000000000000000e+00 0.0000000000000000e+00 0.0000000000000000e+00
32 0.0000000000000000e+00 0.0000000000000000e+00 0.0000000000000000e+00
33 0.0000000000000000e+00 0.0000000000000000e+00 0.0000000000000000e+00
34 0.0000000000000000e+00 0.0000000000000000e+00 0.0000000000000000e+00
35 0.0000000000000000e+00 0.0000000000000000e+00 0.0000000000000000e+00
36 0.0000000000000000e+00 0.0000000000000000e+00 0.0000000000000000e+00
37 0.0000000000000000e+00 0.0000000000000000e+00 0.0000000000000000e+00
38 0.0000000000000000e+00 0.0000000000000000e+00 0.0000000000000000e+00
39 0.0000000000000000e+00 0.0000000000000000e+00 0.0000000000000000e+00
40 0.0000000000000000e+00 0.0000000000000000e+00 0.0000000000000000e+00
41 0.0000000000000000e+00 0.0000000000000000e+00 0.0000000000000000e+00
42 0.0000000000000000e+00 0.0000000000000000e+00 0.0000000000000000e+00
43 0.0000000000000000e+00 0.0000000000000000e+00 0.0000000000000000e+00
44 0.0000000000000000e+00 0.0000000000000000e+00 0.0000000000000000e+00
45 0.0000000000000000e+00 0.0000000000000000e+00 0.0000000000000000e+00
46 0.0000000000000000e+00 0.0000000000000000e+00 0.0000000000000000e+00
47 0.0000000000000000e+00 0.0000000000000000e+00 0.0000000000000000e+00
48 0.0000000000000000e+00 0.0000000000000000e+00 0.0000000000000000e+00
49 0.0000000000000000e+00 0.0000000000000000e+00 0.0000000000000000e+00
50 0.0000000000000000e+00 0.0000000000000000e+00 0.0000000000000000e+00
51 0.0000000000000000e+00 0.0000000000000000e+00 0.0000000000000000e+00
52 0.0000000000000000e+00 0.0000000000000000e+00 0.0000000000000000e+00
53 0.0000000000000000e+00 0.0000000000000000e+00 0.0000000000000000e+00
54 0.0000000000000000e+00 0.0000000000000000e+00 0.0000000000000000e+00
55 0.0000000000000000e+00 0.0000000000000000e+00 0.0000000000000000e+00
56 0.0000000000000000e+00 0.0000000000000000e+00 0.0000000000000000e+00
57 0.0000000000000000e+00 0.0000000000000000e+00 0.0000000000000000e+00
58 0.0000000000000000e+00 0.0000000000000000e+00 0.0000000000000000e+00
59 0.0000000000000000e+00 0.0000000000000000e+00 0.0000000000000000e+00
60 0.0000000000000000e+00 0.0000000000000000e+00 0.0000000000000000e+00
61 0.0000000000000000e+00 0.0000000000000000e+00 0.0000000000000000e+00
62 0.0000000000000000e+00 0.0000000000000000e+00 0.0000000000000000e+00
63 0.0000000000000000e+00 0.0000000000000000e+00 0.0000000000000000e+00
64 0.0000000000000000e+00 0.0000000000000000e+00 0.0000000000000000e+00
65 0.0000000000000000e+00 0.0000000000000000e+00 0.0000000000000000e+00
66 0.0000000000000000e+00 0.0000000000000000e+00 0.0000000000000000e+00
67 0.0000000000000000e+00 0.0000000000000000e+00 0.0000000000000000e+00
68 0.0000000000000000e+00 0.0000000000000000e+00 0.0000000000000000e+00
69 0.0000000000000000e+00 0.0000000000000000e+00 0.0000000000000000e+00
70 0.0000000000000000e+00 0.0000000000000000e+00 0.0000000000000000e+00
71 0.0000000000000000e+00 0.0000000000000000e+00 0.0000000000000000e+00
72 0.0000000000000000e+00 0.0000000000000000e+00 0.0000000000000000e+00
73 0.0000000000000000e+00 0.0000000000000000e+00 0.0000000000000000e+00
74 0.0000000000000000e+00 0.0000000000000000e+00 0.0000000000000000e+00
