       N       E                     dE             d eps       ncg     rms          rms(c)
DAV:   1     0.915672172360E+04    0.91567E+04   -0.52052E+05  1200   0.154E+03
DAV:   2     0.495077875427E+03   -0.86616E+04   -0.83615E+04  1048   0.491E+02
DAV:   3    -0.358132841791E+03   -0.85321E+03   -0.81961E+03  1136   0.163E+02
DAV:   4    -0.402259595724E+03   -0.44127E+02   -0.43662E+02  1128   0.354E+01
DAV:   5    -0.403888013915E+03   -0.16284E+01   -0.16262E+01  1192   0.698E+00    0.101E+02
DAV:   6    -0.474148148299E+03   -0.70260E+02   -0.98397E+02  1240   0.131E+02    0.164E+02
DAV:   7    -0.372056311257E+03    0.10209E+03   -0.20012E+02  1096   0.754E+01    0.717E+01
DAV:   8    -0.435666089339E+03   -0.63610E+02   -0.25522E+02  1376   0.948E+01    0.138E+02
DAV:   9    -0.374004790065E+03    0.61661E+02   -0.16925E+02  1264   0.643E+01    0.599E+01
DAV:  10    -0.398618607349E+03   -0.24614E+02   -0.10662E+02  1400   0.664E+01    0.950E+01
DAV:  11    -0.368106422288E+03    0.30512E+02   -0.70095E+01  1344   0.490E+01    0.468E+01
DAV:  12    -0.359299988496E+03    0.88064E+01   -0.31289E+01  1304   0.353E+01    0.312E+01
DAV:  13    -0.357368820086E+03    0.19312E+01   -0.17299E+01  1344   0.280E+01    0.295E+01
DAV:  14    -0.354361643020E+03    0.30072E+01   -0.88815E+00  1352   0.181E+01    0.193E+01
DAV:  15    -0.353335017573E+03    0.10266E+01   -0.26243E+00  1320   0.920E+00    0.154E+01
DAV:  16    -0.352984795701E+03    0.35022E+00   -0.11094E+00  1304   0.682E+00    0.138E+01
DAV:  17    -0.352635215498E+03    0.34958E+00   -0.45026E-01  1352   0.421E+00    0.128E+01
DAV:  18    -0.352383686764E+03    0.25153E+00   -0.65356E-01  1320   0.532E+00    0.112E+01
DAV:  19    -0.351917017890E+03    0.46667E+00   -0.36497E-01  1376   0.432E+00    0.860E+00
DAV:  20    -0.351626389936E+03    0.29063E+00   -0.53966E-01  1336   0.492E+00    0.582E+00
DAV:  21    -0.351457358185E+03    0.16903E+00   -0.41556E-01  1328   0.413E+00    0.287E+00
DAV:  22    -0.351447059212E+03    0.10299E-01   -0.19434E-01  1168   0.212E+00    0.230E+00
DAV:  23    -0.351439075305E+03    0.79839E-02   -0.49581E-02  1080   0.123E+00    0.177E+00
DAV:  24    -0.351441273968E+03   -0.21987E-02   -0.32013E-02  1224   0.117E+00    0.176E+00
DAV:  25    -0.351442617550E+03   -0.13436E-02   -0.52402E-02  1216   0.159E+00    0.163E+00
DAV:  26    -0.351443605242E+03   -0.98769E-03   -0.63766E-02  1224   0.157E+00    0.162E+00
DAV:  27    -0.351431409379E+03    0.12196E-01   -0.34949E-02  1336   0.120E+00    0.589E-01
DAV:  28    -0.351431214416E+03    0.19496E-03   -0.99427E-03  1336   0.640E-01    0.567E-01
DAV:  29    -0.351430310507E+03    0.90391E-03   -0.35244E-03  1312   0.389E-01    0.289E-01
DAV:  30    -0.351430506095E+03   -0.19559E-03   -0.11725E-03  1128   0.210E-01    0.288E-01
DAV:  31    -0.351430510982E+03   -0.48862E-05   -0.11141E-03  1112   0.233E-01    0.223E-01
DAV:  32    -0.351430893149E+03   -0.38217E-03   -0.10800E-03  1064   0.204E-01    0.207E-01
DAV:  33    -0.351430966262E+03   -0.73113E-04   -0.74627E-04  1000   0.208E-01
   1 F= -.35143097E+03 E0= -.35082395E+03  d E =-.121403E+01
