       N       E                     dE             d eps       ncg     rms          rms(c)
DAV:   1     0.149233750552E+05    0.14923E+05   -0.74269E+05  1644   0.170E+03
DAV:   2     0.101786842303E+04   -0.13906E+05   -0.13440E+05  1434   0.552E+02
DAV:   3    -0.476616475115E+03   -0.14945E+04   -0.14106E+04  1552   0.197E+02
DAV:   4    -0.576223909444E+03   -0.99607E+02   -0.98297E+02  1568   0.453E+01
DAV:   5    -0.580332876985E+03   -0.41090E+01   -0.41024E+01  1816   0.979E+00    0.115E+02
DAV:   6    -0.688616982288E+03   -0.10828E+03   -0.13176E+03  1728   0.126E+02    0.193E+02
DAV:   7    -0.547072832506E+03    0.14154E+03   -0.30656E+02  1544   0.865E+01    0.909E+01
DAV:   8    -0.654746541718E+03   -0.10767E+03   -0.29252E+02  1880   0.106E+02    0.177E+02
DAV:   9    -0.643415985718E+03    0.11331E+02   -0.22447E+02  1816   0.900E+01    0.157E+02
DAV:  10    -0.603900055319E+03    0.39516E+02   -0.25232E+02  1896   0.791E+01    0.135E+02
DAV:  11    -0.608239230136E+03   -0.43392E+01   -0.13039E+02  1904   0.523E+01    0.122E+02
DAV:  12    -0.554130144154E+03    0.54109E+02   -0.94538E+01  1880   0.493E+01    0.644E+01
DAV:  13    -0.564943775927E+03   -0.10814E+02   -0.91629E+01  1864   0.577E+01    0.962E+01
DAV:  14    -0.538403286118E+03    0.26540E+02   -0.63570E+01  1880   0.398E+01    0.576E+01
DAV:  15    -0.525909306237E+03    0.12494E+02   -0.27300E+01  1904   0.269E+01    0.367E+01
DAV:  16    -0.522279712266E+03    0.36296E+01   -0.11385E+01  1904   0.177E+01    0.326E+01
DAV:  17    -0.519099121393E+03    0.31806E+01   -0.47525E+00  1824   0.118E+01    0.272E+01
DAV:  18    -0.517794476535E+03    0.13046E+01   -0.16395E+00  1896   0.602E+00    0.264E+01
DAV:  19    -0.516582048159E+03    0.12124E+01   -0.74178E-01  1776   0.477E+00    0.242E+01
DAV:  20    -0.515635082764E+03    0.94697E+00   -0.43743E-01  1888   0.389E+00    0.225E+01
DAV:  21    -0.514251693443E+03    0.13834E+01   -0.82296E-01  2008   0.548E+00    0.206E+01
DAV:  22    -0.512118760263E+03    0.21329E+01   -0.13256E+00  1920   0.686E+00    0.152E+01
DAV:  23    -0.510698247870E+03    0.14205E+01   -0.14468E+00  1896   0.693E+00    0.820E+00
DAV:  24    -0.510546888829E+03    0.15136E+00   -0.81478E-01  1856   0.353E+00    0.648E+00
DAV:  25    -0.510482069653E+03    0.64819E-01   -0.23761E-01  1560   0.251E+00    0.529E+00
DAV:  26    -0.510438495461E+03    0.43574E-01   -0.21558E-01  1856   0.296E+00    0.457E+00
DAV:  27    -0.510371991268E+03    0.66504E-01   -0.24043E-01  1888   0.327E+00    0.268E+00
DAV:  28    -0.510410293244E+03   -0.38302E-01   -0.19480E-01  1880   0.249E+00    0.354E+00
DAV:  29    -0.510357433416E+03    0.52860E-01   -0.10365E-01  1584   0.195E+00    0.177E+00
DAV:  30    -0.510354720398E+03    0.27130E-02   -0.64959E-02  1880   0.149E+00    0.162E+00
DAV:  31    -0.510350356102E+03    0.43643E-02   -0.25486E-02  1856   0.961E-01    0.114E+00
DAV:  32    -0.510348079547E+03    0.22766E-02   -0.10521E-02  1816   0.585E-01    0.847E-01
DAV:  33    -0.510346434721E+03    0.16448E-02   -0.74911E-03  1680   0.499E-01    0.632E-01
DAV:  34    -0.510348456626E+03   -0.20219E-02   -0.54351E-03  2008   0.503E-01    0.746E-01
DAV:  35    -0.510346886581E+03    0.15700E-02   -0.20907E-03  1736   0.275E-01    0.546E-01
DAV:  36    -0.510345910579E+03    0.97600E-03   -0.13126E-03  1712   0.229E-01    0.300E-01
DAV:  37    -0.510345904343E+03    0.62357E-05   -0.58119E-04  1384   0.129E-01
   1 F= -.51034590E+03 E0= -.50965140E+03  d E =-.138901E+01
