  72  72   0   0
  0.2837294E+02  0.1145278E-08  0.9578410E-09  0.2050076E-08  0.5000000E-15
  1.000000000000000E-004
  CAR 
 "Millerite NiS"                         
     10.84662345    -66.43847687  301      1.24481174      1.00000000
    -66.438  0.0000E+00  0.0000E+00
    -66.181  0.0000E+00  0.0000E+00
    -65.923  0.0000E+00  0.0000E+00
    -65.666  0.0000E+00  0.0000E+00
    -65.408  0.0000E+00  0.0000E+00
    -65.150  0.0000E+00  0.0000E+00
    -64.893  0.0000E+00  0.0000E+00
    -64.635  0.0000E+00  0.0000E+00
    -64.378  0.0000E+00  0.0000E+00
    -64.120  0.0000E+00  0.0000E+00
    -63.862  0.7433E-09  0.1915E-09
    -63.605  0.4572E-04  0.1178E-04
    -63.347  0.1261E+00  0.3249E-01
    -63.089  0.1820E+02  0.4720E+01
    -62.832  0.1937E+03  0.5463E+02
    -62.574  0.2744E+03  0.1253E+03
    -62.317  0.1155E+03  0.1551E+03
    -62.059  0.6433E+02  0.1717E+03
    -61.801  0.7353E+02  0.1906E+03
    -61.544  0.6908E+02  0.2084E+03
    -61.286  0.2712E+02  0.2154E+03
    -61.029  0.2360E+01  0.2160E+03
    -60.771  0.2428E-01  0.2160E+03
    -60.513  0.1598E-04  0.2160E+03
    -60.256  0.4765E-09  0.2160E+03
    -59.998  0.0000E+00  0.2160E+03
    -59.740  0.0000E+00  0.2160E+03
    -59.483  0.0000E+00  0.2160E+03
    -59.225  0.0000E+00  0.2160E+03
    -58.968  0.0000E+00  0.2160E+03
    -58.710  0.0000E+00  0.2160E+03
    -58.452  0.0000E+00  0.2160E+03
    -58.195  0.0000E+00  0.2160E+03
    -57.937  0.0000E+00  0.2160E+03
    -57.679  0.0000E+00  0.2160E+03
    -57.422  0.0000E+00  0.2160E+03
    -57.164  0.0000E+00  0.2160E+03
    -56.907  0.0000E+00  0.2160E+03
    -56.649  0.0000E+00  0.2160E+03
    -56.391  0.0000E+00  0.2160E+03
    -56.134  0.0000E+00  0.2160E+03
    -55.876  0.0000E+00  0.2160E+03
    -55.619  0.0000E+00  0.2160E+03
    -55.361  0.0000E+00  0.2160E+03
    -55.103  0.0000E+00  0.2160E+03
    -54.846  0.0000E+00  0.2160E+03
    -54.588  0.0000E+00  0.2160E+03
    -54.330  0.0000E+00  0.2160E+03
    -54.073  0.0000E+00  0.2160E+03
    -53.815  0.0000E+00  0.2160E+03
    -53.558  0.0000E+00  0.2160E+03
    -53.300  0.0000E+00  0.2160E+03
    -53.042  0.0000E+00  0.2160E+03
    -52.785  0.0000E+00  0.2160E+03
    -52.527  0.0000E+00  0.2160E+03
    -52.270  0.0000E+00  0.2160E+03
    -52.012  0.0000E+00  0.2160E+03
    -51.754  0.0000E+00  0.2160E+03
    -51.497  0.0000E+00  0.2160E+03
    -51.239  0.0000E+00  0.2160E+03
    -50.981  0.0000E+00  0.2160E+03
    -50.724  0.0000E+00  0.2160E+03
    -50.466  0.0000E+00  0.2160E+03
    -50.209  0.0000E+00  0.2160E+03
    -49.951  0.0000E+00  0.2160E+03
    -49.693  0.0000E+00  0.2160E+03
    -49.436  0.0000E+00  0.2160E+03
    -49.178  0.0000E+00  0.2160E+03
    -48.921  0.0000E+00  0.2160E+03
    -48.663  0.0000E+00  0.2160E+03
    -48.405  0.0000E+00  0.2160E+03
    -48.148  0.0000E+00  0.2160E+03
    -47.890  0.0000E+00  0.2160E+03
    -47.632  0.0000E+00  0.2160E+03
    -47.375  0.0000E+00  0.2160E+03
    -47.117  0.0000E+00  0.2160E+03
    -46.860  0.0000E+00  0.2160E+03
    -46.602  0.0000E+00  0.2160E+03
    -46.344  0.0000E+00  0.2160E+03
    -46.087  0.0000E+00  0.2160E+03
    -45.829  0.0000E+00  0.2160E+03
    -45.571  0.0000E+00  0.2160E+03
    -45.314  0.0000E+00  0.2160E+03
    -45.056  0.0000E+00  0.2160E+03
    -44.799  0.0000E+00  0.2160E+03
    -44.541  0.0000E+00  0.2160E+03
    -44.283  0.0000E+00  0.2160E+03
    -44.026  0.0000E+00  0.2160E+03
    -43.768  0.0000E+00  0.2160E+03
    -43.511  0.0000E+00  0.2160E+03
    -43.253  0.0000E+00  0.2160E+03
    -42.995  0.0000E+00  0.2160E+03
    -42.738  0.0000E+00  0.2160E+03
    -42.480  0.0000E+00  0.2160E+03
    -42.222  0.0000E+00  0.2160E+03
    -41.965  0.0000E+00  0.2160E+03
    -41.707  0.0000E+00  0.2160E+03
    -41.450  0.0000E+00  0.2160E+03
    -41.192  0.0000E+00  0.2160E+03
    -40.934  0.0000E+00  0.2160E+03
    -40.677  0.0000E+00  0.2160E+03
    -40.419  0.0000E+00  0.2160E+03
    -40.162  0.0000E+00  0.2160E+03
    -39.904  0.0000E+00  0.2160E+03
    -39.646  0.0000E+00  0.2160E+03
    -39.389  0.0000E+00  0.2160E+03
    -39.131  0.0000E+00  0.2160E+03
    -38.873  0.0000E+00  0.2160E+03
    -38.616  0.0000E+00  0.2160E+03
    -38.358  0.0000E+00  0.2160E+03
    -38.101  0.0000E+00  0.2160E+03
    -37.843  0.0000E+00  0.2160E+03
    -37.585  0.0000E+00  0.2160E+03
    -37.328  0.0000E+00  0.2160E+03
    -37.070  0.0000E+00  0.2160E+03
    -36.813  0.0000E+00  0.2160E+03
    -36.555  0.0000E+00  0.2160E+03
    -36.297  0.0000E+00  0.2160E+03
    -36.040  0.0000E+00  0.2160E+03
    -35.782  0.0000E+00  0.2160E+03
    -35.524  0.0000E+00  0.2160E+03
    -35.267  0.0000E+00  0.2160E+03
    -35.009  0.0000E+00  0.2160E+03
    -34.752  0.0000E+00  0.2160E+03
    -34.494  0.0000E+00  0.2160E+03
    -34.236  0.0000E+00  0.2160E+03
    -33.979  0.0000E+00  0.2160E+03
    -33.721  0.0000E+00  0.2160E+03
    -33.464  0.0000E+00  0.2160E+03
    -33.206  0.0000E+00  0.2160E+03
    -32.948  0.0000E+00  0.2160E+03
    -32.691  0.0000E+00  0.2160E+03
    -32.433  0.0000E+00  0.2160E+03
    -32.175  0.0000E+00  0.2160E+03
    -31.918  0.0000E+00  0.2160E+03
    -31.660  0.0000E+00  0.2160E+03
    -31.403  0.0000E+00  0.2160E+03
    -31.145  0.0000E+00  0.2160E+03
    -30.887  0.0000E+00  0.2160E+03
    -30.630  0.0000E+00  0.2160E+03
    -30.372  0.0000E+00  0.2160E+03
    -30.114  0.0000E+00  0.2160E+03
    -29.857  0.0000E+00  0.2160E+03
    -29.599  0.0000E+00  0.2160E+03
    -29.342  0.0000E+00  0.2160E+03
    -29.084  0.0000E+00  0.2160E+03
    -28.826  0.0000E+00  0.2160E+03
    -28.569  0.0000E+00  0.2160E+03
    -28.311  0.0000E+00  0.2160E+03
    -28.054  0.0000E+00  0.2160E+03
    -27.796  0.0000E+00  0.2160E+03
    -27.538  0.0000E+00  0.2160E+03
    -27.281  0.0000E+00  0.2160E+03
    -27.023  0.0000E+00  0.2160E+03
    -26.765  0.0000E+00  0.2160E+03
    -26.508  0.0000E+00  0.2160E+03
    -26.250  0.0000E+00  0.2160E+03
    -25.993  0.0000E+00  0.2160E+03
    -25.735  0.0000E+00  0.2160E+03
    -25.477  0.0000E+00  0.2160E+03
    -25.220  0.0000E+00  0.2160E+03
    -24.962  0.0000E+00  0.2160E+03
    -24.705  0.0000E+00  0.2160E+03
    -24.447  0.0000E+00  0.2160E+03
    -24.189  0.0000E+00  0.2160E+03
    -23.932  0.0000E+00  0.2160E+03
    -23.674  0.0000E+00  0.2160E+03
    -23.416  0.0000E+00  0.2160E+03
    -23.159  0.0000E+00  0.2160E+03
    -22.901  0.0000E+00  0.2160E+03
    -22.644  0.0000E+00  0.2160E+03
    -22.386  0.0000E+00  0.2160E+03
    -22.128  0.0000E+00  0.2160E+03
    -21.871  0.0000E+00  0.2160E+03
    -21.613  0.0000E+00  0.2160E+03
    -21.356  0.0000E+00  0.2160E+03
    -21.098  0.0000E+00  0.2160E+03
    -20.840  0.0000E+00  0.2160E+03
    -20.583  0.0000E+00  0.2160E+03
    -20.325  0.0000E+00  0.2160E+03
    -20.067  0.0000E+00  0.2160E+03
    -19.810  0.0000E+00  0.2160E+03
    -19.552  0.0000E+00  0.2160E+03
    -19.295  0.0000E+00  0.2160E+03
    -19.037  0.0000E+00  0.2160E+03
    -18.779  0.0000E+00  0.2160E+03
    -18.522  0.0000E+00  0.2160E+03
    -18.264  0.0000E+00  0.2160E+03
    -18.006  0.0000E+00  0.2160E+03
    -17.749  0.0000E+00  0.2160E+03
    -17.491  0.0000E+00  0.2160E+03
    -17.234  0.0000E+00  0.2160E+03
    -16.976  0.0000E+00  0.2160E+03
    -16.718  0.0000E+00  0.2160E+03
    -16.461  0.0000E+00  0.2160E+03
    -16.203  0.0000E+00  0.2160E+03
    -15.946  0.0000E+00  0.2160E+03
    -15.688  0.0000E+00  0.2160E+03
    -15.430  0.0000E+00  0.2160E+03
    -15.173  0.2802E-11  0.2160E+03
    -14.915  0.3347E-06  0.2160E+03
    -14.657  0.1601E-02  0.2160E+03
    -14.400  0.3369E+00  0.2161E+03
    -14.142  0.3887E+01  0.2171E+03
    -13.885  0.3462E+01  0.2180E+03
    -13.627  0.3709E+01  0.2189E+03
    -13.369  0.1340E+02  0.2224E+03
    -13.112  0.1750E+02  0.2269E+03
    -12.854  0.2629E+02  0.2337E+03
    -12.597  0.2703E+02  0.2406E+03
    -12.339  0.3224E+02  0.2489E+03
    -12.081  0.3521E+02  0.2580E+03
    -11.824  0.2654E+02  0.2648E+03
    -11.566  0.2204E+02  0.2705E+03
    -11.308  0.1751E+02  0.2750E+03
    -11.051  0.1751E+02  0.2795E+03
    -10.793  0.1588E+02  0.2836E+03
    -10.536  0.1005E+02  0.2862E+03
    -10.278  0.6288E+01  0.2878E+03
    -10.020  0.5932E+00  0.2880E+03
     -9.763  0.3937E-02  0.2880E+03
     -9.505  0.1239E-05  0.2880E+03
     -9.248  0.1591E-10  0.2880E+03
     -8.990  0.0000E+00  0.2880E+03
     -8.732  0.0000E+00  0.2880E+03
     -8.475  0.0000E+00  0.2880E+03
     -8.217  0.0000E+00  0.2880E+03
     -7.959  0.0000E+00  0.2880E+03
     -7.702  0.0000E+00  0.2880E+03
     -7.444  0.0000E+00  0.2880E+03
     -7.187  0.1164E-13  0.2880E+03
     -6.929  0.5334E-08  0.2880E+03
     -6.671  0.9806E-04  0.2880E+03
     -6.414  0.7936E-01  0.2880E+03
     -6.156  0.3337E+01  0.2889E+03
     -5.898  0.1010E+02  0.2915E+03
     -5.641  0.1021E+02  0.2941E+03
     -5.383  0.2370E+02  0.3002E+03
     -5.126  0.3704E+02  0.3098E+03
     -4.868  0.4615E+02  0.3216E+03
     -4.610  0.4205E+02  0.3325E+03
     -4.353  0.4149E+02  0.3432E+03
     -4.095  0.3786E+02  0.3529E+03
     -3.838  0.3661E+02  0.3624E+03
     -3.580  0.4802E+02  0.3747E+03
     -3.322  0.5700E+02  0.3894E+03
     -3.065  0.6345E+02  0.4058E+03
     -2.807  0.6677E+02  0.4230E+03
     -2.549  0.6675E+02  0.4402E+03
     -2.292  0.5921E+02  0.4554E+03
     -2.034  0.5694E+02  0.4701E+03
     -1.777  0.5416E+02  0.4840E+03
     -1.519  0.6003E+02  0.4995E+03
     -1.261  0.5841E+02  0.5145E+03
     -1.004  0.8308E+02  0.5359E+03
     -0.746  0.1088E+03  0.5640E+03
     -0.489  0.1540E+03  0.6036E+03
     -0.231  0.1719E+03  0.6479E+03
      0.027  0.1435E+03  0.6849E+03
      0.284  0.1085E+03  0.7128E+03
      0.542  0.1109E+03  0.7414E+03
      0.800  0.9534E+02  0.7660E+03
      1.057  0.5897E+02  0.7812E+03
      1.315  0.5864E+02  0.7963E+03
      1.572  0.6539E+02  0.8131E+03
      1.830  0.6757E+02  0.8305E+03
      2.088  0.5678E+02  0.8451E+03
      2.345  0.4676E+02  0.8572E+03
      2.603  0.3200E+02  0.8654E+03
      2.860  0.9806E+01  0.8680E+03
      3.118  0.4904E+01  0.8692E+03
      3.376  0.1196E+02  0.8723E+03
      3.633  0.1202E+02  0.8754E+03
      3.891  0.2290E+01  0.8760E+03
      4.149  0.1009E+01  0.8763E+03
      4.406  0.1093E+02  0.8791E+03
      4.664  0.1875E+02  0.8839E+03
      4.921  0.1890E+02  0.8888E+03
      5.179  0.1608E+02  0.8929E+03
      5.437  0.1575E+02  0.8970E+03
      5.694  0.2074E+02  0.9023E+03
      5.952  0.2517E+02  0.9088E+03
      6.210  0.2893E+02  0.9162E+03
      6.467  0.3266E+02  0.9247E+03
      6.725  0.3144E+02  0.9328E+03
      6.982  0.4119E+02  0.9434E+03
      7.240  0.4182E+02  0.9541E+03
      7.498  0.2079E+02  0.9595E+03
      7.755  0.1956E+01  0.9600E+03
      8.013  0.1566E-01  0.9600E+03
      8.270  0.7048E-05  0.9600E+03
      8.528  0.1443E-09  0.9600E+03
      8.786  0.0000E+00  0.9600E+03
      9.043  0.0000E+00  0.9600E+03
      9.301  0.0000E+00  0.9600E+03
      9.559  0.0000E+00  0.9600E+03
      9.816  0.0000E+00  0.9600E+03
     10.074  0.0000E+00  0.9600E+03
     10.331  0.0000E+00  0.9600E+03
     10.589  0.0000E+00  0.9600E+03
     10.847  0.0000E+00  0.9600E+03
