LAMMPS (5 Jun 2019)
OMP_NUM_THREADS environment is not set. Defaulting to 1 thread. (../comm.cpp:88)
  using 1 OpenMP thread(s) per MPI task
Reading data file ...
  triclinic box = (0 0 0) to (11.2565 9.57841 17.1925) with tilt (0 0 0)
  1 by 1 by 1 MPI processor grid
  reading atoms ...
  52 atoms
  read_data CPU = 0.000740297 secs
22 atoms in group bulk
WARNING: Using 'neigh_modify every 1 delay 0 check yes' setting during minimization (../min.cpp:168)
Neighbor list info ...
  update every 1 steps, delay 0 steps, check yes
  max neighbors/atom: 2000, page size: 100000
  master list distance cutoff = 8.5
  ghost atom cutoff = 8.5
  binsize = 4.25, bins = 3 3 5
  1 neighbor lists, perpetual/occasional/extra = 1 0 0
  (1) pair eam/alloy, perpetual
      attributes: half, newton on
      pair build: half/bin/newton/tri
      stencil: half/bin/3d/newton/tri
      bin: standard
Setting up cg style minimization ...
  Unit style    : metal
  Current step  : 0
Per MPI rank memory allocation (min/avg/max) = 4.1 | 4.1 | 4.1 Mbytes
Step Temp E_pair E_mol TotEng Press 
       0            0   -213.53045            0   -213.53045   -103942.86 
     106            0   -237.34182            0   -237.34182   -6245.5668 
Loop time of 0.0420587 on 1 procs for 106 steps with 52 atoms

99.8% CPU use with 1 MPI tasks x 1 OpenMP threads

Minimization stats:
  Stopping criterion = energy tolerance
  Energy initial, next-to-last, final = 
        -213.530447591     -237.339469903     -237.341820082
  Force two-norm initial, final = 12.3187 0.180567
  Force max component initial, final = 3.70948 0.0485889
  Final line search alpha, max atom move = 0.680652 0.0330721
  Iterations, force evaluations = 106 165

MPI task timing breakdown:
Section |  min time  |  avg time  |  max time  |%varavg| %total
---------------------------------------------------------------
Pair    | 0.038385   | 0.038385   | 0.038385   |   0.0 | 91.27
Neigh   | 0.001499   | 0.001499   | 0.001499   |   0.0 |  3.56
Comm    | 0.001105   | 0.001105   | 0.001105   |   0.0 |  2.63
Output  | 0          | 0          | 0          |   0.0 |  0.00
Modify  | 7.55e-05   | 7.55e-05   | 7.55e-05   |   0.0 |  0.18
Other   |            | 0.0009939  |            |       |  2.36

Nlocal:    52 ave 52 max 52 min
Histogram: 1 0 0 0 0 0 0 0 0 0
Nghost:    710 ave 710 max 710 min
Histogram: 1 0 0 0 0 0 0 0 0 0
Neighs:    2593 ave 2593 max 2593 min
Histogram: 1 0 0 0 0 0 0 0 0 0

Total # of neighbors = 2593
Ave neighs/atom = 49.8654
Neighbor list builds = 5
Dangerous builds = 0
System init for write_data ...
Total wall time: 0:00:00
