"Millerite NiS"                         
           1
    11.256463    0.000000    0.000000
     0.000000    9.578410    0.000000
     0.000000    0.000000   17.192492
   Ty   Ty
  26  26
Direct configuration=     1
   0.43933499  0.46388800  0.16283377
   0.49692631  0.43999998  0.33284161
   0.23282115  0.13509087  0.09051112
   0.20393845  0.97874703  0.22865547
   0.43933499  0.19968200  0.16283377
   0.46988228  0.17287268  0.31305261
   0.15877523  0.58669980  0.12764505
   0.20574770  0.69916635  0.24430614
   0.13063970  0.33178500  0.13913288
   0.18296493  0.33113268  0.29958814
   0.50336725  0.69403026  0.09895334
   0.38717636  0.83239790  0.21691998
   0.54885519  0.83937205  0.30408318
   0.93933499  0.46388800  0.16283377
   0.98209253  0.47150193  0.32278613
   0.65320110  0.06457513  0.13246821
   0.71526096  0.96388800  0.25253989
   0.93933499  0.19968200  0.16283377
   0.98409121  0.19605888  0.32342745
   0.68062794  0.56948630  0.12170889
   0.71526096  0.69968200  0.25253989
   0.63063970  0.33178500  0.13913288
   0.68249164  0.33178500  0.31854512
   0.74006822  0.83001338  0.10874242
   0.90656566  0.83178500  0.22883899
   0.07351547  0.85435634  0.31386266
   0.05699687  0.17115359  0.07300833
   0.11148904  0.16357000  0.23893853
   0.33556306  0.66357000  0.14923241
   0.04444086  0.47112831  0.06493981
   0.11148904  0.50000000  0.23893853
   0.07112417  0.33533150  0.39351922
   0.33556306  1.00000000  0.14923241
   0.31236681  0.32926293  0.10483316
   0.36788880  0.33178500  0.26911836
   0.09196284  0.83178500  0.17941224
   0.26629305  0.85232840  0.31759859
   0.54796637  0.18688738  0.06596356
   0.61148904  0.16357000  0.23893853
   0.55520985  0.27330781  0.39940194
   0.83556306  0.66357000  0.14923241
   0.95386607  0.68924890  0.31711138
   0.53816871  0.47986357  0.06341211
   0.61148904  0.50000000  0.23893853
   0.65196394  0.50850584  0.38334038
   0.83556306  1.00000000  0.14923241
   0.92605380  0.98888318  0.31265136
   0.81143870  0.33572471  0.11119131
   0.86788880  0.33178500  0.26911836
   0.65106167  0.71218224  0.02837439
   0.59196284  0.83178500  0.17941224
   0.71327205  0.83074376  0.34745434
