 vasp.6.1.0 28Jan20 (build Mar 31 2020 17:42:31) gamma-only                     
  
 executed on             LinuxIFC date 2020.04.13  01:52:22
 running on   48 total cores
 distrk:  each k-point on   48 cores,    1 groups
 distr:  one band on NCORE=   6 cores,    8 groups


--------------------------------------------------------------------------------------------------------


 INCAR:
 POTCAR:    PAW_PBE Ni_pv 06Sep2000               
 POTCAR:    PAW_PBE S 06Sep2000                   
 POTCAR:    PAW_PBE Ni_pv 06Sep2000               
   VRHFIN =Ni:                                                                                      
   LEXCH  = PE                                                                                      
   EATOM  =  3501.1230 eV,  257.3253 Ry                                                             
                                                                                                    
   TITEL  = PAW_PBE Ni_pv 06Sep2000                                                                 
   LULTRA =        F    use ultrasoft PP ?                                                          
   IUNSCR =        1    unscreen: 0-lin 1-nonlin 2-no                                               
   RPACOR =    1.500    partial core radius                                                         
   POMASS =   58.690; ZVAL   =   16.000    mass and valenz                                          
   RCORE  =    2.000    outmost cutoff radius                                                       
   RWIGS  =    2.000; RWIGS  =    1.058    wigner-seitz radius (au A)                               
   ENMAX  =  367.986; ENMIN  =  275.989 eV                                                          
   RCLOC  =    1.301    cutoff for local pot                                                        
   LCOR   =        T    correct aug charges                                                         
   LPAW   =        T    paw PP                                                                      
   EAUG   =  703.443                                                                                
   DEXC   =    0.000                                                                                
   RMAX   =    2.041    core radius for proj-oper                                                   
   RAUG   =    1.300    factor for augmentation sphere                                              
   RDEP   =    2.103    radius for radial grids                                                     
   RDEPT  =    1.618    core radius for aug-charge                                                  
                                                                                                    
   Atomic configuration                                                                             
    8 entries                                                                                       
     n  l   j            E        occ.                                                              
     1  0  0.50     -8206.4253   2.0000                                                             
     2  0  0.50      -976.1748   2.0000                                                             
     2  1  1.50      -839.0571   6.0000                                                             
     3  0  0.50      -105.9991   2.0000                                                             
     3  1  1.50       -66.4603   6.0000                                                             
     3  2  2.50        -4.6458   9.0000                                                             
     4  0  0.50        -4.4926   1.0000                                                             
     4  3  2.50        -1.3606   0.0000                                                             
   Description                                                                                      
     l       E           TYP  RCUT    TYP  RCUT                                                     
     1    -66.4602962     23  1.700                                                                 
     1     -1.3605826     23  1.700                                                                 
     2     -4.6457867     23  2.000                                                                 
     2     -6.0063693     23  2.000                                                                 
     0     -4.4925576     23  1.900                                                                 
     0     16.3626226     23  1.900                                                                 
  local pseudopotential read in
  partial core-charges read in
  partial kinetic energy density read in
  atomic valenz-charges read in
  non local Contribution for L=           1  read in
    real space projection operators read in
  non local Contribution for L=           1  read in
    real space projection operators read in
  non local Contribution for L=           2  read in
    real space projection operators read in
  non local Contribution for L=           2  read in
    real space projection operators read in
  non local Contribution for L=           0  read in
    real space projection operators read in
  non local Contribution for L=           0  read in
    real space projection operators read in
    PAW grid and wavefunctions read in
 
   number of l-projection  operators is LMAX  =           6
   number of lm-projection operators is LMMAX =          18
 
 POTCAR:    PAW_PBE S 06Sep2000                   
   VRHFIN =S : s2p4                                                                                 
   LEXCH  = PE                                                                                      
   EATOM  =   276.8230 eV,   20.3459 Ry                                                             
                                                                                                    
   TITEL  = PAW_PBE S 06Sep2000                                                                     
   LULTRA =        F    use ultrasoft PP ?                                                          
   IUNSCR =        1    unscreen: 0-lin 1-nonlin 2-no                                               
   RPACOR =    1.500    partial core radius                                                         
   POMASS =   32.066; ZVAL   =    6.000    mass and valenz                                          
   RCORE  =    1.900    outmost cutoff radius                                                       
   RWIGS  =    2.200; RWIGS  =    1.164    wigner-seitz radius (au A)                               
   ENMAX  =  258.689; ENMIN  =  194.016 eV                                                          
   ICORE  =        2    local potential                                                             
   LCOR   =        T    correct aug charges                                                         
   LPAW   =        T    paw PP                                                                      
   EAUG   =  335.092                                                                                
   DEXC   =    0.000                                                                                
   RMAX   =    1.942    core radius for proj-oper                                                   
   RAUG   =    1.300    factor for augmentation sphere                                              
   RDEP   =    1.954    radius for radial grids                                                     
   RDEPT  =    1.744    core radius for aug-charge                                                  
                                                                                                    
   Atomic configuration                                                                             
    6 entries                                                                                       
     n  l   j            E        occ.                                                              
     1  0  0.50     -2405.8406   2.0000                                                             
     2  0  0.50      -211.7007   2.0000                                                             
     2  1  1.50      -156.4958   6.0000                                                             
     3  0  0.50       -17.2562   2.0000                                                             
     3  1  0.50        -7.0085   4.0000                                                             
     3  2  1.50        -6.8029   0.0000                                                             
   Description                                                                                      
     l       E           TYP  RCUT    TYP  RCUT                                                     
     0    -17.2561641     23  1.900                                                                 
     0    -15.8743224     23  1.900                                                                 
     1     -7.0085400     23  1.900                                                                 
     1     -2.7779785     23  1.900                                                                 
     2     -6.8029130     23  1.900                                                                 
  local pseudopotential read in
  partial core-charges read in
  partial kinetic energy density read in
  atomic valenz-charges read in
  non local Contribution for L=           0  read in
    real space projection operators read in
  non local Contribution for L=           0  read in
    real space projection operators read in
  non local Contribution for L=           1  read in
    real space projection operators read in
  non local Contribution for L=           1  read in
    real space projection operators read in
    PAW grid and wavefunctions read in
 
   number of l-projection  operators is LMAX  =           4
   number of lm-projection operators is LMMAX =           8
 
 Optimization of the real space projectors (new method)

 maximal supplied QI-value         = 18.90
 optimisation between [QCUT,QGAM] = [ 10.77, 21.73] = [ 32.49,132.25] Ry 
 Optimized for a Real-space Cutoff    1.38 Angstroem

   l    n(q)    QCUT    max X(q) W(low)/X(q) W(high)/X(q)  e(spline) 
   1      8    10.771     2.836    0.40E-04    0.29E-04    0.12E-06
   1      8    10.771     4.023    0.10E-03    0.48E-04    0.29E-06
   2      8    10.771    73.368    0.42E-03    0.97E-04    0.44E-06
   2      8    10.771    69.010    0.42E-03    0.99E-04    0.45E-06
   0      9    10.771    54.797    0.10E-03    0.56E-04    0.74E-07
   0      9    10.771    24.266    0.89E-04    0.49E-04    0.67E-07
 Optimization of the real space projectors (new method)

 maximal supplied QI-value         = 19.84
 optimisation between [QCUT,QGAM] = [ 10.71, 21.63] = [ 32.15,130.99] Ry 
 Optimized for a Real-space Cutoff    1.19 Angstroem

   l    n(q)    QCUT    max X(q) W(low)/X(q) W(high)/X(q)  e(spline) 
   0      8    10.715   187.594    0.41E-03    0.53E-04    0.66E-07
   0      8    10.715   164.243    0.41E-03    0.53E-04    0.65E-07
   1      7    10.715    67.533    0.19E-03    0.59E-03    0.68E-07
   1      7    10.715    50.729    0.19E-03    0.58E-03    0.67E-07
  PAW_PBE Ni_pv 06Sep2000               :
 energy of atom  1       EATOM=-3501.1230
 kinetic energy error for atom=    0.0925 (will be added to EATOM!!)
  PAW_PBE S 06Sep2000                   :
 energy of atom  2       EATOM= -276.8230
 kinetic energy error for atom=    0.0033 (will be added to EATOM!!)
 
 
 POSCAR: Structure 32 made from 011-3.xsd file
  positions in direct lattice
  No initial velocities read in
 exchange correlation table for  LEXCH =        8
   RHO(1)=    0.500       N(1)  =     2000
   RHO(2)=  100.500       N(2)  =     4000
 


--------------------------------------------------------------------------------------------------------


 ion  position               nearest neighbor table
   1  0.583  0.790  0.257-  32 2.25  46 2.26  38 2.26  39 2.36  47 2.36  10 2.53  20 2.53
   2  0.520  0.665  0.412-  33 2.25  47 2.26  39 2.26  48 2.36  21 2.53  11 2.53
   3  0.333  0.290  0.051-  34 2.25  40 2.36  49 2.36  12 2.53
   4  0.270  0.165  0.206-  35 2.25  49 2.26  40 2.26  50 2.36  41 2.36  13 2.53  22 2.53
   5  0.208  0.040  0.360-  36 2.25  50 2.26  41 2.26  42 2.36  51 2.36  23 2.53  14 2.53
   6  0.020  0.665  0.000-  43 2.36  52 2.36  24 2.53
   7  0.958  0.540  0.154-  28 2.25  52 2.26  43 2.26  44 2.36  53 2.36  25 2.53  16 2.53
   8  0.895  0.415  0.309-  29 2.25  53 2.26  44 2.26  45 2.36  54 2.36  17 2.53  26 2.53
   9  0.832  0.290  0.463-  30 2.25  54 2.26  45 2.26  18 2.53  27 2.53
  10  0.599  0.559  0.217-  40 2.25  46 2.26  28 2.26  47 2.36  29 2.36   1 2.53  20 2.53
  11  0.537  0.434  0.371-  41 2.25  29 2.26  47 2.26  30 2.36  48 2.36  21 2.53   2 2.53
  12  0.349  0.059  0.011-  31 2.36  49 2.36   3 2.53
  13  0.287  0.934  0.165-  43 2.25  31 2.26  49 2.26  50 2.36  32 2.36   4 2.53  22 2.53
  14  0.224  0.809  0.320-  44 2.25  50 2.26  32 2.26  51 2.36  33 2.36  23 2.53   5 2.53
  15  0.161  0.683  0.474-  45 2.25  51 2.26  33 2.26
  16  0.974  0.309  0.114-  37 2.25  34 2.26  52 2.26  35 2.36  53 2.36  25 2.53   7 2.53
  17  0.912  0.184  0.268-  38 2.25  53 2.26  35 2.26  36 2.36  54 2.36   8 2.53  26 2.53
  18  0.849  0.058  0.423-  39 2.25  54 2.26  36 2.26   9 2.53  27 2.53
  19  0.909  0.915  0.103-  49 2.25  37 2.26  38 2.36  28 2.36
  20  0.847  0.790  0.257-  50 2.25  28 2.26  38 2.26  29 2.36  39 2.36   1 2.53  10 2.53
  21  0.784  0.665  0.412-  51 2.25  29 2.26  39 2.26  30 2.36   2 2.53  11 2.53
  22  0.534  0.165  0.206-  53 2.25  31 2.26  40 2.26  41 2.36  32 2.36  13 2.53   4 2.53
  23  0.472  0.040  0.360-  54 2.25  41 2.26  32 2.26  42 2.36  33 2.36   5 2.53  14 2.53
  24  0.285  0.665  0.000-  34 2.36  43 2.36   6 2.53
  25  0.222  0.540  0.154-  46 2.25  34 2.26  43 2.26  44 2.36  35 2.36   7 2.53  16 2.53
  26  0.159  0.415  0.309-  47 2.25  35 2.26  44 2.26  45 2.36  36 2.36  17 2.53   8 2.53
  27  0.097  0.290  0.463-  48 2.25  36 2.26  45 2.26  18 2.53   9 2.53
  28  0.825  0.674  0.153-   7 2.25  20 2.26  10 2.26  19 2.36
  29  0.763  0.549  0.307-   8 2.25  21 2.26  11 2.26  20 2.36  10 2.36
  30  0.700  0.424  0.462-   9 2.25  11 2.36  21 2.36
  31  0.513  0.050  0.102-  22 2.26  13 2.26  12 2.36
  32  0.450  0.924  0.256-   1 2.25  23 2.26  14 2.26  22 2.36  13 2.36
  33  0.387  0.799  0.410-   2 2.25  15 2.26  14 2.36  23 2.36
  34  0.200  0.425  0.050-   3 2.25  25 2.26  16 2.26  24 2.36
  35  0.138  0.299  0.204-   4 2.25  26 2.26  17 2.26  16 2.36  25 2.36
  36  0.075  0.174  0.359-   5 2.25  27 2.26  18 2.26  17 2.36  26 2.36
  37  0.867  0.094  0.051-  16 2.25  19 2.26
  38  0.804  0.969  0.205-  17 2.25   1 2.26  20 2.26  19 2.36
  39  0.741  0.843  0.359-  18 2.25  21 2.26   2 2.26   1 2.36  20 2.36
  40  0.492  0.344  0.153-  10 2.25   4 2.26  22 2.26   3 2.36
  41  0.429  0.219  0.308-  11 2.25  23 2.26   5 2.26  22 2.36   4 2.36
  42  0.366  0.093  0.462-  23 2.36   5 2.36
  43  0.179  0.719  0.102-  13 2.25  25 2.26   7 2.26   6 2.36  24 2.36
  44  0.117  0.594  0.256-  14 2.25  26 2.26   8 2.26  25 2.36   7 2.36
  45  0.054  0.468  0.411-  15 2.25   9 2.26  27 2.26   8 2.36  26 2.36
  46  0.489  0.674  0.153-  25 2.25  10 2.26   1 2.26
  47  0.426  0.549  0.307-  26 2.25   2 2.26  11 2.26   1 2.36  10 2.36
  48  0.363  0.424  0.462-  27 2.25   2 2.36  11 2.36
  49  0.176  0.050  0.102-  19 2.25   4 2.26  13 2.26   3 2.36  12 2.36
  50  0.114  0.924  0.256-  20 2.25   5 2.26  14 2.26   4 2.36  13 2.36
  51  0.051  0.799  0.410-  21 2.25  15 2.26  14 2.36   5 2.36
  52  0.864  0.425  0.050-   7 2.26  16 2.26   6 2.36
  53  0.801  0.299  0.204-  22 2.25   8 2.26  17 2.26   7 2.36  16 2.36
  54  0.739  0.174  0.359-  23 2.25   9 2.26  18 2.26  17 2.36   8 2.36
 
  LATTYP: Found a base centered orthorhombic cell.
 ALAT       =     9.5784100000
 B/A-ratio  =     1.8519363485
 C/A-ratio  =     1.9847903504
  
  Lattice vectors:
  
 A1 = (   8.4281814759,   5.5287226424,   0.0000000000)
 A2 = (   0.0000000000, -10.0797329849,   0.0000000000)
 A3 = (   0.0000000000,   0.0000000000, -19.0111357400)


Analysis of symmetry for initial positions (statically):
=====================================================================
 Subroutine PRICEL returns:
 Original cell was already a primitive cell.
 

 Routine SETGRP: Setting up the symmetry group for a 
 base centered orthorhombic supercell.


 Subroutine GETGRP returns: Found  1 space group operations
 (whereof  1 operations were pure point group operations)
 out of a pool of  8 trial point group operations.


The static configuration has the point symmetry C_1 .


Analysis of symmetry for dynamics (positions and initial velocities):
=====================================================================
 Subroutine PRICEL returns:
 Original cell was already a primitive cell.
 

 Routine SETGRP: Setting up the symmetry group for a 
 base centered orthorhombic supercell.


 Subroutine GETGRP returns: Found  1 space group operations
 (whereof  1 operations were pure point group operations)
 out of a pool of  8 trial point group operations.


The dynamic configuration has the point symmetry C_1 .


 Subroutine INISYM returns: Found  1 space group operations
 (whereof  1 operations are pure point group operations),
 and found     1 'primitive' translations


----------------------------------------------------------------------------------------

                                     Primitive cell                                     

  volume of cell :    1615.0686

  direct lattice vectors                    reciprocal lattice vectors
     8.428181476 -4.551010342  0.000000000     0.118649557  0.000000000  0.000000000
     0.000000000 10.079732985  0.000000000     0.053570403  0.099208977  0.000000000
     0.000000000  0.000000000 19.011135740     0.000000000  0.000000000  0.052600750

  length of vectors
     9.578410000 10.079732985 19.011135740     0.118649557  0.112748434  0.052600750

  position of ions in fractional coordinates (direct lattice)
     0.582630317  0.789963333  0.257398085
     0.519990404  0.664683508  0.411836936
     0.332816867  0.290336434  0.051479617
     0.270176954  0.165056608  0.205918468
     0.207537041  0.039776783  0.360357319
     0.020363505  0.665429709  0.000000000
     0.957723592  0.540149884  0.154438851
     0.895083679  0.414870058  0.308877702
     0.832443766  0.289590232  0.463316553
     0.599180157  0.558857015  0.216594414
     0.536540245  0.433577189  0.371033265
     0.349366708  0.059230116  0.010675946
     0.286726795  0.933950290  0.165114797
     0.224086882  0.808670464  0.319553648
     0.161446969  0.683390639  0.473992499
     0.974273433  0.309043565  0.113635180
     0.911633520  0.183763740  0.268074031
     0.848993607  0.058483914  0.422512882
     0.909476229  0.915243159  0.102959234
     0.846836317  0.789963333  0.257398085
     0.784196404  0.664683508  0.411836936
     0.534382954  0.165056608  0.205918468
     0.471743041  0.039776783  0.360357319
     0.284569505  0.665429709  0.000000000
     0.221929592  0.540149884  0.154438851
     0.159289679  0.414870058  0.308877702
     0.096649766  0.289590232  0.463316553
     0.825181678  0.674430055  0.153010292
     0.762541765  0.549150230  0.307449143
     0.699901852  0.423870404  0.461887994
     0.512728315  0.049523331  0.101530675
     0.450088403  0.924243505  0.255969526
     0.387448490  0.798963679  0.410408377
     0.200274953  0.424616606  0.050051058
     0.137635040  0.299336780  0.204489909
     0.074995127  0.174056954  0.358928760
     0.866747645  0.093991989  0.050529303
     0.804107732  0.968712164  0.204968154
     0.741467819  0.843432338  0.359407005
     0.491654369  0.343805439  0.153488537
     0.429014457  0.218525613  0.307927388
     0.366374544  0.093245787  0.462366239
     0.179201007  0.718898714  0.102008920
     0.116561094  0.593618888  0.256447771
     0.053921181  0.468339063  0.410886622
     0.488751678  0.674430055  0.153010292
     0.426111765  0.549150230  0.307449143
     0.363471852  0.423870404  0.461887994
     0.176298315  0.049523331  0.101530675
     0.113658403  0.924243505  0.255969526
     0.051018490  0.798963679  0.410408377
     0.863844953  0.424616606  0.050051058
     0.801205040  0.299336780  0.204489909
     0.738565127  0.174056954  0.358928760

  ion indices of the primitive-cell ions
   primitive index   ion index
                 1           1
                 2           2
                 3           3
                 4           4
                 5           5
                 6           6
                 7           7
                 8           8
                 9           9
                10          10
                11          11
                12          12
                13          13
                14          14
                15          15
                16          16
                17          17
                18          18
                19          19
                20          20
                21          21
                22          22
                23          23
                24          24
                25          25
                26          26
                27          27
                28          28
                29          29
                30          30
                31          31
                32          32
                33          33
                34          34
                35          35
                36          36
                37          37
                38          38
                39          39
                40          40
                41          41
                42          42
                43          43
                44          44
                45          45
                46          46
                47          47
                48          48
                49          49
                50          50
                51          51
                52          52
                53          53
                54          54

----------------------------------------------------------------------------------------

 
 
 KPOINTS: gamma-point-only calculation. no periodi

Automatic generation of k-mesh.
Space group operators:
 irot       det(A)        alpha          n_x          n_y          n_z        tau_x        tau_y        tau_z
    1     1.000000     0.000000     1.000000     0.000000     0.000000     0.000000     0.000000     0.000000
 
 Subroutine IBZKPT returns following result:
 ===========================================
 
 Found      1 irreducible k-points:
 
 Following reciprocal coordinates:
            Coordinates               Weight
  0.000000  0.000000  0.000000      1.000000
 
 Following cartesian coordinates:
            Coordinates               Weight
  0.000000  0.000000  0.000000      1.000000
 


--------------------------------------------------------------------------------------------------------




 Dimension of arrays:
   k-points           NKPTS =      1   k-points in BZ     NKDIM =      1   number of bands    NBANDS=    360
   number of dos      NEDOS =    301   number of ions     NIONS =     54
   non local maximal  LDIM  =      6   non local SUM 2l+1 LMDIM =     18
   total plane-waves  NPLWV = 270000
   max r-space proj   IRMAX =   1893   max aug-charges    IRDMAX=   5466
   dimension x,y,z NGX =    50 NGY =   54 NGZ =  100
   dimension x,y,z NGXF=   100 NGYF=  108 NGZF=  200
   support grid    NGXF=   100 NGYF=  108 NGZF=  200
   ions per type =              27  27
   NGX,Y,Z   is equivalent  to a cutoff of   8.68,  8.91,  8.74 a.u.
   NGXF,Y,Z  is equivalent  to a cutoff of  17.36, 17.81, 17.49 a.u.

 SYSTEM =  "Millerite NiS"                         
 POSCAR =  Structure 32 made from 011-3.xsd file   

 Startparameter for this run:
   NWRITE =      2    write-flag & timer
   PREC   = normal    normal or accurate (medium, high low for compatibility)
   ISTART =      0    job   : 0-new  1-cont  2-samecut
   ICHARG =      2    charge: 1-file 2-atom 10-const
   ISPIN  =      1    spin polarized calculation?
   LNONCOLLINEAR =      F non collinear calculations
   LSORBIT =      F    spin-orbit coupling
   INIWAV =      1    electr: 0-lowe 1-rand  2-diag
   LASPH  =      F    aspherical Exc in radial PAW
   METAGGA=      F    non-selfconsistent MetaGGA calc.

 Electronic Relaxation 1
   ENCUT  =  450.0 eV  33.07 Ry    5.75 a.u.  16.57 17.43 32.88*2*pi/ulx,y,z
   ENINI  =  450.0     initial cutoff
   ENAUG  =  703.4 eV  augmentation charge cutoff
   NELM   =    100;   NELMIN=  2; NELMDL= -5     # of ELM steps 
   EDIFF  = 0.1E-03   stopping-criterion for ELM
   LREAL  =      T    real-space projection
   NLSPLINE    = F    spline interpolate recip. space projectors
   LCOMPAT=      F    compatible to vasp.4.4
   GGA_COMPAT  = T    GGA compatible to vasp.4.4-vasp.4.6
   LMAXPAW     = -100 max onsite density
   LMAXMIX     =    2 max onsite mixed and CHGCAR
   VOSKOWN=      0    Vosko Wilk Nusair interpolation
   ROPT   =   -0.00050  -0.00050
 Ionic relaxation
   EDIFFG = 0.1E-02   stopping-criterion for IOM
   NSW    =      0    number of steps for IOM
   NBLOCK =      1;   KBLOCK =      1    inner block; outer block 
   IBRION =     -1    ionic relax: 0-MD 1-quasi-New 2-CG
   NFREE  =      0    steps in history (QN), initial steepest desc. (CG)
   ISIF   =      2    stress and relaxation
   IWAVPR =     10    prediction:  0-non 1-charg 2-wave 3-comb
   ISYM   =      2    0-nonsym 1-usesym 2-fastsym
   LCORR  =      T    Harris-Foulkes like correction to forces

   POTIM  = 0.5000    time-step for ionic-motion
   TEIN   =    0.0    initial temperature
   TEBEG  =    0.0;   TEEND  =   0.0 temperature during run
   SMASS  =  -3.00    Nose mass-parameter (am)
   estimated Nose-frequenzy (Omega)   =  0.10E-29 period in steps = 0.13E+47 mass=  -0.210E-26a.u.
   SCALEE = 1.0000    scale energy and forces
   NPACO  =    256;   APACO  = 16.0  distance and # of slots for P.C.
   PSTRESS=    0.0 pullay stress

  Mass of Ions in am
   POMASS =  58.69 32.07
  Ionic Valenz
   ZVAL   =  16.00  6.00
  Atomic Wigner-Seitz radii
   RWIGS  =  -1.00 -1.00
  virtual crystal weights 
   VCA    =   1.00  1.00
   NELECT =     594.0000    total number of electrons
   NUPDOWN=      -1.0000    fix difference up-down

 DOS related values:
   EMIN   =  10.00;   EMAX   =-10.00  energy-range for DOS
   EFERMI =   0.00
   ISMEAR =     0;   SIGMA  =   0.20  broadening in eV -4-tet -1-fermi 0-gaus

 Electronic relaxation 2 (details)
   IALGO  =     38    algorithm
   LDIAG  =      T    sub-space diagonalisation (order eigenvalues)
   LSUBROT=      F    optimize rotation matrix (better conditioning)
   TURBO    =      0    0=normal 1=particle mesh
   IRESTART =      0    0=no restart 2=restart with 2 vectors
   NREBOOT  =      0    no. of reboots
   NMIN     =      0    reboot dimension
   EREF     =   0.00    reference energy to select bands
   IMIX   =      4    mixing-type and parameters
     AMIX     =   0.40;   BMIX     =  1.00
     AMIX_MAG =   1.60;   BMIX_MAG =  1.00
     AMIN     =   0.10
     WC   =   100.;   INIMIX=   1;  MIXPRE=   1;  MAXMIX= -45

 Intra band minimization:
   WEIMIN = 0.0000     energy-eigenvalue tresh-hold
   EBREAK =  0.69E-07  absolut break condition
   DEPER  =   0.30     relativ break condition  

   TIME   =   0.40     timestep for ELM

  volume/ion in A,a.u.               =      29.91       201.83
  Fermi-wavevector in a.u.,A,eV,Ry     =   1.172933  2.216523 18.718522  1.375773
  Thomas-Fermi vector in A             =   2.309354
 
 Write flags
   LWAVE        =      F    write WAVECAR
   LDOWNSAMPLE  =      F    k-point downsampling of WAVECAR
   LCHARG       =      F    write CHGCAR
   LVTOT        =      F    write LOCPOT, total local potential
   LVHAR        =      F    write LOCPOT, Hartree potential only
   LELF         =      F    write electronic localiz. function (ELF)
   LORBIT       =      0    0 simple, 1 ext, 2 COOP (PROOUT), +10 PAW based schemes


 Dipole corrections
   LMONO  =      F    monopole corrections only (constant potential shift)
   LDIPOL =      F    correct potential (dipole corrections)
   IDIPOL =      0    1-x, 2-y, 3-z, 4-all directions 
   EPSILON=  1.0000000 bulk dielectric constant

 Exchange correlation treatment:
   GGA     =    --    GGA type
   LEXCH   =     8    internal setting for exchange type
   VOSKOWN=      0    Vosko Wilk Nusair interpolation
   LHFCALC =     F    Hartree Fock is set to
   LHFONE  =     F    Hartree Fock one center treatment
   AEXX    =    0.0000 exact exchange contribution

 Linear response parameters
   LEPSILON=     F    determine dielectric tensor
   LRPA    =     F    only Hartree local field effects (RPA)
   LNABLA  =     F    use nabla operator in PAW spheres
   LVEL    =     F    velocity operator in full k-point grid
   LINTERFAST=   F  fast interpolation
   KINTER  =     0    interpolate to denser k-point grid
   CSHIFT  =0.1000    complex shift for real part using Kramers Kronig
   OMEGAMAX=  -1.0    maximum frequency
   DEG_THRESHOLD= 0.2000000E-02 threshold for treating states as degnerate
   RTIME   =   -0.100 relaxation time in fs
  (WPLASMAI=    0.000 imaginary part of plasma frequency in eV, 0.658/RTIME)
   DFIELD  = 0.0000000 0.0000000 0.0000000 field for delta impulse in time
 
 Orbital magnetization related:
   ORBITALMAG=     F  switch on orbital magnetization
   LCHIMAG   =     F  perturbation theory with respect to B field
   DQ        =  0.001000  dq finite difference perturbation B field
   LLRAUG    =     F  two centre corrections for induced B field



--------------------------------------------------------------------------------------------------------


 Static calculation
 charge density and potential will be updated during run
 non-spin polarized calculation
 Variant of blocked Davidson
 Davidson routine will perform the subspace rotation
 perform sub-space diagonalisation
    after iterative eigenvector-optimisation
 modified Broyden-mixing scheme, WC =      100.0
 initial mixing is a Kerker type mixing with AMIX =  0.4000 and BMIX =      1.0000
 Hartree-type preconditioning will be used
 using additional bands           63
 real space projection scheme for non local part
 use partial core corrections
 calculate Harris-corrections to forces 
   (improved forces if not selfconsistent)
 use gradient corrections 
 use of overlap-Matrix (Vanderbilt PP)
 Gauss-broadening in eV      SIGMA  =   0.20


--------------------------------------------------------------------------------------------------------


  energy-cutoff  :      450.00
  volume of cell :     1615.07
      direct lattice vectors                 reciprocal lattice vectors
     8.428181476 -4.551010342  0.000000000     0.118649557  0.000000000  0.000000000
     0.000000000 10.079732985  0.000000000     0.053570403  0.099208977  0.000000000
     0.000000000  0.000000000 19.011135740     0.000000000  0.000000000  0.052600750

  length of vectors
     9.578410000 10.079732985 19.011135740     0.118649557  0.112748434  0.052600750


 
 k-points in units of 2pi/SCALE and weight: gamma-point-only calculation. no periodi
   0.00000000  0.00000000  0.00000000       1.000
 
 k-points in reciprocal lattice and weights: gamma-point-only calculation. no periodi
   0.00000000  0.00000000  0.00000000       1.000
 
 position of ions in fractional coordinates (direct lattice) 
   0.58263032  0.78996333  0.25739808
   0.51999040  0.66468351  0.41183694
   0.33281687  0.29033643  0.05147962
   0.27017695  0.16505661  0.20591847
   0.20753704  0.03977678  0.36035732
   0.02036350  0.66542971  0.00000000
   0.95772359  0.54014988  0.15443885
   0.89508368  0.41487006  0.30887770
   0.83244377  0.28959023  0.46331655
   0.59918016  0.55885702  0.21659441
   0.53654024  0.43357719  0.37103327
   0.34936671  0.05923012  0.01067595
   0.28672679  0.93395029  0.16511480
   0.22408688  0.80867046  0.31955365
   0.16144697  0.68339064  0.47399250
   0.97427343  0.30904357  0.11363518
   0.91163352  0.18376374  0.26807403
   0.84899361  0.05848391  0.42251288
   0.90947623  0.91524316  0.10295923
   0.84683632  0.78996333  0.25739808
   0.78419640  0.66468351  0.41183694
   0.53438295  0.16505661  0.20591847
   0.47174304  0.03977678  0.36035732
   0.28456951  0.66542971  0.00000000
   0.22192959  0.54014988  0.15443885
   0.15928968  0.41487006  0.30887770
   0.09664977  0.28959023  0.46331655
   0.82518168  0.67443006  0.15301029
   0.76254177  0.54915023  0.30744914
   0.69990185  0.42387040  0.46188799
   0.51272831  0.04952333  0.10153067
   0.45008840  0.92424350  0.25596953
   0.38744849  0.79896368  0.41040838
   0.20027495  0.42461661  0.05005106
   0.13763504  0.29933678  0.20448991
   0.07499513  0.17405695  0.35892876
   0.86674764  0.09399199  0.05052930
   0.80410773  0.96871216  0.20496815
   0.74146782  0.84343234  0.35940701
   0.49165437  0.34380544  0.15348854
   0.42901446  0.21852561  0.30792739
   0.36637454  0.09324579  0.46236624
   0.17920101  0.71889871  0.10200892
   0.11656109  0.59361889  0.25644777
   0.05392118  0.46833906  0.41088662
   0.48875168  0.67443006  0.15301029
   0.42611177  0.54915023  0.30744914
   0.36347185  0.42387040  0.46188799
   0.17629831  0.04952333  0.10153067
   0.11365840  0.92424350  0.25596953
   0.05101849  0.79896368  0.41040838
   0.86384495  0.42461661  0.05005106
   0.80120504  0.29933678  0.20448991
   0.73856513  0.17405695  0.35892876
 
 position of ions in cartesian coordinates  (Angst):
   4.91051405  5.31106287  4.89342993
   4.38257349  4.33335057  7.82948789
   2.80504095  1.41186073  0.97868599
   2.27710040  0.43414842  3.91474395
   1.74915984 -0.54356387  6.85080191
   0.17162732  6.61467927  0.00000000
   8.07186824  1.08595663  2.93605796
   7.54392768  0.10824433  5.87211592
   7.01598713 -0.86946798  8.80817388
   5.04999910  2.90625440  4.11770581
   4.52205855  1.92854209  7.05376376
   2.94452602 -0.99294775  0.20296186
   2.41658546  8.10907293  3.13901982
   1.88864491  7.13136063  6.07507778
   1.36070435  6.15364834  9.01113574
   8.21135330 -1.31885185  2.16033383
   7.68341275 -2.29656415  5.09639179
   7.15547219 -3.27427645  8.03244975
   7.66523071  5.08637093  1.95737197
   7.13729016  4.10865863  4.89342993
   6.60934961  3.13094633  7.82948789
   4.50387651 -0.76825581  3.91474395
   3.97593596 -1.74596811  6.85080191
   2.39840343  5.41227503  0.00000000
   1.87046288  4.43456273  2.93605796
   1.34252232  3.45685043  5.87211592
   0.81458177  2.47913813  8.80817388
   6.95478093  3.04266452  2.90889943
   6.42684038  2.06495223  5.84495739
   5.89889982  1.08723993  8.78101535
   4.32136729 -1.83424991  1.93021344
   3.79342674  7.26777077  4.86627140
   3.26548619  6.29005846  7.80232936
   1.68795365  3.36856863  0.95152746
   1.16001309  2.39085632  3.88758542
   0.63207254  1.41314402  6.82364338
   7.30510645 -2.99716334  0.96061944
   6.77716589  6.10485735  3.89667740
   6.24922534  5.12714504  6.83273536
   4.14375225  1.22794291  2.91799141
   3.61581170  0.25023060  5.85404937
   3.08787114 -0.72748170  8.79010733
   1.51033861  6.43076144  1.93930542
   0.98239805  5.45304914  4.87536338
   0.45445750  4.47533685  7.81142134
   4.11928784  4.57376093  2.90889943
   3.59134728  3.59604864  5.84495739
   3.06340673  2.61833633  8.78101535
   1.48587419 -0.30315350  1.93021344
   0.95793365  8.79886718  4.86627140
   0.42999309  7.82115487  7.80232936
   7.28064203  0.34865469  0.95152746
   6.75270148 -0.62905761  3.88758542
   6.22476092 -1.60676991  6.82364338
 


--------------------------------------------------------------------------------------------------------


 use parallel FFT for orbitals z direction half grid
 k-point   1 :   0.0000 0.0000 0.0000  plane waves:   17472

 maximum and minimum number of plane-waves per node :      2913     2910

 maximum number of plane-waves:     17472
 maximum index in each direction: 
   IXMAX=   16   IYMAX=   17   IZMAX=   32
   IXMIN=  -16   IYMIN=  -17   IZMIN=    0


 real space projection operators:
  total allocation   :       8735.31 KBytes
  max/ min on nodes  :       1570.81       1393.09


 parallel 3D FFT for wavefunctions:
    minimum data exchange during FFTs selected (reduces bandwidth)
 parallel 3D FFT for charge:
    minimum data exchange during FFTs selected (reduces bandwidth)


 total amount of memory used by VASP MPI-rank0    42844. kBytes
=======================================================================

   base      :      30000. kBytes
   nonlr-proj:       1930. kBytes
   fftplans  :       3097. kBytes
   grid      :       5606. kBytes
   one-center:         69. kBytes
   wavefun   :       2142. kBytes
 
     INWAV:  cpu time    0.0000: real time    0.0000
 Broyden mixing: mesh for mixing (old mesh)
   NGX = 33   NGY = 35   NGZ = 65
  (NGX  =100   NGY  =108   NGZ  =200)
  gives a total of  75075 points

 initial charge density was supplied:
 charge density of overlapping atoms calculated
 number of electron     594.0000000 magnetization 
 keeping initial charge density in first step


--------------------------------------------------------------------------------------------------------


 Maximum index for non-local projection operator          410
 Maximum index for augmentation-charges          505 (set IRDMAX)


--------------------------------------------------------------------------------------------------------


 First call to EWALD:  gamma=   0.151
 Maximum number of real-space cells 4x 3x 2
 Maximum number of reciprocal cells 2x 2x 4

    FEWALD:  cpu time    0.0027: real time    0.0028


--------------------------------------- Iteration      1(   1)  ---------------------------------------


    POTLOK:  cpu time    0.0378: real time    0.0382
    SETDIJ:  cpu time    0.0051: real time    0.0052
     EDDAV:  cpu time    1.1435: real time    1.1479
       DOS:  cpu time    0.0007: real time    0.0008
    --------------------------------------------
      LOOP:  cpu time    1.1871: real time    1.1922

 eigenvalue-minimisations  :   880
 total energy-change (2. order) : 0.6983584E+04  (-0.3788983E+05)
 number of electron     594.0000000 magnetization 
 augmentation part      594.0000000 magnetization 

 Free energy of the ion-electron system (eV)
  ---------------------------------------------------
  alpha Z        PSCENC =      1295.57565721
  Ewald energy   TEWEN  =    101400.81283024
  -Hartree energ DENC   =   -192891.15285512
  -exchange      EXHF   =         0.00000000
  -V(xc)+E(xc)   XCENC  =      2734.69699927
  PAW double counting   =     84547.15000061   -88231.13391551
  entropy T*S    EENTRO =        -0.31718036
  eigenvalues    EBANDS =     -3874.00163720
  atomic energy  EATOM  =    102001.95379032
  Solvation  Ediel_sol  =         0.00000000
  ---------------------------------------------------
  free energy    TOTEN  =      6983.58368945 eV

  energy without entropy =     6983.90086981  energy(sigma->0) =     6983.74227963


--------------------------------------------------------------------------------------------------------




--------------------------------------- Iteration      1(   2)  ---------------------------------------


     EDDAV:  cpu time    0.9975: real time    1.0006
       DOS:  cpu time    0.0005: real time    0.0004
    --------------------------------------------
      LOOP:  cpu time    0.9980: real time    1.0011

 eigenvalue-minimisations  :   760
 total energy-change (2. order) :-0.6576266E+04  (-0.6354703E+04)
 number of electron     594.0000000 magnetization 
 augmentation part      594.0000000 magnetization 

 Free energy of the ion-electron system (eV)
  ---------------------------------------------------
  alpha Z        PSCENC =      1295.57565721
  Ewald energy   TEWEN  =    101400.81283024
  -Hartree energ DENC   =   -192891.15285512
  -exchange      EXHF   =         0.00000000
  -V(xc)+E(xc)   XCENC  =      2734.69699927
  PAW double counting   =     84547.15000061   -88231.13391551
  entropy T*S    EENTRO =        -0.53772402
  eigenvalues    EBANDS =    -10450.04721420
  atomic energy  EATOM  =    102001.95379032
  Solvation  Ediel_sol  =         0.00000000
  ---------------------------------------------------
  free energy    TOTEN  =       407.31756878 eV

  energy without entropy =      407.85529281  energy(sigma->0) =      407.58643079


--------------------------------------------------------------------------------------------------------




--------------------------------------- Iteration      1(   3)  ---------------------------------------


     EDDAV:  cpu time    1.0983: real time    1.1020
       DOS:  cpu time    0.0006: real time    0.0006
    --------------------------------------------
      LOOP:  cpu time    1.0989: real time    1.1026

 eigenvalue-minimisations  :   840
 total energy-change (2. order) :-0.6645704E+03  (-0.6273397E+03)
 number of electron     594.0000000 magnetization 
 augmentation part      594.0000000 magnetization 

 Free energy of the ion-electron system (eV)
  ---------------------------------------------------
  alpha Z        PSCENC =      1295.57565721
  Ewald energy   TEWEN  =    101400.81283024
  -Hartree energ DENC   =   -192891.15285512
  -exchange      EXHF   =         0.00000000
  -V(xc)+E(xc)   XCENC  =      2734.69699927
  PAW double counting   =     84547.15000061   -88231.13391551
  entropy T*S    EENTRO =        -1.00905936
  eigenvalues    EBANDS =    -11114.14625028
  atomic energy  EATOM  =    102001.95379032
  Solvation  Ediel_sol  =         0.00000000
  ---------------------------------------------------
  free energy    TOTEN  =      -257.25280263 eV

  energy without entropy =     -256.24374327  energy(sigma->0) =     -256.74827295


--------------------------------------------------------------------------------------------------------




--------------------------------------- Iteration      1(   4)  ---------------------------------------


     EDDAV:  cpu time    1.0596: real time    1.0633
       DOS:  cpu time    0.0006: real time    0.0006
    --------------------------------------------
      LOOP:  cpu time    1.0602: real time    1.0638

 eigenvalue-minimisations  :   824
 total energy-change (2. order) :-0.4104261E+02  (-0.4056939E+02)
 number of electron     594.0000000 magnetization 
 augmentation part      594.0000000 magnetization 

 Free energy of the ion-electron system (eV)
  ---------------------------------------------------
  alpha Z        PSCENC =      1295.57565721
  Ewald energy   TEWEN  =    101400.81283024
  -Hartree energ DENC   =   -192891.15285512
  -exchange      EXHF   =         0.00000000
  -V(xc)+E(xc)   XCENC  =      2734.69699927
  PAW double counting   =     84547.15000061   -88231.13391551
  entropy T*S    EENTRO =        -1.03625069
  eigenvalues    EBANDS =    -11155.16167363
  atomic energy  EATOM  =    102001.95379032
  Solvation  Ediel_sol  =         0.00000000
  ---------------------------------------------------
  free energy    TOTEN  =      -298.29541731 eV

  energy without entropy =     -297.25916662  energy(sigma->0) =     -297.77729197


--------------------------------------------------------------------------------------------------------




--------------------------------------- Iteration      1(   5)  ---------------------------------------


     EDDAV:  cpu time    1.1443: real time    1.1472
       DOS:  cpu time    0.0005: real time    0.0005
    CHARGE:  cpu time    0.0286: real time    0.0288
    MIXING:  cpu time    0.0022: real time    0.0024
    --------------------------------------------
      LOOP:  cpu time    1.1757: real time    1.1788

 eigenvalue-minimisations  :   912
 total energy-change (2. order) :-0.1681532E+01  (-0.1679146E+01)
 number of electron     594.0000216 magnetization 
 augmentation part      214.6490235 magnetization 

 Broyden mixing:
  rms(total) = 0.70350E+01    rms(broyden)= 0.70217E+01
  rms(prec ) = 0.74739E+01
  weight for this iteration     100.00

 Free energy of the ion-electron system (eV)
  ---------------------------------------------------
  alpha Z        PSCENC =      1295.57565721
  Ewald energy   TEWEN  =    101400.81283024
  -Hartree energ DENC   =   -192891.15285512
  -exchange      EXHF   =         0.00000000
  -V(xc)+E(xc)   XCENC  =      2734.69699927
  PAW double counting   =     84547.15000061   -88231.13391551
  entropy T*S    EENTRO =        -1.04947901
  eigenvalues    EBANDS =    -11156.82997773
  atomic energy  EATOM  =    102001.95379032
  Solvation  Ediel_sol  =         0.00000000
  ---------------------------------------------------
  free energy    TOTEN  =      -299.97694973 eV

  energy without entropy =     -298.92747072  energy(sigma->0) =     -299.45221023


--------------------------------------------------------------------------------------------------------




--------------------------------------- Iteration      1(   6)  ---------------------------------------


    POTLOK:  cpu time    0.0367: real time    0.0368
    SETDIJ:  cpu time    0.0047: real time    0.0071
     EDDAV:  cpu time    1.0920: real time    1.0946
       DOS:  cpu time    0.0005: real time    0.0005
    CHARGE:  cpu time    0.0273: real time    0.0274
    MIXING:  cpu time    0.0017: real time    0.0018
    --------------------------------------------
      LOOP:  cpu time    1.1630: real time    1.1682

 eigenvalue-minimisations  :   872
 total energy-change (2. order) :-0.6817712E+02  (-0.7339459E+02)
 number of electron     594.0000244 magnetization 
 augmentation part      266.0130437 magnetization 

 Broyden mixing:
  rms(total) = 0.13706E+02    rms(broyden)= 0.13703E+02
  rms(prec ) = 0.14315E+02
  weight for this iteration     100.00

 eigenvalues of (default mixing * dielectric matrix)
  average eigenvalue GAMMA=   0.2268
  0.2268

 Free energy of the ion-electron system (eV)
  ---------------------------------------------------
  alpha Z        PSCENC =      1295.57565721
  Ewald energy   TEWEN  =    101400.81283024
  -Hartree energ DENC   =   -190894.75554942
  -exchange      EXHF   =         0.00000000
  -V(xc)+E(xc)   XCENC  =      2677.24265049
  PAW double counting   =     85696.78136246   -89200.75947739
  entropy T*S    EENTRO =        -0.66560193
  eigenvalues    EBANDS =    -13344.33973603
  atomic energy  EATOM  =    102001.95379032
  Solvation  Ediel_sol  =         0.00000000
  ---------------------------------------------------
  free energy    TOTEN  =      -368.15407406 eV

  energy without entropy =     -367.48847213  energy(sigma->0) =     -367.82127309


--------------------------------------------------------------------------------------------------------




--------------------------------------- Iteration      1(   7)  ---------------------------------------


    POTLOK:  cpu time    0.0360: real time    0.0361
    SETDIJ:  cpu time    0.0045: real time    0.0045
     EDDAV:  cpu time    1.0872: real time    1.0908
       DOS:  cpu time    0.0006: real time    0.0006
    CHARGE:  cpu time    0.0282: real time    0.0283
    MIXING:  cpu time    0.0015: real time    0.0015
    --------------------------------------------
      LOOP:  cpu time    1.1580: real time    1.1618

 eigenvalue-minimisations  :   840
 total energy-change (2. order) : 0.9161570E+02  (-0.1329793E+02)
 number of electron     594.0000234 magnetization 
 augmentation part      249.5111042 magnetization 

 Broyden mixing:
  rms(total) = 0.53691E+01    rms(broyden)= 0.53681E+01
  rms(prec ) = 0.56710E+01
  weight for this iteration     100.00

 eigenvalues of (default mixing * dielectric matrix)
  average eigenvalue GAMMA=   0.5395
  0.5395  0.5395

 Free energy of the ion-electron system (eV)
  ---------------------------------------------------
  alpha Z        PSCENC =      1295.57565721
  Ewald energy   TEWEN  =    101400.81283024
  -Hartree energ DENC   =   -191805.48524929
  -exchange      EXHF   =         0.00000000
  -V(xc)+E(xc)   XCENC  =      2700.40375139
  PAW double counting   =     88846.00283859   -92463.48166785
  entropy T*S    EENTRO =        -0.61255794
  eigenvalues    EBANDS =    -12251.70776244
  atomic energy  EATOM  =    102001.95379032
  Solvation  Ediel_sol  =         0.00000000
  ---------------------------------------------------
  free energy    TOTEN  =      -276.53836978 eV

  energy without entropy =     -275.92581184  energy(sigma->0) =     -276.23209081


--------------------------------------------------------------------------------------------------------




--------------------------------------- Iteration      1(   8)  ---------------------------------------


    POTLOK:  cpu time    0.0368: real time    0.0391
    SETDIJ:  cpu time    0.0041: real time    0.0060
     EDDAV:  cpu time    1.2284: real time    1.2313
       DOS:  cpu time    0.0005: real time    0.0005
    CHARGE:  cpu time    0.0275: real time    0.0276
    MIXING:  cpu time    0.0014: real time    0.0015
    --------------------------------------------
      LOOP:  cpu time    1.2988: real time    1.3059

 eigenvalue-minimisations  :  1000
 total energy-change (2. order) : 0.1109050E+01  (-0.1292123E+02)
 number of electron     594.0000191 magnetization 
 augmentation part      228.4870269 magnetization 

 Broyden mixing:
  rms(total) = 0.74710E+01    rms(broyden)= 0.74683E+01
  rms(prec ) = 0.91213E+01
  weight for this iteration     100.00

 eigenvalues of (default mixing * dielectric matrix)
  average eigenvalue GAMMA=   0.4246
  0.7020  0.4454  0.1265

 Free energy of the ion-electron system (eV)
  ---------------------------------------------------
  alpha Z        PSCENC =      1295.57565721
  Ewald energy   TEWEN  =    101400.81283024
  -Hartree energ DENC   =   -192393.74952446
  -exchange      EXHF   =         0.00000000
  -V(xc)+E(xc)   XCENC  =      2717.64248121
  PAW double counting   =     93327.20524962   -97026.86560001
  entropy T*S    EENTRO =        -1.30936546
  eigenvalues    EBANDS =    -11596.69483869
  atomic energy  EATOM  =    102001.95379032
  Solvation  Ediel_sol  =         0.00000000
  ---------------------------------------------------
  free energy    TOTEN  =      -275.42932002 eV

  energy without entropy =     -274.11995456  energy(sigma->0) =     -274.77463729


--------------------------------------------------------------------------------------------------------




--------------------------------------- Iteration      1(   9)  ---------------------------------------


    POTLOK:  cpu time    0.0358: real time    0.0359
    SETDIJ:  cpu time    0.0046: real time    0.0046
     EDDAV:  cpu time    1.1630: real time    1.1659
       DOS:  cpu time    0.0005: real time    0.0005
    CHARGE:  cpu time    0.0274: real time    0.0275
    MIXING:  cpu time    0.0015: real time    0.0015
    --------------------------------------------
      LOOP:  cpu time    1.2328: real time    1.2358

 eigenvalue-minimisations  :   936
 total energy-change (2. order) : 0.4978546E+01  (-0.5951916E+01)
 number of electron     594.0000223 magnetization 
 augmentation part      229.7811665 magnetization 

 Broyden mixing:
  rms(total) = 0.34221E+01    rms(broyden)= 0.34155E+01
  rms(prec ) = 0.39324E+01
  weight for this iteration     100.00

 eigenvalues of (default mixing * dielectric matrix)
  average eigenvalue GAMMA=   0.6000
  1.4951  0.4104  0.4104  0.0839

 Free energy of the ion-electron system (eV)
  ---------------------------------------------------
  alpha Z        PSCENC =      1295.57565721
  Ewald energy   TEWEN  =    101400.81283024
  -Hartree energ DENC   =   -192446.17354324
  -exchange      EXHF   =         0.00000000
  -V(xc)+E(xc)   XCENC  =      2717.09606091
  PAW double counting   =     93933.20665107   -97636.85588712
  entropy T*S    EENTRO =        -0.89229818
  eigenvalues    EBANDS =    -11535.17403566
  atomic energy  EATOM  =    102001.95379032
  Solvation  Ediel_sol  =         0.00000000
  ---------------------------------------------------
  free energy    TOTEN  =      -270.45077445 eV

  energy without entropy =     -269.55847627  energy(sigma->0) =     -270.00462536


--------------------------------------------------------------------------------------------------------




--------------------------------------- Iteration      1(  10)  ---------------------------------------


    POTLOK:  cpu time    0.0361: real time    0.0362
    SETDIJ:  cpu time    0.0045: real time    0.0045
     EDDAV:  cpu time    1.2109: real time    1.2138
       DOS:  cpu time    0.0005: real time    0.0005
    CHARGE:  cpu time    0.0275: real time    0.0275
    MIXING:  cpu time    0.0015: real time    0.0015
    --------------------------------------------
      LOOP:  cpu time    1.2810: real time    1.2840

 eigenvalue-minimisations  :   984
 total energy-change (2. order) :-0.1054931E+02  (-0.4167103E+01)
 number of electron     594.0000240 magnetization 
 augmentation part      228.9179672 magnetization 

 Broyden mixing:
  rms(total) = 0.75110E+01    rms(broyden)= 0.75079E+01
  rms(prec ) = 0.85695E+01
  weight for this iteration     100.00

 eigenvalues of (default mixing * dielectric matrix)
  average eigenvalue GAMMA=   0.5772
  1.8509  0.4204  0.4204  0.0972  0.0972

 Free energy of the ion-electron system (eV)
  ---------------------------------------------------
  alpha Z        PSCENC =      1295.57565721
  Ewald energy   TEWEN  =    101400.81283024
  -Hartree energ DENC   =   -192415.58697892
  -exchange      EXHF   =         0.00000000
  -V(xc)+E(xc)   XCENC  =      2715.02005943
  PAW double counting   =     96571.33889982  -100291.39112249
  entropy T*S    EENTRO =        -0.80342319
  eigenvalues    EBANDS =    -11557.91980052
  atomic energy  EATOM  =    102001.95379032
  Solvation  Ediel_sol  =         0.00000000
  ---------------------------------------------------
  free energy    TOTEN  =      -281.00008811 eV

  energy without entropy =     -280.19666492  energy(sigma->0) =     -280.59837651


--------------------------------------------------------------------------------------------------------




--------------------------------------- Iteration      1(  11)  ---------------------------------------


    POTLOK:  cpu time    0.0358: real time    0.0358
    SETDIJ:  cpu time    0.0045: real time    0.0045
     EDDAV:  cpu time    1.2236: real time    1.2267
       DOS:  cpu time    0.0012: real time    0.0012
    CHARGE:  cpu time    0.0275: real time    0.0276
    MIXING:  cpu time    0.0016: real time    0.0016
    --------------------------------------------
      LOOP:  cpu time    1.2942: real time    1.2974

 eigenvalue-minimisations  :  1000
 total energy-change (2. order) : 0.1010348E+02  (-0.3029091E+01)
 number of electron     594.0000212 magnetization 
 augmentation part      233.1999668 magnetization 

 Broyden mixing:
  rms(total) = 0.36140E+01    rms(broyden)= 0.36123E+01
  rms(prec ) = 0.41135E+01
  weight for this iteration     100.00

 eigenvalues of (default mixing * dielectric matrix)
  average eigenvalue GAMMA=   0.5496
  2.0689  0.4268  0.4268  0.1619  0.1314  0.0818

 Free energy of the ion-electron system (eV)
  ---------------------------------------------------
  alpha Z        PSCENC =      1295.57565721
  Ewald energy   TEWEN  =    101400.81283024
  -Hartree energ DENC   =   -192368.20655501
  -exchange      EXHF   =         0.00000000
  -V(xc)+E(xc)   XCENC  =      2713.36185743
  PAW double counting   =     97634.36819185  -101358.38934848
  entropy T*S    EENTRO =        -0.85822569
  eigenvalues    EBANDS =    -11589.51480358
  atomic energy  EATOM  =    102001.95379032
  Solvation  Ediel_sol  =         0.00000000
  ---------------------------------------------------
  free energy    TOTEN  =      -270.89660571 eV

  energy without entropy =     -270.03838002  energy(sigma->0) =     -270.46749286


--------------------------------------------------------------------------------------------------------




--------------------------------------- Iteration      1(  12)  ---------------------------------------


    POTLOK:  cpu time    0.0361: real time    0.0362
    SETDIJ:  cpu time    0.0046: real time    0.0046
     EDDAV:  cpu time    1.2221: real time    1.2273
       DOS:  cpu time    0.0005: real time    0.0005
    CHARGE:  cpu time    0.0276: real time    0.0277
    MIXING:  cpu time    0.0020: real time    0.0020
    --------------------------------------------
      LOOP:  cpu time    1.2929: real time    1.2983

 eigenvalue-minimisations  :   976
 total energy-change (2. order) : 0.5811599E+01  (-0.1375884E+01)
 number of electron     594.0000219 magnetization 
 augmentation part      235.0934436 magnetization 

 Broyden mixing:
  rms(total) = 0.23553E+01    rms(broyden)= 0.23520E+01
  rms(prec ) = 0.28204E+01
  weight for this iteration     100.00

 eigenvalues of (default mixing * dielectric matrix)
  average eigenvalue GAMMA=   0.5096
  2.0976  0.4235  0.4235  0.2599  0.0874  0.1378  0.1378

 Free energy of the ion-electron system (eV)
  ---------------------------------------------------
  alpha Z        PSCENC =      1295.57565721
  Ewald energy   TEWEN  =    101400.81283024
  -Hartree energ DENC   =   -192333.40411421
  -exchange      EXHF   =         0.00000000
  -V(xc)+E(xc)   XCENC  =      2712.63212134
  PAW double counting   =     98335.08058847  -102063.47692525
  entropy T*S    EENTRO =        -0.69953038
  eigenvalues    EBANDS =    -11613.55942438
  atomic energy  EATOM  =    102001.95379032
  Solvation  Ediel_sol  =         0.00000000
  ---------------------------------------------------
  free energy    TOTEN  =      -265.08500665 eV

  energy without entropy =     -264.38547627  energy(sigma->0) =     -264.73524146


--------------------------------------------------------------------------------------------------------




--------------------------------------- Iteration      1(  13)  ---------------------------------------


    POTLOK:  cpu time    0.0369: real time    0.0380
    SETDIJ:  cpu time    0.0040: real time    0.0058
     EDDAV:  cpu time    1.2114: real time    1.2159
       DOS:  cpu time    0.0005: real time    0.0005
    CHARGE:  cpu time    0.0273: real time    0.0274
    MIXING:  cpu time    0.0019: real time    0.0019
    --------------------------------------------
      LOOP:  cpu time    1.2820: real time    1.2895

 eigenvalue-minimisations  :   984
 total energy-change (2. order) : 0.5692039E+00  (-0.7799595E+00)
 number of electron     594.0000212 magnetization 
 augmentation part      235.1650229 magnetization 

 Broyden mixing:
  rms(total) = 0.19430E+01    rms(broyden)= 0.19403E+01
  rms(prec ) = 0.23452E+01
  weight for this iteration     100.00

 eigenvalues of (default mixing * dielectric matrix)
  average eigenvalue GAMMA=   0.5034
  2.0469  0.5996  0.4390  0.4390  0.1501  0.1501  0.0857  0.1166

 Free energy of the ion-electron system (eV)
  ---------------------------------------------------
  alpha Z        PSCENC =      1295.57565721
  Ewald energy   TEWEN  =    101400.81283024
  -Hartree energ DENC   =   -192340.23781864
  -exchange      EXHF   =         0.00000000
  -V(xc)+E(xc)   XCENC  =      2712.70514126
  PAW double counting   =     98397.64458665  -102127.16505492
  entropy T*S    EENTRO =        -0.73057905
  eigenvalues    EBANDS =    -11605.07435582
  atomic energy  EATOM  =    102001.95379032
  Solvation  Ediel_sol  =         0.00000000
  ---------------------------------------------------
  free energy    TOTEN  =      -264.51580277 eV

  energy without entropy =     -263.78522372  energy(sigma->0) =     -264.15051324


--------------------------------------------------------------------------------------------------------




--------------------------------------- Iteration      1(  14)  ---------------------------------------


    POTLOK:  cpu time    0.0364: real time    0.0376
    SETDIJ:  cpu time    0.0054: real time    0.0075
     EDDAV:  cpu time    1.1678: real time    1.1707
       DOS:  cpu time    0.0005: real time    0.0005
    CHARGE:  cpu time    0.0275: real time    0.0276
    MIXING:  cpu time    0.0018: real time    0.0018
    --------------------------------------------
      LOOP:  cpu time    1.2394: real time    1.2457

 eigenvalue-minimisations  :   944
 total energy-change (2. order) : 0.1215569E+01  (-0.3558020E+00)
 number of electron     594.0000230 magnetization 
 augmentation part      234.6435448 magnetization 

 Broyden mixing:
  rms(total) = 0.14520E+01    rms(broyden)= 0.14499E+01
  rms(prec ) = 0.16629E+01
  weight for this iteration     100.00

 eigenvalues of (default mixing * dielectric matrix)
  average eigenvalue GAMMA=   0.4711
  2.0125  0.6014  0.4558  0.4558  0.2435  0.1347  0.1347  0.0863  0.1155

 Free energy of the ion-electron system (eV)
  ---------------------------------------------------
  alpha Z        PSCENC =      1295.57565721
  Ewald energy   TEWEN  =    101400.81283024
  -Hartree energ DENC   =   -192362.15171984
  -exchange      EXHF   =         0.00000000
  -V(xc)+E(xc)   XCENC  =      2713.41291303
  PAW double counting   =     98242.15918329  -101973.49888505
  entropy T*S    EENTRO =        -0.75292998
  eigenvalues    EBANDS =    -11580.81107314
  atomic energy  EATOM  =    102001.95379032
  Solvation  Ediel_sol  =         0.00000000
  ---------------------------------------------------
  free energy    TOTEN  =      -263.30023394 eV

  energy without entropy =     -262.54730396  energy(sigma->0) =     -262.92376895


--------------------------------------------------------------------------------------------------------




--------------------------------------- Iteration      1(  15)  ---------------------------------------


    POTLOK:  cpu time    0.0362: real time    0.0363
    SETDIJ:  cpu time    0.0045: real time    0.0045
     EDDAV:  cpu time    1.1379: real time    1.1406
       DOS:  cpu time    0.0005: real time    0.0005
    CHARGE:  cpu time    0.0273: real time    0.0274
    MIXING:  cpu time    0.0020: real time    0.0020
    --------------------------------------------
      LOOP:  cpu time    1.2085: real time    1.2113

 eigenvalue-minimisations  :   912
 total energy-change (2. order) : 0.6938353E+00  (-0.1323898E+00)
 number of electron     594.0000222 magnetization 
 augmentation part      234.5506350 magnetization 

 Broyden mixing:
  rms(total) = 0.88294E+00    rms(broyden)= 0.88120E+00
  rms(prec ) = 0.10359E+01
  weight for this iteration     100.00

 eigenvalues of (default mixing * dielectric matrix)
  average eigenvalue GAMMA=   0.4837
  2.0166  0.6740  0.6740  0.4196  0.4196  0.1723  0.1331  0.1331  0.0860  0.1092

 Free energy of the ion-electron system (eV)
  ---------------------------------------------------
  alpha Z        PSCENC =      1295.57565721
  Ewald energy   TEWEN  =    101400.81283024
  -Hartree energ DENC   =   -192370.64193332
  -exchange      EXHF   =         0.00000000
  -V(xc)+E(xc)   XCENC  =      2713.67840904
  PAW double counting   =     98115.76628875  -101846.93648119
  entropy T*S    EENTRO =        -0.76617261
  eigenvalues    EBANDS =    -11572.04878709
  atomic energy  EATOM  =    102001.95379032
  Solvation  Ediel_sol  =         0.00000000
  ---------------------------------------------------
  free energy    TOTEN  =      -262.60639864 eV

  energy without entropy =     -261.84022604  energy(sigma->0) =     -262.22331234


--------------------------------------------------------------------------------------------------------




--------------------------------------- Iteration      1(  16)  ---------------------------------------


    POTLOK:  cpu time    0.0362: real time    0.0363
    SETDIJ:  cpu time    0.0045: real time    0.0045
     EDDAV:  cpu time    1.2079: real time    1.2107
       DOS:  cpu time    0.0005: real time    0.0005
    CHARGE:  cpu time    0.0273: real time    0.0273
    MIXING:  cpu time    0.0021: real time    0.0021
    --------------------------------------------
      LOOP:  cpu time    1.2785: real time    1.2815

 eigenvalue-minimisations  :   984
 total energy-change (2. order) : 0.6631164E-01  (-0.5507561E-01)
 number of electron     594.0000216 magnetization 
 augmentation part      234.4203315 magnetization 

 Broyden mixing:
  rms(total) = 0.82564E+00    rms(broyden)= 0.82518E+00
  rms(prec ) = 0.99185E+00
  weight for this iteration     100.00

 eigenvalues of (default mixing * dielectric matrix)
  average eigenvalue GAMMA=   0.4862
  2.0177  0.8397  0.8397  0.4215  0.4215  0.2113  0.1380  0.1380  0.0862  0.1125
  0.1215

 Free energy of the ion-electron system (eV)
  ---------------------------------------------------
  alpha Z        PSCENC =      1295.57565721
  Ewald energy   TEWEN  =    101400.81283024
  -Hartree energ DENC   =   -192375.60281894
  -exchange      EXHF   =         0.00000000
  -V(xc)+E(xc)   XCENC  =      2713.79112117
  PAW double counting   =     98034.78157929  -101765.21816989
  entropy T*S    EENTRO =        -0.75381585
  eigenvalues    EBANDS =    -11567.88026054
  atomic energy  EATOM  =    102001.95379032
  Solvation  Ediel_sol  =         0.00000000
  ---------------------------------------------------
  free energy    TOTEN  =      -262.54008700 eV

  energy without entropy =     -261.78627115  energy(sigma->0) =     -262.16317908


--------------------------------------------------------------------------------------------------------




--------------------------------------- Iteration      1(  17)  ---------------------------------------


    POTLOK:  cpu time    0.0362: real time    0.0363
    SETDIJ:  cpu time    0.0045: real time    0.0045
     EDDAV:  cpu time    1.1841: real time    1.1871
       DOS:  cpu time    0.0007: real time    0.0007
    CHARGE:  cpu time    0.0274: real time    0.0274
    MIXING:  cpu time    0.0021: real time    0.0021
    --------------------------------------------
      LOOP:  cpu time    1.2550: real time    1.2581

 eigenvalue-minimisations  :   960
 total energy-change (2. order) : 0.9742963E-01  (-0.3218134E-01)
 number of electron     594.0000226 magnetization 
 augmentation part      234.3229927 magnetization 

 Broyden mixing:
  rms(total) = 0.67094E+00    rms(broyden)= 0.67045E+00
  rms(prec ) = 0.80786E+00
  weight for this iteration     100.00

 eigenvalues of (default mixing * dielectric matrix)
  average eigenvalue GAMMA=   0.5145
  2.0200  1.0800  1.0800  0.4255  0.4255  0.3750  0.1658  0.0861  0.1382  0.1382
  0.1292  0.1102

 Free energy of the ion-electron system (eV)
  ---------------------------------------------------
  alpha Z        PSCENC =      1295.57565721
  Ewald energy   TEWEN  =    101400.81283024
  -Hartree energ DENC   =   -192380.94627927
  -exchange      EXHF   =         0.00000000
  -V(xc)+E(xc)   XCENC  =      2713.86701972
  PAW double counting   =     97955.67196233  -101685.25274597
  entropy T*S    EENTRO =        -0.78068001
  eigenvalues    EBANDS =    -11563.34421193
  atomic energy  EATOM  =    102001.95379032
  Solvation  Ediel_sol  =         0.00000000
  ---------------------------------------------------
  free energy    TOTEN  =      -262.44265738 eV

  energy without entropy =     -261.66197736  energy(sigma->0) =     -262.05231737


--------------------------------------------------------------------------------------------------------




--------------------------------------- Iteration      1(  18)  ---------------------------------------


    POTLOK:  cpu time    0.0367: real time    0.0367
    SETDIJ:  cpu time    0.0045: real time    0.0045
     EDDAV:  cpu time    1.1797: real time    1.1825
       DOS:  cpu time    0.0008: real time    0.0008
    CHARGE:  cpu time    0.0273: real time    0.0274
    MIXING:  cpu time    0.0023: real time    0.0023
    --------------------------------------------
      LOOP:  cpu time    1.2513: real time    1.2542

 eigenvalue-minimisations  :   952
 total energy-change (2. order) : 0.1181932E+00  (-0.1965411E-01)
 number of electron     594.0000223 magnetization 
 augmentation part      234.1100437 magnetization 

 Broyden mixing:
  rms(total) = 0.53664E+00    rms(broyden)= 0.53619E+00
  rms(prec ) = 0.61931E+00
  weight for this iteration     100.00

 eigenvalues of (default mixing * dielectric matrix)
  average eigenvalue GAMMA=   0.5524
  2.0363  1.3792  1.3792  0.4978  0.4397  0.4397  0.2523  0.1714  0.1356  0.1356
  0.0861  0.1174  0.1113

 Free energy of the ion-electron system (eV)
  ---------------------------------------------------
  alpha Z        PSCENC =      1295.57565721
  Ewald energy   TEWEN  =    101400.81283024
  -Hartree energ DENC   =   -192390.10194388
  -exchange      EXHF   =         0.00000000
  -V(xc)+E(xc)   XCENC  =      2713.94544258
  PAW double counting   =     97819.17374356  -101547.12620341
  entropy T*S    EENTRO =        -0.78780926
  eigenvalues    EBANDS =    -11555.76997158
  atomic energy  EATOM  =    102001.95379032
  Solvation  Ediel_sol  =         0.00000000
  ---------------------------------------------------
  free energy    TOTEN  =      -262.32446421 eV

  energy without entropy =     -261.53665496  energy(sigma->0) =     -261.93055958


--------------------------------------------------------------------------------------------------------




--------------------------------------- Iteration      1(  19)  ---------------------------------------


    POTLOK:  cpu time    0.0365: real time    0.0366
    SETDIJ:  cpu time    0.0044: real time    0.0045
     EDDAV:  cpu time    1.1447: real time    1.1474
       DOS:  cpu time    0.0005: real time    0.0005
    CHARGE:  cpu time    0.0274: real time    0.0274
    MIXING:  cpu time    0.0023: real time    0.0023
    --------------------------------------------
      LOOP:  cpu time    1.2158: real time    1.2187

 eigenvalue-minimisations  :   920
 total energy-change (2. order) :-0.1106623E-01  (-0.3443794E-01)
 number of electron     594.0000221 magnetization 
 augmentation part      234.2019298 magnetization 

 Broyden mixing:
  rms(total) = 0.51953E+00    rms(broyden)= 0.51884E+00
  rms(prec ) = 0.58623E+00
  weight for this iteration     100.00

 eigenvalues of (default mixing * dielectric matrix)
  average eigenvalue GAMMA=   0.5743
  1.9907  1.6317  1.6317  0.6109  0.4417  0.4417  0.3907  0.0861  0.1591  0.1591
  0.1348  0.1348  0.1134  0.1134

 Free energy of the ion-electron system (eV)
  ---------------------------------------------------
  alpha Z        PSCENC =      1295.57565721
  Ewald energy   TEWEN  =    101400.81283024
  -Hartree energ DENC   =   -192398.32051469
  -exchange      EXHF   =         0.00000000
  -V(xc)+E(xc)   XCENC  =      2713.87904613
  PAW double counting   =     97685.68606751  -101411.84824441
  entropy T*S    EENTRO =        -0.80610094
  eigenvalues    EBANDS =    -11549.26806181
  atomic energy  EATOM  =    102001.95379032
  Solvation  Ediel_sol  =         0.00000000
  ---------------------------------------------------
  free energy    TOTEN  =      -262.33553045 eV

  energy without entropy =     -261.52942951  energy(sigma->0) =     -261.93247998


--------------------------------------------------------------------------------------------------------




--------------------------------------- Iteration      1(  20)  ---------------------------------------


    POTLOK:  cpu time    0.0366: real time    0.0367
    SETDIJ:  cpu time    0.0045: real time    0.0045
     EDDAV:  cpu time    1.2580: real time    1.2610
       DOS:  cpu time    0.0007: real time    0.0007
    CHARGE:  cpu time    0.0273: real time    0.0274
    MIXING:  cpu time    0.0023: real time    0.0023
    --------------------------------------------
      LOOP:  cpu time    1.3295: real time    1.3327

 eigenvalue-minimisations  :  1032
 total energy-change (2. order) : 0.6473122E-01  (-0.2393734E-01)
 number of electron     594.0000226 magnetization 
 augmentation part      234.1065970 magnetization 

 Broyden mixing:
  rms(total) = 0.38652E+00    rms(broyden)= 0.38548E+00
  rms(prec ) = 0.43756E+00
  weight for this iteration     100.00

 eigenvalues of (default mixing * dielectric matrix)
  average eigenvalue GAMMA=   0.5581
  1.9765  1.6871  1.6871  0.6723  0.4396  0.4396  0.4047  0.1784  0.1784  0.0861
  0.1354  0.1354  0.1259  0.1125  0.1125

 Free energy of the ion-electron system (eV)
  ---------------------------------------------------
  alpha Z        PSCENC =      1295.57565721
  Ewald energy   TEWEN  =    101400.81283024
  -Hartree energ DENC   =   -192409.10413092
  -exchange      EXHF   =         0.00000000
  -V(xc)+E(xc)   XCENC  =      2713.99238976
  PAW double counting   =     97416.63124623  -101140.38254028
  entropy T*S    EENTRO =        -0.86586128
  eigenvalues    EBANDS =    -11540.88418051
  atomic energy  EATOM  =    102001.95379032
  Solvation  Ediel_sol  =         0.00000000
  ---------------------------------------------------
  free energy    TOTEN  =      -262.27079923 eV

  energy without entropy =     -261.40493794  energy(sigma->0) =     -261.83786859


--------------------------------------------------------------------------------------------------------




--------------------------------------- Iteration      1(  21)  ---------------------------------------


    POTLOK:  cpu time    0.0365: real time    0.0366
    SETDIJ:  cpu time    0.0045: real time    0.0045
     EDDAV:  cpu time    1.1807: real time    1.1853
       DOS:  cpu time    0.0006: real time    0.0006
    CHARGE:  cpu time    0.0279: real time    0.0279
    MIXING:  cpu time    0.0026: real time    0.0026
    --------------------------------------------
      LOOP:  cpu time    1.2527: real time    1.2576

 eigenvalue-minimisations  :   928
 total energy-change (2. order) : 0.3996983E-01  (-0.1498123E-01)
 number of electron     594.0000222 magnetization 
 augmentation part      234.2668512 magnetization 

 Broyden mixing:
  rms(total) = 0.22999E+00    rms(broyden)= 0.22920E+00
  rms(prec ) = 0.25245E+00
  weight for this iteration     100.00

 eigenvalues of (default mixing * dielectric matrix)
  average eigenvalue GAMMA=   0.5575
  1.9146  1.6858  1.6858  0.7054  0.7054  0.4284  0.4284  0.3446  0.1673  0.1673
  0.1350  0.1350  0.0861  0.1179  0.1114  0.1018

 Free energy of the ion-electron system (eV)
  ---------------------------------------------------
  alpha Z        PSCENC =      1295.57565721
  Ewald energy   TEWEN  =    101400.81283024
  -Hartree energ DENC   =   -192413.11194462
  -exchange      EXHF   =         0.00000000
  -V(xc)+E(xc)   XCENC  =      2713.94787500
  PAW double counting   =     97362.42669659  -101085.63783110
  entropy T*S    EENTRO =        -0.83631529
  eigenvalues    EBANDS =    -11537.36158772
  atomic energy  EATOM  =    102001.95379032
  Solvation  Ediel_sol  =         0.00000000
  ---------------------------------------------------
  free energy    TOTEN  =      -262.23082939 eV

  energy without entropy =     -261.39451410  energy(sigma->0) =     -261.81267175


--------------------------------------------------------------------------------------------------------




--------------------------------------- Iteration      1(  22)  ---------------------------------------


    POTLOK:  cpu time    0.0372: real time    0.0384
    SETDIJ:  cpu time    0.0045: real time    0.0064
     EDDAV:  cpu time    1.2015: real time    1.2057
       DOS:  cpu time    0.0005: real time    0.0005
    CHARGE:  cpu time    0.0273: real time    0.0274
    MIXING:  cpu time    0.0026: real time    0.0027
    --------------------------------------------
      LOOP:  cpu time    1.2738: real time    1.2811

 eigenvalue-minimisations  :   968
 total energy-change (2. order) :-0.1216005E-01  (-0.1098643E-01)
 number of electron     594.0000223 magnetization 
 augmentation part      234.2626583 magnetization 

 Broyden mixing:
  rms(total) = 0.29601E+00    rms(broyden)= 0.29551E+00
  rms(prec ) = 0.33747E+00
  weight for this iteration     100.00

 eigenvalues of (default mixing * dielectric matrix)
  average eigenvalue GAMMA=   0.5511
  1.9997  1.9997  1.0558  1.0558  0.8864  0.4307  0.4307  0.3499  0.1684  0.1684
  0.1335  0.1335  0.1450  0.0861  0.1136  0.1136  0.0981

 Free energy of the ion-electron system (eV)
  ---------------------------------------------------
  alpha Z        PSCENC =      1295.57565721
  Ewald energy   TEWEN  =    101400.81283024
  -Hartree energ DENC   =   -192420.50933798
  -exchange      EXHF   =         0.00000000
  -V(xc)+E(xc)   XCENC  =      2713.96930532
  PAW double counting   =     97299.24496949  -101022.32867413
  entropy T*S    EENTRO =        -0.84295492
  eigenvalues    EBANDS =    -11530.11857498
  atomic energy  EATOM  =    102001.95379032
  Solvation  Ediel_sol  =         0.00000000
  ---------------------------------------------------
  free energy    TOTEN  =      -262.24298944 eV

  energy without entropy =     -261.40003452  energy(sigma->0) =     -261.82151198


--------------------------------------------------------------------------------------------------------




--------------------------------------- Iteration      1(  23)  ---------------------------------------


    POTLOK:  cpu time    0.0370: real time    0.0382
    SETDIJ:  cpu time    0.0044: real time    0.0044
     EDDAV:  cpu time    1.1934: real time    1.1963
       DOS:  cpu time    0.0006: real time    0.0006
    CHARGE:  cpu time    0.0274: real time    0.0275
    MIXING:  cpu time    0.0025: real time    0.0025
    --------------------------------------------
      LOOP:  cpu time    1.2654: real time    1.2695

 eigenvalue-minimisations  :   968
 total energy-change (2. order) : 0.3782922E-02  (-0.1483512E-01)
 number of electron     594.0000223 magnetization 
 augmentation part      234.2243656 magnetization 

 Broyden mixing:
  rms(total) = 0.25221E+00    rms(broyden)= 0.25144E+00
  rms(prec ) = 0.29178E+00
  weight for this iteration     100.00

 eigenvalues of (default mixing * dielectric matrix)
  average eigenvalue GAMMA=   0.5660
  2.2225  1.9202  1.2398  1.2398  0.8866  0.4332  0.4332  0.3538  0.3419  0.1688
  0.1688  0.1351  0.1351  0.1193  0.1093  0.1093  0.0861  0.0857

 Free energy of the ion-electron system (eV)
  ---------------------------------------------------
  alpha Z        PSCENC =      1295.57565721
  Ewald energy   TEWEN  =    101400.81283024
  -Hartree energ DENC   =   -192426.23941120
  -exchange      EXHF   =         0.00000000
  -V(xc)+E(xc)   XCENC  =      2714.02377295
  PAW double counting   =     97239.73775813  -100962.70432304
  entropy T*S    EENTRO =        -0.85414305
  eigenvalues    EBANDS =    -11524.54513807
  atomic energy  EATOM  =    102001.95379032
  Solvation  Ediel_sol  =         0.00000000
  ---------------------------------------------------
  free energy    TOTEN  =      -262.23920652 eV

  energy without entropy =     -261.38506347  energy(sigma->0) =     -261.81213499


--------------------------------------------------------------------------------------------------------




--------------------------------------- Iteration      1(  24)  ---------------------------------------


    POTLOK:  cpu time    0.0364: real time    0.0365
    SETDIJ:  cpu time    0.0043: real time    0.0043
     EDDAV:  cpu time    1.2135: real time    1.2164
       DOS:  cpu time    0.0006: real time    0.0006
    CHARGE:  cpu time    0.0273: real time    0.0274
    MIXING:  cpu time    0.0026: real time    0.0027
[...]
-65.086   0.017  -0.055  11.935  -0.008   0.022  -0.007  -0.037
  0.017 -65.195  -0.001  -0.008  11.978   0.001   0.002  -0.006
 -0.055  -0.001 -65.114   0.022   0.001  11.946  -0.008   0.002
 11.935  -0.008   0.022   4.961   0.002  -0.007   0.002   0.010
 -0.008  11.978   0.001   0.002   4.946   0.000  -0.000   0.003
  0.022   0.001  11.946  -0.007   0.000   4.957   0.003  -0.000
 -0.007   0.002  -0.008   0.002  -0.000   0.003 -10.319   0.020
 -0.037  -0.006   0.002   0.010   0.003  -0.000   0.020 -10.318
  0.001  -0.037   0.003  -0.001   0.010  -0.001   0.017  -0.011
  0.002   0.009  -0.031  -0.000  -0.003   0.009   0.035  -0.060
  0.001   0.003   0.010  -0.001  -0.001  -0.003  -0.024   0.002
 -0.007   0.002  -0.008   0.002  -0.000   0.003 -10.869   0.020
 -0.037  -0.006   0.002   0.010   0.003  -0.000   0.020 -10.868
  0.001  -0.037   0.003  -0.001   0.010  -0.001   0.016  -0.011
  0.002   0.008  -0.031  -0.000  -0.003   0.008   0.034  -0.059
  0.001   0.003   0.010  -0.001  -0.001  -0.003  -0.024   0.002
  0.001   0.010  -0.000  -0.002  -0.001   0.001   0.011  -0.004
  0.001   0.022  -0.001  -0.004  -0.001   0.002   0.023  -0.008
 total augmentation occupancy for first ion, spin component:           1
  1.995   0.000  -0.000  -0.019   0.000  -0.001   0.004   0.004   0.001   0.002  -0.005  -0.003  -0.004  -0.001  -0.002   0.005
  0.000   1.995  -0.000   0.000  -0.020  -0.000   0.002   0.011   0.005  -0.005   0.000  -0.002  -0.010  -0.004   0.005   0.000
 -0.000  -0.000   1.995  -0.001  -0.000  -0.019   0.003   0.002   0.002   0.005  -0.012  -0.004  -0.002  -0.002  -0.004   0.011
 -0.019   0.000  -0.001   0.127   0.000  -0.001   0.207   0.079   0.075   0.027   0.016  -0.179  -0.069  -0.079  -0.033  -0.007
  0.000  -0.020  -0.000   0.000   0.121   0.004   0.077   0.177   0.057  -0.071   0.021  -0.069  -0.159  -0.064   0.059  -0.023
 -0.001  -0.000  -0.019  -0.001   0.004   0.127  -0.028   0.013  -0.029   0.047  -0.263   0.033  -0.023   0.013  -0.057   0.236
  0.004   0.002   0.003   0.207   0.077  -0.028   3.535   0.225  -0.052  -0.039  -0.267  -1.935  -0.008  -0.134   0.275  -0.006
  0.004   0.011   0.002   0.079   0.177   0.013   0.225   3.830  -0.033  -0.094   0.103  -0.006  -1.745  -0.142  -0.210   0.017
  0.001   0.005   0.002   0.075   0.057  -0.029  -0.052  -0.033   3.496  -0.403  -0.074  -0.141  -0.141  -1.803  -0.155  -0.102
  0.002  -0.005   0.005   0.027  -0.071   0.047  -0.039  -0.094  -0.403   3.594   0.208   0.276  -0.208  -0.152  -1.952  -0.116
 -0.005   0.000  -0.012   0.016   0.021  -0.263  -0.267   0.103  -0.074   0.208   3.988  -0.006   0.014  -0.100  -0.120  -1.933
 -0.003  -0.002  -0.004  -0.179  -0.069   0.033  -1.935  -0.006  -0.141   0.276  -0.006   2.024  -0.128   0.263  -0.412   0.185
 -0.004  -0.010  -0.002  -0.069  -0.159  -0.023  -0.008  -1.745  -0.141  -0.208   0.014  -0.128   1.513   0.253   0.389  -0.091
 -0.001  -0.004  -0.002  -0.079  -0.064   0.013  -0.134  -0.142  -1.803  -0.152  -0.100   0.263   0.253   1.804   0.502   0.207
 -0.002   0.005  -0.004  -0.033   0.059  -0.057   0.275  -0.210  -0.155  -1.952  -0.120  -0.412   0.389   0.502   1.980   0.057
  0.005   0.000   0.011  -0.007  -0.023   0.236  -0.006   0.017  -0.102  -0.116  -1.933   0.185  -0.091   0.207   0.057   1.728
  0.003  -0.028  -0.000  -0.003  -0.053   0.018  -0.057   0.080   0.064  -0.141   0.014  -0.003  -0.036  -0.105   0.111  -0.027
 -0.002   0.013   0.000   0.001   0.002  -0.002   0.027  -0.016   0.019   0.003   0.002  -0.003   0.006   0.004  -0.003   0.003


------------------------ aborting loop because EDIFF is reached ----------------------------------------


    CHARGE:  cpu time    0.0270: real time    0.0271
    FORLOC:  cpu time    0.0114: real time    0.0115
    FORNL :  cpu time    0.2167: real time    0.2175
    STRESS:  cpu time    0.6507: real time    0.6524
    FORCOR:  cpu time    0.0445: real time    0.0450
    FORHAR:  cpu time    0.0177: real time    0.0178
    MIXING:  cpu time    0.0035: real time    0.0035
    OFIELD:  cpu time    0.0001: real time    0.0001

  FORCE on cell =-STRESS in cart. coord.  units (eV):
  Direction    XX          YY          ZZ          XY          YZ          ZX
  --------------------------------------------------------------------------------------
  Alpha Z  1295.57566  1295.57566  1295.57566
  Ewald  134500.08046138544.89844************   -89.85483  -230.98685  -622.38828
  Hartree162540.13115166044.64909************   -48.15861   -92.80028  -513.82568
  E(xc)   -3768.70722 -3767.67754 -3771.04058    -0.09786    -0.64625    -0.22473
  Local  ************************298164.47830   138.76633   303.13701  1129.36613
  n-local  -528.65430  -525.63109  -525.51266    -1.51133    -2.67615     0.01622
  augment  4346.52979  4338.96182  4340.42796     1.32524     9.22117     2.32429
  Kinetic  8234.72077  8212.72130  8236.01249    -1.31866    23.55445     7.91614
  Fock        0.00000     0.00000     0.00000     0.00000     0.00000     0.00000
  -------------------------------------------------------------------------------------
  Total     -22.56866   -29.03187   -30.29757    -0.84973     8.80310     3.18409
  in kB     -22.38852   -28.80014   -30.05574    -0.84294     8.73283     3.15868
  external pressure =      -27.08 kB  Pullay stress =        0.00 kB


 VOLUME and BASIS-vectors are now :
 -----------------------------------------------------------------------------
  energy-cutoff  :      450.00
  volume of cell :     1615.07
      direct lattice vectors                 reciprocal lattice vectors
     8.428181476 -4.551010342  0.000000000     0.118649557  0.000000000  0.000000000
     0.000000000 10.079732985  0.000000000     0.053570403  0.099208977  0.000000000
     0.000000000  0.000000000 19.011135740     0.000000000  0.000000000  0.052600750

  length of vectors
     9.578410000 10.079732985 19.011135740     0.118649557  0.112748434  0.052600750


 FORCES acting on ions
    electron-ion (+dipol)            ewald-force                    non-local-force                 convergence-correction
 -----------------------------------------------------------------------------------------------
   0.184E+03 -.464E+03 0.273E+03   -.185E+03 0.465E+03 -.277E+03   0.633E+00 -.146E+01 0.386E+01   0.227E-01 0.491E-02 0.121E+00
   0.138E+03 -.417E+03 -.357E+04   -.141E+03 0.417E+03 0.357E+04   0.215E+01 0.841E+00 0.862E+00   0.171E-01 0.109E-01 0.132E+00
   -.373E+03 -.355E+03 0.381E+04   0.369E+03 0.356E+03 -.380E+04   0.282E+01 -.353E+00 -.364E+01   0.209E-01 0.312E-01 -.841E-01
   0.195E+03 -.400E+03 0.104E+04   -.194E+03 0.402E+03 -.105E+04   -.765E+00 -.184E+01 0.811E+00   -.364E-01 -.887E-02 0.977E-01
   0.274E+03 -.315E+03 -.254E+04   -.273E+03 0.315E+03 0.254E+04   -.602E+00 -.689E+00 -.324E+01   -.873E-01 -.251E-01 0.578E-01
   0.603E+03 -.387E+03 0.400E+04   -.598E+03 0.375E+03 -.399E+04   -.503E+01 0.108E+02 -.688E+01   0.967E-02 0.205E-01 -.197E+00
   0.535E+03 -.441E+03 0.209E+04   -.537E+03 0.443E+03 -.209E+04   0.173E+01 -.159E+01 0.205E+01   0.119E-01 0.555E-01 0.963E-01
   0.358E+03 -.420E+03 -.112E+04   -.359E+03 0.421E+03 0.112E+04   0.703E+00 -.122E+01 0.129E+01   0.327E-01 0.505E-01 0.122E+00
   0.512E+03 -.213E+03 -.420E+04   -.511E+03 0.213E+03 0.419E+04   -.147E+01 0.265E+00 0.520E+01   0.761E-01 0.240E-01 0.834E-01
   0.155E+03 0.289E+03 0.144E+04   -.157E+03 -.289E+03 -.144E+04   0.130E+01 0.752E+00 0.265E+01   0.486E-01 -.127E-01 0.102E+00
   0.239E+03 0.455E+03 -.242E+04   -.239E+03 -.456E+03 0.242E+04   0.835E+00 0.166E+01 -.208E+01   0.697E-01 0.444E-01 0.102E+00
   -.333E+03 0.152E+03 0.412E+04   0.335E+03 -.147E+03 -.410E+04   -.252E+01 -.461E+01 -.127E+02   -.198E-01 -.464E-01 -.169E+00
   0.981E+01 0.455E+03 0.209E+04   -.842E+01 -.456E+03 -.209E+04   -.106E+01 0.933E+00 0.227E+01   -.548E-01 -.211E-01 0.798E-01
   0.163E+03 0.364E+03 -.126E+04   -.164E+03 -.366E+03 0.126E+04   0.675E+00 0.131E+01 0.399E-01   -.618E-01 -.491E-01 0.143E+00
   -.931E+02 -.168E+03 -.422E+04   0.949E+02 0.171E+03 0.421E+04   -.176E+01 -.297E+01 0.117E+02   -.364E-01 -.152E-01 0.132E+00
   0.546E+03 0.545E+03 0.317E+04   -.548E+03 -.548E+03 -.317E+04   0.229E+01 0.317E+01 0.412E+01   0.184E-01 0.129E-01 0.636E-01
   0.367E+03 0.525E+03 0.794E+02   -.368E+03 -.527E+03 -.807E+02   0.810E+00 0.171E+01 0.136E+01   0.108E-01 0.115E-02 0.139E+00
   0.348E+03 0.623E+03 -.353E+04   -.345E+03 -.618E+03 0.352E+04   -.252E+01 -.484E+01 0.338E+01   0.195E-01 -.575E-01 0.912E-01
   0.488E+03 -.181E+02 0.335E+04   -.487E+03 0.237E+02 -.335E+04   -.147E+01 -.456E+01 -.241E+00   -.456E-02 -.745E-01 0.496E-02
   -.359E+03 -.647E+02 0.100E+03   0.360E+03 0.658E+02 -.103E+03   -.122E+01 -.104E+01 0.270E+01   0.366E-01 -.314E-01 0.132E+00
   -.415E+03 -.109E+03 -.357E+04   0.416E+03 0.106E+03 0.357E+04   -.378E+00 0.233E+01 0.487E+00   0.685E-01 -.573E-02 0.110E+00
   -.619E+03 0.647E+02 0.129E+04   0.620E+03 -.636E+02 -.129E+04   -.111E+01 -.776E+00 0.247E+01   0.103E-01 0.239E-02 0.111E+00
   -.440E+03 0.729E+02 -.250E+04   0.440E+03 -.717E+02 0.251E+04   -.376E+00 -.901E+00 -.312E+01   0.830E-02 -.631E-01 0.561E-01
   -.789E+03 0.150E+03 0.395E+04   0.776E+03 -.150E+03 -.394E+04   0.114E+02 -.817E-01 -.680E+01   0.315E-01 0.310E-03 -.216E+00
   -.707E+03 0.139E+02 0.204E+04   0.711E+03 -.142E+02 -.204E+04   -.379E+01 0.236E+00 0.656E+00   -.687E-02 0.368E-01 0.602E-01
   -.541E+03 0.312E+02 -.115E+04   0.543E+03 -.313E+02 0.115E+04   -.134E+01 -.613E-01 0.146E+01   -.239E-01 0.338E-01 0.143E+00
   -.456E+03 0.306E+03 -.420E+04   0.455E+03 -.305E+03 0.419E+04   0.111E+01 -.101E+01 0.538E+01   0.177E-01 0.286E-01 0.104E+00
   0.103E+03 -.361E+00 0.108E+04   -.104E+03 -.549E+00 -.108E+04   0.157E+01 0.145E+01 0.218E+01   0.147E-01 0.779E-02 0.132E-01
   -.736E+02 0.998E+02 -.300E+03   0.754E+02 -.102E+03 0.298E+03   -.219E+01 0.202E+01 0.127E+01   0.259E-01 0.932E-02 0.585E-01
   0.934E+02 0.115E+02 -.160E+04   -.947E+02 -.115E+02 0.161E+04   0.104E+01 0.471E+00 -.359E+01   0.289E-01 0.469E-01 0.392E-01
   -.348E+03 0.197E+03 0.130E+04   0.351E+03 -.199E+03 -.130E+04   -.379E+01 0.277E+01 0.765E+00   -.421E-02 -.142E-01 0.203E-03
   -.157E+03 0.146E+03 0.152E+03   0.157E+03 -.148E+03 -.153E+03   -.923E+00 0.208E+01 0.888E+00   -.108E-01 -.266E-02 0.431E-01
   -.134E+03 -.219E+01 -.129E+04   0.136E+03 0.175E+01 0.129E+04   -.167E+01 0.540E+00 -.119E+01   -.499E-01 -.145E-01 0.641E-01
   -.879E+02 0.119E+03 0.154E+04   0.880E+02 -.120E+03 -.155E+04   0.117E+01 0.968E+00 0.208E+01   0.188E-01 0.328E-01 -.528E-01
   -.893E+02 0.140E+03 0.514E+03   0.903E+02 -.142E+03 -.515E+03   -.130E+01 0.180E+01 0.479E+00   -.243E-02 -.880E-03 0.445E-01
   -.910E+02 0.177E+03 -.752E+03   0.924E+02 -.179E+03 0.751E+03   -.169E+01 0.190E+01 0.189E+01   -.146E-01 0.751E-02 0.446E-01
   0.235E+03 0.400E+02 0.153E+04   -.237E+03 -.403E+02 -.153E+04   0.214E+01 -.450E+00 0.359E+01   -.656E-02 -.267E-01 -.400E-01
   0.801E+02 -.128E+03 0.642E+03   -.809E+02 0.130E+03 -.643E+03   0.872E+00 -.279E+01 0.152E+01   0.118E-01 -.138E-01 0.317E-01
   -.729E+02 -.152E+03 -.849E+03   0.739E+02 0.154E+03 0.850E+03   -.115E+01 -.221E+01 -.496E+00   0.231E-01 -.144E-01 0.558E-01
   -.216E+03 -.131E+03 0.994E+03   0.219E+03 0.131E+03 -.996E+03   -.266E+01 -.341E+00 0.212E+01   0.485E-02 0.638E-02 0.236E-01
   -.895E+02 -.136E+03 -.425E+03   0.907E+02 0.138E+03 0.426E+03   -.130E+01 -.276E+01 -.976E+00   0.852E-03 0.390E-02 0.274E-01
   -.250E+02 -.420E+02 -.169E+04   0.254E+02 0.427E+02 0.169E+04   -.490E+00 -.910E+00 -.499E+01   -.168E-01 -.173E-01 0.503E-01
   -.124E+03 -.144E+03 0.110E+04   0.125E+03 0.145E+03 -.110E+04   -.854E+00 -.148E+01 -.247E+01   -.588E-02 -.687E-03 -.254E-01
   -.916E+02 -.162E+03 0.774E+01   0.928E+02 0.164E+03 -.721E+01   -.126E+01 -.230E+01 -.654E+00   -.105E-01 0.871E-02 0.558E-01
   -.915E+02 -.171E+03 -.118E+04   0.926E+02 0.173E+03 0.118E+04   -.135E+01 -.243E+01 0.836E+00   0.345E-01 0.459E-01 0.507E-01
   -.142E+03 -.971E+02 0.113E+04   0.144E+03 0.983E+02 -.113E+04   -.167E+01 -.133E+01 0.450E+01   0.330E-02 0.306E-02 -.154E-03
   0.116E+03 -.226E+02 -.300E+03   -.118E+03 0.226E+02 0.299E+03   0.286E+01 -.407E+00 0.156E+01   -.112E-01 0.246E-02 0.467E-01
   -.432E+02 0.831E+02 -.160E+04   0.439E+02 -.842E+02 0.161E+04   -.160E+00 0.123E+01 -.377E+01   -.135E-01 0.266E-01 0.516E-01
   0.185E+03 -.406E+02 0.123E+04   -.186E+03 0.407E+02 -.123E+04   0.170E+01 -.193E+00 -.870E+00   -.256E-01 -.125E-01 0.112E-01
   0.171E+03 -.192E+02 0.867E+02   -.174E+03 0.192E+02 -.877E+02   0.270E+01 0.469E-01 0.104E+01   -.158E-01 -.114E-01 0.384E-01
   0.703E+02 -.109E+03 -.129E+04   -.713E+02 0.110E+03 0.130E+04   0.135E+01 -.106E+01 -.119E+01   -.183E-01 -.481E-01 0.607E-01
   0.392E+03 0.392E+02 0.154E+04   -.397E+03 -.396E+02 -.154E+04   0.554E+01 0.145E+01 0.187E+01   0.993E-02 0.306E-01 -.427E-01
   0.231E+03 0.136E+02 0.587E+03   -.233E+03 -.140E+02 -.587E+03   0.196E+01 0.338E+00 0.571E-01   0.879E-02 0.120E-01 0.466E-01
   0.207E+03 0.214E+02 -.737E+03   -.209E+03 -.212E+02 0.736E+03   0.247E+01 -.561E+00 0.176E+01   0.128E-01 -.113E-01 0.227E-01
 -----------------------------------------------------------------------------------------------
   -.421E+01 0.610E+01 -.245E+02   0.597E-12 -.746E-12 0.159E-11   0.398E+01 -.611E+01 0.222E+02   0.191E+00 0.301E-02 0.234E+01
 
 
 POSITION                                       TOTAL-FORCE (eV/Angst)
 -----------------------------------------------------------------------------------
      4.91051      5.31106      4.89343         0.087262     -0.090434     -0.303965
      4.38257      4.33335      7.82949        -0.784716     -0.055566     -0.594064
      2.80504      1.41186      0.97869        -0.470789     -0.046340      1.201039
      2.27710      0.43415      3.91474         0.324913      0.255902     -0.159725
      1.74916     -0.54356      6.85080         0.260026     -0.141346      0.652091
      0.17163      6.61468      0.00000         0.474825     -1.488081      1.890603
      8.07187      1.08596      2.93606        -0.118576     -0.011103     -0.418739
      7.54393      0.10824      5.87212        -0.030371     -0.042803      0.186846
      7.01599     -0.86947      8.80817         0.229506      0.972567     -1.506225
      5.05000      2.90625      4.11771        -0.365961      0.192981     -0.368429
      4.52206      1.92854      7.05376         0.157458      0.290788      0.591500
      2.94453     -0.99295      0.20296         0.048319      0.093951      2.325417
      2.41659      8.10907      3.13902         0.277480      0.007418     -0.321733
      1.88864      7.13136      6.07508        -0.017087     -0.081163      0.283178
      1.36070      6.15365      9.01114         0.058560      0.103556     -2.018320
      8.21135     -1.31885      2.16033        -0.001614      0.104780     -0.737522
      7.68341     -2.29656      5.09639         0.005906     -0.217785      0.176311
      7.15547     -3.27428      8.03245         0.188963      0.278533     -1.514604
      7.66523      5.08637      1.95737        -0.061591      0.938576      0.557653
      7.13729      4.10866      4.89343        -0.083808      0.051328     -0.015689
      6.60935      3.13095      7.82949         0.459987     -0.590651     -0.532286
      4.50388     -0.76826      3.91474        -0.051428      0.296378     -0.638926
      3.97594     -1.74597      6.85080        -0.281243      0.172815      0.609196
      2.39840      5.41228      0.00000        -1.387004     -0.283011      1.769469
      1.87046      4.43456      2.93606         0.284659     -0.083334     -0.140767
      1.34252      3.45685      5.87212         0.017288     -0.038966      0.252676
      0.81458      2.47914      8.80817         0.699537      0.713144     -1.526190
      6.95478      3.04266      2.90890         0.487673      0.550995     -0.405484
      6.42684      2.06495      5.84496        -0.388856      0.002270     -0.294093
      5.89890      1.08724      8.78102        -0.201461      0.504371      0.198027
      4.32137     -1.83425      1.93021        -0.766040      0.202656     -1.321966
      3.79343      7.26777      4.86627         0.021153     -0.067072      0.086087
      3.26549      6.29006      7.80233        -0.432439      0.081287      0.789015
      1.68795      3.36857      0.95153         1.193404     -0.265251     -0.837547
      1.16001      2.39086      3.88759        -0.290508     -0.017481      0.029156
      0.63207      1.41314      6.82364        -0.362021     -0.170773      1.001717
      7.30511     -2.99716      0.96062         0.076240     -0.803615      0.989920
      6.77717      6.10486      3.89668         0.023385     -0.581392      0.185237
      6.24923      5.12715      6.83274        -0.149074     -0.075393      1.084646
      4.14375      1.22794      2.91799        -0.305939      0.217781     -0.278790
      3.61581      0.25023      5.85405        -0.068219     -0.363541      0.180504
      3.08787     -0.72748      8.79011        -0.102125     -0.178858     -1.359988
      1.51034      6.43076      1.93931         0.138604      0.125065     -1.314790
      0.98240      5.45305      4.87536        -0.073874     -0.027118     -0.069836
      0.45446      4.47534      7.81142        -0.149015     -0.242483      1.548031
      4.11929      4.57376      2.90890        -0.224232     -0.178836      0.300703
      3.59135      3.59605      5.84496         0.228543     -0.343202     -0.047758
      3.06341      2.61834      8.78102         0.522322      0.156929      0.183800
      1.48587     -0.30315      1.93021         0.032591     -0.073618     -1.699355
      0.95793      8.79887      4.86627         0.032237      0.005189      0.068009
      0.42999      7.82115      7.80233         0.317232     -0.307902      0.800273
      7.28064      0.34865      0.95153         0.509371      1.061782     -0.492592
      6.75270     -0.62906      3.88759        -0.034577     -0.134739      0.082979
      6.22476     -1.60677      6.82364         0.045126     -0.379187      0.895304
 -----------------------------------------------------------------------------------
    total drift:                               -0.042007     -0.013892      0.016755


--------------------------------------------------------------------------------------------------------



  FREE ENERGIE OF THE ION-ELECTRON SYSTEM (eV)
  ---------------------------------------------------
  free  energy   TOTEN  =      -262.21377304 eV

  energy  without entropy=     -261.38600195  energy(sigma->0) =     -261.79988750
 


--------------------------------------------------------------------------------------------------------


    POTLOK:  cpu time    0.0416: real time    0.0417


--------------------------------------------------------------------------------------------------------


     LOOP+:  cpu time   39.5054: real time   39.6926
    4ORBIT:  cpu time    0.0000: real time    0.0000

 total amount of memory used by VASP MPI-rank0    42844. kBytes
=======================================================================

   base      :      30000. kBytes
   nonlr-proj:       1930. kBytes
   fftplans  :       3097. kBytes
   grid      :       5606. kBytes
   one-center:         69. kBytes
   wavefun   :       2142. kBytes
 
  
  
 General timing and accounting informations for this job:
 ========================================================
  
                  Total CPU time used (sec):       41.130
                            User time (sec):       40.552
                          System time (sec):        0.579
                         Elapsed time (sec):       41.739
  
                   Maximum memory used (kb):      197980.
                   Average memory used (kb):           0.
  
                          Minor page faults:        57923
                          Major page faults:            0
                 Voluntary context switches:          915
