<?xml version="1.0" encoding="ISO-8859-1"?>
<modeling>
 <generator>
  <i name="program" type="string">vasp </i>
  <i name="version" type="string">6.1.0  </i>
  <i name="subversion" type="string">28Jan20 (build Mar 31 2020 17:42:31) gamma-only                       parallel </i>
  <i name="platform" type="string">LinuxIFC </i>
  <i name="date" type="string">2020 04 13 </i>
  <i name="time" type="string">01:52:22 </i>
 </generator>
 <incar>
  <i type="string" name="SYSTEM">"Millerite NiS"</i>
  <i type="int" name="NSIM">     4</i>
  <i type="int" name="NELM">   100</i>
  <i name="ENCUT">    450.00000000</i>
  <i type="string" name="LREAL">A</i>
  <i type="int" name="ISMEAR">     0</i>
  <i type="int" name="NWRITE">     2</i>
  <i type="logical" name="LWAVE"> F  </i>
  <i type="logical" name="LCHARG"> F  </i>
  <i type="int" name="NCORE">     6</i>
  <i type="int" name="NELM">   100</i>
 </incar>
 <structure name="primitive_cell" >
  <crystal>
   <varray name="basis" >
    <v>       8.42818148      -4.55101034       0.00000000 </v>
    <v>       0.00000000      10.07973298       0.00000000 </v>
    <v>       0.00000000       0.00000000      19.01113574 </v>
   </varray>
   <i name="volume">   1615.06858132 </i>
   <varray name="rec_basis" >
    <v>       0.11864956       0.00000000       0.00000000 </v>
    <v>       0.05357040       0.09920898       0.00000000 </v>
    <v>       0.00000000       0.00000000       0.05260075 </v>
   </varray>
  </crystal>
  <varray name="positions" >
   <v>       0.58263032       0.78996333       0.25739808 </v>
   <v>       0.51999040       0.66468351       0.41183694 </v>
   <v>       0.33281687       0.29033643       0.05147962 </v>
   <v>       0.27017695       0.16505661       0.20591847 </v>
   <v>       0.20753704       0.03977678       0.36035732 </v>
   <v>       0.02036350       0.66542971       0.00000000 </v>
   <v>       0.95772359       0.54014988       0.15443885 </v>
   <v>       0.89508368       0.41487006       0.30887770 </v>
   <v>       0.83244377       0.28959023       0.46331655 </v>
   <v>       0.59918016       0.55885702       0.21659441 </v>
   <v>       0.53654024       0.43357719       0.37103327 </v>
   <v>       0.34936671       0.05923012       0.01067595 </v>
   <v>       0.28672679       0.93395029       0.16511480 </v>
   <v>       0.22408688       0.80867046       0.31955365 </v>
   <v>       0.16144697       0.68339064       0.47399250 </v>
   <v>       0.97427343       0.30904357       0.11363518 </v>
   <v>       0.91163352       0.18376374       0.26807403 </v>
   <v>       0.84899361       0.05848391       0.42251288 </v>
   <v>       0.90947623       0.91524316       0.10295923 </v>
   <v>       0.84683632       0.78996333       0.25739808 </v>
   <v>       0.78419640       0.66468351       0.41183694 </v>
   <v>       0.53438295       0.16505661       0.20591847 </v>
   <v>       0.47174304       0.03977678       0.36035732 </v>
   <v>       0.28456951       0.66542971       0.00000000 </v>
   <v>       0.22192959       0.54014988       0.15443885 </v>
   <v>       0.15928968       0.41487006       0.30887770 </v>
   <v>       0.09664977       0.28959023       0.46331655 </v>
   <v>       0.82518168       0.67443006       0.15301029 </v>
   <v>       0.76254177       0.54915023       0.30744914 </v>
   <v>       0.69990185       0.42387040       0.46188799 </v>
   <v>       0.51272831       0.04952333       0.10153067 </v>
   <v>       0.45008840       0.92424350       0.25596953 </v>
   <v>       0.38744849       0.79896368       0.41040838 </v>
   <v>       0.20027495       0.42461661       0.05005106 </v>
   <v>       0.13763504       0.29933678       0.20448991 </v>
   <v>       0.07499513       0.17405695       0.35892876 </v>
   <v>       0.86674764       0.09399199       0.05052930 </v>
   <v>       0.80410773       0.96871216       0.20496815 </v>
   <v>       0.74146782       0.84343234       0.35940701 </v>
   <v>       0.49165437       0.34380544       0.15348854 </v>
   <v>       0.42901446       0.21852561       0.30792739 </v>
   <v>       0.36637454       0.09324579       0.46236624 </v>
   <v>       0.17920101       0.71889871       0.10200892 </v>
   <v>       0.11656109       0.59361889       0.25644777 </v>
   <v>       0.05392118       0.46833906       0.41088662 </v>
   <v>       0.48875168       0.67443006       0.15301029 </v>
   <v>       0.42611177       0.54915023       0.30744914 </v>
   <v>       0.36347185       0.42387040       0.46188799 </v>
   <v>       0.17629831       0.04952333       0.10153067 </v>
   <v>       0.11365840       0.92424350       0.25596953 </v>
   <v>       0.05101849       0.79896368       0.41040838 </v>
   <v>       0.86384495       0.42461661       0.05005106 </v>
   <v>       0.80120504       0.29933678       0.20448991 </v>
   <v>       0.73856513       0.17405695       0.35892876 </v>
  </varray>
 </structure>
 <varray name="primitive_index" >
  <v type="int" >        1 </v>
  <v type="int" >        2 </v>
  <v type="int" >        3 </v>
  <v type="int" >        4 </v>
  <v type="int" >        5 </v>
  <v type="int" >        6 </v>
  <v type="int" >        7 </v>
  <v type="int" >        8 </v>
  <v type="int" >        9 </v>
  <v type="int" >       10 </v>
  <v type="int" >       11 </v>
  <v type="int" >       12 </v>
  <v type="int" >       13 </v>
  <v type="int" >       14 </v>
  <v type="int" >       15 </v>
  <v type="int" >       16 </v>
  <v type="int" >       17 </v>
  <v type="int" >       18 </v>
  <v type="int" >       19 </v>
  <v type="int" >       20 </v>
  <v type="int" >       21 </v>
  <v type="int" >       22 </v>
  <v type="int" >       23 </v>
  <v type="int" >       24 </v>
  <v type="int" >       25 </v>
  <v type="int" >       26 </v>
  <v type="int" >       27 </v>
  <v type="int" >       28 </v>
  <v type="int" >       29 </v>
  <v type="int" >       30 </v>
  <v type="int" >       31 </v>
  <v type="int" >       32 </v>
  <v type="int" >       33 </v>
  <v type="int" >       34 </v>
  <v type="int" >       35 </v>
  <v type="int" >       36 </v>
  <v type="int" >       37 </v>
  <v type="int" >       38 </v>
  <v type="int" >       39 </v>
  <v type="int" >       40 </v>
  <v type="int" >       41 </v>
  <v type="int" >       42 </v>
  <v type="int" >       43 </v>
  <v type="int" >       44 </v>
  <v type="int" >       45 </v>
  <v type="int" >       46 </v>
  <v type="int" >       47 </v>
  <v type="int" >       48 </v>
  <v type="int" >       49 </v>
  <v type="int" >       50 </v>
  <v type="int" >       51 </v>
  <v type="int" >       52 </v>
  <v type="int" >       53 </v>
  <v type="int" >       54 </v>
 </varray>
 <kpoints>
  <generation param="Gamma">
   <v type="int" name="divisions">       1        1        1 </v>
   <v name="usershift">      0.00000000       0.00000000       0.00000000 </v>
   <v name="genvec1">      1.00000000       0.00000000       0.00000000 </v>
   <v name="genvec2">      0.00000000       1.00000000       0.00000000 </v>
   <v name="genvec3">      0.00000000       0.00000000       1.00000000 </v>
   <v name="shift">      0.00000000       0.00000000       0.00000000 </v>
  </generation>
  <varray name="kpointlist" >
   <v>       0.00000000       0.00000000       0.00000000 </v>
  </varray>
  <varray name="weights" >
   <v>       1.00000000 </v>
  </varray>
 </kpoints>
 <parameters>
  <separator name="general" >
   <i type="string" name="SYSTEM">"Millerite NiS"</i>
   <i type="logical" name="LCOMPAT"> F  </i>
  </separator>
  <separator name="electronic" >
   <i type="string" name="PREC">normal</i>
   <i name="ENMAX">    450.00000000</i>
   <i name="ENAUG">    703.44300000</i>
   <i name="EDIFF">      0.00010000</i>
   <i type="int" name="IALGO">    38</i>
   <i type="int" name="IWAVPR">    10</i>
   <i type="int" name="NBANDS">   360</i>
   <i type="int" name="NBANDSLOW">    -1</i>
   <i type="int" name="NBANDSHIGH">    -1</i>
   <i name="NELECT">    594.00000000</i>
   <i type="int" name="TURBO">     0</i>
   <i type="int" name="IRESTART">     0</i>
   <i type="int" name="NREBOOT">     0</i>
   <i type="int" name="NMIN">     0</i>
   <i name="EREF">      0.00000000</i>
   <separator name="electronic smearing" >
    <i type="int" name="ISMEAR">     0</i>
    <i name="SIGMA">      0.20000000</i>
    <i name="KSPACING">      0.50000000</i>
    <i type="logical" name="KGAMMA"> T  </i>
    <i type="logical" name="KBLOWUP"> T  </i>
   </separator>
   <separator name="electronic projectors" >
    <i type="logical" name="LREAL"> T  </i>
    <v name="ROPT">     -0.00050000     -0.00050000</v>
    <i type="int" name="LMAXPAW">  -100</i>
    <i type="int" name="LMAXMIX">     2</i>
    <i type="logical" name="NLSPLINE"> F  </i>
   </separator>
   <separator name="electronic startup" >
    <i type="int" name="ISTART">     0</i>
    <i type="int" name="ICHARG">     2</i>
    <i type="int" name="INIWAV">     1</i>
   </separator>
   <separator name="electronic spin" >
    <i type="int" name="ISPIN">     1</i>
    <i type="logical" name="LNONCOLLINEAR"> F  </i>
    <v name="MAGMOM">      1.00000000      1.00000000      1.00000000      1.00000000      1.00000000      1.00000000      1.00000000      1.00000000      1.00000000      1.00000000      1.00000000      1.00000000      1.00000000      1.00000000      1.00000000      1.00000000      1.00000000      1.00000000      1.00000000      1.00000000
      1.00000000      1.00000000      1.00000000      1.00000000      1.00000000      1.00000000      1.00000000      1.00000000      1.00000000      1.00000000      1.00000000      1.00000000      1.00000000      1.00000000      1.00000000      1.00000000      1.00000000      1.00000000      1.00000000      1.00000000
      1.00000000      1.00000000      1.00000000      1.00000000      1.00000000      1.00000000      1.00000000      1.00000000      1.00000000      1.00000000      1.00000000      1.00000000      1.00000000      1.00000000</v>
    <i name="NUPDOWN">     -1.00000000</i>
    <i type="logical" name="LSORBIT"> F  </i>
    <v name="SAXIS">      0.00000000      0.00000000      1.00000000</v>
    <i type="logical" name="LSPIRAL"> F  </i>
    <v name="QSPIRAL">      0.00000000      0.00000000      0.00000000</v>
    <i type="logical" name="LZEROZ"> F  </i>
   </separator>
   <separator name="electronic exchange-correlation" >
    <i type="logical" name="LASPH"> F  </i>
    <i type="logical" name="LMETAGGA"> F  </i>
   </separator>
   <separator name="electronic convergence" >
    <i type="int" name="NELM">   100</i>
    <i type="int" name="NELMDL">    -5</i>
    <i type="int" name="NELMIN">     2</i>
    <i name="ENINI">    450.00000000</i>
    <separator name="electronic convergence detail" >
     <i type="logical" name="LDIAG"> T  </i>
     <i type="logical" name="LSUBROT"> F  </i>
     <i name="WEIMIN">      0.00000000</i>
     <i name="EBREAK">      0.00000007</i>
     <i name="DEPER">      0.30000000</i>
     <i type="int" name="NRMM">     4</i>
     <i name="TIME">      0.40000000</i>
    </separator>
   </separator>
   <separator name="electronic mixer" >
    <i name="AMIX">      0.40000000</i>
    <i name="BMIX">      1.00000000</i>
    <i name="AMIN">      0.10000000</i>
    <i name="AMIX_MAG">      1.60000000</i>
    <i name="BMIX_MAG">      1.00000000</i>
    <separator name="electronic mixer details" >
     <i type="int" name="IMIX">     4</i>
     <i type="logical" name="MIXFIRST"> F  </i>
     <i type="int" name="MAXMIX">   -45</i>
     <i name="WC">    100.00000000</i>
     <i type="int" name="INIMIX">     1</i>
     <i type="int" name="MIXPRE">     1</i>
     <i type="int" name="MREMOVE">     5</i>
    </separator>
   </separator>
   <separator name="electronic dipolcorrection" >
    <i type="logical" name="LDIPOL"> F  </i>
    <i type="logical" name="LMONO"> F  </i>
    <i type="int" name="IDIPOL">     0</i>
    <i name="EPSILON">      1.00000000</i>
    <v name="DIPOL">   -100.00000000   -100.00000000   -100.00000000</v>
    <i name="EFIELD">      0.00000000</i>
   </separator>
  </separator>
  <separator name="grids" >
   <i type="int" name="NGX">    50</i>
   <i type="int" name="NGY">    54</i>
   <i type="int" name="NGZ">   100</i>
   <i type="int" name="NGXF">   100</i>
   <i type="int" name="NGYF">   108</i>
   <i type="int" name="NGZF">   200</i>
   <i type="logical" name="ADDGRID"> F  </i>
  </separator>
  <separator name="ionic" >
   <i type="int" name="NSW">     0</i>
   <i type="int" name="IBRION">    -1</i>
   <i type="int" name="MDALGO">     0</i>
   <i type="int" name="ISIF">     2</i>
   <i name="PSTRESS">      0.00000000</i>
   <i name="EDIFFG">      0.00100000</i>
   <i type="int" name="NFREE">     0</i>
   <i name="POTIM">      0.50000000</i>
   <i name="SMASS">     -3.00000000</i>
   <i name="SCALEE">      1.00000000</i>
  </separator>
  <separator name="ionic md" >
   <i name="TEBEG">      0.00010000</i>
   <i name="TEEND">      0.00010000</i>
   <i type="int" name="NBLOCK">     1</i>
   <i type="int" name="KBLOCK">     1</i>
   <i type="int" name="NPACO">   256</i>
   <i name="APACO">     16.00000000</i>
  </separator>
  <separator name="symmetry" >
   <i type="int" name="ISYM">     2</i>
   <i name="SYMPREC">      0.00001000</i>
  </separator>
  <separator name="dos" >
   <i type="int" name="LORBIT">     0</i>
   <v name="RWIGS">     -1.00000000     -1.00000000</v>
   <i type="int" name="NEDOS">   301</i>
   <i name="EMIN">     10.00000000</i>
   <i name="EMAX">    -10.00000000</i>
   <i name="EFERMI">      0.00000000</i>
  </separator>
  <separator name="writing" >
   <i type="int" name="NWRITE">     2</i>
   <i type="logical" name="LWAVE"> F  </i>
   <i type="logical" name="LDOWNSAMPLE"> F  </i>
   <i type="logical" name="LCHARG"> F  </i>
   <i type="logical" name="LPARD"> F  </i>
   <i type="logical" name="LVTOT"> F  </i>
   <i type="logical" name="LVHAR"> F  </i>
   <i type="logical" name="LELF"> F  </i>
   <i type="logical" name="LOPTICS"> F  </i>
   <v name="STM">      0.00000000      0.00000000      0.00000000      0.00000000      0.00000000      0.00000000      0.00000000</v>
  </separator>
  <separator name="performance" >
   <i type="int" name="NPAR">     8</i>
   <i type="int" name="NSIM">     4</i>
   <i type="int" name="NBLK">    -1</i>
   <i type="logical" name="LPLANE"> T  </i>
   <i type="logical" name="LSCALAPACK"> T  </i>
   <i type="logical" name="LSCAAWARE"> F  </i>
   <i type="logical" name="LSCALU"> F  </i>
   <i type="logical" name="LASYNC"> F  </i>
   <i type="logical" name="LORBITALREAL"> F  </i>
  </separator>
  <separator name="miscellaneous" >
   <i type="int" name="IDIOT">     3</i>
   <i type="int" name="PHON_NSTRUCT">    -1</i>
   <i type="logical" name="LMUSIC"> F  </i>
   <v name="POMASS">     58.69000000     32.06600000</v>
   <v name="DARWINR">      0.00000000      0.00000000</v>
   <v name="DARWINV">      1.00000000      1.00000000</v>
   <i type="logical" name="LCORR"> T  </i>
  </separator>
  <i type="logical" name="GGA_COMPAT"> T  </i>
  <i type="logical" name="LBERRY"> F  </i>
  <i type="int" name="ICORELEVEL">     0</i>
  <i type="logical" name="LDAU"> F  </i>
  <i type="int" name="I_CONSTRAINED_M">     0</i>
  <separator name="electronic exchange-correlation" >
   <i type="string" name="GGA">--</i>
   <i type="int" name="VOSKOWN">     0</i>
   <i type="logical" name="LHFCALC"> F  </i>
   <i type="string" name="PRECFOCK"></i>
   <i type="logical" name="LSYMGRAD"> F  </i>
   <i type="logical" name="LHFONE"> F  </i>
   <i type="logical" name="LRHFCALC"> F  </i>
   <i type="logical" name="LTHOMAS"> F  </i>
   <i type="logical" name="LMODELHF"> F  </i>
   <i type="logical" name="LFOCKACE"> F  </i>
   <i name="ENCUT4O">     -1.00000000</i>
   <i type="int" name="EXXOEP">     0</i>
   <i type="int" name="FOURORBIT">     0</i>
   <i name="AEXX">      0.00000000</i>
   <i name="HFALPHA">      0.00000000</i>
   <i name="MCALPHA">      0.00000000</i>
   <i name="ALDAX">      1.00000000</i>
   <i name="AGGAX">      1.00000000</i>
   <i name="ALDAC">      1.00000000</i>
   <i name="AGGAC">      1.00000000</i>
   <i type="int" name="NKREDX">     1</i>
   <i type="int" name="NKREDY">     1</i>
   <i type="int" name="NKREDZ">     1</i>
   <i type="logical" name="SHIFTRED"> F  </i>
   <i type="logical" name="ODDONLY"> F  </i>
   <i type="logical" name="EVENONLY"> F  </i>
   <i type="int" name="LMAXFOCK">     0</i>
   <i type="int" name="NMAXFOCKAE">     0</i>
   <i type="logical" name="LFOCKAEDFT"> F  </i>
   <i name="HFSCREEN">      0.00000000</i>
   <i name="HFSCREENC">      0.00000000</i>
   <i type="int" name="NBANDSGWLOW">     0</i>
  </separator>
  <separator name="vdW DFT" >
   <i type="logical" name="LUSE_VDW"> F  </i>
   <i name="Zab_VDW">     -0.84910000</i>
   <i name="PARAM1">      0.12340000</i>
   <i name="PARAM2">      1.00000000</i>
   <i name="PARAM3">      0.00000000</i>
  </separator>
  <separator name="model GW" >
   <i type="int" name="MODEL_GW">     0</i>
   <i name="MODEL_EPS0">     17.94520646</i>
   <i name="MODEL_ALPHA">      1.00000000</i>
  </separator>
  <separator name="linear response parameters" >
   <i type="logical" name="LEPSILON"> F  </i>
   <i type="logical" name="LRPA"> F  </i>
   <i type="logical" name="LNABLA"> F  </i>
   <i type="logical" name="LVEL"> F  </i>
   <i type="int" name="KINTER">     0</i>
   <i name="CSHIFT">      0.10000000</i>
   <i name="OMEGAMAX">     -1.00000000</i>
   <i name="DEG_THRESHOLD">      0.00200000</i>
   <i name="RTIME">     -0.10000000</i>
   <i name="WPLASMAI">      0.00000000</i>
   <v name="DFIELD">      0.00000000      0.00000000      0.00000000</v>
   <v name="WPLASMA">      0.00000000      0.00000000      0.00000000      0.00000000      0.00000000      0.00000000      0.00000000      0.00000000      0.00000000</v>
  </separator>
  <separator name="orbital magnetization" >
   <i type="logical" name="NUCIND"> F  </i>
   <v name="MAGPOS">      0.00000000      0.00000000      0.00000000</v>
   <i type="logical" name="LNICSALL"> T  </i>
   <i type="logical" name="ORBITALMAG"> F  </i>
   <i type="logical" name="LMAGBLOCH"> F  </i>
   <i type="logical" name="LCHIMAG"> F  </i>
   <i type="logical" name="LGAUGE"> T  </i>
   <i type="int" name="MAGATOM">     0</i>
   <v name="MAGDIPOL">      0.00000000      0.00000000      0.00000000</v>
   <v name="AVECCONST">      0.00000000      0.00000000      0.00000000</v>
  </separator>
  <separator name="response functions" >
   <i type="logical" name="LFINITE_TEMPERATURE"> F  </i>
   <i type="logical" name="LADDER"> F  </i>
   <i type="logical" name="LRPAFORCE"> F  </i>
   <i type="logical" name="LFXC"> F  </i>
   <i type="logical" name="LHARTREE"> T  </i>
   <i type="int" name="IBSE">     0</i>
   <v type="int" name="KPOINT">    -1     0     0     0</v>
   <i type="logical" name="LTCTC"> F  </i>
   <i type="logical" name="LTCTE"> F  </i>
   <i type="logical" name="LTETE"> F  </i>
   <i type="logical" name="LTRIPLET"> F  </i>
   <i type="logical" name="LFXCEPS"> F  </i>
   <i type="logical" name="LFXHEG"> F  </i>
   <i type="int" name="NATURALO">     2</i>
   <i type="logical" name="LHOLEGF"> F  </i>
   <i type="logical" name="L2ORDER"> F  </i>
   <i type="logical" name="LDMP1"> F  </i>
   <i type="logical" name="LMP2LT"> F  </i>
   <i type="logical" name="LSMP2LT"> F  </i>
   <i type="logical" name="LGWLF"> F  </i>
   <i name="ENCUTGW">     -2.00000000</i>
   <i name="ENCUTGWSOFT">     -2.00000000</i>
   <i name="ENCUTLF">     -1.00000000</i>
   <i type="logical" name="LESF_SPLINES"> F  </i>
   <i type="int" name="LMAXMP2">    -1</i>
   <i name="SCISSOR">      0.00000000</i>
   <i type="int" name="NOMEGA">     0</i>
   <i type="int" name="NOMEGAR">     0</i>
   <i type="int" name="NBANDSGW">    -1</i>
   <i type="int" name="NBANDSO">    -1</i>
   <i type="int" name="NBANDSV">    -1</i>
   <i type="int" name="NELM">   100</i>
   <i type="int" name="NELMHF">     1</i>
   <i type="int" name="DIM">     3</i>
   <i type="int" name="IESPILON">     4</i>
   <i type="int" name="ANTIRES">     0</i>
   <i name="OMEGAMAX">    -30.00000000</i>
   <i name="OMEGAMIN">    -30.00000000</i>
   <i name="OMEGATL">   -200.00000000</i>
   <i type="int" name="OMEGAGRID">     0</i>
   <i name="CSHIFT">     -0.10000000</i>
   <i type="logical" name="LSELFENERGY"> F  </i>
   <i type="logical" name="LSPECTRAL"> F  </i>
   <i type="logical" name="LSPECTRALGW"> F  </i>
   <i type="logical" name="LSINGLES"> F  </i>
   <i type="logical" name="LFERMIGW"> F  </i>
   <i type="logical" name="ODDONLYGW"> F  </i>
   <i type="logical" name="EVENONLYGW"> F  </i>
   <i type="int" name="NKREDLFX">     1</i>
   <i type="int" name="NKREDLFY">     1</i>
   <i type="int" name="NKREDLFZ">     1</i>
   <i type="int" name="MAXMEM">  2800</i>
   <i type="int" name="TELESCOPE">     0</i>
   <i type="int" name="NTAUPAR">    -1</i>
   <i type="int" name="NOMEGAPAR">    -1</i>
   <i name="LAMBDA">      1.00000000</i>
  </separator>
  <separator name="External order field" >
   <i name="OFIELD_KAPPA">      0.00000000</i>
   <v name="OFIELD_K">      0.00000000      0.00000000      0.00000000</v>
   <i name="OFIELD_Q6_NEAR">      0.00000000</i>
   <i name="OFIELD_Q6_FAR">      0.00000000</i>
   <i name="OFIELD_A">      0.00000000</i>
  </separator>
 </parameters>
 <atominfo>
  <atoms>      54 </atoms>
  <types>       2 </types>
  <array name="atoms" >
   <dimension dim="1">ion</dimension>
   <field type="string">element</field>
   <field type="int">atomtype</field>
   <set>
    <rc><c>Ni</c><c>   1</c></rc>
    <rc><c>Ni</c><c>   1</c></rc>
    <rc><c>Ni</c><c>   1</c></rc>
    <rc><c>Ni</c><c>   1</c></rc>
    <rc><c>Ni</c><c>   1</c></rc>
    <rc><c>Ni</c><c>   1</c></rc>
    <rc><c>Ni</c><c>   1</c></rc>
    <rc><c>Ni</c><c>   1</c></rc>
    <rc><c>Ni</c><c>   1</c></rc>
    <rc><c>Ni</c><c>   1</c></rc>
    <rc><c>Ni</c><c>   1</c></rc>
    <rc><c>Ni</c><c>   1</c></rc>
    <rc><c>Ni</c><c>   1</c></rc>
    <rc><c>Ni</c><c>   1</c></rc>
    <rc><c>Ni</c><c>   1</c></rc>
    <rc><c>Ni</c><c>   1</c></rc>
    <rc><c>Ni</c><c>   1</c></rc>
    <rc><c>Ni</c><c>   1</c></rc>
    <rc><c>Ni</c><c>   1</c></rc>
    <rc><c>Ni</c><c>   1</c></rc>
    <rc><c>Ni</c><c>   1</c></rc>
    <rc><c>Ni</c><c>   1</c></rc>
    <rc><c>Ni</c><c>   1</c></rc>
    <rc><c>Ni</c><c>   1</c></rc>
    <rc><c>Ni</c><c>   1</c></rc>
    <rc><c>Ni</c><c>   1</c></rc>
    <rc><c>Ni</c><c>   1</c></rc>
    <rc><c>S </c><c>   2</c></rc>
    <rc><c>S </c><c>   2</c></rc>
    <rc><c>S </c><c>   2</c></rc>
    <rc><c>S </c><c>   2</c></rc>
    <rc><c>S </c><c>   2</c></rc>
    <rc><c>S </c><c>   2</c></rc>
    <rc><c>S </c><c>   2</c></rc>
    <rc><c>S </c><c>   2</c></rc>
    <rc><c>S </c><c>   2</c></rc>
    <rc><c>S </c><c>   2</c></rc>
    <rc><c>S </c><c>   2</c></rc>
    <rc><c>S </c><c>   2</c></rc>
    <rc><c>S </c><c>   2</c></rc>
    <rc><c>S </c><c>   2</c></rc>
    <rc><c>S </c><c>   2</c></rc>
    <rc><c>S </c><c>   2</c></rc>
    <rc><c>S </c><c>   2</c></rc>
    <rc><c>S </c><c>   2</c></rc>
    <rc><c>S </c><c>   2</c></rc>
    <rc><c>S </c><c>   2</c></rc>
    <rc><c>S </c><c>   2</c></rc>
    <rc><c>S </c><c>   2</c></rc>
    <rc><c>S </c><c>   2</c></rc>
    <rc><c>S </c><c>   2</c></rc>
    <rc><c>S </c><c>   2</c></rc>
    <rc><c>S </c><c>   2</c></rc>
    <rc><c>S </c><c>   2</c></rc>
   </set>
  </array>
  <array name="atomtypes" >
   <dimension dim="1">type</dimension>
   <field type="int">atomspertype</field>
   <field type="string">element</field>
   <field>mass</field>
   <field>valence</field>
   <field type="string">pseudopotential</field>
   <set>
    <rc><c>  27</c><c>Ni</c><c>     58.69000000</c><c>     16.00000000</c><c>  PAW_PBE Ni_pv 06Sep2000               </c></rc>
    <rc><c>  27</c><c>S </c><c>     32.06600000</c><c>      6.00000000</c><c>  PAW_PBE S 06Sep2000                   </c></rc>
   </set>
  </array>
 </atominfo>
 <structure name="initialpos" >
  <crystal>
   <varray name="basis" >
    <v>       8.42818148      -4.55101034       0.00000000 </v>
    <v>       0.00000000      10.07973298       0.00000000 </v>
    <v>       0.00000000       0.00000000      19.01113574 </v>
   </varray>
   <i name="volume">   1615.06858132 </i>
   <varray name="rec_basis" >
    <v>       0.11864956       0.00000000       0.00000000 </v>
    <v>       0.05357040       0.09920898       0.00000000 </v>
    <v>       0.00000000       0.00000000       0.05260075 </v>
   </varray>
  </crystal>
  <varray name="positions" >
   <v>       0.58263032       0.78996333       0.25739808 </v>
   <v>       0.51999040       0.66468351       0.41183694 </v>
   <v>       0.33281687       0.29033643       0.05147962 </v>
   <v>       0.27017695       0.16505661       0.20591847 </v>
   <v>       0.20753704       0.03977678       0.36035732 </v>
   <v>       0.02036350       0.66542971       0.00000000 </v>
   <v>       0.95772359       0.54014988       0.15443885 </v>
   <v>       0.89508368       0.41487006       0.30887770 </v>
   <v>       0.83244377       0.28959023       0.46331655 </v>
   <v>       0.59918016       0.55885702       0.21659441 </v>
   <v>       0.53654024       0.43357719       0.37103327 </v>
   <v>       0.34936671       0.05923012       0.01067595 </v>
   <v>       0.28672679       0.93395029       0.16511480 </v>
   <v>       0.22408688       0.80867046       0.31955365 </v>
   <v>       0.16144697       0.68339064       0.47399250 </v>
   <v>       0.97427343       0.30904357       0.11363518 </v>
   <v>       0.91163352       0.18376374       0.26807403 </v>
   <v>       0.84899361       0.05848391       0.42251288 </v>
   <v>       0.90947623       0.91524316       0.10295923 </v>
   <v>       0.84683632       0.78996333       0.25739808 </v>
   <v>       0.78419640       0.66468351       0.41183694 </v>
   <v>       0.53438295       0.16505661       0.20591847 </v>
   <v>       0.47174304       0.03977678       0.36035732 </v>
   <v>       0.28456951       0.66542971       0.00000000 </v>
   <v>       0.22192959       0.54014988       0.15443885 </v>
   <v>       0.15928968       0.41487006       0.30887770 </v>
   <v>       0.09664977       0.28959023       0.46331655 </v>
   <v>       0.82518168       0.67443006       0.15301029 </v>
   <v>       0.76254177       0.54915023       0.30744914 </v>
   <v>       0.69990185       0.42387040       0.46188799 </v>
   <v>       0.51272831       0.04952333       0.10153067 </v>
   <v>       0.45008840       0.92424350       0.25596953 </v>
   <v>       0.38744849       0.79896368       0.41040838 </v>
   <v>       0.20027495       0.42461661       0.05005106 </v>
   <v>       0.13763504       0.29933678       0.20448991 </v>
   <v>       0.07499513       0.17405695       0.35892876 </v>
   <v>       0.86674764       0.09399199       0.05052930 </v>
   <v>       0.80410773       0.96871216       0.20496815 </v>
   <v>       0.74146782       0.84343234       0.35940701 </v>
   <v>       0.49165437       0.34380544       0.15348854 </v>
   <v>       0.42901446       0.21852561       0.30792739 </v>
   <v>       0.36637454       0.09324579       0.46236624 </v>
   <v>       0.17920101       0.71889871       0.10200892 </v>
   <v>       0.11656109       0.59361889       0.25644777 </v>
   <v>       0.05392118       0.46833906       0.41088662 </v>
   <v>       0.48875168       0.67443006       0.15301029 </v>
   <v>       0.42611177       0.54915023       0.30744914 </v>
   <v>       0.36347185       0.42387040       0.46188799 </v>
   <v>       0.17629831       0.04952333       0.10153067 </v>
   <v>       0.11365840       0.92424350       0.25596953 </v>
   <v>       0.05101849       0.79896368       0.41040838 </v>
   <v>       0.86384495       0.42461661       0.05005106 </v>
   <v>       0.80120504       0.29933678       0.20448991 </v>
   <v>       0.73856513       0.17405695       0.35892876 </v>
  </varray>
 </structure>
 <calculation>
  <scstep>
   <time name="dav">    1.14    1.15</time>
   <time name="total">    1.19    1.19</time>
   <energy>
    <i name="alphaZ">   1295.57565721 </i>
    <i name="ewald"> 101400.81283024 </i>
    <i name="hartreedc">-192891.15285512 </i>
    <i name="XCdc">   2734.69699927 </i>
    <i name="pawpsdc">  84547.15000061 </i>
    <i name="pawaedc"> -88231.13391551 </i>
    <i name="eentropy">     -0.31718036 </i>
    <i name="bandstr">  -3874.00163720 </i>
    <i name="atom"> 102001.95379032 </i>
    <i name="e_fr_energy">   6983.58368945 </i>
    <i name="e_wo_entrp">   6983.90086981 </i>
    <i name="e_0_energy">   6983.74227963 </i>
   </energy>
  </scstep>
  <scstep>
   <time name="dav">    1.00    1.00</time>
   <time name="total">    1.00    1.00</time>
   <energy>
    <i name="e_fr_energy">    407.31756878 </i>
    <i name="e_wo_entrp">    407.85529281 </i>
    <i name="e_0_energy">    407.58643079 </i>
   </energy>
  </scstep>
  <scstep>
   <time name="dav">    1.10    1.10</time>
   <time name="total">    1.10    1.10</time>
   <energy>
    <i name="e_fr_energy">   -257.25280263 </i>
    <i name="e_wo_entrp">   -256.24374327 </i>
    <i name="e_0_energy">   -256.74827295 </i>
   </energy>
  </scstep>
  <scstep>
   <time name="dav">    1.06    1.06</time>
   <time name="total">    1.06    1.06</time>
   <energy>
    <i name="e_fr_energy">   -298.29541731 </i>
    <i name="e_wo_entrp">   -297.25916662 </i>
    <i name="e_0_energy">   -297.77729197 </i>
   </energy>
  </scstep>
  <scstep>
   <time name="dav">    1.14    1.15</time>
   <time name="total">    1.18    1.18</time>
   <energy>
    <i name="e_fr_energy">   -299.97694973 </i>
    <i name="e_wo_entrp">   -298.92747072 </i>
    <i name="e_0_energy">   -299.45221023 </i>
   </energy>
  </scstep>
  <scstep>
   <time name="dav">    1.09    1.09</time>
   <time name="total">    1.16    1.17</time>
   <energy>
    <i name="e_fr_energy">   -368.15407406 </i>
    <i name="e_wo_entrp">   -367.48847213 </i>
    <i name="e_0_energy">   -367.82127309 </i>
   </energy>
  </scstep>
  <scstep>
   <time name="dav">    1.09    1.09</time>
   <time name="total">    1.16    1.16</time>
   <energy>
    <i name="e_fr_energy">   -276.53836978 </i>
    <i name="e_wo_entrp">   -275.92581184 </i>
    <i name="e_0_energy">   -276.23209081 </i>
   </energy>
  </scstep>
  <scstep>
   <time name="dav">    1.23    1.23</time>
   <time name="total">    1.30    1.31</time>
   <energy>
    <i name="e_fr_energy">   -275.42932002 </i>
    <i name="e_wo_entrp">   -274.11995456 </i>
    <i name="e_0_energy">   -274.77463729 </i>
   </energy>
  </scstep>
  <scstep>
   <time name="dav">    1.16    1.17</time>
   <time name="total">    1.23    1.24</time>
   <energy>
    <i name="e_fr_energy">   -270.45077445 </i>
    <i name="e_wo_entrp">   -269.55847627 </i>
    <i name="e_0_energy">   -270.00462536 </i>
   </energy>
  </scstep>
  <scstep>
   <time name="dav">    1.21    1.21</time>
   <time name="total">    1.28    1.28</time>
   <energy>
    <i name="e_fr_energy">   -281.00008811 </i>
    <i name="e_wo_entrp">   -280.19666492 </i>
    <i name="e_0_energy">   -280.59837651 </i>
   </energy>
  </scstep>
  <scstep>
   <time name="dav">    1.22    1.23</time>
   <time name="total">    1.29    1.30</time>
   <energy>
    <i name="e_fr_energy">   -270.89660571 </i>
    <i name="e_wo_entrp">   -270.03838002 </i>
    <i name="e_0_energy">   -270.46749286 </i>
   </energy>
  </scstep>
  <scstep>
   <time name="dav">    1.22    1.23</time>
   <time name="total">    1.29    1.30</time>
   <energy>
    <i name="e_fr_energy">   -265.08500665 </i>
    <i name="e_wo_entrp">   -264.38547627 </i>
    <i name="e_0_energy">   -264.73524146 </i>
   </energy>
  </scstep>
  <scstep>
   <time name="dav">    1.21    1.22</time>
   <time name="total">    1.28    1.29</time>
   <energy>
    <i name="e_fr_energy">   -264.51580277 </i>
    <i name="e_wo_entrp">   -263.78522372 </i>
    <i name="e_0_energy">   -264.15051324 </i>
   </energy>
  </scstep>
  <scstep>
   <time name="dav">    1.17    1.17</time>
   <time name="total">    1.24    1.25</time>
   <energy>
    <i name="e_fr_energy">   -263.30023394 </i>
    <i name="e_wo_entrp">   -262.54730396 </i>
    <i name="e_0_energy">   -262.92376895 </i>
   </energy>
  </scstep>
  <scstep>
   <time name="dav">    1.14    1.14</time>
   <time name="total">    1.21    1.21</time>
   <energy>
    <i name="e_fr_energy">   -262.60639864 </i>
    <i name="e_wo_entrp">   -261.84022604 </i>
    <i name="e_0_energy">   -262.22331234 </i>
   </energy>
  </scstep>
  <scstep>
   <time name="dav">    1.21    1.21</time>
   <time name="total">    1.28    1.28</time>
   <energy>
    <i name="e_fr_energy">   -262.54008700 </i>
    <i name="e_wo_entrp">   -261.78627115 </i>
    <i name="e_0_energy">   -262.16317908 </i>
   </energy>
  </scstep>
  <scstep>
   <time name="dav">    1.18    1.19</time>
   <time name="total">    1.26    1.26</time>
   <energy>
    <i name="e_fr_energy">   -262.44265738 </i>
    <i name="e_wo_entrp">   -261.66197736 </i>
    <i name="e_0_energy">   -262.05231737 </i>
   </energy>
  </scstep>
  <scstep>
   <time name="dav">    1.18    1.18</time>
   <time name="total">    1.25    1.25</time>
   <energy>
    <i name="e_fr_energy">   -262.32446421 </i>
    <i name="e_wo_entrp">   -261.53665496 </i>
    <i name="e_0_energy">   -261.93055958 </i>
   </energy>
  </scstep>
  <scstep>
   <time name="dav">    1.14    1.15</time>
   <time name="total">    1.22    1.22</time>
   <energy>
    <i name="e_fr_energy">   -262.33553045 </i>
    <i name="e_wo_entrp">   -261.52942951 </i>
    <i name="e_0_energy">   -261.93247998 </i>
   </energy>
  </scstep>
  <scstep>
   <time name="dav">    1.26    1.26</time>
   <time name="total">    1.33    1.33</time>
   <energy>
    <i name="e_fr_energy">   -262.27079923 </i>
    <i name="e_wo_entrp">   -261.40493794 </i>
    <i name="e_0_energy">   -261.83786859 </i>
   </energy>
  </scstep>
  <scstep>
   <time name="dav">    1.18    1.19</time>
   <time name="total">    1.25    1.26</time>
   <energy>
    <i name="e_fr_energy">   -262.23082939 </i>
    <i name="e_wo_entrp">   -261.39451410 </i>
    <i name="e_0_energy">   -261.81267175 </i>
   </energy>
  </scstep>
  <scstep>
   <time name="dav">    1.20    1.21</time>
   <time name="total">    1.27    1.28</time>
   <energy>
    <i name="e_fr_energy">   -262.24298944 </i>
    <i name="e_wo_entrp">   -261.40003452 </i>
    <i name="e_0_energy">   -261.82151198 </i>
   </energy>
  </scstep>
  <scstep>
   <time name="dav">    1.19    1.20</time>
   <time name="total">    1.27    1.27</time>
   <energy>
    <i name="e_fr_energy">   -262.23920652 </i>
    <i name="e_wo_entrp">   -261.38506347 </i>
    <i name="e_0_energy">   -261.81213499 </i>
   </energy>
  </scstep>
  <scstep>
   <time name="dav">    1.21    1.22</time>
   <time name="total">    1.28    1.29</time>
   <energy>
    <i name="e_fr_energy">   -262.23103939 </i>
    <i name="e_wo_entrp">   -261.41694520 </i>
    <i name="e_0_energy">   -261.82399230 </i>
   </energy>
  </scstep>
  <scstep>
   <time name="dav">    1.20    1.21</time>
   <time name="total">    1.27    1.28</time>
   <energy>
    <i name="e_fr_energy">   -262.21693927 </i>
    <i name="e_wo_entrp">   -261.37487010 </i>
    <i name="e_0_energy">   -261.79590469 </i>
   </energy>
  </scstep>
  <scstep>
   <time name="dav">    1.20    1.20</time>
   <time name="total">    1.27    1.27</time>
   <energy>
    <i name="e_fr_energy">   -262.21639651 </i>
    <i name="e_wo_entrp">   -261.38551554 </i>
    <i name="e_0_energy">   -261.80095602 </i>
   </energy>
  </scstep>
  <scstep>
   <time name="dav">    1.21    1.21</time>
   <time name="total">    1.28    1.29</time>
   <energy>
    <i name="e_fr_energy">   -262.21583489 </i>
    <i name="e_wo_entrp">   -261.38416474 </i>
    <i name="e_0_energy">   -261.79999982 </i>
   </energy>
  </scstep>
  <scstep>
   <time name="dav">    1.14    1.14</time>
   <time name="total">    1.21    1.22</time>
   <energy>
    <i name="e_fr_energy">   -262.21300228 </i>
    <i name="e_wo_entrp">   -261.38135643 </i>
    <i name="e_0_energy">   -261.79717936 </i>
   </energy>
  </scstep>
  <scstep>
   <time name="dav">    1.14    1.14</time>
   <time name="total">    1.21    1.22</time>
   <energy>
    <i name="e_fr_energy">   -262.21352898 </i>
    <i name="e_wo_entrp">   -261.38740956 </i>
    <i name="e_0_energy">   -261.80046927 </i>
   </energy>
  </scstep>
  <scstep>
   <time name="dav">    1.04    1.04</time>
   <time name="total">    1.11    1.11</time>
   <energy>
    <i name="e_fr_energy">   -262.21319901 </i>
    <i name="e_wo_entrp">   -261.38552368 </i>
    <i name="e_0_energy">   -261.79936135 </i>
   </energy>
  </scstep>
  <scstep>
   <time name="dav">    0.89    0.89</time>
   <time name="total">    0.96    0.97</time>
   <energy>
    <i name="e_fr_energy">   -262.21368145 </i>
    <i name="e_wo_entrp">   -261.38655753 </i>
    <i name="e_0_energy">   -261.80011949 </i>
   </energy>
  </scstep>
  <scstep>
   <time name="dav">    0.73    0.73</time>
   <time name="total">    0.77    0.77</time>
   <energy>
    <i name="alphaZ">   1295.57565721 </i>
    <i name="ewald"> 101400.81283024 </i>
    <i name="hartreedc">-192440.74008984 </i>
    <i name="XCdc">   2713.87298179 </i>
    <i name="pawpsdc">  97295.84317165 </i>
    <i name="pawaedc">-101020.15198517 </i>
    <i name="eentropy">     -0.82777109 </i>
    <i name="bandstr"> -11508.55235815 </i>
    <i name="atom"> 102001.95379032 </i>
    <i name="e_fr_energy">   -262.21377304 </i>
    <i name="e_wo_entrp">   -261.38600195 </i>
    <i name="e_0_energy">   -261.79988750 </i>
   </energy>
  </scstep>
  <structure>
   <crystal>
    <varray name="basis" >
     <v>       8.42818148      -4.55101034       0.00000000 </v>
     <v>       0.00000000      10.07973298       0.00000000 </v>
     <v>       0.00000000       0.00000000      19.01113574 </v>
    </varray>
    <i name="volume">   1615.06858132 </i>
    <varray name="rec_basis" >
     <v>       0.11864956       0.00000000       0.00000000 </v>
     <v>       0.05357040       0.09920898       0.00000000 </v>
     <v>       0.00000000       0.00000000       0.05260075 </v>
    </varray>
   </crystal>
   <varray name="positions" >
    <v>       0.58263032       0.78996333       0.25739808 </v>
    <v>       0.51999040       0.66468351       0.41183694 </v>
    <v>       0.33281687       0.29033643       0.05147962 </v>
    <v>       0.27017695       0.16505661       0.20591847 </v>
    <v>       0.20753704       0.03977678       0.36035732 </v>
    <v>       0.02036350       0.66542971       0.00000000 </v>
    <v>       0.95772359       0.54014988       0.15443885 </v>
    <v>       0.89508368       0.41487006       0.30887770 </v>
    <v>       0.83244377       0.28959023       0.46331655 </v>
    <v>       0.59918016       0.55885702       0.21659441 </v>
    <v>       0.53654024       0.43357719       0.37103327 </v>
    <v>       0.34936671       0.05923012       0.01067595 </v>
    <v>       0.28672679       0.93395029       0.16511480 </v>
    <v>       0.22408688       0.80867046       0.31955365 </v>
    <v>       0.16144697       0.68339064       0.47399250 </v>
    <v>       0.97427343       0.30904357       0.11363518 </v>
    <v>       0.91163352       0.18376374       0.26807403 </v>
    <v>       0.84899361       0.05848391       0.42251288 </v>
    <v>       0.90947623       0.91524316       0.10295923 </v>
    <v>       0.84683632       0.78996333       0.25739808 </v>
    <v>       0.78419640       0.66468351       0.41183694 </v>
    <v>       0.53438295       0.16505661       0.20591847 </v>
    <v>       0.47174304       0.03977678       0.36035732 </v>
    <v>       0.28456951       0.66542971       0.00000000 </v>
    <v>       0.22192959       0.54014988       0.15443885 </v>
    <v>       0.15928968       0.41487006       0.30887770 </v>
    <v>       0.09664977       0.28959023       0.46331655 </v>
    <v>       0.82518168       0.67443006       0.15301029 </v>
    <v>       0.76254177       0.54915023       0.30744914 </v>
    <v>       0.69990185       0.42387040       0.46188799 </v>
    <v>       0.51272831       0.04952333       0.10153067 </v>
    <v>       0.45008840       0.92424350       0.25596953 </v>
    <v>       0.38744849       0.79896368       0.41040838 </v>
    <v>       0.20027495       0.42461661       0.05005106 </v>
    <v>       0.13763504       0.29933678       0.20448991 </v>
    <v>       0.07499513       0.17405695       0.35892876 </v>
    <v>       0.86674764       0.09399199       0.05052930 </v>
    <v>       0.80410773       0.96871216       0.20496815 </v>
    <v>       0.74146782       0.84343234       0.35940701 </v>
    <v>       0.49165437       0.34380544       0.15348854 </v>
    <v>       0.42901446       0.21852561       0.30792739 </v>
    <v>       0.36637454       0.09324579       0.46236624 </v>
    <v>       0.17920101       0.71889871       0.10200892 </v>
    <v>       0.11656109       0.59361889       0.25644777 </v>
    <v>       0.05392118       0.46833906       0.41088662 </v>
    <v>       0.48875168       0.67443006       0.15301029 </v>
    <v>       0.42611177       0.54915023       0.30744914 </v>
    <v>       0.36347185       0.42387040       0.46188799 </v>
    <v>       0.17629831       0.04952333       0.10153067 </v>
    <v>       0.11365840       0.92424350       0.25596953 </v>
    <v>       0.05101849       0.79896368       0.41040838 </v>
    <v>       0.86384495       0.42461661       0.05005106 </v>
    <v>       0.80120504       0.29933678       0.20448991 </v>
    <v>       0.73856513       0.17405695       0.35892876 </v>
   </varray>
  </structure>
  <varray name="forces" >
   <v>       0.08726237      -0.09043405      -0.30396540 </v>
   <v>      -0.78471568      -0.05556593      -0.59406418 </v>
   <v>      -0.47078915      -0.04633961       1.20103875 </v>
   <v>       0.32491269       0.25590239      -0.15972477 </v>
   <v>       0.26002645      -0.14134566       0.65209078 </v>
   <v>       0.47482475      -1.48808052       1.89060267 </v>
   <v>      -0.11857612      -0.01110274      -0.41873912 </v>
   <v>      -0.03037089      -0.04280293       0.18684559 </v>
   <v>       0.22950568       0.97256740      -1.50622549 </v>
   <v>      -0.36596108       0.19298129      -0.36842917 </v>
   <v>       0.15745848       0.29078785       0.59150025 </v>
   <v>       0.04831881       0.09395127       2.32541675 </v>
   <v>       0.27748037       0.00741795      -0.32173339 </v>
   <v>      -0.01708713      -0.08116313       0.28317768 </v>
   <v>       0.05855966       0.10355607      -2.01831970 </v>
   <v>      -0.00161427       0.10477962      -0.73752225 </v>
   <v>       0.00590553      -0.21778471       0.17631053 </v>
   <v>       0.18896327       0.27853311      -1.51460423 </v>
   <v>      -0.06159067       0.93857583       0.55765326 </v>
   <v>      -0.08380806       0.05132800      -0.01568921 </v>
   <v>       0.45998736      -0.59065106      -0.53228640 </v>
   <v>      -0.05142841       0.29637756      -0.63892627 </v>
   <v>      -0.28124291       0.17281534       0.60919596 </v>
   <v>      -1.38700403      -0.28301112       1.76946862 </v>
   <v>       0.28465908      -0.08333378      -0.14076697 </v>
   <v>       0.01728780      -0.03896646       0.25267627 </v>
   <v>       0.69953652       0.71314384      -1.52618999 </v>
   <v>       0.48767321       0.55099498      -0.40548429 </v>
   <v>      -0.38885640       0.00227050      -0.29409288 </v>
   <v>      -0.20146096       0.50437131       0.19802707 </v>
   <v>      -0.76603963       0.20265599      -1.32196615 </v>
   <v>       0.02115300      -0.06707195       0.08608725 </v>
   <v>      -0.43243924       0.08128720       0.78901488 </v>
   <v>       1.19340371      -0.26525081      -0.83754677 </v>
   <v>      -0.29050834      -0.01748134       0.02915606 </v>
   <v>      -0.36202092      -0.17077302       1.00171715 </v>
   <v>       0.07624025      -0.80361503       0.98992000 </v>
   <v>       0.02338542      -0.58139244       0.18523725 </v>
   <v>      -0.14907447      -0.07539285       1.08464637 </v>
   <v>      -0.30593867       0.21778142      -0.27878955 </v>
   <v>      -0.06821926      -0.36354089       0.18050398 </v>
   <v>      -0.10212535      -0.17885789      -1.35998762 </v>
   <v>       0.13860433       0.12506499      -1.31479024 </v>
   <v>      -0.07387406      -0.02711781      -0.06983620 </v>
   <v>      -0.14901465      -0.24248292       1.54803070 </v>
   <v>      -0.22423243      -0.17883647       0.30070311 </v>
   <v>       0.22854322      -0.34320157      -0.04775807 </v>
   <v>       0.52232187       0.15692874       0.18379957 </v>
   <v>       0.03259074      -0.07361810      -1.69935543 </v>
   <v>       0.03223706       0.00518851       0.06800898 </v>
   <v>       0.31723228      -0.30790209       0.80027349 </v>
   <v>       0.50937081       1.06178163      -0.49259239 </v>
   <v>      -0.03457750      -0.13473900       0.08297907 </v>
   <v>       0.04512558      -0.37918688       0.89530412 </v>
  </varray>
  <varray name="stress" >
   <v>     -22.38852246      -0.84294242       3.15867541 </v>
   <v>      -0.84294267     -28.80013991       8.73283218 </v>
   <v>       3.15867589       8.73283209     -30.05574316 </v>
  </varray>
  <energy>
   <i name="e_fr_energy">   -262.21377304 </i>
   <i name="e_wo_entrp">   -261.38600195 </i>
   <i name="e_0_energy">   -261.79988750 </i>
  </energy>
  <time name="totalsc">   39.51   39.69</time>
  <eigenvalues>
   <array>
    <dimension dim="1">band</dimension>
    <dimension dim="2">kpoint</dimension>
    <dimension dim="3">spin</dimension>
    <field>eigene</field>
    <field>occ</field>
    <set>
     <set comment="spin 1">
      <set comment="kpoint 1">
       <r>  -63.1907    1.0000 </r>
       <r>  -63.1711    1.0000 </r>
       <r>  -63.1594    1.0000 </r>
       <r>  -63.1560    1.0000 </r>
       <r>  -63.1538    1.0000 </r>
       <r>  -63.1510    1.0000 </r>
       <r>  -63.1455    1.0000 </r>
       <r>  -63.1436    1.0000 </r>
       <r>  -63.1397    1.0000 </r>
       <r>  -63.1392    1.0000 </r>
       <r>  -63.1355    1.0000 </r>
       <r>  -63.1314    1.0000 </r>
       <r>  -63.1312    1.0000 </r>
       <r>  -63.1291    1.0000 </r>
       <r>  -63.1276    1.0000 </r>
       <r>  -63.1143    1.0000 </r>
       <r>  -63.1134    1.0000 </r>
       <r>  -63.1115    1.0000 </r>
       <r>  -63.1078    1.0000 </r>
       <r>  -63.0990    1.0000 </r>
       <r>  -63.0972    1.0000 </r>
       <r>  -63.0955    1.0000 </r>
       <r>  -63.0855    1.0000 </r>
       <r>  -63.0793    1.0000 </r>
       <r>  -63.0763    1.0000 </r>
       <r>  -63.0755    1.0000 </r>
       <r>  -63.0573    1.0000 </r>
       <r>  -63.0506    1.0000 </r>
       <r>  -63.0427    1.0000 </r>
       <r>  -63.0402    1.0000 </r>
       <r>  -63.0355    1.0000 </r>
       <r>  -63.0350    1.0000 </r>
       <r>  -63.0276    1.0000 </r>
       <r>  -63.0237    1.0000 </r>
       <r>  -63.0176    1.0000 </r>
       <r>  -62.9950    1.0000 </r>
       <r>  -62.9737    1.0000 </r>
       <r>  -62.9700    1.0000 </r>
       <r>  -62.9698    1.0000 </r>
       <r>  -62.9556    1.0000 </r>
       <r>  -62.9544    1.0000 </r>
       <r>  -62.9385    1.0000 </r>
       <r>  -62.9237    1.0000 </r>
       <r>  -62.9003    1.0000 </r>
       <r>  -62.8917    1.0000 </r>
       <r>  -62.8852    1.0000 </r>
       <r>  -62.8725    1.0000 </r>
       <r>  -62.8588    1.0000 </r>
       <r>  -62.8091    1.0000 </r>
       <r>  -62.7768    1.0000 </r>
       <r>  -62.7645    1.0000 </r>
       <r>  -62.7358    1.0000 </r>
       <r>  -62.6983    1.0000 </r>
       <r>  -62.6803    1.0000 </r>
       <r>  -62.6406    1.0000 </r>
       <r>  -62.6337    1.0000 </r>
       <r>  -62.5536    1.0000 </r>
       <r>  -62.5391    1.0000 </r>
       <r>  -62.4805    1.0000 </r>
       <r>  -62.4463    1.0000 </r>
       <r>  -62.4238    1.0000 </r>
       <r>  -62.3915    1.0000 </r>
       <r>  -62.3766    1.0000 </r>
       <r>  -62.3617    1.0000 </r>
       <r>  -62.3521    1.0000 </r>
       <r>  -62.3127    1.0000 </r>
       <r>  -62.2853    1.0000 </r>
       <r>  -62.2673    1.0000 </r>
       <r>  -62.2667    1.0000 </r>
       <r>  -62.1830    1.0000 </r>
       <r>  -62.0706    1.0000 </r>
       <r>  -61.9902    1.0000 </r>
       <r>  -61.9647    1.0000 </r>
       <r>  -61.8592    1.0000 </r>
       <r>  -61.8573    1.0000 </r>
       <r>  -61.7966    1.0000 </r>
       <r>  -61.7182    1.0000 </r>
       <r>  -61.6983    1.0000 </r>
       <r>  -61.6403    1.0000 </r>
       <r>  -61.6073    1.0000 </r>
       <r>  -61.5350    1.0000 </r>
       <r>  -14.3532    1.0000 </r>
       <r>  -13.6060    1.0000 </r>
       <r>  -13.5422    1.0000 </r>
       <r>  -13.4196    1.0000 </r>
       <r>  -13.2303    1.0000 </r>
       <r>  -13.1721    1.0000 </r>
       <r>  -13.1000    1.0000 </r>
       <r>  -13.0375    1.0000 </r>
       <r>  -12.9717    1.0000 </r>
       <r>  -12.9053    1.0000 </r>
       <r>  -12.6625    1.0000 </r>
       <r>  -12.6061    1.0000 </r>
       <r>  -12.5497    1.0000 </r>
       <r>  -12.5018    1.0000 </r>
       <r>  -12.4499    1.0000 </r>
       <r>  -12.3277    1.0000 </r>
       <r>  -12.2683    1.0000 </r>
       <r>  -12.1764    1.0000 </r>
       <r>  -12.0828    1.0000 </r>
       <r>  -11.9094    1.0000 </r>
       <r>  -11.7645    1.0000 </r>
       <r>  -11.6670    1.0000 </r>
       <r>  -11.6202    1.0000 </r>
       <r>  -11.5398    1.0000 </r>
       <r>  -11.2377    1.0000 </r>
       <r>  -10.8757    1.0000 </r>
       <r>  -10.8277    1.0000 </r>
       <r>   -6.1162    1.0000 </r>
       <r>   -5.9191    1.0000 </r>
       <r>   -5.7899    1.0000 </r>
       <r>   -5.7040    1.0000 </r>
       <r>   -5.6243    1.0000 </r>
       <r>   -5.4331    1.0000 </r>
       <r>   -5.3886    1.0000 </r>
       <r>   -5.2783    1.0000 </r>
       <r>   -5.2186    1.0000 </r>
       <r>   -5.2174    1.0000 </r>
       <r>   -5.1748    1.0000 </r>
       <r>   -5.1280    1.0000 </r>
       <r>   -5.0763    1.0000 </r>
       <r>   -5.0429    1.0000 </r>
       <r>   -5.0134    1.0000 </r>
       <r>   -4.9631    1.0000 </r>
       <r>   -4.8862    1.0000 </r>
       <r>   -4.8115    1.0000 </r>
       <r>   -4.7754    1.0000 </r>
       <r>   -4.7188    1.0000 </r>
       <r>   -4.6201    1.0000 </r>
       <r>   -4.5803    1.0000 </r>
       <r>   -4.5394    1.0000 </r>
       <r>   -4.4999    1.0000 </r>
       <r>   -4.4408    1.0000 </r>
       <r>   -4.3664    1.0000 </r>
       <r>   -4.3022    1.0000 </r>
       <r>   -4.1890    1.0000 </r>
       <r>   -4.1329    1.0000 </r>
       <r>   -4.0121    1.0000 </r>
       <r>   -3.9352    1.0000 </r>
       <r>   -3.9145    1.0000 </r>
       <r>   -3.8206    1.0000 </r>
       <r>   -3.7528    1.0000 </r>
       <r>   -3.7056    1.0000 </r>
       <r>   -3.6605    1.0000 </r>
       <r>   -3.6098    1.0000 </r>
       <r>   -3.5691    1.0000 </r>
       <r>   -3.5120    1.0000 </r>
       <r>   -3.4569    1.0000 </r>
       <r>   -3.4080    1.0000 </r>
       <r>   -3.3921    1.0000 </r>
       <r>   -3.3451    1.0000 </r>
       <r>   -3.3337    1.0000 </r>
       <r>   -3.2331    1.0000 </r>
       <r>   -3.1973    1.0000 </r>
       <r>   -3.1641    1.0000 </r>
       <r>   -3.1335    1.0000 </r>
       <r>   -3.1212    1.0000 </r>
       <r>   -3.0467    1.0000 </r>
       <r>   -3.0438    1.0000 </r>
       <r>   -2.9964    1.0000 </r>
       <r>   -2.9705    1.0000 </r>
       <r>   -2.9636    1.0000 </r>
       <r>   -2.9418    1.0000 </r>
       <r>   -2.9115    1.0000 </r>
       <r>   -2.9007    1.0000 </r>
       <r>   -2.8556    1.0000 </r>
       <r>   -2.8263    1.0000 </r>
       <r>   -2.8134    1.0000 </r>
       <r>   -2.7026    1.0000 </r>
       <r>   -2.6335    1.0000 </r>
       <r>   -2.5753    1.0000 </r>
       <r>   -2.5479    1.0000 </r>
       <r>   -2.4790    1.0000 </r>
       <r>   -2.4393    1.0000 </r>
       <r>   -2.3502    1.0000 </r>
       <r>   -2.3008    1.0000 </r>
       <r>   -2.2351    1.0000 </r>
       <r>   -2.1815    1.0000 </r>
       <r>   -2.1735    1.0000 </r>
       <r>   -2.0947    1.0000 </r>
       <r>   -2.0573    1.0000 </r>
       <r>   -1.9658    1.0000 </r>
       <r>   -1.9425    1.0000 </r>
       <r>   -1.8871    1.0000 </r>
       <r>   -1.8594    1.0000 </r>
       <r>   -1.7530    1.0000 </r>
       <r>   -1.7332    1.0000 </r>
       <r>   -1.6609    1.0000 </r>
       <r>   -1.6373    1.0000 </r>
       <r>   -1.5558    1.0000 </r>
       <r>   -1.5374    1.0000 </r>
       <r>   -1.5035    1.0000 </r>
       <r>   -1.4663    1.0000 </r>
       <r>   -1.4394    1.0000 </r>
       <r>   -1.4160    1.0000 </r>
       <r>   -1.3878    1.0000 </r>
       <r>   -1.3755    1.0000 </r>
       <r>   -1.3459    1.0000 </r>
       <r>   -1.3232    1.0000 </r>
       <r>   -1.2687    1.0000 </r>
       <r>   -1.2565    1.0000 </r>
       <r>   -1.2304    1.0000 </r>
       <r>   -1.2106    1.0000 </r>
       <r>   -1.1943    1.0000 </r>
       <r>   -1.1791    1.0000 </r>
       <r>   -1.1341    1.0000 </r>
       <r>   -1.0854    1.0000 </r>
       <r>   -1.0394    1.0000 </r>
       <r>   -1.0328    1.0000 </r>
       <r>   -1.0172    1.0000 </r>
       <r>   -0.9865    1.0000 </r>
       <r>   -0.9704    1.0000 </r>
       <r>   -0.9512    1.0000 </r>
       <r>   -0.9259    1.0000 </r>
       <r>   -0.9034    1.0000 </r>
       <r>   -0.8874    1.0000 </r>
       <r>   -0.8570    1.0000 </r>
       <r>   -0.8547    1.0000 </r>
       <r>   -0.8427    1.0000 </r>
       <r>   -0.8186    1.0000 </r>
       <r>   -0.7998    1.0000 </r>
       <r>   -0.7865    1.0000 </r>
       <r>   -0.7625    1.0000 </r>
       <r>   -0.7571    1.0000 </r>
       <r>   -0.7497    1.0000 </r>
       <r>   -0.7274    1.0000 </r>
       <r>   -0.7109    1.0000 </r>
       <r>   -0.7073    1.0000 </r>
       <r>   -0.6835    1.0000 </r>
       <r>   -0.6750    1.0000 </r>
       <r>   -0.6523    1.0000 </r>
       <r>   -0.6420    1.0000 </r>
       <r>   -0.6175    1.0000 </r>
       <r>   -0.6144    1.0000 </r>
       <r>   -0.5925    1.0000 </r>
       <r>   -0.5817    1.0000 </r>
       <r>   -0.5691    1.0000 </r>
       <r>   -0.5580    1.0000 </r>
       <r>   -0.5385    1.0000 </r>
       <r>   -0.5301    1.0000 </r>
       <r>   -0.5044    1.0000 </r>
       <r>   -0.4990    1.0000 </r>
       <r>   -0.4795    1.0000 </r>
       <r>   -0.4572    1.0000 </r>
       <r>   -0.4475    1.0000 </r>
       <r>   -0.4268    1.0000 </r>
       <r>   -0.4163    1.0000 </r>
       <r>   -0.4111    1.0000 </r>
       <r>   -0.3773    1.0000 </r>
       <r>   -0.3413    1.0000 </r>
       <r>   -0.3280    1.0000 </r>
       <r>   -0.3226    1.0000 </r>
       <r>   -0.3155    1.0000 </r>
       <r>   -0.2892    1.0000 </r>
       <r>   -0.2839    1.0000 </r>
       <r>   -0.2617    1.0000 </r>
       <r>   -0.2425    1.0000 </r>
       <r>   -0.2132    1.0000 </r>
       <r>   -0.2055    1.0000 </r>
       <r>   -0.1983    1.0000 </r>
       <r>   -0.1778    1.0000 </r>
       <r>   -0.1584    1.0000 </r>
       <r>   -0.1230    1.0000 </r>
       <r>   -0.0995    1.0000 </r>
       <r>   -0.0528    1.0000 </r>
       <r>   -0.0350    1.0000 </r>
       <r>   -0.0170    1.0000 </r>
       <r>   -0.0071    1.0000 </r>
       <r>    0.0738    1.0000 </r>
       <r>    0.1132    1.0000 </r>
       <r>    0.1200    1.0000 </r>
       <r>    0.1472    1.0000 </r>
       <r>    0.1536    1.0000 </r>
       <r>    0.2064    1.0000 </r>
       <r>    0.2432    1.0000 </r>
       <r>    0.2653    1.0000 </r>
       <r>    0.2771    1.0000 </r>
       <r>    0.2947    1.0000 </r>
       <r>    0.3224    1.0000 </r>
       <r>    0.3443    1.0000 </r>
       <r>    0.3602    1.0000 </r>
       <r>    0.3942    1.0000 </r>
       <r>    0.4079    1.0000 </r>
       <r>    0.4382    1.0000 </r>
       <r>    0.4549    0.9999 </r>
       <r>    0.4944    0.9998 </r>
       <r>    0.5140    0.9996 </r>
       <r>    0.5370    0.9993 </r>
       <r>    0.5706    0.9985 </r>
       <r>    0.6077    0.9965 </r>
       <r>    0.6267    0.9948 </r>
       <r>    0.6843    0.9845 </r>
       <r>    0.7546    0.9514 </r>
       <r>    0.7908    0.9196 </r>
       <r>    0.8573    0.8245 </r>
       <r>    0.9263    0.6716 </r>
       <r>    0.9863    0.5081 </r>
       <r>    1.0339    0.3759 </r>
       <r>    1.0865    0.2456 </r>
       <r>    1.1180    0.1812 </r>
       <r>    1.1326    0.1553 </r>
       <r>    1.1681    0.1029 </r>
       <r>    1.2311    0.0436 </r>
       <r>    1.2501    0.0325 </r>
       <r>    1.3265    0.0085 </r>
       <r>    1.3526    0.0051 </r>
       <r>    1.4349    0.0008 </r>
       <r>    1.4605    0.0004 </r>
       <r>    1.5260    0.0001 </r>
       <r>    1.5754    0.0000 </r>
       <r>    1.6112    0.0000 </r>
       <r>    1.6813    0.0000 </r>
       <r>    1.7051    0.0000 </r>
       <r>    1.7358    0.0000 </r>
       <r>    1.7722    0.0000 </r>
       <r>    1.7973    0.0000 </r>
       <r>    1.8294    0.0000 </r>
       <r>    1.8761    0.0000 </r>
       <r>    1.9228    0.0000 </r>
       <r>    1.9338    0.0000 </r>
       <r>    2.0247    0.0000 </r>
       <r>    2.0371    0.0000 </r>
       <r>    2.0704    0.0000 </r>
       <r>    2.1080    0.0000 </r>
       <r>    2.1690    0.0000 </r>
       <r>    2.2643    0.0000 </r>
       <r>    2.6196    0.0000 </r>
       <r>    3.2565    0.0000 </r>
       <r>    3.3423    0.0000 </r>
       <r>    3.9505    0.0000 </r>
       <r>    4.1398    0.0000 </r>
       <r>    4.2166    0.0000 </r>
       <r>    4.4391    0.0000 </r>
       <r>    4.6380    0.0000 </r>
       <r>    4.7999    0.0000 </r>
       <r>    4.9204    0.0000 </r>
       <r>    5.0394    0.0000 </r>
       <r>    5.2184    0.0000 </r>
       <r>    5.3451    0.0000 </r>
       <r>    5.5264    0.0000 </r>
       <r>    5.6042    0.0000 </r>
       <r>    5.6386    0.0000 </r>
       <r>    5.7563    0.0000 </r>
       <r>    5.8698    0.0000 </r>
       <r>    5.9652    0.0000 </r>
       <r>    6.0230    0.0000 </r>
       <r>    6.0695    0.0000 </r>
       <r>    6.1176    0.0000 </r>
       <r>    6.2382    0.0000 </r>
       <r>    6.4110    0.0000 </r>
       <r>    6.4229    0.0000 </r>
       <r>    6.4585    0.0000 </r>
       <r>    6.5253    0.0000 </r>
       <r>    6.5931    0.0000 </r>
       <r>    6.6368    0.0000 </r>
       <r>    6.6673    0.0000 </r>
       <r>    6.7266    0.0000 </r>
       <r>    6.8385    0.0000 </r>
       <r>    6.8703    0.0000 </r>
       <r>    6.8920    0.0000 </r>
      </set>
     </set>
    </set>
   </array>
  </eigenvalues>
  <separator name="orbital magnetization" >
   <v name="MAGDIPOLOUT">      0.00000000      0.00000000      0.00000000</v>
  </separator>
  <dos>
   <i name="efermi">      0.98918325 </i>
   <total>
    <array>
     <dimension dim="1">gridpoints</dimension>
     <dimension dim="2">spin</dimension>
     <field>energy</field>
     <field>total</field>
     <field>integrated</field>
     <set>
      <set comment="spin 1">
       <r>   -66.6948     0.0000     0.0000 </r>
       <r>   -66.4378     0.0000     0.0000 </r>
       <r>   -66.1809     0.0000     0.0000 </r>
       <r>   -65.9239     0.0000     0.0000 </r>
       <r>   -65.6669     0.0000     0.0000 </r>
       <r>   -65.4100     0.0000     0.0000 </r>
       <r>   -65.1530     0.0000     0.0000 </r>
       <r>   -64.8960     0.0000     0.0000 </r>
       <r>   -64.6391     0.0000     0.0000 </r>
       <r>   -64.3821     0.0000     0.0000 </r>
       <r>   -64.1251     0.0000     0.0000 </r>
       <r>   -63.8681     0.0000     0.0000 </r>
       <r>   -63.6112     0.0801     0.0206 </r>
       <r>   -63.3542    12.4731     3.2258 </r>
       <r>   -63.0972   141.1308    39.4922 </r>
       <r>   -62.8403   195.3108    89.6812 </r>
       <r>   -62.5833    86.8161   111.9903 </r>
       <r>   -62.3263    65.9676   128.9420 </r>
       <r>   -62.0694    47.9819   141.2719 </r>
       <r>   -61.8124    34.7214   150.1942 </r>
       <r>   -61.5554    33.8870   158.9022 </r>
       <r>   -61.2984    11.4821   161.8527 </r>
       <r>   -61.0415     0.5708   161.9994 </r>
       <r>   -60.7845     0.0022   162.0000 </r>
       <r>   -60.5275     0.0000   162.0000 </r>
       <r>   -60.2706     0.0000   162.0000 </r>
       <r>   -60.0136     0.0000   162.0000 </r>
       <r>   -59.7566     0.0000   162.0000 </r>
       <r>   -59.4997     0.0000   162.0000 </r>
       <r>   -59.2427     0.0000   162.0000 </r>
       <r>   -58.9857     0.0000   162.0000 </r>
       <r>   -58.7287     0.0000   162.0000 </r>
       <r>   -58.4718     0.0000   162.0000 </r>
       <r>   -58.2148     0.0000   162.0000 </r>
       <r>   -57.9578     0.0000   162.0000 </r>
       <r>   -57.7009     0.0000   162.0000 </r>
       <r>   -57.4439     0.0000   162.0000 </r>
       <r>   -57.1869     0.0000   162.0000 </r>
       <r>   -56.9300     0.0000   162.0000 </r>
       <r>   -56.6730     0.0000   162.0000 </r>
       <r>   -56.4160     0.0000   162.0000 </r>
       <r>   -56.1590     0.0000   162.0000 </r>
       <r>   -55.9021     0.0000   162.0000 </r>
       <r>   -55.6451     0.0000   162.0000 </r>
       <r>   -55.3881     0.0000   162.0000 </r>
       <r>   -55.1312     0.0000   162.0000 </r>
       <r>   -54.8742     0.0000   162.0000 </r>
       <r>   -54.6172     0.0000   162.0000 </r>
       <r>   -54.3603     0.0000   162.0000 </r>
       <r>   -54.1033     0.0000   162.0000 </r>
       <r>   -53.8463     0.0000   162.0000 </r>
       <r>   -53.5893     0.0000   162.0000 </r>
       <r>   -53.3324     0.0000   162.0000 </r>
       <r>   -53.0754     0.0000   162.0000 </r>
       <r>   -52.8184     0.0000   162.0000 </r>
       <r>   -52.5615     0.0000   162.0000 </r>
       <r>   -52.3045     0.0000   162.0000 </r>
       <r>   -52.0475     0.0000   162.0000 </r>
       <r>   -51.7906     0.0000   162.0000 </r>
       <r>   -51.5336     0.0000   162.0000 </r>
       <r>   -51.2766     0.0000   162.0000 </r>
       <r>   -51.0196     0.0000   162.0000 </r>
       <r>   -50.7627     0.0000   162.0000 </r>
       <r>   -50.5057     0.0000   162.0000 </r>
       <r>   -50.2487     0.0000   162.0000 </r>
       <r>   -49.9918     0.0000   162.0000 </r>
       <r>   -49.7348     0.0000   162.0000 </r>
       <r>   -49.4778     0.0000   162.0000 </r>
       <r>   -49.2209     0.0000   162.0000 </r>
       <r>   -48.9639     0.0000   162.0000 </r>
       <r>   -48.7069     0.0000   162.0000 </r>
       <r>   -48.4499     0.0000   162.0000 </r>
       <r>   -48.1930     0.0000   162.0000 </r>
       <r>   -47.9360     0.0000   162.0000 </r>
       <r>   -47.6790     0.0000   162.0000 </r>
       <r>   -47.4221     0.0000   162.0000 </r>
       <r>   -47.1651     0.0000   162.0000 </r>
       <r>   -46.9081     0.0000   162.0000 </r>
       <r>   -46.6512     0.0000   162.0000 </r>
       <r>   -46.3942     0.0000   162.0000 </r>
       <r>   -46.1372     0.0000   162.0000 </r>
       <r>   -45.8802     0.0000   162.0000 </r>
       <r>   -45.6233     0.0000   162.0000 </r>
       <r>   -45.3663     0.0000   162.0000 </r>
       <r>   -45.1093     0.0000   162.0000 </r>
       <r>   -44.8524     0.0000   162.0000 </r>
       <r>   -44.5954     0.0000   162.0000 </r>
       <r>   -44.3384     0.0000   162.0000 </r>
       <r>   -44.0815     0.0000   162.0000 </r>
       <r>   -43.8245     0.0000   162.0000 </r>
       <r>   -43.5675     0.0000   162.0000 </r>
       <r>   -43.3105     0.0000   162.0000 </r>
       <r>   -43.0536     0.0000   162.0000 </r>
       <r>   -42.7966     0.0000   162.0000 </r>
       <r>   -42.5396     0.0000   162.0000 </r>
       <r>   -42.2827     0.0000   162.0000 </r>
       <r>   -42.0257     0.0000   162.0000 </r>
       <r>   -41.7687     0.0000   162.0000 </r>
       <r>   -41.5118     0.0000   162.0000 </r>
       <r>   -41.2548     0.0000   162.0000 </r>
       <r>   -40.9978     0.0000   162.0000 </r>
       <r>   -40.7409     0.0000   162.0000 </r>
       <r>   -40.4839     0.0000   162.0000 </r>
       <r>   -40.2269     0.0000   162.0000 </r>
       <r>   -39.9699     0.0000   162.0000 </r>
       <r>   -39.7130     0.0000   162.0000 </r>
       <r>   -39.4560     0.0000   162.0000 </r>
       <r>   -39.1990     0.0000   162.0000 </r>
       <r>   -38.9421     0.0000   162.0000 </r>
       <r>   -38.6851     0.0000   162.0000 </r>
       <r>   -38.4281     0.0000   162.0000 </r>
       <r>   -38.1712     0.0000   162.0000 </r>
       <r>   -37.9142     0.0000   162.0000 </r>
       <r>   -37.6572     0.0000   162.0000 </r>
       <r>   -37.4002     0.0000   162.0000 </r>
       <r>   -37.1433     0.0000   162.0000 </r>
       <r>   -36.8863     0.0000   162.0000 </r>
       <r>   -36.6293     0.0000   162.0000 </r>
       <r>   -36.3724     0.0000   162.0000 </r>
       <r>   -36.1154     0.0000   162.0000 </r>
       <r>   -35.8584     0.0000   162.0000 </r>
       <r>   -35.6015     0.0000   162.0000 </r>
       <r>   -35.3445     0.0000   162.0000 </r>
       <r>   -35.0875     0.0000   162.0000 </r>
       <r>   -34.8305     0.0000   162.0000 </r>
       <r>   -34.5736     0.0000   162.0000 </r>
       <r>   -34.3166     0.0000   162.0000 </r>
       <r>   -34.0596     0.0000   162.0000 </r>
       <r>   -33.8027     0.0000   162.0000 </r>
       <r>   -33.5457     0.0000   162.0000 </r>
       <r>   -33.2887     0.0000   162.0000 </r>
       <r>   -33.0318     0.0000   162.0000 </r>
       <r>   -32.7748     0.0000   162.0000 </r>
       <r>   -32.5178     0.0000   162.0000 </r>
       <r>   -32.2608     0.0000   162.0000 </r>
       <r>   -32.0039     0.0000   162.0000 </r>
       <r>   -31.7469     0.0000   162.0000 </r>
       <r>   -31.4899     0.0000   162.0000 </r>
       <r>   -31.2330     0.0000   162.0000 </r>
       <r>   -30.9760     0.0000   162.0000 </r>
       <r>   -30.7190     0.0000   162.0000 </r>
       <r>   -30.4621     0.0000   162.0000 </r>
       <r>   -30.2051     0.0000   162.0000 </r>
       <r>   -29.9481     0.0000   162.0000 </r>
       <r>   -29.6911     0.0000   162.0000 </r>
       <r>   -29.4342     0.0000   162.0000 </r>
       <r>   -29.1772     0.0000   162.0000 </r>
       <r>   -28.9202     0.0000   162.0000 </r>
       <r>   -28.6633     0.0000   162.0000 </r>
       <r>   -28.4063     0.0000   162.0000 </r>
       <r>   -28.1493     0.0000   162.0000 </r>
       <r>   -27.8924     0.0000   162.0000 </r>
       <r>   -27.6354     0.0000   162.0000 </r>
       <r>   -27.3784     0.0000   162.0000 </r>
       <r>   -27.1214     0.0000   162.0000 </r>
       <r>   -26.8645     0.0000   162.0000 </r>
       <r>   -26.6075     0.0000   162.0000 </r>
       <r>   -26.3505     0.0000   162.0000 </r>
       <r>   -26.0936     0.0000   162.0000 </r>
       <r>   -25.8366     0.0000   162.0000 </r>
       <r>   -25.5796     0.0000   162.0000 </r>
       <r>   -25.3227     0.0000   162.0000 </r>
       <r>   -25.0657     0.0000   162.0000 </r>
       <r>   -24.8087     0.0000   162.0000 </r>
       <r>   -24.5517     0.0000   162.0000 </r>
       <r>   -24.2948     0.0000   162.0000 </r>
       <r>   -24.0378     0.0000   162.0000 </r>
       <r>   -23.7808     0.0000   162.0000 </r>
       <r>   -23.5239     0.0000   162.0000 </r>
       <r>   -23.2669     0.0000   162.0000 </r>
       <r>   -23.0099     0.0000   162.0000 </r>
       <r>   -22.7530     0.0000   162.0000 </r>
       <r>   -22.4960     0.0000   162.0000 </r>
       <r>   -22.2390     0.0000   162.0000 </r>
       <r>   -21.9820     0.0000   162.0000 </r>
       <r>   -21.7251     0.0000   162.0000 </r>
       <r>   -21.4681     0.0000   162.0000 </r>
       <r>   -21.2111     0.0000   162.0000 </r>
       <r>   -20.9542     0.0000   162.0000 </r>
       <r>   -20.6972     0.0000   162.0000 </r>
       <r>   -20.4402     0.0000   162.0000 </r>
       <r>   -20.1833     0.0000   162.0000 </r>
       <r>   -19.9263     0.0000   162.0000 </r>
       <r>   -19.6693     0.0000   162.0000 </r>
       <r>   -19.4123     0.0000   162.0000 </r>
       <r>   -19.1554     0.0000   162.0000 </r>
       <r>   -18.8984     0.0000   162.0000 </r>
       <r>   -18.6414     0.0000   162.0000 </r>
       <r>   -18.3845     0.0000   162.0000 </r>
       <r>   -18.1275     0.0000   162.0000 </r>
       <r>   -17.8705     0.0000   162.0000 </r>
       <r>   -17.6136     0.0000   162.0000 </r>
       <r>   -17.3566     0.0000   162.0000 </r>
       <r>   -17.0996     0.0000   162.0000 </r>
       <r>   -16.8426     0.0000   162.0000 </r>
       <r>   -16.5857     0.0000   162.0000 </r>
       <r>   -16.3287     0.0000   162.0000 </r>
       <r>   -16.0717     0.0000   162.0000 </r>
       <r>   -15.8148     0.0000   162.0000 </r>
       <r>   -15.5578     0.0000   162.0000 </r>
       <r>   -15.3008     0.0000   162.0000 </r>
       <r>   -15.0439     0.0000   162.0000 </r>
       <r>   -14.7869     0.0084   162.0022 </r>
       <r>   -14.5299     0.8144   162.2114 </r>
       <r>   -14.2729     4.7404   163.4296 </r>
       <r>   -14.0160     2.1711   163.9875 </r>
       <r>   -13.7590     1.6878   164.4212 </r>
       <r>   -13.5020    11.5975   167.4014 </r>
       <r>   -13.2451    17.0243   171.7761 </r>
       <r>   -12.9881    24.4493   178.0588 </r>
       <r>   -12.7311    19.2748   183.0119 </r>
       <r>   -12.4742    24.7638   189.3755 </r>
       <r>   -12.2172    25.0912   195.8232 </r>
       <r>   -11.9602    17.7769   200.3913 </r>
       <r>   -11.7032    17.1011   204.7857 </r>
       <r>   -11.4463    17.4475   209.2692 </r>
       <r>   -11.1893     7.8589   211.2887 </r>
       <r>   -10.9323     7.1162   213.1174 </r>
       <r>   -10.6754     9.5129   215.5619 </r>
       <r>   -10.4184     1.6854   215.9950 </r>
       <r>   -10.1614     0.0195   216.0000 </r>
       <r>    -9.9045     0.0000   216.0000 </r>
       <r>    -9.6475     0.0000   216.0000 </r>
       <r>    -9.3905     0.0000   216.0000 </r>
       <r>    -9.1335     0.0000   216.0000 </r>
       <r>    -8.8766     0.0000   216.0000 </r>
       <r>    -8.6196     0.0000   216.0000 </r>
       <r>    -8.3626     0.0000   216.0000 </r>
       <r>    -8.1057     0.0000   216.0000 </r>
       <r>    -7.8487     0.0000   216.0000 </r>
       <r>    -7.5917     0.0000   216.0000 </r>
       <r>    -7.3348     0.0000   216.0000 </r>
       <r>    -7.0778     0.0000   216.0000 </r>
       <r>    -6.8208     0.0000   216.0000 </r>
       <r>    -6.5639     0.0060   216.0016 </r>
       <r>    -6.3069     0.7099   216.1840 </r>
       <r>    -6.0499     6.2843   217.7989 </r>
       <r>    -5.7929    13.8836   221.3665 </r>
       <r>    -5.5360    18.2344   226.0522 </r>
       <r>    -5.2790    25.8038   232.6830 </r>
       <r>    -5.0220    42.0527   243.4893 </r>
       <r>    -4.7651    37.1211   253.0283 </r>
       <r>    -4.5081    34.8512   261.9840 </r>
       <r>    -4.2511    30.1719   269.7373 </r>
       <r>    -3.9942    25.1234   276.1933 </r>
       <r>    -3.7372    31.6244   284.3198 </r>
       <r>    -3.4802    40.5313   294.7351 </r>
       <r>    -3.2232    47.5370   306.9507 </r>
       <r>    -2.9663    60.5053   322.4987 </r>
       <r>    -2.7093    54.5042   336.5047 </r>
       <r>    -2.4523    36.5177   345.8886 </r>
       <r>    -2.1954    36.1317   355.1734 </r>
       <r>    -1.9384    38.2525   365.0031 </r>
       <r>    -1.6814    39.3371   375.1116 </r>
       <r>    -1.4245    55.1497   389.2834 </r>
       <r>    -1.1675    72.9728   408.0352 </r>
       <r>    -0.9105    86.8634   430.3565 </r>
       <r>    -0.6535   120.6936   461.3711 </r>
       <r>    -0.3966   127.5448   494.1463 </r>
       <r>    -0.1396   107.0219   521.6477 </r>
       <r>     0.1174    76.8799   541.4035 </r>
       <r>     0.3743    77.3898   561.2904 </r>
       <r>     0.6313    68.8933   578.9939 </r>
       <r>     0.8883    42.9328   590.0263 </r>
       <r>     1.1452    42.5658   600.9645 </r>
       <r>     1.4022    44.0786   612.2913 </r>
       <r>     1.6592    43.5788   623.4898 </r>
       <r>     1.9162    51.4880   636.7206 </r>
       <r>     2.1731    42.2076   647.5667 </r>
       <r>     2.4301    16.5903   651.8299 </r>
       <r>     2.6871     5.9678   653.3635 </r>
       <r>     2.9440     2.5167   654.0102 </r>
       <r>     3.2010     3.8994   655.0122 </r>
       <r>     3.4580     9.4191   657.4327 </r>
       <r>     3.7149     2.5550   658.0892 </r>
       <r>     3.9719     5.2568   659.4400 </r>
       <r>     4.2289    12.4239   662.6326 </r>
       <r>     4.4859    11.1507   665.4980 </r>
       <r>     4.7428    11.4568   668.4420 </r>
       <r>     4.9998    14.5217   672.1737 </r>
       <r>     5.2568    13.6490   675.6811 </r>
       <r>     5.5137    15.4748   679.6576 </r>
       <r>     5.7707    21.4978   685.1819 </r>
       <r>     6.0277    24.5206   691.4830 </r>
       <r>     6.2846    24.8099   697.8584 </r>
       <r>     6.5416    30.1015   705.5935 </r>
       <r>     6.7986    34.4744   714.4524 </r>
       <r>     7.0556    19.2812   719.4071 </r>
       <r>     7.3125     2.2856   719.9944 </r>
       <r>     7.5695     0.0216   720.0000 </r>
       <r>     7.8265     0.0000   720.0000 </r>
       <r>     8.0834     0.0000   720.0000 </r>
       <r>     8.3404     0.0000   720.0000 </r>
       <r>     8.5974     0.0000   720.0000 </r>
       <r>     8.8543     0.0000   720.0000 </r>
       <r>     9.1113     0.0000   720.0000 </r>
       <r>     9.3683     0.0000   720.0000 </r>
       <r>     9.6253     0.0000   720.0000 </r>
       <r>     9.8822     0.0000   720.0000 </r>
       <r>    10.1392     0.0000   720.0000 </r>
       <r>    10.3962     0.0000   720.0000 </r>
      </set>
     </set>
    </array>
   </total>
  </dos>
 </calculation>
 <structure name="finalpos" >
  <crystal>
   <varray name="basis" >
    <v>       8.42818148      -4.55101034       0.00000000 </v>
    <v>       0.00000000      10.07973298       0.00000000 </v>
    <v>       0.00000000       0.00000000      19.01113574 </v>
   </varray>
   <i name="volume">   1615.06858132 </i>
   <varray name="rec_basis" >
    <v>       0.11864956       0.00000000       0.00000000 </v>
    <v>       0.05357040       0.09920898       0.00000000 </v>
    <v>       0.00000000       0.00000000       0.05260075 </v>
   </varray>
  </crystal>
  <varray name="positions" >
   <v>       0.58263032       0.78996333       0.25739808 </v>
   <v>       0.51999040       0.66468351       0.41183694 </v>
   <v>       0.33281687       0.29033643       0.05147962 </v>
   <v>       0.27017695       0.16505661       0.20591847 </v>
   <v>       0.20753704       0.03977678       0.36035732 </v>
   <v>       0.02036350       0.66542971       0.00000000 </v>
   <v>       0.95772359       0.54014988       0.15443885 </v>
   <v>       0.89508368       0.41487006       0.30887770 </v>
   <v>       0.83244377       0.28959023       0.46331655 </v>
   <v>       0.59918016       0.55885702       0.21659441 </v>
   <v>       0.53654024       0.43357719       0.37103327 </v>
   <v>       0.34936671       0.05923012       0.01067595 </v>
   <v>       0.28672679       0.93395029       0.16511480 </v>
   <v>       0.22408688       0.80867046       0.31955365 </v>
   <v>       0.16144697       0.68339064       0.47399250 </v>
   <v>       0.97427343       0.30904357       0.11363518 </v>
   <v>       0.91163352       0.18376374       0.26807403 </v>
   <v>       0.84899361       0.05848391       0.42251288 </v>
   <v>       0.90947623       0.91524316       0.10295923 </v>
   <v>       0.84683632       0.78996333       0.25739808 </v>
   <v>       0.78419640       0.66468351       0.41183694 </v>
   <v>       0.53438295       0.16505661       0.20591847 </v>
   <v>       0.47174304       0.03977678       0.36035732 </v>
   <v>       0.28456951       0.66542971       0.00000000 </v>
   <v>       0.22192959       0.54014988       0.15443885 </v>
   <v>       0.15928968       0.41487006       0.30887770 </v>
   <v>       0.09664977       0.28959023       0.46331655 </v>
   <v>       0.82518168       0.67443006       0.15301029 </v>
   <v>       0.76254177       0.54915023       0.30744914 </v>
   <v>       0.69990185       0.42387040       0.46188799 </v>
   <v>       0.51272831       0.04952333       0.10153067 </v>
   <v>       0.45008840       0.92424350       0.25596953 </v>
   <v>       0.38744849       0.79896368       0.41040838 </v>
   <v>       0.20027495       0.42461661       0.05005106 </v>
   <v>       0.13763504       0.29933678       0.20448991 </v>
   <v>       0.07499513       0.17405695       0.35892876 </v>
   <v>       0.86674764       0.09399199       0.05052930 </v>
   <v>       0.80410773       0.96871216       0.20496815 </v>
   <v>       0.74146782       0.84343234       0.35940701 </v>
   <v>       0.49165437       0.34380544       0.15348854 </v>
   <v>       0.42901446       0.21852561       0.30792739 </v>
   <v>       0.36637454       0.09324579       0.46236624 </v>
   <v>       0.17920101       0.71889871       0.10200892 </v>
   <v>       0.11656109       0.59361889       0.25644777 </v>
   <v>       0.05392118       0.46833906       0.41088662 </v>
   <v>       0.48875168       0.67443006       0.15301029 </v>
   <v>       0.42611177       0.54915023       0.30744914 </v>
   <v>       0.36347185       0.42387040       0.46188799 </v>
   <v>       0.17629831       0.04952333       0.10153067 </v>
   <v>       0.11365840       0.92424350       0.25596953 </v>
   <v>       0.05101849       0.79896368       0.41040838 </v>
   <v>       0.86384495       0.42461661       0.05005106 </v>
   <v>       0.80120504       0.29933678       0.20448991 </v>
   <v>       0.73856513       0.17405695       0.35892876 </v>
  </varray>
 </structure>
</modeling>
