"Millerite NiS"                         
           1
    10.079733    0.000000    0.000000
     3.573298    9.425103    0.000000
     0.000000    0.000000   20.683504
   Ty   Ty
  36  36
Direct configuration=     1
   0.25149505  0.95150220  0.07134856
   0.41913749  0.77577483  0.14378994
   0.54732740  0.64468328  0.25387405
   0.69759592  0.49441476  0.38081107
   0.11381506  0.41152895  0.16924937
   0.26408357  0.26126044  0.29618639
   0.41435209  0.11099193  0.42312341
   0.97869533  0.59461200  0.10544856
   0.09583282  0.78853070  0.45109302
   0.64847532  0.22561997  0.14657691
   0.83057123  0.02810611  0.21156171
   0.98083975  0.87783760  0.33849873
   0.35190139  0.55266523  0.11430967
   0.50762556  0.42017912  0.22033653
   0.65789407  0.26991061  0.34727355
   0.79735511  0.11427599  0.45911780
   0.07411322  0.18702479  0.13571184
   0.22438173  0.03675628  0.26264887
   0.37465025  0.88648777  0.38958589
   0.43219675  0.72045855  0.47192830
   0.06713846  0.36969822  0.04713472
   0.08018740  0.50651640  0.41692691
   0.48549287  0.99284780  0.09780129
   0.79086939  0.80360196  0.17802418
   0.94113790  0.65333344  0.30496121
   0.01930864  0.17860686  0.42142347
   0.73212972  0.45988096  0.18679900
   0.88239823  0.30961245  0.31373603
   0.29861738  0.22672664  0.10217432
   0.44888589  0.07645812  0.22911134
   0.59915440  0.92618961  0.35604837
   0.73350811  0.81945237  0.45132737
   0.01537355  0.84330380  0.14448666
   0.16564206  0.69303529  0.27142369
   0.31591057  0.54276677  0.39836071
   0.76612137  0.00308111  0.08382305
   0.01217264  0.00544587  0.47795416
   0.57256274  0.44212655  0.12580577
   0.73606781  0.25573088  0.24418359
   0.88633632  0.10546236  0.37112062
   0.16669144  0.15738848  0.04083563
   0.30255546  0.02257655  0.15955891
   0.45282398  0.87230804  0.28649593
   0.60309249  0.72203952  0.41343296
   0.01931164  0.63915371  0.20187125
   0.16958015  0.48888520  0.32880827
   0.29011744  0.35123328  0.42965886
   0.86904312  0.78942223  0.07493423
   0.45784106  0.82629639  0.05047335
   0.64437074  0.68821357  0.17182969
   0.78662264  0.54160604  0.28688901
   0.93133449  0.39774728  0.39891746
   0.20422186  0.46058901  0.08421862
   0.35311030  0.30845171  0.20226433
   0.50337881  0.15818320  0.32920136
   0.63367944  0.03315008  0.44153913
   0.06986647  0.92502888  0.24457667
   0.22013498  0.77476036  0.37151370
   0.27889333  0.63774278  0.48783452
   0.91959796  0.07529739  0.11763965
   0.21660579  0.76721433  0.09708639
   0.35047896  0.64131972  0.20265741
   0.50074748  0.49105120  0.32959444
   0.69097758  0.32915642  0.43892316
   0.06723514  0.25789688  0.24496976
   0.21750365  0.10762837  0.37190678
   0.40504301  0.93814239  0.48104255
   0.91696662  0.40816539  0.11803273
   0.51331933  0.18295263  0.06912993
   0.63372279  0.02474255  0.16034507
   0.78399131  0.87447404  0.28728210
   0.93425982  0.72420553  0.41421912
