"Millerite NiS"                         
           1
     9.578410    0.000000    0.000000
     0.000000   11.256463    0.000000
     0.000000    0.000000   17.711359
   Ni   S 
    30    30
Direct configuration=     1
   0.08076718  0.43119705  0.02300656
   0.08076718  0.37934512  0.19716279
   0.08076718  0.32749319  0.37131903
   0.58076718  0.15527110  0.11008468
   0.58076718  0.10341916  0.28424091
   0.21287018  0.23989236  0.00000000
   0.21287018  0.18804042  0.17415623
   0.21287018  0.13618849  0.34831247
   0.71287018  0.46396638  0.08707812
   0.71287018  0.41211445  0.26123435
   0.34497318  0.43119705  0.02300656
   0.34497318  0.37934512  0.19716279
   0.84497318  0.15527110  0.11008468
   0.84497318  0.10341916  0.28424091
   0.08076718  0.93119705  0.02300656
   0.08076718  0.87934512  0.19716279
   0.08076718  0.82749319  0.37131903
   0.58076718  0.65527110  0.11008468
   0.58076718  0.60341916  0.28424091
   0.21287018  0.73989236  0.00000000
   0.21287018  0.68804042  0.17415623
   0.21287018  0.63618849  0.34831247
   0.71287018  0.96396638  0.08707812
   0.71287018  0.91211445  0.26123435
   0.71287018  0.86026251  0.43539058
   0.34497318  0.93119705  0.02300656
   0.34497318  0.87934512  0.19716279
   0.34497318  0.82749319  0.37131903
   0.84497318  0.65527110  0.11008468
   0.84497318  0.60341916  0.28424091
   0.38108518  0.25904302  0.09688178
   0.38108518  0.20719109  0.27103801
   0.88108518  0.48311705  0.18395989
   0.88108518  0.43126511  0.35811613
   0.88108518  0.03496900  0.00980366
   0.21287018  0.45079131  0.30033370
   0.21287018  0.00264326  0.12617747
   0.71287018  0.27856921  0.03909935
   0.71287018  0.22671728  0.21325558
   0.71287018  0.17486535  0.38741182
   0.04465518  0.25904302  0.09688178
   0.04465518  0.20719109  0.27103801
   0.54465518  0.48311705  0.18395989
   0.54465518  0.43126511  0.35811613
   0.54465518  0.03496900  0.00980366
   0.38108518  0.75904302  0.09688178
   0.38108518  0.70719109  0.27103801
   0.88108518  0.98311705  0.18395989
   0.88108518  0.93126511  0.35811613
   0.88108518  0.53496900  0.00980366
   0.21287018  0.95079131  0.30033370
   0.21287018  0.50264326  0.12617747
   0.71287018  0.77856921  0.03909935
   0.71287018  0.72671728  0.21325558
   0.71287018  0.67486535  0.38741182
   0.04465518  0.75904302  0.09688178
   0.04465518  0.70719109  0.27103801
   0.54465518  0.98311705  0.18395989
   0.54465518  0.93126511  0.35811613
   0.54465518  0.53496900  0.00980366
