 vasp.6.1.0 28Jan20 (build Mar 31 2020 17:42:31) gamma-only                     
  
 executed on             LinuxIFC date 2020.04.12  16:24:25
 running on   48 total cores
 distrk:  each k-point on   48 cores,    1 groups
 distr:  one band on NCORE=   6 cores,    8 groups


--------------------------------------------------------------------------------------------------------


 INCAR:
 POTCAR:    PAW_PBE Ni_pv 06Sep2000               
 POTCAR:    PAW_PBE S 06Sep2000                   
 POTCAR:    PAW_PBE Ni_pv 06Sep2000               
   VRHFIN =Ni:                                                                                      
   LEXCH  = PE                                                                                      
   EATOM  =  3501.1230 eV,  257.3253 Ry                                                             
                                                                                                    
   TITEL  = PAW_PBE Ni_pv 06Sep2000                                                                 
   LULTRA =        F    use ultrasoft PP ?                                                          
   IUNSCR =        1    unscreen: 0-lin 1-nonlin 2-no                                               
   RPACOR =    1.500    partial core radius                                                         
   POMASS =   58.690; ZVAL   =   16.000    mass and valenz                                          
   RCORE  =    2.000    outmost cutoff radius                                                       
   RWIGS  =    2.000; RWIGS  =    1.058    wigner-seitz radius (au A)                               
   ENMAX  =  367.986; ENMIN  =  275.989 eV                                                          
   RCLOC  =    1.301    cutoff for local pot                                                        
   LCOR   =        T    correct aug charges                                                         
   LPAW   =        T    paw PP                                                                      
   EAUG   =  703.443                                                                                
   DEXC   =    0.000                                                                                
   RMAX   =    2.041    core radius for proj-oper                                                   
   RAUG   =    1.300    factor for augmentation sphere                                              
   RDEP   =    2.103    radius for radial grids                                                     
   RDEPT  =    1.618    core radius for aug-charge                                                  
                                                                                                    
   Atomic configuration                                                                             
    8 entries                                                                                       
     n  l   j            E        occ.                                                              
     1  0  0.50     -8206.4253   2.0000                                                             
     2  0  0.50      -976.1748   2.0000                                                             
     2  1  1.50      -839.0571   6.0000                                                             
     3  0  0.50      -105.9991   2.0000                                                             
     3  1  1.50       -66.4603   6.0000                                                             
     3  2  2.50        -4.6458   9.0000                                                             
     4  0  0.50        -4.4926   1.0000                                                             
     4  3  2.50        -1.3606   0.0000                                                             
   Description                                                                                      
     l       E           TYP  RCUT    TYP  RCUT                                                     
     1    -66.4602962     23  1.700                                                                 
     1     -1.3605826     23  1.700                                                                 
     2     -4.6457867     23  2.000                                                                 
     2     -6.0063693     23  2.000                                                                 
     0     -4.4925576     23  1.900                                                                 
     0     16.3626226     23  1.900                                                                 
  local pseudopotential read in
  partial core-charges read in
  partial kinetic energy density read in
  atomic valenz-charges read in
  non local Contribution for L=           1  read in
    real space projection operators read in
  non local Contribution for L=           1  read in
    real space projection operators read in
  non local Contribution for L=           2  read in
    real space projection operators read in
  non local Contribution for L=           2  read in
    real space projection operators read in
  non local Contribution for L=           0  read in
    real space projection operators read in
  non local Contribution for L=           0  read in
    real space projection operators read in
    PAW grid and wavefunctions read in
 
   number of l-projection  operators is LMAX  =           6
   number of lm-projection operators is LMMAX =          18
 
 POTCAR:    PAW_PBE S 06Sep2000                   
   VRHFIN =S : s2p4                                                                                 
   LEXCH  = PE                                                                                      
   EATOM  =   276.8230 eV,   20.3459 Ry                                                             
                                                                                                    
   TITEL  = PAW_PBE S 06Sep2000                                                                     
   LULTRA =        F    use ultrasoft PP ?                                                          
   IUNSCR =        1    unscreen: 0-lin 1-nonlin 2-no                                               
   RPACOR =    1.500    partial core radius                                                         
   POMASS =   32.066; ZVAL   =    6.000    mass and valenz                                          
   RCORE  =    1.900    outmost cutoff radius                                                       
   RWIGS  =    2.200; RWIGS  =    1.164    wigner-seitz radius (au A)                               
   ENMAX  =  258.689; ENMIN  =  194.016 eV                                                          
   ICORE  =        2    local potential                                                             
   LCOR   =        T    correct aug charges                                                         
   LPAW   =        T    paw PP                                                                      
   EAUG   =  335.092                                                                                
   DEXC   =    0.000                                                                                
   RMAX   =    1.942    core radius for proj-oper                                                   
   RAUG   =    1.300    factor for augmentation sphere                                              
   RDEP   =    1.954    radius for radial grids                                                     
   RDEPT  =    1.744    core radius for aug-charge                                                  
                                                                                                    
   Atomic configuration                                                                             
    6 entries                                                                                       
     n  l   j            E        occ.                                                              
     1  0  0.50     -2405.8406   2.0000                                                             
     2  0  0.50      -211.7007   2.0000                                                             
     2  1  1.50      -156.4958   6.0000                                                             
     3  0  0.50       -17.2562   2.0000                                                             
     3  1  0.50        -7.0085   4.0000                                                             
     3  2  1.50        -6.8029   0.0000                                                             
   Description                                                                                      
     l       E           TYP  RCUT    TYP  RCUT                                                     
     0    -17.2561641     23  1.900                                                                 
     0    -15.8743224     23  1.900                                                                 
     1     -7.0085400     23  1.900                                                                 
     1     -2.7779785     23  1.900                                                                 
     2     -6.8029130     23  1.900                                                                 
  local pseudopotential read in
  partial core-charges read in
  partial kinetic energy density read in
  atomic valenz-charges read in
  non local Contribution for L=           0  read in
    real space projection operators read in
  non local Contribution for L=           0  read in
    real space projection operators read in
  non local Contribution for L=           1  read in
    real space projection operators read in
  non local Contribution for L=           1  read in
    real space projection operators read in
    PAW grid and wavefunctions read in
 
   number of l-projection  operators is LMAX  =           4
   number of lm-projection operators is LMMAX =           8
 
 Optimization of the real space projectors (new method)

 maximal supplied QI-value         = 18.90
 optimisation between [QCUT,QGAM] = [ 10.77, 21.73] = [ 32.49,132.25] Ry 
 Optimized for a Real-space Cutoff    1.38 Angstroem

   l    n(q)    QCUT    max X(q) W(low)/X(q) W(high)/X(q)  e(spline) 
   1      8    10.771     2.836    0.40E-04    0.29E-04    0.12E-06
   1      8    10.771     4.023    0.10E-03    0.48E-04    0.29E-06
   2      8    10.771    73.368    0.42E-03    0.97E-04    0.44E-06
   2      8    10.771    69.010    0.42E-03    0.99E-04    0.45E-06
   0      9    10.771    54.797    0.10E-03    0.56E-04    0.74E-07
   0      9    10.771    24.266    0.89E-04    0.49E-04    0.67E-07
 Optimization of the real space projectors (new method)

 maximal supplied QI-value         = 19.84
 optimisation between [QCUT,QGAM] = [ 10.71, 21.63] = [ 32.15,130.99] Ry 
 Optimized for a Real-space Cutoff    1.19 Angstroem

   l    n(q)    QCUT    max X(q) W(low)/X(q) W(high)/X(q)  e(spline) 
   0      8    10.715   187.594    0.41E-03    0.53E-04    0.66E-07
   0      8    10.715   164.243    0.41E-03    0.53E-04    0.65E-07
   1      7    10.715    67.533    0.19E-03    0.59E-03    0.68E-07
   1      7    10.715    50.729    0.19E-03    0.58E-03    0.67E-07
  PAW_PBE Ni_pv 06Sep2000               :
 energy of atom  1       EATOM=-3501.1230
 kinetic energy error for atom=    0.0925 (will be added to EATOM!!)
  PAW_PBE S 06Sep2000                   :
 energy of atom  2       EATOM= -276.8230
 kinetic energy error for atom=    0.0033 (will be added to EATOM!!)
 
 
 POSCAR: Structure 43 made from -121-6.xsd file
  positions in direct lattice
  No initial velocities read in
 exchange correlation table for  LEXCH =        8
   RHO(1)=    0.500       N(1)  =     2000
   RHO(2)=  100.500       N(2)  =     4000
 


--------------------------------------------------------------------------------------------------------


 ion  position               nearest neighbor table
   1  0.374  0.751  0.095-  40 2.25  49 2.26  61 2.36  50 2.36  26 2.53  14 2.53
   2  0.525  0.601  0.223-  41 2.25  50 2.26  61 2.26  62 2.36  51 2.36  15 2.53  27 2.53
   3  0.675  0.451  0.351-  42 2.25  62 2.26  51 2.26  63 2.36  52 2.36  28 2.53  16 2.53
   4  0.825  0.301  0.479-  43 2.25  63 2.26  52 2.26  64 2.36  13 2.53  25 2.53
   5  0.607  0.185  0.010-  45 2.25  67 2.36  53 2.36
   6  0.758  0.035  0.138-  46 2.25  53 2.26  67 2.26  54 2.36  68 2.36  29 2.53  20 2.53
   7  0.058  0.734  0.394-  48 2.25  65 2.26  55 2.26  56 2.36  66 2.36  18 2.53  31 2.53
   8  0.908  0.884  0.266-  47 2.25  54 2.26  68 2.26  55 2.36  65 2.36  30 2.53  17 2.53
   9  0.141  0.318  0.180-  39 2.25  57 2.26  69 2.26  70 2.36  58 2.36  34 2.53  21 2.53
  10  0.291  0.168  0.308-  37 2.25  58 2.26  70 2.26  59 2.36  71 2.36  35 2.53  22 2.53
  11  0.442  0.017  0.436-  71 2.26  59 2.26  72 2.36  23 2.53  36 2.53
  12  0.991  0.468  0.052-  38 2.25  60 2.26  57 2.36  69 2.36  33 2.53
  13  0.010  0.116  0.412-  55 2.25  63 2.26  37 2.26  64 2.36  25 2.53   4 2.53
  14  0.559  0.567  0.027-  61 2.36  38 2.36  26 2.53   1 2.53
  15  0.709  0.416  0.155-  53 2.25  38 2.26  61 2.26  39 2.36  62 2.36  27 2.53   2 2.53
  16  0.860  0.266  0.283-  54 2.25  62 2.26  39 2.26  37 2.36  63 2.36   3 2.53  28 2.53
  17  0.093  0.700  0.198-  57 2.25  40 2.26  68 2.26  41 2.36  65 2.36  30 2.53   8 2.53
  18  0.243  0.549  0.326-  58 2.25  65 2.26  41 2.26  66 2.36  42 2.36   7 2.53  31 2.53
  19  0.393  0.399  0.454-  59 2.25  66 2.26  42 2.26  43 2.36  32 2.53
  20  0.943  0.850  0.070-  60 2.25  67 2.26  44 2.26  68 2.36  40 2.36   6 2.53  29 2.53
  21  0.326  0.133  0.113-  49 2.25  45 2.26  69 2.26  70 2.36  46 2.36  34 2.53   9 2.53
  22  0.476  0.983  0.241-  50 2.25  70 2.26  46 2.26  47 2.36  71 2.36  35 2.53  10 2.53
  23  0.627  0.833  0.369-  51 2.25  71 2.26  47 2.26  48 2.36  72 2.36  36 2.53  11 2.53
  24  0.777  0.682  0.497-  52 2.25  72 2.26  48 2.26
  25  0.050  0.340  0.445-  66 2.25  52 2.26  37 2.26  13 2.53   4 2.53
  26  0.599  0.791  0.061-  67 2.25  49 2.26  38 2.36  50 2.36  14 2.53   1 2.53
  27  0.749  0.641  0.189-  68 2.25  50 2.26  38 2.26  39 2.36  51 2.36  15 2.53   2 2.53
  28  0.899  0.491  0.317-  65 2.25  51 2.26  39 2.26  52 2.36  37 2.36   3 2.53  16 2.53
  29  0.982  0.074  0.104-  69 2.25  44 2.26  53 2.26  40 2.36  54 2.36   6 2.53  20 2.53
  30  0.133  0.924  0.232-  70 2.25  54 2.26  40 2.26  55 2.36  41 2.36   8 2.53  17 2.53
  31  0.283  0.774  0.360-  71 2.25  55 2.26  41 2.26  42 2.36  56 2.36   7 2.53  18 2.53
  32  0.433  0.624  0.488-  72 2.25  56 2.26  42 2.26  43 2.36  19 2.53
  33  0.215  0.508  0.019-  60 2.26  45 2.36  57 2.36  12 2.53
  34  0.366  0.358  0.147-  61 2.25  45 2.26  57 2.26  46 2.36  58 2.36  21 2.53   9 2.53
  35  0.516  0.207  0.275-  62 2.25  58 2.26  46 2.26  47 2.36  59 2.36  10 2.53  22 2.53
  36  0.666  0.057  0.403-  63 2.25  59 2.26  47 2.26  48 2.36  23 2.53  11 2.53
  37  0.064  0.262  0.341-  10 2.25  13 2.26  25 2.26  16 2.36  28 2.36
  38  0.763  0.563  0.085-  12 2.25  15 2.26  27 2.26  14 2.36  26 2.36
  39  0.914  0.412  0.213-   9 2.25  16 2.26  28 2.26  27 2.36  15 2.36
  40  0.147  0.846  0.128-   1 2.25  17 2.26  30 2.26  20 2.36  29 2.36
  41  0.297  0.696  0.256-   2 2.25  31 2.26  18 2.26  30 2.36  17 2.36
  42  0.447  0.545  0.384-   3 2.25  32 2.26  19 2.26  31 2.36  18 2.36
  43  0.598  0.395  0.512-   4 2.25  19 2.36  32 2.36
  44  0.996  0.996  0.000-  29 2.26  20 2.26
  45  0.380  0.279  0.043-   5 2.25  34 2.26  21 2.26  33 2.36
  46  0.530  0.129  0.171-   6 2.25  22 2.26  35 2.26  34 2.36  21 2.36
  47  0.680  0.979  0.299-   8 2.25  23 2.26  36 2.26  35 2.36  22 2.36
  48  0.831  0.829  0.427-   7 2.25  24 2.26  23 2.36  36 2.36
  49  0.378  0.948  0.043-  21 2.25  26 2.26   1 2.26
  50  0.528  0.798  0.171-  22 2.25  27 2.26   2 2.26   1 2.36  26 2.36
  51  0.678  0.648  0.299-  23 2.25  28 2.26   3 2.26  27 2.36   2 2.36
  52  0.829  0.497  0.427-  24 2.25   4 2.26  25 2.26  28 2.36   3 2.36
  53  0.761  0.231  0.086-  15 2.25  29 2.26   6 2.26   5 2.36
  54  0.911  0.081  0.214-  16 2.25   8 2.26  30 2.26   6 2.36  29 2.36
  55  0.062  0.931  0.342-  13 2.25  31 2.26   7 2.26  30 2.36   8 2.36
  56  0.212  0.781  0.470-  32 2.26  31 2.36   7 2.36
  57  0.145  0.515  0.129-  17 2.25  34 2.26   9 2.26  12 2.36  33 2.36
  58  0.295  0.364  0.257-  18 2.25  10 2.26  35 2.26   9 2.36  34 2.36
  59  0.445  0.214  0.385-  19 2.25  36 2.26  11 2.26  35 2.36  10 2.36
  60  0.994  0.665  0.001-  20 2.25  33 2.26  12 2.26
  61  0.477  0.512  0.128-  34 2.25  15 2.26   2 2.26   1 2.36  14 2.36
  62  0.628  0.362  0.256-  35 2.25   3 2.26  16 2.26   2 2.36  15 2.36
  63  0.778  0.212  0.384-  36 2.25   4 2.26  13 2.26  16 2.36   3 2.36
  64  0.928  0.061  0.512-  13 2.36   4 2.36
  65  0.011  0.645  0.299-  28 2.25   7 2.26  18 2.26   8 2.36  17 2.36
  66  0.161  0.495  0.427-  25 2.25  19 2.26  18 2.36   7 2.36
  67  0.711  0.946  0.043-  26 2.25  20 2.26   6 2.26   5 2.36
  68  0.861  0.795  0.171-  27 2.25  17 2.26   8 2.26   6 2.36  20 2.36
  69  0.094  0.229  0.086-  29 2.25  21 2.26   9 2.26  12 2.36
  70  0.244  0.079  0.214-  30 2.25  22 2.26  10 2.26   9 2.36  21 2.36
  71  0.395  0.928  0.342-  31 2.25  11 2.26  23 2.26  10 2.36  22 2.36
  72  0.545  0.778  0.470-  32 2.25  24 2.26  11 2.36  23 2.36
 
  LATTYP: Found a base centered orthorhombic cell.
 ALAT       =    11.4527836704
 B/A-ratio  =     1.4485816945
 C/A-ratio  =     1.7908432109
  
  Lattice vectors:
  
 A1 = (   9.4251025535,   3.5732980427,   0.0000000000)
 A2 = (   0.0000000000, -10.0797329849,   0.0000000000)
 A3 = (   0.0000000000,   0.0000000000, -20.5101398818)


Analysis of symmetry for initial positions (statically):
=====================================================================
 Subroutine PRICEL returns:
 Original cell was already a primitive cell.
 

 Routine SETGRP: Setting up the symmetry group for a 
 base centered orthorhombic supercell.


 Subroutine GETGRP returns: Found  1 space group operations
 (whereof  1 operations were pure point group operations)
 out of a pool of  8 trial point group operations.


The static configuration has the point symmetry C_1 .


Analysis of symmetry for dynamics (positions and initial velocities):
=====================================================================
 Subroutine PRICEL returns:
 Original cell was already a primitive cell.
 

 Routine SETGRP: Setting up the symmetry group for a 
 base centered orthorhombic supercell.


 Subroutine GETGRP returns: Found  1 space group operations
 (whereof  1 operations were pure point group operations)
 out of a pool of  8 trial point group operations.


The dynamic configuration has the point symmetry C_1 .


 Subroutine INISYM returns: Found  1 space group operations
 (whereof  1 operations are pure point group operations),
 and found     1 'primitive' translations


----------------------------------------------------------------------------------------

                                     Primitive cell                                     

  volume of cell :    1948.5149

  direct lattice vectors                    reciprocal lattice vectors
     9.425102554  3.573298043  0.000000000     0.106099641  0.000000000  0.000000000
     0.000000000 10.079732985  0.000000000    -0.037612667  0.099208977  0.000000000
     0.000000000  0.000000000 20.510139882     0.000000000  0.000000000  0.048756372

  length of vectors
    10.079732985 10.079732985 20.510139882     0.106099641  0.106099641  0.048756372

  position of ions in fractional coordinates (direct lattice)
     0.374332151  0.751362196  0.095112347
     0.524600663  0.601093683  0.223122317
     0.674869176  0.450825171  0.351132287
     0.825137688  0.300556659  0.479142257
     0.607486476  0.184874537  0.009772366
     0.757754989  0.034606025  0.137782337
     0.058292013  0.734069000  0.393802277
     0.908023501  0.884337513  0.265792307
     0.141177826  0.317849854  0.180452327
     0.291446338  0.167581342  0.308462297
     0.441714851  0.017312829  0.436472267
     0.990909314  0.468118367  0.052442357
     0.009940003  0.115754344  0.411500253
     0.559134466  0.566559881  0.027470342
     0.709402978  0.416291369  0.155480312
     0.859671491  0.266022856  0.283490283
     0.092825816  0.699535198  0.198150302
     0.243094328  0.549266685  0.326160273
     0.393362841  0.398998173  0.454170243
     0.942557303  0.849803710  0.070140332
     0.325980141  0.133047539  0.112810322
     0.476248653  0.982779027  0.240820292
     0.626517166  0.832510515  0.368830263
     0.776785678  0.682242002  0.496840233
     0.049641846  0.340258501  0.445321255
     0.598836308  0.791064038  0.061291344
     0.749104821  0.640795526  0.189301315
     0.899373333  0.490527014  0.317311285
     0.982259146  0.074307868  0.103961334
     0.132527658  0.924039355  0.231971305
     0.282796171  0.773770843  0.359981275
     0.433064683  0.623502330  0.487991245
     0.215413471  0.507820209  0.018621354
     0.365681983  0.357551697  0.146631324
     0.515950496  0.207283184  0.274641295
     0.666219008  0.057014672  0.402651265
     0.063821577  0.262084769  0.341359920
     0.763284553  0.562621794  0.085339980
     0.913553065  0.412353282  0.213349950
     0.146707390  0.845865623  0.128009970
     0.296975903  0.695597111  0.256019940
     0.447244415  0.545328599  0.384029910
     0.597512927  0.395060086  0.512039881
     0.996438878  0.996134136  0.000000000
     0.379861715  0.279377965  0.042669990
     0.530130228  0.129109453  0.170679960
     0.680398740  0.978840940  0.298689930
     0.830667252  0.828572428  0.426699900
     0.377695711  0.948210635  0.043462798
     0.527964224  0.797942123  0.171472769
     0.678232736  0.647673611  0.299482739
     0.828501249  0.497405098  0.427492709
     0.761118549  0.231454465  0.086132789
     0.911387061  0.081185952  0.214142759
     0.061655574  0.930917440  0.342152729
     0.211924086  0.780648927  0.470162699
     0.144541386  0.514698294  0.128802779
     0.294809899  0.364429781  0.256812749
     0.445078411  0.214161269  0.384822719
     0.994272874  0.664966806  0.000792808
     0.477409388  0.512066959  0.128406374
     0.627677901  0.361798446  0.256416345
     0.777946413  0.211529934  0.384426315
     0.928214925  0.061261421  0.512436285
     0.011100738  0.645042275  0.299086335
     0.161369251  0.494773763  0.427096305
     0.710563713  0.945579300  0.043066394
     0.860832226  0.795310788  0.171076364
     0.093986551  0.228823129  0.085736384
     0.244255063  0.078554617  0.213746354
     0.394523576  0.928286105  0.341756325
     0.544792088  0.778017592  0.469766295

  ion indices of the primitive-cell ions
   primitive index   ion index
                 1           1
                 2           2
                 3           3
                 4           4
                 5           5
                 6           6
                 7           7
                 8           8
                 9           9
                10          10
                11          11
                12          12
                13          13
                14          14
                15          15
                16          16
                17          17
                18          18
                19          19
                20          20
                21          21
                22          22
                23          23
                24          24
                25          25
                26          26
                27          27
                28          28
                29          29
                30          30
                31          31
                32          32
                33          33
                34          34
                35          35
                36          36
                37          37
                38          38
                39          39
                40          40
                41          41
                42          42
                43          43
                44          44
                45          45
                46          46
                47          47
                48          48
                49          49
                50          50
                51          51
                52          52
                53          53
                54          54
                55          55
                56          56
                57          57
                58          58
                59          59
                60          60
                61          61
                62          62
                63          63
                64          64
                65          65
                66          66
                67          67
                68          68
                69          69
                70          70
                71          71
                72          72

----------------------------------------------------------------------------------------

 
 
 KPOINTS: gamma-point-only calculation. no periodi

Automatic generation of k-mesh.
Space group operators:
 irot       det(A)        alpha          n_x          n_y          n_z        tau_x        tau_y        tau_z
    1     1.000000     0.000000     1.000000     0.000000     0.000000     0.000000     0.000000     0.000000
 
 Subroutine IBZKPT returns following result:
 ===========================================
 
 Found      1 irreducible k-points:
 
 Following reciprocal coordinates:
            Coordinates               Weight
  0.000000  0.000000  0.000000      1.000000
 
 Following cartesian coordinates:
            Coordinates               Weight
  0.000000  0.000000  0.000000      1.000000
 


--------------------------------------------------------------------------------------------------------




 Dimension of arrays:
   k-points           NKPTS =      1   k-points in BZ     NKDIM =      1   number of bands    NBANDS=    480
   number of dos      NEDOS =    301   number of ions     NIONS =     72
   non local maximal  LDIM  =      6   non local SUM 2l+1 LMDIM =     18
   total plane-waves  NPLWV = 314928
   max r-space proj   IRMAX =   1832   max aug-charges    IRDMAX=   5291
   dimension x,y,z NGX =    54 NGY =   54 NGZ =  108
   dimension x,y,z NGXF=   108 NGYF=  108 NGZF=  216
   support grid    NGXF=   108 NGYF=  108 NGZF=  216
   ions per type =              36  36
   NGX,Y,Z   is equivalent  to a cutoff of   8.91,  8.91,  8.75 a.u.
   NGXF,Y,Z  is equivalent  to a cutoff of  17.81, 17.81, 17.51 a.u.

 SYSTEM =  "Millerite NiS"                         
 POSCAR =  Structure 43 made from -121-6.xsd file  

 Startparameter for this run:
   NWRITE =      2    write-flag & timer
   PREC   = normal    normal or accurate (medium, high low for compatibility)
   ISTART =      0    job   : 0-new  1-cont  2-samecut
   ICHARG =      2    charge: 1-file 2-atom 10-const
   ISPIN  =      1    spin polarized calculation?
   LNONCOLLINEAR =      F non collinear calculations
   LSORBIT =      F    spin-orbit coupling
   INIWAV =      1    electr: 0-lowe 1-rand  2-diag
   LASPH  =      F    aspherical Exc in radial PAW
   METAGGA=      F    non-selfconsistent MetaGGA calc.

 Electronic Relaxation 1
   ENCUT  =  450.0 eV  33.07 Ry    5.75 a.u.  17.43 17.43 35.48*2*pi/ulx,y,z
   ENINI  =  450.0     initial cutoff
   ENAUG  =  703.4 eV  augmentation charge cutoff
   NELM   =    100;   NELMIN=  2; NELMDL= -5     # of ELM steps 
   EDIFF  = 0.1E-03   stopping-criterion for ELM
   LREAL  =      T    real-space projection
   NLSPLINE    = F    spline interpolate recip. space projectors
   LCOMPAT=      F    compatible to vasp.4.4
   GGA_COMPAT  = T    GGA compatible to vasp.4.4-vasp.4.6
   LMAXPAW     = -100 max onsite density
   LMAXMIX     =    2 max onsite mixed and CHGCAR
   VOSKOWN=      0    Vosko Wilk Nusair interpolation
   ROPT   =   -0.00050  -0.00050
 Ionic relaxation
   EDIFFG = 0.1E-02   stopping-criterion for IOM
   NSW    =      0    number of steps for IOM
   NBLOCK =      1;   KBLOCK =      1    inner block; outer block 
   IBRION =     -1    ionic relax: 0-MD 1-quasi-New 2-CG
   NFREE  =      0    steps in history (QN), initial steepest desc. (CG)
   ISIF   =      2    stress and relaxation
   IWAVPR =     10    prediction:  0-non 1-charg 2-wave 3-comb
   ISYM   =      2    0-nonsym 1-usesym 2-fastsym
   LCORR  =      T    Harris-Foulkes like correction to forces

   POTIM  = 0.5000    time-step for ionic-motion
   TEIN   =    0.0    initial temperature
   TEBEG  =    0.0;   TEEND  =   0.0 temperature during run
   SMASS  =  -3.00    Nose mass-parameter (am)
   estimated Nose-frequenzy (Omega)   =  0.10E-29 period in steps = 0.13E+47 mass=  -0.232E-26a.u.
   SCALEE = 1.0000    scale energy and forces
   NPACO  =    256;   APACO  = 16.0  distance and # of slots for P.C.
   PSTRESS=    0.0 pullay stress

  Mass of Ions in am
   POMASS =  58.69 32.07
  Ionic Valenz
   ZVAL   =  16.00  6.00
  Atomic Wigner-Seitz radii
   RWIGS  =  -1.00 -1.00
  virtual crystal weights 
   VCA    =   1.00  1.00
   NELECT =     792.0000    total number of electrons
   NUPDOWN=      -1.0000    fix difference up-down

 DOS related values:
   EMIN   =  10.00;   EMAX   =-10.00  energy-range for DOS
   EFERMI =   0.00
   ISMEAR =     0;   SIGMA  =   0.20  broadening in eV -4-tet -1-fermi 0-gaus

 Electronic relaxation 2 (details)
   IALGO  =     38    algorithm
   LDIAG  =      T    sub-space diagonalisation (order eigenvalues)
   LSUBROT=      F    optimize rotation matrix (better conditioning)
   TURBO    =      0    0=normal 1=particle mesh
   IRESTART =      0    0=no restart 2=restart with 2 vectors
   NREBOOT  =      0    no. of reboots
   NMIN     =      0    reboot dimension
   EREF     =   0.00    reference energy to select bands
   IMIX   =      4    mixing-type and parameters
     AMIX     =   0.40;   BMIX     =  1.00
     AMIX_MAG =   1.60;   BMIX_MAG =  1.00
     AMIN     =   0.10
     WC   =   100.;   INIMIX=   1;  MIXPRE=   1;  MAXMIX= -45

 Intra band minimization:
   WEIMIN = 0.0000     energy-eigenvalue tresh-hold
   EBREAK =  0.52E-07  absolut break condition
   DEPER  =   0.30     relativ break condition  

   TIME   =   0.40     timestep for ELM

  volume/ion in A,a.u.               =      27.06       182.63
  Fermi-wavevector in a.u.,A,eV,Ry     =   1.212687  2.291646 20.008854  1.470609
  Thomas-Fermi vector in A             =   2.348163
 
 Write flags
   LWAVE        =      F    write WAVECAR
   LDOWNSAMPLE  =      F    k-point downsampling of WAVECAR
   LCHARG       =      F    write CHGCAR
   LVTOT        =      F    write LOCPOT, total local potential
   LVHAR        =      F    write LOCPOT, Hartree potential only
   LELF         =      F    write electronic localiz. function (ELF)
   LORBIT       =      0    0 simple, 1 ext, 2 COOP (PROOUT), +10 PAW based schemes


 Dipole corrections
   LMONO  =      F    monopole corrections only (constant potential shift)
   LDIPOL =      F    correct potential (dipole corrections)
   IDIPOL =      0    1-x, 2-y, 3-z, 4-all directions 
   EPSILON=  1.0000000 bulk dielectric constant

 Exchange correlation treatment:
   GGA     =    --    GGA type
   LEXCH   =     8    internal setting for exchange type
   VOSKOWN=      0    Vosko Wilk Nusair interpolation
   LHFCALC =     F    Hartree Fock is set to
   LHFONE  =     F    Hartree Fock one center treatment
   AEXX    =    0.0000 exact exchange contribution

 Linear response parameters
   LEPSILON=     F    determine dielectric tensor
   LRPA    =     F    only Hartree local field effects (RPA)
   LNABLA  =     F    use nabla operator in PAW spheres
   LVEL    =     F    velocity operator in full k-point grid
   LINTERFAST=   F  fast interpolation
   KINTER  =     0    interpolate to denser k-point grid
   CSHIFT  =0.1000    complex shift for real part using Kramers Kronig
   OMEGAMAX=  -1.0    maximum frequency
   DEG_THRESHOLD= 0.2000000E-02 threshold for treating states as degnerate
   RTIME   =   -0.100 relaxation time in fs
  (WPLASMAI=    0.000 imaginary part of plasma frequency in eV, 0.658/RTIME)
   DFIELD  = 0.0000000 0.0000000 0.0000000 field for delta impulse in time
 
 Orbital magnetization related:
   ORBITALMAG=     F  switch on orbital magnetization
   LCHIMAG   =     F  perturbation theory with respect to B field
   DQ        =  0.001000  dq finite difference perturbation B field
   LLRAUG    =     F  two centre corrections for induced B field



--------------------------------------------------------------------------------------------------------


 Static calculation
 charge density and potential will be updated during run
 non-spin polarized calculation
 Variant of blocked Davidson
 Davidson routine will perform the subspace rotation
 perform sub-space diagonalisation
    after iterative eigenvector-optimisation
 modified Broyden-mixing scheme, WC =      100.0
 initial mixing is a Kerker type mixing with AMIX =  0.4000 and BMIX =      1.0000
 Hartree-type preconditioning will be used
 using additional bands           84
 real space projection scheme for non local part
 use partial core corrections
 calculate Harris-corrections to forces 
   (improved forces if not selfconsistent)
 use gradient corrections 
 use of overlap-Matrix (Vanderbilt PP)
 Gauss-broadening in eV      SIGMA  =   0.20


--------------------------------------------------------------------------------------------------------


  energy-cutoff  :      450.00
  volume of cell :     1948.51
      direct lattice vectors                 reciprocal lattice vectors
     9.425102554  3.573298043  0.000000000     0.106099641  0.000000000  0.000000000
     0.000000000 10.079732985  0.000000000    -0.037612667  0.099208977  0.000000000
     0.000000000  0.000000000 20.510139882     0.000000000  0.000000000  0.048756372

  length of vectors
    10.079732985 10.079732985 20.510139882     0.106099641  0.106099641  0.048756372


 
 k-points in units of 2pi/SCALE and weight: gamma-point-only calculation. no periodi
   0.00000000  0.00000000  0.00000000       1.000
 
 k-points in reciprocal lattice and weights: gamma-point-only calculation. no periodi
   0.00000000  0.00000000  0.00000000       1.000
 
 position of ions in fractional coordinates (direct lattice) 
   0.37433215  0.75136220  0.09511235
   0.52460066  0.60109368  0.22312232
   0.67486918  0.45082517  0.35113229
   0.82513769  0.30055666  0.47914226
   0.60748648  0.18487454  0.00977237
   0.75775499  0.03460603  0.13778234
   0.05829201  0.73406900  0.39380228
   0.90802350  0.88433751  0.26579231
   0.14117783  0.31784985  0.18045233
   0.29144634  0.16758134  0.30846230
   0.44171485  0.01731283  0.43647227
   0.99090931  0.46811837  0.05244236
   0.00994000  0.11575434  0.41150025
   0.55913447  0.56655988  0.02747034
   0.70940298  0.41629137  0.15548031
   0.85967149  0.26602286  0.28349028
   0.09282582  0.69953520  0.19815030
   0.24309433  0.54926668  0.32616027
   0.39336284  0.39899817  0.45417024
   0.94255730  0.84980371  0.07014033
   0.32598014  0.13304754  0.11281032
   0.47624865  0.98277903  0.24082029
   0.62651717  0.83251052  0.36883026
   0.77678568  0.68224200  0.49684023
   0.04964185  0.34025850  0.44532126
   0.59883631  0.79106404  0.06129134
   0.74910482  0.64079553  0.18930132
   0.89937333  0.49052701  0.31731129
   0.98225915  0.07430787  0.10396133
   0.13252766  0.92403935  0.23197131
   0.28279617  0.77377084  0.35998128
   0.43306468  0.62350233  0.48799125
   0.21541347  0.50782021  0.01862135
   0.36568198  0.35755170  0.14663132
   0.51595050  0.20728318  0.27464130
   0.66621901  0.05701467  0.40265127
   0.06382158  0.26208477  0.34135992
   0.76328455  0.56262179  0.08533998
   0.91355307  0.41235328  0.21334995
   0.14670739  0.84586562  0.12800997
   0.29697590  0.69559711  0.25601994
   0.44724442  0.54532860  0.38402991
   0.59751293  0.39506009  0.51203988
   0.99643888  0.99613414  0.00000000
   0.37986171  0.27937797  0.04266999
   0.53013023  0.12910945  0.17067996
   0.68039874  0.97884094  0.29868993
   0.83066725  0.82857243  0.42669990
   0.37769571  0.94821064  0.04346280
   0.52796422  0.79794212  0.17147277
   0.67823274  0.64767361  0.29948274
   0.82850125  0.49740510  0.42749271
   0.76111855  0.23145446  0.08613279
   0.91138706  0.08118595  0.21414276
   0.06165557  0.93091744  0.34215273
   0.21192409  0.78064893  0.47016270
   0.14454139  0.51469829  0.12880278
   0.29480990  0.36442978  0.25681275
   0.44507841  0.21416127  0.38482272
   0.99427287  0.66496681  0.00079281
   0.47740939  0.51206696  0.12840637
   0.62767790  0.36179845  0.25641634
   0.77794641  0.21152993  0.38442631
   0.92821492  0.06126142  0.51243628
   0.01110074  0.64504228  0.29908633
   0.16136925  0.49477376  0.42709630
   0.71056371  0.94557930  0.04306639
   0.86083223  0.79531079  0.17107636
   0.09398655  0.22882313  0.08573638
   0.24425506  0.07855462  0.21374635
   0.39452358  0.92828610  0.34175632
   0.54479209  0.77801759  0.46976629
 
 position of ions in cartesian coordinates  (Angst):
   3.52811891  8.91113065  1.95076754
   4.94441505  7.93341835  4.57626993
   6.36071119  6.95570605  7.20177232
   7.77700733  5.97799376  9.82727471
   5.72562234  4.03421620  0.20043259
   7.14191848  3.05650391  2.82593501
   0.54940820  7.60751425  8.07693979
   8.55821462 12.15852460  5.45143740
   1.33061549  3.70831211  3.70110247
   2.74691162  2.73059981  6.32660486
   4.16320777  1.75288751  8.95210725
   9.33942191  8.25932246  1.07560008
   0.09368555  1.20229147  8.43992775
   5.26989968  7.70872641  0.56342056
   6.68619582  6.73101412  3.18892295
   8.10249196  5.75330181  5.81442536
   0.87489284  7.38282232  4.06409041
   2.29118897  6.40511001  6.68959282
   3.70748512  5.42739772  9.31509521
   8.88369924 11.93383265  1.43858802
   3.07239626  2.50590787  2.31375548
   4.48869240 11.60792855  4.93925788
   5.90498854 10.63021626  7.56476029
   7.32128468  9.65250395 10.19026268
   0.46787949  3.60709995  9.13360123
   5.64409362 10.11353488  1.25709404
   7.06038976  9.13582259  3.88259645
   8.47668590  8.15811029  6.50809884
   9.25789319  4.25890815  2.13226150
   1.24908677  9.78763079  4.75776391
   2.66538291  8.80991849  7.38326631
   4.08167905  7.83220619 10.00876870
   2.03029406  5.88842865  0.38192658
   3.44659019  4.91071635  3.00742897
   4.86288634  3.93300404  5.63293138
   6.27918247  2.95529175  8.25843377
   0.60152491  2.86979801  7.00133971
   7.19403519  8.39852065  1.75033493
   8.61033133  7.42080836  4.37583732
   1.38273220  9.05032885  2.62550239
   2.79902834  8.07261656  5.25100478
   4.21532448  7.09490426  7.87650717
   5.63162061  6.11719195 10.50200958
   9.39153861 13.60133920  0.00000000
   3.58023562  4.17341441  0.87516746
   4.99653177  3.19570212  3.50066985
   6.41282790 12.29772280  6.12617225
   7.82912404 11.32001050  8.75167464
   3.55982081 10.90732936  0.89142807
   4.97611696  9.92961707  3.51693048
   6.39241309  8.95190477  6.14243287
   7.80870924  7.97419246  8.76793526
   7.17362038  5.05270263  1.76659555
   8.58991652  4.07499032  4.39209794
   0.58111011  9.60371297  7.01760033
   1.99740624  8.62600066  9.64310272
   1.36231739  5.70451082  2.64176301
   2.77861353  4.72679852  5.26726541
   4.19490967  3.74908622  7.89276780
   9.37112380 10.25552116  0.01626060
   4.49963244  6.86742425  2.63363269
   5.91592859  5.88971195  5.25913510
   7.33222472  4.91199965  7.88463749
   8.74852086  3.93428734 10.51013989
   0.10462559  6.54152014  6.13430257
   1.52092174  5.56380785  8.75980496
   6.69713587 12.07024278  0.88329777
   8.11343201 11.09253049  3.50880016
   0.88583288  2.64231800  1.75846523
   2.30212902  1.66460570  4.38396762
   3.71842516 10.76662639  7.00947003
   5.13472130  9.78891409  9.63497242
 


--------------------------------------------------------------------------------------------------------


 use parallel FFT for orbitals z direction half grid
 k-point   1 :   0.0000 0.0000 0.0000  plane waves:   21165

 maximum and minimum number of plane-waves per node :      3530     3525

 maximum number of plane-waves:     21165
 maximum index in each direction: 
   IXMAX=   17   IYMAX=   17   IZMAX=   35
   IXMIN=  -17   IYMIN=  -17   IZMIN=    0


 real space projection operators:
  total allocation   :      11245.47 KBytes
  max/ min on nodes  :       1878.08       1870.05


 parallel 3D FFT for wavefunctions:
    minimum data exchange during FFTs selected (reduces bandwidth)
 parallel 3D FFT for charge:
    minimum data exchange during FFTs selected (reduces bandwidth)


 total amount of memory used by VASP MPI-rank0    45306. kBytes
=======================================================================

   base      :      30000. kBytes
   nonlr-proj:       2307. kBytes
   fftplans  :       3383. kBytes
   grid      :       6052. kBytes
   one-center:         93. kBytes
   wavefun   :       3471. kBytes
 
     INWAV:  cpu time    0.0000: real time    0.0000
 Broyden mixing: mesh for mixing (old mesh)
   NGX = 35   NGY = 35   NGZ = 71
  (NGX  =108   NGY  =108   NGZ  =216)
  gives a total of  86975 points

 initial charge density was supplied:
 charge density of overlapping atoms calculated
 number of electron     792.0000000 magnetization 
 keeping initial charge density in first step


--------------------------------------------------------------------------------------------------------


 Maximum index for non-local projection operator          304
 Maximum index for augmentation-charges          454 (set IRDMAX)


--------------------------------------------------------------------------------------------------------


 First call to EWALD:  gamma=   0.142
 Maximum number of real-space cells 3x 3x 2
 Maximum number of reciprocal cells 2x 2x 4

    FEWALD:  cpu time    0.0033: real time    0.0034


--------------------------------------- Iteration      1(   1)  ---------------------------------------


    POTLOK:  cpu time    0.0506: real time    0.0529
    SETDIJ:  cpu time    0.0066: real time    0.0090
     EDDAV:  cpu time    2.0510: real time    2.0578
       DOS:  cpu time    0.0008: real time    0.0009
    --------------------------------------------
      LOOP:  cpu time    2.1091: real time    2.1206

 eigenvalue-minimisations  :  1168
 total energy-change (2. order) : 0.9820630E+04  (-0.5080490E+05)
 number of electron     792.0000000 magnetization 
 augmentation part      792.0000000 magnetization 

 Free energy of the ion-electron system (eV)
  ---------------------------------------------------
  alpha Z        PSCENC =      1909.09476555
  Ewald energy   TEWEN  =    164761.79700443
  -Hartree energ DENC   =   -287392.87396337
  -exchange      EXHF   =         0.00000000
  -V(xc)+E(xc)   XCENC  =      3652.57497934
  PAW double counting   =    112729.53333415  -117641.51188735
  entropy T*S    EENTRO =        -0.36513803
  eigenvalues    EBANDS =     -4200.22409927
  atomic energy  EATOM  =    136002.60505376
  Solvation  Ediel_sol  =         0.00000000
  ---------------------------------------------------
  free energy    TOTEN  =      9820.63004922 eV

  energy without entropy =     9820.99518725  energy(sigma->0) =     9820.81261823


--------------------------------------------------------------------------------------------------------




--------------------------------------- Iteration      1(   2)  ---------------------------------------


     EDDAV:  cpu time    1.8185: real time    1.8273
       DOS:  cpu time    0.0013: real time    0.0013
    --------------------------------------------
      LOOP:  cpu time    1.8198: real time    1.8286

 eigenvalue-minimisations  :  1024
 total energy-change (2. order) :-0.9206767E+04  (-0.8859588E+04)
 number of electron     792.0000000 magnetization 
 augmentation part      792.0000000 magnetization 

 Free energy of the ion-electron system (eV)
  ---------------------------------------------------
  alpha Z        PSCENC =      1909.09476555
  Ewald energy   TEWEN  =    164761.79700443
  -Hartree energ DENC   =   -287392.87396337
  -exchange      EXHF   =         0.00000000
  -V(xc)+E(xc)   XCENC  =      3652.57497934
  PAW double counting   =    112729.53333415  -117641.51188735
  entropy T*S    EENTRO =        -0.83783087
  eigenvalues    EBANDS =    -13406.51840724
  atomic energy  EATOM  =    136002.60505376
  Solvation  Ediel_sol  =         0.00000000
  ---------------------------------------------------
  free energy    TOTEN  =       613.86304841 eV

  energy without entropy =      614.70087928  energy(sigma->0) =      614.28196384


--------------------------------------------------------------------------------------------------------




--------------------------------------- Iteration      1(   3)  ---------------------------------------


     EDDAV:  cpu time    1.9024: real time    1.9083
       DOS:  cpu time    0.0006: real time    0.0006
    --------------------------------------------
      LOOP:  cpu time    1.9029: real time    1.9088

 eigenvalue-minimisations  :  1088
 total energy-change (2. order) :-0.9553336E+03  (-0.8995222E+03)
 number of electron     792.0000000 magnetization 
 augmentation part      792.0000000 magnetization 

 Free energy of the ion-electron system (eV)
  ---------------------------------------------------
  alpha Z        PSCENC =      1909.09476555
  Ewald energy   TEWEN  =    164761.79700443
  -Hartree energ DENC   =   -287392.87396337
  -exchange      EXHF   =         0.00000000
  -V(xc)+E(xc)   XCENC  =      3652.57497934
  PAW double counting   =    112729.53333415  -117641.51188735
  entropy T*S    EENTRO =        -1.21134498
  eigenvalues    EBANDS =    -14361.47849842
  atomic energy  EATOM  =    136002.60505376
  Solvation  Ediel_sol  =         0.00000000
  ---------------------------------------------------
  free energy    TOTEN  =      -341.47055689 eV

  energy without entropy =     -340.25921191  energy(sigma->0) =     -340.86488440


--------------------------------------------------------------------------------------------------------




--------------------------------------- Iteration      1(   4)  ---------------------------------------


     EDDAV:  cpu time    1.9675: real time    1.9733
       DOS:  cpu time    0.0006: real time    0.0006
    --------------------------------------------
      LOOP:  cpu time    1.9682: real time    1.9740

 eigenvalue-minimisations  :  1112
 total energy-change (2. order) :-0.6321870E+02  (-0.6244673E+02)
 number of electron     792.0000000 magnetization 
 augmentation part      792.0000000 magnetization 

 Free energy of the ion-electron system (eV)
  ---------------------------------------------------
  alpha Z        PSCENC =      1909.09476555
  Ewald energy   TEWEN  =    164761.79700443
  -Hartree energ DENC   =   -287392.87396337
  -exchange      EXHF   =         0.00000000
  -V(xc)+E(xc)   XCENC  =      3652.57497934
  PAW double counting   =    112729.53333415  -117641.51188735
  entropy T*S    EENTRO =        -1.29548823
  eigenvalues    EBANDS =    -14424.61305608
  atomic energy  EATOM  =    136002.60505376
  Solvation  Ediel_sol  =         0.00000000
  ---------------------------------------------------
  free energy    TOTEN  =      -404.68925779 eV

  energy without entropy =     -403.39376956  energy(sigma->0) =     -404.04151367


--------------------------------------------------------------------------------------------------------




--------------------------------------- Iteration      1(   5)  ---------------------------------------


     EDDAV:  cpu time    2.1159: real time    2.1229
       DOS:  cpu time    0.0006: real time    0.0006
    CHARGE:  cpu time    0.0393: real time    0.0394
    MIXING:  cpu time    0.0026: real time    0.0028
    --------------------------------------------
      LOOP:  cpu time    2.1585: real time    2.1658

 eigenvalue-minimisations  :  1248
 total energy-change (2. order) :-0.2574718E+01  (-0.2570802E+01)
 number of electron     791.9999544 magnetization 
 augmentation part      286.2439393 magnetization 

 Broyden mixing:
  rms(total) = 0.81835E+01    rms(broyden)= 0.81694E+01
  rms(prec ) = 0.86030E+01
  weight for this iteration     100.00

 Free energy of the ion-electron system (eV)
  ---------------------------------------------------
  alpha Z        PSCENC =      1909.09476555
  Ewald energy   TEWEN  =    164761.79700443
  -Hartree energ DENC   =   -287392.87396337
  -exchange      EXHF   =         0.00000000
  -V(xc)+E(xc)   XCENC  =      3652.57497934
  PAW double counting   =    112729.53333415  -117641.51188735
  entropy T*S    EENTRO =        -1.28172566
  eigenvalues    EBANDS =    -14427.20153665
  atomic energy  EATOM  =    136002.60505376
  Solvation  Ediel_sol  =         0.00000000
  ---------------------------------------------------
  free energy    TOTEN  =      -407.26397580 eV

  energy without entropy =     -405.98225013  energy(sigma->0) =     -406.62311296


--------------------------------------------------------------------------------------------------------




--------------------------------------- Iteration      1(   6)  ---------------------------------------


    POTLOK:  cpu time    0.0427: real time    0.0428
    SETDIJ:  cpu time    0.0046: real time    0.0065
     EDDAV:  cpu time    1.9878: real time    1.9925
       DOS:  cpu time    0.0009: real time    0.0009
    CHARGE:  cpu time    0.0379: real time    0.0380
    MIXING:  cpu time    0.0020: real time    0.0021
    --------------------------------------------
      LOOP:  cpu time    2.0759: real time    2.0828

 eigenvalue-minimisations  :  1160
 total energy-change (2. order) :-0.8127722E+02  (-0.9684988E+02)
 number of electron     791.9999557 magnetization 
 augmentation part      352.5435975 magnetization 

 Broyden mixing:
  rms(total) = 0.15415E+02    rms(broyden)= 0.15412E+02
  rms(prec ) = 0.16065E+02
  weight for this iteration     100.00

 eigenvalues of (default mixing * dielectric matrix)
  average eigenvalue GAMMA=   0.2338
  0.2338

 Free energy of the ion-electron system (eV)
  ---------------------------------------------------
  alpha Z        PSCENC =      1909.09476555
  Ewald energy   TEWEN  =    164761.79700443
  -Hartree energ DENC   =   -284620.47935046
  -exchange      EXHF   =         0.00000000
  -V(xc)+E(xc)   XCENC  =      3575.64579340
  PAW double counting   =    114511.57004854  -119183.09119994
  entropy T*S    EENTRO =        -0.96719989
  eigenvalues    EBANDS =    -17444.71610957
  atomic energy  EATOM  =    136002.60505376
  Solvation  Ediel_sol  =         0.00000000
  ---------------------------------------------------
  free energy    TOTEN  =      -488.54119418 eV

  energy without entropy =     -487.57399430  energy(sigma->0) =     -488.05759424


--------------------------------------------------------------------------------------------------------




--------------------------------------- Iteration      1(   7)  ---------------------------------------


    POTLOK:  cpu time    0.0424: real time    0.0425
    SETDIJ:  cpu time    0.0049: real time    0.0050
     EDDAV:  cpu time    1.9171: real time    1.9218
       DOS:  cpu time    0.0013: real time    0.0013
    CHARGE:  cpu time    0.0378: real time    0.0379
    MIXING:  cpu time    0.0021: real time    0.0021
    --------------------------------------------
      LOOP:  cpu time    2.0057: real time    2.0105

 eigenvalue-minimisations  :  1096
 total energy-change (2. order) : 0.1140224E+03  (-0.1781707E+02)
 number of electron     791.9999538 magnetization 
 augmentation part      331.2548125 magnetization 

 Broyden mixing:
  rms(total) = 0.59592E+01    rms(broyden)= 0.59575E+01
  rms(prec ) = 0.62374E+01
  weight for this iteration     100.00

 eigenvalues of (default mixing * dielectric matrix)
  average eigenvalue GAMMA=   0.5155
  0.5155  0.5155

 Free energy of the ion-electron system (eV)
  ---------------------------------------------------
  alpha Z        PSCENC =      1909.09476555
  Ewald energy   TEWEN  =    164761.79700443
  -Hartree energ DENC   =   -285895.17560375
  -exchange      EXHF   =         0.00000000
  -V(xc)+E(xc)   XCENC  =      3605.37231240
  PAW double counting   =    118689.16971268  -123509.23345292
  entropy T*S    EENTRO =        -0.88264902
  eigenvalues    EBANDS =    -15937.26593615
  atomic energy  EATOM  =    136002.60505376
  Solvation  Ediel_sol  =         0.00000000
  ---------------------------------------------------
  free energy    TOTEN  =      -374.51879302 eV

  energy without entropy =     -373.63614400  energy(sigma->0) =     -374.07746851


--------------------------------------------------------------------------------------------------------




--------------------------------------- Iteration      1(   8)  ---------------------------------------


    POTLOK:  cpu time    0.0439: real time    0.0444
    SETDIJ:  cpu time    0.0050: real time    0.0050
     EDDAV:  cpu time    2.2757: real time    2.2827
       DOS:  cpu time    0.0007: real time    0.0007
    CHARGE:  cpu time    0.0387: real time    0.0388
    MIXING:  cpu time    0.0018: real time    0.0018
    --------------------------------------------
      LOOP:  cpu time    2.3658: real time    2.3734

 eigenvalue-minimisations  :  1344
 total energy-change (2. order) :-0.6508080E+02  (-0.1587264E+02)
 number of electron     791.9999574 magnetization 
 augmentation part      307.2167096 magnetization 

 Broyden mixing:
  rms(total) = 0.13726E+02    rms(broyden)= 0.13724E+02
  rms(prec ) = 0.16156E+02
  weight for this iteration     100.00

 eigenvalues of (default mixing * dielectric matrix)
  average eigenvalue GAMMA=   0.4409
  0.7546  0.4436  0.1244

 Free energy of the ion-electron system (eV)
  ---------------------------------------------------
  alpha Z        PSCENC =      1909.09476555
  Ewald energy   TEWEN  =    164761.79700443
  -Hartree energ DENC   =   -286317.96438493
  -exchange      EXHF   =         0.00000000
  -V(xc)+E(xc)   XCENC  =      3627.24011092
  PAW double counting   =    124160.91786249  -129089.52730431
  entropy T*S    EENTRO =        -1.28263718
  eigenvalues    EBANDS =    -15492.48006703
  atomic energy  EATOM  =    136002.60505376
  Solvation  Ediel_sol  =         0.00000000
  ---------------------------------------------------
  free energy    TOTEN  =      -439.59959630 eV

  energy without entropy =     -438.31695912  energy(sigma->0) =     -438.95827771


--------------------------------------------------------------------------------------------------------




--------------------------------------- Iteration      1(   9)  ---------------------------------------


    POTLOK:  cpu time    0.0431: real time    0.0439
    SETDIJ:  cpu time    0.0046: real time    0.0064
     EDDAV:  cpu time    2.0766: real time    2.0816
       DOS:  cpu time    0.0006: real time    0.0006
    CHARGE:  cpu time    0.0384: real time    0.0385
    MIXING:  cpu time    0.0018: real time    0.0018
    --------------------------------------------
      LOOP:  cpu time    2.1652: real time    2.1729

 eigenvalue-minimisations  :  1216
 total energy-change (2. order) : 0.6519381E+02  (-0.1032175E+02)
 number of electron     791.9999536 magnetization 
 augmentation part      308.2614553 magnetization 

 Broyden mixing:
  rms(total) = 0.54205E+01    rms(broyden)= 0.54117E+01
  rms(prec ) = 0.64102E+01
  weight for this iteration     100.00

 eigenvalues of (default mixing * dielectric matrix)
  average eigenvalue GAMMA=   0.4743
  1.0977  0.3501  0.3501  0.0993

 Free energy of the ion-electron system (eV)
  ---------------------------------------------------
  alpha Z        PSCENC =      1909.09476555
  Ewald energy   TEWEN  =    164761.79700443
  -Hartree energ DENC   =   -286521.40452121
  -exchange      EXHF   =         0.00000000
  -V(xc)+E(xc)   XCENC  =      3626.96771536
  PAW double counting   =    125846.54564340  -130789.01362203
  entropy T*S    EENTRO =        -1.33189504
  eigenvalues    EBANDS =    -15209.66593173
  atomic energy  EATOM  =    136002.60505376
  Solvation  Ediel_sol  =         0.00000000
  ---------------------------------------------------
  free energy    TOTEN  =      -374.40578751 eV

  energy without entropy =     -373.07389248  energy(sigma->0) =     -373.73984000


--------------------------------------------------------------------------------------------------------




--------------------------------------- Iteration      1(  10)  ---------------------------------------


    POTLOK:  cpu time    0.0423: real time    0.0424
    SETDIJ:  cpu time    0.0049: real time    0.0050
     EDDAV:  cpu time    2.2412: real time    2.2466
       DOS:  cpu time    0.0006: real time    0.0006
    CHARGE:  cpu time    0.0379: real time    0.0379
    MIXING:  cpu time    0.0019: real time    0.0019
    --------------------------------------------
      LOOP:  cpu time    2.3288: real time    2.3343

 eigenvalue-minimisations  :  1336
 total energy-change (2. order) :-0.1212322E+02  (-0.6807176E+01)
 number of electron     791.9999545 magnetization 
 augmentation part      306.0891811 magnetization 

 Broyden mixing:
  rms(total) = 0.70552E+01    rms(broyden)= 0.70497E+01
  rms(prec ) = 0.83391E+01
  weight for this iteration     100.00

 eigenvalues of (default mixing * dielectric matrix)
  average eigenvalue GAMMA=   0.5410
  1.6778  0.4055  0.4055  0.1081  0.1081

 Free energy of the ion-electron system (eV)
  ---------------------------------------------------
  alpha Z        PSCENC =      1909.09476555
  Ewald energy   TEWEN  =    164761.79700443
  -Hartree energ DENC   =   -286594.92531233
  -exchange      EXHF   =         0.00000000
  -V(xc)+E(xc)   XCENC  =      3625.54410375
  PAW double counting   =    127824.43788656  -132780.91773234
  entropy T*S    EENTRO =        -1.17340064
  eigenvalues    EBANDS =    -15132.99137813
  atomic energy  EATOM  =    136002.60505376
  Solvation  Ediel_sol  =         0.00000000
  ---------------------------------------------------
  free energy    TOTEN  =      -386.52900940 eV

  energy without entropy =     -385.35560875  energy(sigma->0) =     -385.94230907


--------------------------------------------------------------------------------------------------------




--------------------------------------- Iteration      1(  11)  ---------------------------------------


    POTLOK:  cpu time    0.0425: real time    0.0426
    SETDIJ:  cpu time    0.0049: real time    0.0050
     EDDAV:  cpu time    2.1571: real time    2.1623
       DOS:  cpu time    0.0006: real time    0.0006
    CHARGE:  cpu time    0.0381: real time    0.0381
    MIXING:  cpu time    0.0019: real time    0.0019
    --------------------------------------------
      LOOP:  cpu time    2.2452: real time    2.2505

 eigenvalue-minimisations  :  1280
 total energy-change (2. order) : 0.7904525E+01  (-0.4481535E+01)
 number of electron     791.9999599 magnetization 
 augmentation part      308.2118094 magnetization 

 Broyden mixing:
  rms(total) = 0.73006E+01    rms(broyden)= 0.72972E+01
  rms(prec ) = 0.86718E+01
  weight for this iteration     100.00

 eigenvalues of (default mixing * dielectric matrix)
  average eigenvalue GAMMA=   0.5054
  1.8807  0.4147  0.4147  0.1173  0.1173  0.0877

 Free energy of the ion-electron system (eV)
  ---------------------------------------------------
  alpha Z        PSCENC =      1909.09476555
  Ewald energy   TEWEN  =    164761.79700443
  -Hartree energ DENC   =   -286536.51118322
  -exchange      EXHF   =         0.00000000
  -V(xc)+E(xc)   XCENC  =      3623.48373611
  PAW double counting   =    130622.29838470  -135598.35083501
  entropy T*S    EENTRO =        -1.19767843
  eigenvalues    EBANDS =    -15161.84373225
  atomic energy  EATOM  =    136002.60505376
  Solvation  Ediel_sol  =         0.00000000
  ---------------------------------------------------
  free energy    TOTEN  =      -378.62448436 eV

  energy without entropy =     -377.42680593  energy(sigma->0) =     -378.02564514


--------------------------------------------------------------------------------------------------------




--------------------------------------- Iteration      1(  12)  ---------------------------------------


    POTLOK:  cpu time    0.0419: real time    0.0420
    SETDIJ:  cpu time    0.0049: real time    0.0049
     EDDAV:  cpu time    2.1712: real time    2.1765
       DOS:  cpu time    0.0018: real time    0.0018
    CHARGE:  cpu time    0.0381: real time    0.0382
    MIXING:  cpu time    0.0021: real time    0.0021
    --------------------------------------------
      LOOP:  cpu time    2.2601: real time    2.2655

 eigenvalue-minimisations  :  1288
 total energy-change (2. order) : 0.1168283E+02  (-0.3876960E+01)
 number of electron     791.9999514 magnetization 
 augmentation part      311.3194097 magnetization 

 Broyden mixing:
  rms(total) = 0.35666E+01    rms(broyden)= 0.35639E+01
  rms(prec ) = 0.40108E+01
  weight for this iteration     100.00

 eigenvalues of (default mixing * dielectric matrix)
  average eigenvalue GAMMA=   0.4918
  2.0503  0.4238  0.4238  0.1831  0.1831  0.0916  0.0869

 Free energy of the ion-electron system (eV)
  ---------------------------------------------------
  alpha Z        PSCENC =      1909.09476555
  Ewald energy   TEWEN  =    164761.79700443
  -Hartree energ DENC   =   -286536.65431821
  -exchange      EXHF   =         0.00000000
  -V(xc)+E(xc)   XCENC  =      3622.56073986
  PAW double counting   =    131575.17644088  -136557.25874522
  entropy T*S    EENTRO =        -0.92295682
  eigenvalues    EBANDS =    -15143.33964102
  atomic energy  EATOM  =    136002.60505376
  Solvation  Ediel_sol  =         0.00000000
  ---------------------------------------------------
  free energy    TOTEN  =      -366.94165678 eV

  energy without entropy =     -366.01869996  energy(sigma->0) =     -366.48017837


--------------------------------------------------------------------------------------------------------




--------------------------------------- Iteration      1(  13)  ---------------------------------------


    POTLOK:  cpu time    0.0424: real time    0.0425
    SETDIJ:  cpu time    0.0049: real time    0.0050
     EDDAV:  cpu time    2.1351: real time    2.1402
       DOS:  cpu time    0.0007: real time    0.0007
    CHARGE:  cpu time    0.0381: real time    0.0382
    MIXING:  cpu time    0.0021: real time    0.0021
    --------------------------------------------
      LOOP:  cpu time    2.2233: real time    2.2287

 eigenvalue-minimisations  :  1264
 total energy-change (2. order) : 0.4776680E+01  (-0.2322977E+01)
 number of electron     791.9999546 magnetization 
 augmentation part      312.3700745 magnetization 

 Broyden mixing:
  rms(total) = 0.25809E+01    rms(broyden)= 0.25770E+01
  rms(prec ) = 0.29311E+01
  weight for this iteration     100.00

 eigenvalues of (default mixing * dielectric matrix)
  average eigenvalue GAMMA=   0.4889
  2.0853  0.4568  0.4333  0.4333  0.1694  0.1356  0.1126  0.0849

 Free energy of the ion-electron system (eV)
  ---------------------------------------------------
  alpha Z        PSCENC =      1909.09476555
  Ewald energy   TEWEN  =    164761.79700443
  -Hartree energ DENC   =   -286520.36227860
  -exchange      EXHF   =         0.00000000
  -V(xc)+E(xc)   XCENC  =      3622.33292525
  PAW double counting   =    132268.38008807  -137256.40016542
  entropy T*S    EENTRO =        -0.96598835
  eigenvalues    EBANDS =    -15148.64638189
  atomic energy  EATOM  =    136002.60505376
  Solvation  Ediel_sol  =         0.00000000
  ---------------------------------------------------
  free energy    TOTEN  =      -362.16497720 eV

  energy without entropy =     -361.19898885  energy(sigma->0) =     -361.68198302


--------------------------------------------------------------------------------------------------------




--------------------------------------- Iteration      1(  14)  ---------------------------------------


    POTLOK:  cpu time    0.0421: real time    0.0422
    SETDIJ:  cpu time    0.0050: real time    0.0050
     EDDAV:  cpu time    2.2020: real time    2.2092
       DOS:  cpu time    0.0011: real time    0.0011
    CHARGE:  cpu time    0.0387: real time    0.0388
    MIXING:  cpu time    0.0024: real time    0.0024
    --------------------------------------------
      LOOP:  cpu time    2.2913: real time    2.2986

 eigenvalue-minimisations  :  1296
 total energy-change (2. order) : 0.8161931E+00  (-0.9854533E+00)
 number of electron     791.9999544 magnetization 
 augmentation part      312.5877649 magnetization 

 Broyden mixing:
  rms(total) = 0.25136E+01    rms(broyden)= 0.25114E+01
  rms(prec ) = 0.28318E+01
  weight for this iteration     100.00

 eigenvalues of (default mixing * dielectric matrix)
  average eigenvalue GAMMA=   0.4582
  2.0511  0.4911  0.4601  0.4601  0.1813  0.1471  0.1471  0.1011  0.0846

 Free energy of the ion-electron system (eV)
  ---------------------------------------------------
  alpha Z        PSCENC =      1909.09476555
  Ewald energy   TEWEN  =    164761.79700443
  -Hartree energ DENC   =   -286510.57443286
  -exchange      EXHF   =         0.00000000
  -V(xc)+E(xc)   XCENC  =      3622.48202391
  PAW double counting   =    132335.97689616  -137324.69860066
  entropy T*S    EENTRO =        -0.93170725
  eigenvalues    EBANDS =    -15157.09978718
  atomic energy  EATOM  =    136002.60505376
  Solvation  Ediel_sol  =         0.00000000
  ---------------------------------------------------
  free energy    TOTEN  =      -361.34878414 eV

  energy without entropy =     -360.41707689  energy(sigma->0) =     -360.88293052


--------------------------------------------------------------------------------------------------------




--------------------------------------- Iteration      1(  15)  ---------------------------------------


    POTLOK:  cpu time    0.0429: real time    0.0439
    SETDIJ:  cpu time    0.0046: real time    0.0064
     EDDAV:  cpu time    2.0797: real time    2.0846
       DOS:  cpu time    0.0007: real time    0.0007
    CHARGE:  cpu time    0.0382: real time    0.0383
    MIXING:  cpu time    0.0023: real time    0.0023
    --------------------------------------------
      LOOP:  cpu time    2.1683: real time    2.1762

 eigenvalue-minimisations  :  1224
 total energy-change (2. order) : 0.2340308E+01  (-0.3886879E+00)
 number of electron     791.9999536 magnetization 
 augmentation part      312.6455849 magnetization 

 Broyden mixing:
  rms(total) = 0.16187E+01    rms(broyden)= 0.16173E+01
  rms(prec ) = 0.18535E+01
  weight for this iteration     100.00

 eigenvalues of (default mixing * dielectric matrix)
  average eigenvalue GAMMA=   0.4407
  2.0230  0.5094  0.5094  0.3528  0.3528  0.1698  0.1698  0.1250  0.1107  0.0844

 Free energy of the ion-electron system (eV)
  ---------------------------------------------------
  alpha Z        PSCENC =      1909.09476555
  Ewald energy   TEWEN  =    164761.79700443
  -Hartree energ DENC   =   -286513.60089359
  -exchange      EXHF   =         0.00000000
  -V(xc)+E(xc)   XCENC  =      3622.88531177
  PAW double counting   =    132181.15539239  -137169.73464533
  entropy T*S    EENTRO =        -0.99955775
  eigenvalues    EBANDS =    -15152.21090692
  atomic energy  EATOM  =    136002.60505376
  Solvation  Ediel_sol  =         0.00000000
  ---------------------------------------------------
  free energy    TOTEN  =      -359.00847567 eV

  energy without entropy =     -358.00891792  energy(sigma->0) =     -358.50869680


--------------------------------------------------------------------------------------------------------




--------------------------------------- Iteration      1(  16)  ---------------------------------------


    POTLOK:  cpu time    0.0424: real time    0.0425
    SETDIJ:  cpu time    0.0049: real time    0.0050
     EDDAV:  cpu time    2.2195: real time    2.2248
       DOS:  cpu time    0.0007: real time    0.0007
    CHARGE:  cpu time    0.0422: real time    0.0423
    MIXING:  cpu time    0.0027: real time    0.0027
    --------------------------------------------
      LOOP:  cpu time    2.3124: real time    2.3180

 eigenvalue-minimisations  :  1328
 total energy-change (2. order) : 0.3782885E+00  (-0.1332691E+00)
 number of electron     791.9999537 magnetization 
 augmentation part      312.3748618 magnetization 

 Broyden mixing:
  rms(total) = 0.15177E+01    rms(broyden)= 0.15171E+01
  rms(prec ) = 0.17388E+01
  weight for this iteration     100.00

 eigenvalues of (default mixing * dielectric matrix)
  average eigenvalue GAMMA=   0.4450
  1.9964  0.6464  0.6464  0.3960  0.3960  0.1830  0.1830  0.1300  0.1300  0.0845
  0.1034

 Free energy of the ion-electron system (eV)
  ---------------------------------------------------
  alpha Z        PSCENC =      1909.09476555
  Ewald energy   TEWEN  =    164761.79700443
  -Hartree energ DENC   =   -286521.38150632
  -exchange      EXHF   =         0.00000000
  -V(xc)+E(xc)   XCENC  =      3623.06546447
  PAW double counting   =    132028.51493260  -137015.87286642
  entropy T*S    EENTRO =        -1.01072295
  eigenvalues    EBANDS =    -15145.44231230
  atomic energy  EATOM  =    136002.60505376
  Solvation  Ediel_sol  =         0.00000000
  ---------------------------------------------------
  free energy    TOTEN  =      -358.63018717 eV

  energy without entropy =     -357.61946422  energy(sigma->0) =     -358.12482570


--------------------------------------------------------------------------------------------------------




--------------------------------------- Iteration      1(  17)  ---------------------------------------


    POTLOK:  cpu time    0.0421: real time    0.0422
    SETDIJ:  cpu time    0.0050: real time    0.0050
     EDDAV:  cpu time    2.0915: real time    2.0965
       DOS:  cpu time    0.0007: real time    0.0007
    CHARGE:  cpu time    0.0432: real time    0.0433
    MIXING:  cpu time    0.0025: real time    0.0025
    --------------------------------------------
      LOOP:  cpu time    2.1849: real time    2.1901

 eigenvalue-minimisations  :  1232
 total energy-change (2. order) : 0.5581961E+00  (-0.8725355E-01)
 number of electron     791.9999539 magnetization 
 augmentation part      312.2932841 magnetization 

 Broyden mixing:
  rms(total) = 0.11810E+01    rms(broyden)= 0.11804E+01
  rms(prec ) = 0.13450E+01
  weight for this iteration     100.00

 eigenvalues of (default mixing * dielectric matrix)
  average eigenvalue GAMMA=   0.4248
  1.9873  0.6821  0.6821  0.3934  0.3934  0.2036  0.2036  0.1320  0.1320  0.0845
  0.1017  0.1017

 Free energy of the ion-electron system (eV)
  ---------------------------------------------------
  alpha Z        PSCENC =      1909.09476555
  Ewald energy   TEWEN  =    164761.79700443
  -Hartree energ DENC   =   -286526.23359341
  -exchange      EXHF   =         0.00000000
  -V(xc)+E(xc)   XCENC  =      3623.19541819
  PAW double counting   =    131844.69798303  -136830.24371271
  entropy T*S    EENTRO =        -1.00480560
  eigenvalues    EBANDS =    -15141.98010430
  atomic energy  EATOM  =    136002.60505376
  Solvation  Ediel_sol  =         0.00000000
  ---------------------------------------------------
  free energy    TOTEN  =      -358.07199105 eV

  energy without entropy =     -357.06718545  energy(sigma->0) =     -357.56958825


--------------------------------------------------------------------------------------------------------




--------------------------------------- Iteration      1(  18)  ---------------------------------------


    POTLOK:  cpu time    0.0425: real time    0.0426
    SETDIJ:  cpu time    0.0049: real time    0.0049
     EDDAV:  cpu time    2.1427: real time    2.1478
       DOS:  cpu time    0.0010: real time    0.0010
    CHARGE:  cpu time    0.0431: real time    0.0432
    MIXING:  cpu time    0.0026: real time    0.0026
    --------------------------------------------
      LOOP:  cpu time    2.2367: real time    2.2420

 eigenvalue-minimisations  :  1272
 total energy-change (2. order) : 0.2153115E+00  (-0.1825548E-01)
 number of electron     791.9999539 magnetization 
 augmentation part      312.1795555 magnetization 

 Broyden mixing:
  rms(total) = 0.10439E+01    rms(broyden)= 0.10438E+01
  rms(prec ) = 0.11870E+01
  weight for this iteration     100.00

 eigenvalues of (default mixing * dielectric matrix)
  average eigenvalue GAMMA=   0.4760
  1.9961  0.9740  0.9740  0.4317  0.4317  0.4065  0.2173  0.1585  0.1585  0.0845
  0.1310  0.1047  0.1199

 Free energy of the ion-electron system (eV)
  ---------------------------------------------------
  alpha Z        PSCENC =      1909.09476555
  Ewald energy   TEWEN  =    164761.79700443
  -Hartree energ DENC   =   -286529.39916771
  -exchange      EXHF   =         0.00000000
  -V(xc)+E(xc)   XCENC  =      3623.28176850
  PAW double counting   =    131777.42726613  -136762.37396212
  entropy T*S    EENTRO =        -1.01458078
  eigenvalues    EBANDS =    -15139.27482731
  atomic energy  EATOM  =    136002.60505376
  Solvation  Ediel_sol  =         0.00000000
  ---------------------------------------------------
  free energy    TOTEN  =      -357.85667955 eV

  energy without entropy =     -356.84209877  energy(sigma->0) =     -357.34938916


--------------------------------------------------------------------------------------------------------




--------------------------------------- Iteration      1(  19)  ---------------------------------------


    POTLOK:  cpu time    0.0420: real time    0.0421
    SETDIJ:  cpu time    0.0050: real time    0.0050
     EDDAV:  cpu time    2.2202: real time    2.2255
       DOS:  cpu time    0.0007: real time    0.0007
    CHARGE:  cpu time    0.0430: real time    0.0431
    MIXING:  cpu time    0.0029: real time    0.0029
    --------------------------------------------
      LOOP:  cpu time    2.3139: real time    2.3194

 eigenvalue-minimisations  :  1328
 total energy-change (2. order) : 0.1952835E+00  (-0.3422998E-01)
 number of electron     791.9999544 magnetization 
 augmentation part      312.1334790 magnetization 

 Broyden mixing:
  rms(total) = 0.96212E+00    rms(broyden)= 0.96174E+00
  rms(prec ) = 0.10887E+01
  weight for this iteration     100.00

 eigenvalues of (default mixing * dielectric matrix)
  average eigenvalue GAMMA=   0.4705
  1.9820  1.0806  1.0806  0.4420  0.4420  0.3956  0.2589  0.1735  0.1735  0.1313
  0.1313  0.0845  0.1058  0.1058

 Free energy of the ion-electron system (eV)
  ---------------------------------------------------
  alpha Z        PSCENC =      1909.09476555
  Ewald energy   TEWEN  =    164761.79700443
  -Hartree energ DENC   =   -286536.14932266
  -exchange      EXHF   =         0.00000000
  -V(xc)+E(xc)   XCENC  =      3623.33450204
  PAW double counting   =    131568.19334022  -136549.91936207
  entropy T*S    EENTRO =        -1.01649696
  eigenvalues    EBANDS =    -15135.60088036
  atomic energy  EATOM  =    136002.60505376
  Solvation  Ediel_sol  =         0.00000000
  ---------------------------------------------------
  free energy    TOTEN  =      -357.66139604 eV

  energy without entropy =     -356.64489908  energy(sigma->0) =     -357.15314756


--------------------------------------------------------------------------------------------------------




--------------------------------------- Iteration      1(  20)  ---------------------------------------


    POTLOK:  cpu time    0.0428: real time    0.0429
    SETDIJ:  cpu time    0.0049: real time    0.0049
     EDDAV:  cpu time    2.2112: real time    2.2175
       DOS:  cpu time    0.0017: real time    0.0017
    CHARGE:  cpu time    0.0431: real time    0.0432
    MIXING:  cpu time    0.0027: real time    0.0027
    --------------------------------------------
      LOOP:  cpu time    2.3064: real time    2.3129

 eigenvalue-minimisations  :  1320
 total energy-change (2. order) : 0.1682739E+00  (-0.1777468E-01)
 number of electron     791.9999544 magnetization 
 augmentation part      312.0786064 magnetization 

 Broyden mixing:
  rms(total) = 0.80350E+00    rms(broyden)= 0.80331E+00
  rms(prec ) = 0.90177E+00
  weight for this iteration     100.00

 eigenvalues of (default mixing * dielectric matrix)
  average eigenvalue GAMMA=   0.5241
  1.9565  1.4292  1.4292  0.5623  0.5623  0.4158  0.4158  0.1794  0.1794  0.1482
  0.1482  0.0845  0.1308  0.1052  0.1152

 Free energy of the ion-electron system (eV)
  ---------------------------------------------------
  alpha Z        PSCENC =      1909.09476555
  Ewald energy   TEWEN  =    164761.79700443
  -Hartree energ DENC   =   -286538.63454316
  -exchange      EXHF   =         0.00000000
  -V(xc)+E(xc)   XCENC  =      3623.39281561
  PAW double counting   =    131440.59460338  -136420.65841903
  entropy T*S    EENTRO =        -1.03838600
  eigenvalues    EBANDS =    -15134.64601670
  atomic energy  EATOM  =    136002.60505376
  Solvation  Ediel_sol  =         0.00000000
  ---------------------------------------------------
  free energy    TOTEN  =      -357.49312216 eV

  energy without entropy =     -356.45473616  energy(sigma->0) =     -356.97392916


--------------------------------------------------------------------------------------------------------




--------------------------------------- Iteration      1(  21)  ---------------------------------------


    POTLOK:  cpu time    0.0421: real time    0.0422
    SETDIJ:  cpu time    0.0049: real time    0.0049
     EDDAV:  cpu time    2.2752: real time    2.2807
       DOS:  cpu time    0.0011: real time    0.0011
    CHARGE:  cpu time    0.0380: real time    0.0381
    MIXING:  cpu time    0.0028: real time    0.0028
    --------------------------------------------
      LOOP:  cpu time    2.3642: real time    2.3699

 eigenvalue-minimisations  :  1368
 total energy-change (2. order) : 0.1427655E+00  (-0.2519036E-01)
 number of electron     791.9999548 magnetization 
 augmentation part      311.9249373 magnetization 

 Broyden mixing:
  rms(total) = 0.66941E+00    rms(broyden)= 0.66885E+00
  rms(prec ) = 0.74608E+00
  weight for this iteration     100.00

 eigenvalues of (default mixing * dielectric matrix)
  average eigenvalue GAMMA=   0.5430
  1.9748  1.6349  1.6349  0.6607  0.6607  0.4207  0.4207  0.2058  0.2058  0.1530
  0.1530  0.0845  0.1301  0.1301  0.1054  0.1125

 Free energy of the ion-electron system (eV)
  ---------------------------------------------------
  alpha Z        PSCENC =      1909.09476555
  Ewald energy   TEWEN  =    164761.79700443
  -Hartree energ DENC   =   -286555.05113301
  -exchange      EXHF   =         0.00000000
  -V(xc)+E(xc)   XCENC  =      3623.46832127
  PAW double counting   =    131105.02785700  -136080.53021632
  entropy T*S    EENTRO =        -1.05679177
  eigenvalues    EBANDS =    -15122.70521758
  atomic energy  EATOM  =    136002.60505376
  Solvation  Ediel_sol  =         0.00000000
  ---------------------------------------------------
  free energy    TOTEN  =      -357.35035667 eV

  energy without entropy =     -356.29356490  energy(sigma->0) =     -356.82196079


--------------------------------------------------------------------------------------------------------




--------------------------------------- Iteration      1(  22)  ---------------------------------------


    POTLOK:  cpu time    0.0429: real time    0.0430
    SETDIJ:  cpu time    0.0049: real time    0.0049
[...]
    FORCOR:  cpu time    0.0546: real time    0.0548
    FORHAR:  cpu time    0.0241: real time    0.0242
    MIXING:  cpu time    0.0057: real time    0.0057
    OFIELD:  cpu time    0.0001: real time    0.0001

  FORCE on cell =-STRESS in cart. coord.  units (eV):
  Direction    XX          YY          ZZ          XY          YZ          ZX
  --------------------------------------------------------------------------------------
  Alpha Z  1909.09477  1909.09477  1909.09477
  Ewald  214869.07579215121.38044************  -417.28963  -735.33751   292.00443
  Hartree251817.45534252025.95253************  -229.10134  -449.98385   195.38808
  E(xc)   -5026.95674 -5026.95404 -5031.30280    -0.81618    -1.11449     0.54305
  Local  ************************469450.25575   628.99027  1156.96519  -463.00993
  n-local  -685.96878  -684.04902  -693.25564    -3.78383    -5.67480     1.86021
  augment  5788.84921  5794.25271  5805.68021     9.25976    12.80432    -9.87035
  Kinetic 10961.62475 10970.34535 11004.13531    18.18812    31.76272   -24.59751
  Fock        0.00000     0.00000     0.00000     0.00000     0.00000     0.00000
  -------------------------------------------------------------------------------------
  Total     -30.43740   -29.55476   -25.82776     5.44716     9.42158    -7.68201
  in kB     -25.02733   -24.30157   -21.23702     4.47896     7.74695    -6.31657
  external pressure =      -23.52 kB  Pullay stress =        0.00 kB


 VOLUME and BASIS-vectors are now :
 -----------------------------------------------------------------------------
  energy-cutoff  :      450.00
  volume of cell :     1948.51
      direct lattice vectors                 reciprocal lattice vectors
     9.425102554  3.573298043  0.000000000     0.106099641  0.000000000  0.000000000
     0.000000000 10.079732985  0.000000000    -0.037612667  0.099208977  0.000000000
     0.000000000  0.000000000 20.510139882     0.000000000  0.000000000  0.048756372

  length of vectors
    10.079732985 10.079732985 20.510139882     0.106099641  0.106099641  0.048756372


 FORCES acting on ions
    electron-ion (+dipol)            ewald-force                    non-local-force                 convergence-correction
 -----------------------------------------------------------------------------------------------
   0.560E+03 -.328E+02 0.347E+04   -.560E+03 0.357E+02 -.347E+04   0.748E+00 -.225E+01 0.264E+01   -.852E-02 -.928E-02 -.605E-02
   0.455E+03 0.519E+01 0.393E+03   -.456E+03 -.428E+01 -.393E+03   0.118E+01 -.708E+00 0.579E+00   -.259E-02 0.118E-02 0.145E-02
   0.437E+03 0.324E+02 -.240E+04   -.439E+03 -.325E+02 0.240E+04   0.157E+01 0.474E-01 0.440E+00   0.110E-01 -.294E-02 0.101E-01
   0.146E+03 0.156E+03 -.481E+04   -.147E+03 -.160E+03 0.481E+04   0.371E+00 0.306E+01 -.108E+01   -.327E-02 -.497E-02 -.264E-03
   -.101E+02 -.891E+02 0.474E+04   0.728E+01 0.877E+02 -.473E+04   0.269E+01 0.115E+01 -.868E+01   -.213E-01 0.838E-02 0.592E-02
   0.402E+03 -.500E+02 0.233E+04   -.404E+03 0.509E+02 -.233E+04   0.166E+01 -.758E+00 0.176E+01   -.467E-03 -.857E-02 0.328E-01
   0.402E+03 -.131E+02 -.362E+04   -.402E+03 0.136E+02 0.363E+04   0.563E+00 -.660E+00 -.271E+01   -.998E-02 0.185E-02 -.336E-02
   0.419E+03 -.393E+01 -.624E+03   -.421E+03 0.435E+01 0.624E+03   0.144E+01 -.336E+00 0.483E+00   -.472E-04 -.179E-02 0.155E-01
   0.436E+03 0.570E+02 0.141E+04   -.438E+03 -.570E+02 -.141E+04   0.161E+01 0.725E-01 0.142E+01   0.121E-01 0.729E-03 -.845E-02
   0.454E+03 0.440E+02 -.164E+04   -.455E+03 -.440E+02 0.164E+04   0.128E+01 -.397E-01 0.509E+00   -.293E-02 -.245E-02 -.584E-02
   0.578E+03 -.758E+02 -.453E+04   -.573E+03 0.735E+02 0.452E+04   -.538E+01 0.194E+01 0.604E+01   0.971E-02 0.267E-02 -.757E-02
   0.283E+03 0.366E+03 0.427E+04   -.284E+03 -.362E+03 -.427E+04   0.105E+01 -.310E+01 -.343E+00   0.284E-01 0.132E-01 -.495E-02
   -.501E+03 0.490E+03 -.351E+04   0.499E+03 -.491E+03 0.351E+04   0.146E+01 0.867E+00 -.326E+01   -.172E-01 0.446E-03 0.528E-02
   -.738E+02 0.361E+03 0.492E+04   0.733E+02 -.354E+03 -.491E+04   0.102E+01 -.662E+01 -.110E+02   -.174E-01 0.242E-02 0.227E-02
   -.226E+03 0.471E+03 0.244E+04   0.226E+03 -.472E+03 -.244E+04   -.407E+00 0.181E+01 0.172E+01   0.126E-02 0.806E-02 0.414E-02
   -.223E+03 0.464E+03 -.477E+03   0.223E+03 -.465E+03 0.475E+03   0.189E+00 0.802E+00 0.152E+01   0.154E-02 0.104E-02 0.124E-01
   -.196E+03 0.419E+03 0.142E+04   0.195E+03 -.419E+03 -.142E+04   0.215E+00 0.406E+00 0.118E+01   0.335E-02 -.511E-02 0.404E-02
   -.147E+03 0.438E+03 -.153E+04   0.147E+03 -.439E+03 0.153E+04   0.265E+00 0.103E+01 0.336E+00   -.108E-01 0.216E-02 -.503E-03
   0.154E+03 0.513E+03 -.433E+04   -.152E+03 -.510E+03 0.432E+04   -.109E+01 -.176E+01 0.212E+01   0.623E-02 0.134E-02 -.524E-02
   -.193E+03 0.287E+03 0.416E+04   0.194E+03 -.288E+03 -.417E+04   -.688E+00 0.627E+00 0.566E+01   0.231E-01 -.260E-01 0.889E-03
   -.385E+02 0.465E+03 0.346E+04   0.387E+02 -.468E+03 -.347E+04   -.459E+00 0.295E+01 0.330E+01   -.132E-01 0.297E-02 0.903E-02
   -.148E+03 0.431E+03 0.449E+03   0.148E+03 -.431E+03 -.450E+03   -.260E+00 0.710E+00 0.107E+01   -.538E-02 0.140E-02 0.258E-02
   -.171E+03 0.316E+03 -.247E+04   0.172E+03 -.317E+03 0.247E+04   -.690E+00 0.878E+00 -.517E+00   0.986E-02 0.923E-02 -.372E-02
   -.245E+03 -.204E+03 -.477E+04   0.239E+03 0.207E+03 0.476E+04   0.474E+01 -.298E+01 0.106E+02   0.168E-02 -.669E-03 -.125E-01
   -.654E+03 -.216E+03 -.434E+04   0.650E+03 0.218E+03 0.434E+04   0.368E+01 -.464E+00 0.509E+01   -.151E-01 -.269E-02 -.157E-02
   -.156E+03 -.375E+03 0.425E+04   0.153E+03 0.377E+03 -.425E+04   0.209E+01 -.176E+01 0.164E+01   -.134E-01 -.191E-01 0.454E-02
   -.315E+03 -.401E+03 0.138E+04   0.315E+03 0.402E+03 -.138E+04   0.253E+00 -.126E+01 -.673E-01   0.789E-02 -.532E-03 0.729E-02
   -.367E+03 -.420E+03 -.148E+04   0.367E+03 0.421E+03 0.148E+04   -.330E-01 -.127E+01 0.972E+00   0.193E-02 0.161E-02 0.664E-02
   -.322E+03 -.520E+03 0.344E+04   0.322E+03 0.521E+03 -.344E+04   -.215E+00 -.171E+01 0.425E+01   0.226E-01 0.948E-02 0.149E-01
   -.317E+03 -.435E+03 0.422E+03   0.317E+03 0.436E+03 -.422E+03   0.118E+00 -.117E+01 0.495E+00   0.256E-02 0.821E-03 0.783E-02
   -.221E+03 -.460E+03 -.253E+04   0.221E+03 0.461E+03 0.253E+04   0.102E+00 -.949E+00 -.187E+01   -.812E-02 0.298E-03 -.136E-02
   0.144E+03 -.264E+03 -.473E+04   -.143E+03 0.264E+03 0.473E+04   0.117E-01 -.725E+00 0.291E+01   0.467E-02 0.447E-02 0.853E-03
   -.265E+03 -.198E+03 0.471E+04   0.258E+03 0.196E+03 -.471E+04   0.707E+01 0.219E+01 -.321E+01   -.698E-03 0.493E-02 -.421E-02
   -.270E+03 -.375E+03 0.234E+04   0.270E+03 0.376E+03 -.234E+04   -.533E-02 -.123E+01 0.153E+01   -.231E-01 -.586E-02 -.792E-02
   -.292E+03 -.383E+03 -.565E+03   0.292E+03 0.384E+03 0.564E+03   -.272E+00 -.967E+00 0.131E+01   0.801E-03 -.742E-02 0.728E-02
   -.306E+03 -.279E+03 -.364E+04   0.307E+03 0.279E+03 0.364E+04   0.220E-01 0.806E+00 0.118E+01   0.146E-01 0.484E-02 -.262E-03
   -.167E+03 0.902E+01 -.672E+03   0.169E+03 -.890E+01 0.670E+03   -.175E+01 -.499E+00 0.240E+01   -.152E-02 0.205E-02 -.418E-03
   -.146E+03 0.185E+02 0.151E+04   0.148E+03 -.181E+02 -.151E+04   -.222E+01 -.339E+00 -.598E+00   0.222E-02 -.267E-02 -.152E-02
   -.141E+03 -.160E+01 0.455E+03   0.142E+03 0.176E+01 -.456E+03   -.186E+01 -.179E+00 0.138E+01   0.320E-02 0.125E-02 0.188E-02
   -.152E+03 -.441E+02 0.120E+04   0.154E+03 0.440E+02 -.120E+04   -.119E+01 -.888E-01 0.797E+00   0.843E-02 -.278E-02 0.118E-02
   -.119E+03 -.194E+02 0.769E+02   0.121E+03 0.197E+02 -.780E+02   -.220E+01 -.431E+00 0.124E+01   -.396E-02 0.150E-02 0.269E-03
   -.723E+02 -.864E+00 -.980E+03   0.740E+02 0.132E+01 0.977E+03   -.206E+01 -.542E+00 0.263E+01   0.285E-02 0.211E-02 -.828E-03
   -.428E+01 0.126E+03 -.184E+04   0.382E+01 -.127E+03 0.185E+04   -.918E+00 0.155E+01 -.353E+01   0.100E-01 -.423E-03 0.294E-04
   -.126E+03 -.134E+03 0.196E+04   0.127E+03 0.135E+03 -.197E+04   -.101E+01 -.132E+01 0.481E+01   0.933E-02 -.178E-02 -.534E-02
   0.353E+01 0.583E+02 0.179E+04   -.362E+01 -.590E+02 -.179E+04   0.854E+00 0.176E+01 0.181E+01   -.266E-01 0.701E-02 0.712E-02
   -.121E+03 -.956E+01 0.799E+03   0.123E+03 0.986E+01 -.801E+03   -.201E+01 -.383E+00 0.167E+01   -.985E-02 -.314E-02 0.330E-02
   -.128E+03 -.139E+02 -.302E+03   0.129E+03 0.139E+02 0.300E+03   -.204E+01 -.175E+00 0.118E+01   0.253E-02 0.284E-03 0.627E-02
   -.122E+03 -.983E+02 -.149E+04   0.122E+03 0.993E+02 0.149E+04   -.117E+01 -.123E+01 -.825E+00   0.106E-02 0.621E-02 -.448E-02
   0.175E+03 -.856E+02 0.182E+04   -.177E+03 0.863E+02 -.182E+04   0.189E+01 -.165E+01 0.456E+01   -.718E-02 0.453E-03 0.601E-02
   0.890E+02 -.152E+03 0.644E+03   -.896E+02 0.154E+03 -.643E+03   0.831E+00 -.221E+01 -.266E+00   -.540E-02 0.231E-02 0.132E-02
   0.708E+02 -.163E+03 -.436E+03   -.719E+02 0.165E+03 0.437E+03   0.105E+01 -.215E+01 -.111E+01   0.324E-02 0.142E-02 0.461E-02
   0.147E+02 -.176E+03 -.143E+04   -.162E+02 0.178E+03 0.143E+04   0.193E+01 -.216E+01 0.168E+00   0.745E-03 -.695E-02 -.106E-02
   -.242E+01 -.164E+03 0.147E+04   0.280E+01 0.166E+03 -.148E+04   -.803E+00 -.230E+01 0.188E+01   0.363E-02 0.115E-01 0.102E-01
   0.595E+02 -.155E+03 0.285E+03   -.609E+02 0.157E+03 -.285E+03   0.131E+01 -.249E+01 -.449E+00   0.244E-02 -.112E-02 0.819E-02
   0.594E+02 -.158E+03 -.846E+03   -.602E+02 0.160E+03 0.848E+03   0.849E+00 -.191E+01 -.128E+01   -.285E-02 -.363E-02 -.467E-03
   0.164E+03 -.161E+03 -.185E+04   -.166E+03 0.164E+03 0.185E+04   0.244E+01 -.321E+01 -.420E+01   -.311E-02 0.174E-03 -.737E-03
   0.664E+02 -.122E+03 0.999E+03   -.671E+02 0.124E+03 -.998E+03   0.105E+01 -.180E+01 -.160E+01   0.433E-02 -.194E-02 -.110E-01
   0.758E+02 -.140E+03 -.920E+02   -.766E+02 0.142E+03 0.929E+02   0.679E+00 -.228E+01 -.108E+01   -.304E-02 -.148E-02 -.254E-02
   0.941E+02 -.110E+03 -.120E+04   -.946E+02 0.112E+03 0.120E+04   0.530E+00 -.216E+01 -.263E-01   0.615E-02 -.244E-02 -.198E-02
   0.102E+03 -.712E+02 0.189E+04   -.103E+03 0.712E+02 -.189E+04   0.220E+01 -.854E+00 0.435E+01   0.162E-01 -.891E-02 0.857E-05
   0.120E+03 0.113E+03 0.108E+04   -.121E+03 -.115E+03 -.108E+04   0.105E+01 0.248E+01 -.148E+01   -.616E-02 0.155E-02 -.598E-02
   0.112E+03 0.132E+03 0.577E+01   -.113E+03 -.134E+03 -.633E+01   0.182E+01 0.195E+01 0.634E+00   0.186E-02 -.727E-03 0.363E-02
   0.923E+02 0.174E+03 -.106E+04   -.950E+02 -.176E+03 0.106E+04   0.265E+01 0.201E+01 0.156E+01   -.197E-02 -.201E-02 0.633E-02
   -.717E+02 0.231E+03 -.185E+04   0.715E+02 -.233E+03 0.185E+04   0.301E+00 0.469E+01 -.380E+01   -.471E-02 0.248E-02 -.155E-03
   0.104E+03 0.116E+03 -.378E+03   -.105E+03 -.118E+03 0.379E+03   0.160E+01 0.226E+01 -.451E+00   -.169E-02 0.105E-02 0.326E-02
   0.683E+02 0.560E+02 -.154E+04   -.694E+02 -.567E+02 0.154E+04   0.161E+01 0.182E+00 -.144E+01   -.629E-02 0.146E-02 -.299E-02
   0.898E+02 0.562E+02 0.176E+04   -.900E+02 -.569E+02 -.176E+04   -.423E-01 0.750E+00 0.197E+01   0.293E-02 -.123E-01 0.376E-02
   0.108E+03 0.117E+03 0.708E+03   -.110E+03 -.119E+03 -.709E+03   0.210E+01 0.191E+01 0.375E+00   0.237E-02 -.234E-02 0.637E-02
   0.874E+02 0.102E+03 0.157E+04   -.879E+02 -.103E+03 -.157E+04   0.793E-01 0.899E+00 0.210E+01   0.104E-01 0.801E-02 0.174E-02
   0.119E+03 0.125E+03 0.368E+03   -.121E+03 -.127E+03 -.368E+03   0.182E+01 0.186E+01 0.342E+00   0.177E-02 0.196E-02 -.365E-02
   0.141E+03 0.100E+03 -.758E+03   -.142E+03 -.102E+03 0.757E+03   0.177E+01 0.246E+01 0.608E+00   0.353E-03 0.312E-03 -.272E-02
   0.106E+03 -.577E+02 -.172E+04   -.106E+03 0.576E+02 0.172E+04   0.128E+01 0.797E+00 -.407E+00   -.560E-03 -.162E-02 -.136E-02
 -----------------------------------------------------------------------------------------------
   -.383E+02 0.163E+02 -.421E+02   0.398E-12 0.711E-14 0.796E-11   0.383E+02 -.162E+02 0.419E+02   0.937E-03 -.169E-01 0.110E+00
 
 
 POSITION                                       TOTAL-FORCE (eV/Angst)
 -----------------------------------------------------------------------------------
      3.52812      8.91113      1.95077         0.148938      0.595873      0.181424
      4.94442      7.93342      4.57627        -0.057445      0.204271     -0.001261
      6.36071      6.95571      7.20177        -0.024268      0.026297     -0.076358
      7.77701      5.97799      9.82727        -0.318487     -1.009962     -0.319915
      5.72562      4.03422      0.20043        -0.153485     -0.268767      1.882399
      7.14192      3.05650      2.82594        -0.147871      0.137017     -0.048365
      0.54941      7.60751      8.07694         0.301068     -0.078147      0.425103
      8.55821     12.15852      5.45144         0.208582      0.078250     -0.063040
      1.33062      3.70831      3.70110        -0.140033      0.000631     -0.166513
      2.74691      2.73060      6.32660         0.063517     -0.028425      0.264895
      4.16321      1.75289      8.95211         0.407453     -0.352270     -0.840375
      9.33942      8.25932      1.07560         0.106706      0.650848      0.502872
      0.09369      1.20229      8.43993        -0.809621     -0.279041      0.420228
      5.26990      7.70873      0.56342         0.491311     -0.117181      1.817859
      6.68620      6.73101      3.18892        -0.191116      0.011353     -0.230484
      8.10249      5.75330      5.81443         0.095625      0.121657      0.097618
      0.87489      7.38282      4.06409        -0.064426      0.013754     -0.079978
      2.29119      6.40511      6.68959        -0.082736     -0.098062      0.032850
      3.70749      5.42740      9.31510         0.429471      0.625083     -0.588065
      8.88370     11.93383      1.43859        -0.024651      0.233290     -0.668677
      3.07240      2.50591      2.31376        -0.290516     -0.072260     -0.366008
      4.48869     11.60793      4.93926        -0.009042      0.023981     -0.092392
      5.90499     10.63022      7.56476         0.285866     -0.024004      0.161775
      7.32128      9.65250     10.19026        -0.759484      0.188055     -1.979240
      0.46788      3.60710      9.13360        -0.331865      0.931958     -1.382996
      5.64409     10.11353      1.25709        -0.422142      0.625750      0.398534
      7.06039      9.13582      3.88260        -0.071842      0.027209     -0.032585
      8.47669      8.15811      6.50810         0.110400     -0.175937      0.129935
      9.25789      4.25891      2.13226        -0.010586      0.104822     -0.575776
      1.24909      9.78763      4.75776        -0.047400     -0.021060      0.073936
      2.66538      8.80992      7.38327        -0.039318     -0.041426      0.422775
      4.08168      7.83221     10.00877         0.276886     -0.399352     -0.863678
      2.03029      5.88843      0.38193        -0.616274     -0.533912      1.178940
      3.44659      4.91072      3.00743         0.060693     -0.108384     -0.141727
      4.86289      3.93300      5.63293         0.111041     -0.131663      0.056861
      6.27918      2.95529      8.25843         0.563579      0.154461     -0.528957
      0.60152      2.86980      7.00134         0.253587     -0.373668      0.849492
      7.19404      8.39852      1.75033        -0.405639      0.080290     -1.521519
      8.61033      7.42081      4.37584        -0.045048     -0.016325      0.035397
      1.38273      9.05033      2.62550         0.294778     -0.163366     -0.630661
      2.79903      8.07262      5.25100         0.063302     -0.085826      0.172450
      4.21532      7.09490      7.87651        -0.383242     -0.084764      0.306869
      5.63162      6.11719     10.50201        -1.372755      0.206954      0.173351
      9.39154     13.60134      0.00000        -0.035557     -0.241893      0.986968
      3.58024      4.17341      0.87517         0.731548      1.052273     -1.220355
      4.99653      3.19570      3.50067        -0.166603     -0.088102     -0.025331
      6.41283     12.29772      6.12617        -0.245227     -0.257290      0.019890
      7.82912     11.32001      8.75167        -0.736091     -0.260998      1.071945
      3.55982     10.90733      0.89143         0.718068     -0.961952      0.245899
      4.97612      9.92962      3.51693         0.243474     -0.330446      0.207003
      6.39241      8.95190      6.14243         0.030720      0.004366     -0.094353
      7.80871      7.97419      8.76794         0.479380      0.037332      1.207915
      7.17362      5.05270      1.76660        -0.423066     -0.259554     -0.656460
      8.58992      4.07499      4.39210        -0.026364     -0.058745     -0.195461
      0.58111      9.60371      7.01760         0.050208     -0.166597      0.212894
      1.99741      8.62600      9.64310         0.377734      0.085626     -0.610997
      1.36232      5.70451      2.64176         0.343369     -0.323587     -0.305496
      2.77861      4.72680      5.26727        -0.057959     -0.097329     -0.158798
      4.19491      3.74909      7.89277         0.078318     -0.693855      1.290664
      9.37112     10.25552      0.01626         1.214876     -0.859920      0.282819
      4.49963      6.86742      2.63363        -0.418038      0.443781     -0.966178
      5.91593      5.88971      5.25914         0.010274     -0.085620      0.081668
      7.33222      4.91200      7.88464         0.029325     -0.028393      0.283225
      8.74852      3.93429     10.51014         0.018323      1.839980     -1.428522
      0.10463      6.54152      6.13430         0.006472      0.041714      0.140973
      1.52092      5.56381      8.75980         0.478923     -0.468830      0.555178
      6.69714     12.07024      0.88330        -0.325964     -0.040420     -0.368500
      8.11343     11.09253      3.50880         0.032587      0.081103     -0.001069
      0.88583      2.64232      1.75847        -0.453012      0.170547      0.072560
      2.30213      1.66461      4.38397         0.171268     -0.043595      0.076334
      3.71843     10.76663      7.00947         0.011259      0.233377      0.412348
      5.13472      9.78891      9.63497         0.408245      0.699022      0.496246
 -----------------------------------------------------------------------------------
    total drift:                                0.031545      0.112932     -0.055052


--------------------------------------------------------------------------------------------------------



  FREE ENERGIE OF THE ION-ELECTRON SYSTEM (eV)
  ---------------------------------------------------
  free  energy   TOTEN  =      -357.15086898 eV

  energy  without entropy=     -356.09576604  energy(sigma->0) =     -356.62331751
 


--------------------------------------------------------------------------------------------------------


    POTLOK:  cpu time    0.0470: real time    0.0476


--------------------------------------------------------------------------------------------------------


     LOOP+:  cpu time   90.3335: real time   90.6346
    4ORBIT:  cpu time    0.0000: real time    0.0000

 total amount of memory used by VASP MPI-rank0    45306. kBytes
=======================================================================

   base      :      30000. kBytes
   nonlr-proj:       2307. kBytes
   fftplans  :       3383. kBytes
   grid      :       6052. kBytes
   one-center:         93. kBytes
   wavefun   :       3471. kBytes
 
  
  
 General timing and accounting informations for this job:
 ========================================================
  
                  Total CPU time used (sec):       92.429
                            User time (sec):       91.686
                          System time (sec):        0.743
                         Elapsed time (sec):       93.135
  
                   Maximum memory used (kb):      226892.
                   Average memory used (kb):           0.
  
                          Minor page faults:        82463
                          Major page faults:            0
                 Voluntary context switches:          912
