  78  78   0   0
  0.2663252E+02  0.9578410E-09  0.1145278E-08  0.2084683E-08  0.5000000E-15
  1.000000000000000E-004
  CAR 
 "Millerite NiS"                         
     11.33025114    -66.11293058  301      1.58581380      1.00000000
    -66.113  0.0000E+00  0.0000E+00
    -65.855  0.0000E+00  0.0000E+00
    -65.597  0.0000E+00  0.0000E+00
    -65.338  0.0000E+00  0.0000E+00
    -65.080  0.0000E+00  0.0000E+00
    -64.822  0.0000E+00  0.0000E+00
    -64.564  0.0000E+00  0.0000E+00
    -64.306  0.0000E+00  0.0000E+00
    -64.048  0.0000E+00  0.0000E+00
    -63.790  0.0000E+00  0.0000E+00
    -63.531  0.4063E-09  0.1049E-09
    -63.273  0.2817E-04  0.7271E-05
    -63.015  0.9043E-01  0.2335E-01
    -62.757  0.1571E+02  0.4079E+01
    -62.499  0.2004E+03  0.5582E+02
    -62.241  0.3223E+03  0.1390E+03
    -61.983  0.1431E+03  0.1759E+03
    -61.724  0.7266E+02  0.1947E+03
    -61.466  0.6058E+02  0.2103E+03
    -61.208  0.5999E+02  0.2258E+03
    -60.950  0.2958E+02  0.2335E+03
    -60.692  0.2072E+01  0.2340E+03
    -60.434  0.9362E-02  0.2340E+03
    -60.176  0.1979E-05  0.2340E+03
    -59.917  0.1728E-10  0.2340E+03
    -59.659  0.0000E+00  0.2340E+03
    -59.401  0.0000E+00  0.2340E+03
    -59.143  0.0000E+00  0.2340E+03
    -58.885  0.0000E+00  0.2340E+03
    -58.627  0.0000E+00  0.2340E+03
    -58.369  0.0000E+00  0.2340E+03
    -58.110  0.0000E+00  0.2340E+03
    -57.852  0.0000E+00  0.2340E+03
    -57.594  0.0000E+00  0.2340E+03
    -57.336  0.0000E+00  0.2340E+03
    -57.078  0.0000E+00  0.2340E+03
    -56.820  0.0000E+00  0.2340E+03
    -56.562  0.0000E+00  0.2340E+03
    -56.303  0.0000E+00  0.2340E+03
    -56.045  0.0000E+00  0.2340E+03
    -55.787  0.0000E+00  0.2340E+03
    -55.529  0.0000E+00  0.2340E+03
    -55.271  0.0000E+00  0.2340E+03
    -55.013  0.0000E+00  0.2340E+03
    -54.755  0.0000E+00  0.2340E+03
    -54.496  0.0000E+00  0.2340E+03
    -54.238  0.0000E+00  0.2340E+03
    -53.980  0.0000E+00  0.2340E+03
    -53.722  0.0000E+00  0.2340E+03
    -53.464  0.0000E+00  0.2340E+03
    -53.206  0.0000E+00  0.2340E+03
    -52.948  0.0000E+00  0.2340E+03
    -52.689  0.0000E+00  0.2340E+03
    -52.431  0.0000E+00  0.2340E+03
    -52.173  0.0000E+00  0.2340E+03
    -51.915  0.0000E+00  0.2340E+03
    -51.657  0.0000E+00  0.2340E+03
    -51.399  0.0000E+00  0.2340E+03
    -51.141  0.0000E+00  0.2340E+03
    -50.882  0.0000E+00  0.2340E+03
    -50.624  0.0000E+00  0.2340E+03
    -50.366  0.0000E+00  0.2340E+03
    -50.108  0.0000E+00  0.2340E+03
    -49.850  0.0000E+00  0.2340E+03
    -49.592  0.0000E+00  0.2340E+03
    -49.334  0.0000E+00  0.2340E+03
    -49.075  0.0000E+00  0.2340E+03
    -48.817  0.0000E+00  0.2340E+03
    -48.559  0.0000E+00  0.2340E+03
    -48.301  0.0000E+00  0.2340E+03
    -48.043  0.0000E+00  0.2340E+03
    -47.785  0.0000E+00  0.2340E+03
    -47.527  0.0000E+00  0.2340E+03
    -47.268  0.0000E+00  0.2340E+03
    -47.010  0.0000E+00  0.2340E+03
    -46.752  0.0000E+00  0.2340E+03
    -46.494  0.0000E+00  0.2340E+03
    -46.236  0.0000E+00  0.2340E+03
    -45.978  0.0000E+00  0.2340E+03
    -45.720  0.0000E+00  0.2340E+03
    -45.461  0.0000E+00  0.2340E+03
    -45.203  0.0000E+00  0.2340E+03
    -44.945  0.0000E+00  0.2340E+03
    -44.687  0.0000E+00  0.2340E+03
    -44.429  0.0000E+00  0.2340E+03
    -44.171  0.0000E+00  0.2340E+03
    -43.913  0.0000E+00  0.2340E+03
    -43.654  0.0000E+00  0.2340E+03
    -43.396  0.0000E+00  0.2340E+03
    -43.138  0.0000E+00  0.2340E+03
    -42.880  0.0000E+00  0.2340E+03
    -42.622  0.0000E+00  0.2340E+03
    -42.364  0.0000E+00  0.2340E+03
    -42.106  0.0000E+00  0.2340E+03
    -41.847  0.0000E+00  0.2340E+03
    -41.589  0.0000E+00  0.2340E+03
    -41.331  0.0000E+00  0.2340E+03
    -41.073  0.0000E+00  0.2340E+03
    -40.815  0.0000E+00  0.2340E+03
    -40.557  0.0000E+00  0.2340E+03
    -40.299  0.0000E+00  0.2340E+03
    -40.040  0.0000E+00  0.2340E+03
    -39.782  0.0000E+00  0.2340E+03
    -39.524  0.0000E+00  0.2340E+03
    -39.266  0.0000E+00  0.2340E+03
    -39.008  0.0000E+00  0.2340E+03
    -38.750  0.0000E+00  0.2340E+03
    -38.492  0.0000E+00  0.2340E+03
    -38.233  0.0000E+00  0.2340E+03
    -37.975  0.0000E+00  0.2340E+03
    -37.717  0.0000E+00  0.2340E+03
    -37.459  0.0000E+00  0.2340E+03
    -37.201  0.0000E+00  0.2340E+03
    -36.943  0.0000E+00  0.2340E+03
    -36.685  0.0000E+00  0.2340E+03
    -36.426  0.0000E+00  0.2340E+03
    -36.168  0.0000E+00  0.2340E+03
    -35.910  0.0000E+00  0.2340E+03
    -35.652  0.0000E+00  0.2340E+03
    -35.394  0.0000E+00  0.2340E+03
    -35.136  0.0000E+00  0.2340E+03
    -34.878  0.0000E+00  0.2340E+03
    -34.619  0.0000E+00  0.2340E+03
    -34.361  0.0000E+00  0.2340E+03
    -34.103  0.0000E+00  0.2340E+03
    -33.845  0.0000E+00  0.2340E+03
    -33.587  0.0000E+00  0.2340E+03
    -33.329  0.0000E+00  0.2340E+03
    -33.071  0.0000E+00  0.2340E+03
    -32.812  0.0000E+00  0.2340E+03
    -32.554  0.0000E+00  0.2340E+03
    -32.296  0.0000E+00  0.2340E+03
    -32.038  0.0000E+00  0.2340E+03
    -31.780  0.0000E+00  0.2340E+03
    -31.522  0.0000E+00  0.2340E+03
    -31.263  0.0000E+00  0.2340E+03
    -31.005  0.0000E+00  0.2340E+03
    -30.747  0.0000E+00  0.2340E+03
    -30.489  0.0000E+00  0.2340E+03
    -30.231  0.0000E+00  0.2340E+03
    -29.973  0.0000E+00  0.2340E+03
    -29.715  0.0000E+00  0.2340E+03
    -29.456  0.0000E+00  0.2340E+03
    -29.198  0.0000E+00  0.2340E+03
    -28.940  0.0000E+00  0.2340E+03
    -28.682  0.0000E+00  0.2340E+03
    -28.424  0.0000E+00  0.2340E+03
    -28.166  0.0000E+00  0.2340E+03
    -27.908  0.0000E+00  0.2340E+03
    -27.649  0.0000E+00  0.2340E+03
    -27.391  0.0000E+00  0.2340E+03
    -27.133  0.0000E+00  0.2340E+03
    -26.875  0.0000E+00  0.2340E+03
    -26.617  0.0000E+00  0.2340E+03
    -26.359  0.0000E+00  0.2340E+03
    -26.101  0.0000E+00  0.2340E+03
    -25.842  0.0000E+00  0.2340E+03
    -25.584  0.0000E+00  0.2340E+03
    -25.326  0.0000E+00  0.2340E+03
    -25.068  0.0000E+00  0.2340E+03
    -24.810  0.0000E+00  0.2340E+03
    -24.552  0.0000E+00  0.2340E+03
    -24.294  0.0000E+00  0.2340E+03
    -24.035  0.0000E+00  0.2340E+03
    -23.777  0.0000E+00  0.2340E+03
    -23.519  0.0000E+00  0.2340E+03
    -23.261  0.0000E+00  0.2340E+03
    -23.003  0.0000E+00  0.2340E+03
    -22.745  0.0000E+00  0.2340E+03
    -22.487  0.0000E+00  0.2340E+03
    -22.228  0.0000E+00  0.2340E+03
    -21.970  0.0000E+00  0.2340E+03
    -21.712  0.0000E+00  0.2340E+03
    -21.454  0.0000E+00  0.2340E+03
    -21.196  0.0000E+00  0.2340E+03
    -20.938  0.0000E+00  0.2340E+03
    -20.680  0.0000E+00  0.2340E+03
    -20.421  0.0000E+00  0.2340E+03
    -20.163  0.0000E+00  0.2340E+03
    -19.905  0.0000E+00  0.2340E+03
    -19.647  0.0000E+00  0.2340E+03
    -19.389  0.0000E+00  0.2340E+03
    -19.131  0.0000E+00  0.2340E+03
    -18.873  0.0000E+00  0.2340E+03
    -18.614  0.0000E+00  0.2340E+03
    -18.356  0.0000E+00  0.2340E+03
    -18.098  0.0000E+00  0.2340E+03
    -17.840  0.0000E+00  0.2340E+03
    -17.582  0.0000E+00  0.2340E+03
    -17.324  0.0000E+00  0.2340E+03
    -17.066  0.0000E+00  0.2340E+03
    -16.807  0.0000E+00  0.2340E+03
    -16.549  0.0000E+00  0.2340E+03
    -16.291  0.0000E+00  0.2340E+03
    -16.033  0.0000E+00  0.2340E+03
    -15.775  0.0000E+00  0.2340E+03
    -15.517  0.0000E+00  0.2340E+03
    -15.259  0.0000E+00  0.2340E+03
    -15.000  0.8602E-14  0.2340E+03
    -14.742  0.4076E-08  0.2340E+03
    -14.484  0.7373E-04  0.2340E+03
    -14.226  0.5518E-01  0.2340E+03
    -13.968  0.2005E+01  0.2345E+03
    -13.710  0.4804E+01  0.2358E+03
    -13.452  0.1783E+01  0.2362E+03
    -13.193  0.8905E+01  0.2385E+03
    -12.935  0.1857E+02  0.2433E+03
    -12.677  0.2207E+02  0.2490E+03
    -12.419  0.3058E+02  0.2569E+03
    -12.161  0.2959E+02  0.2646E+03
    -11.903  0.4019E+02  0.2749E+03
    -11.645  0.3592E+02  0.2842E+03
    -11.386  0.3231E+02  0.2925E+03
    -11.128  0.2421E+02  0.2988E+03
    -10.870  0.1719E+02  0.3032E+03
    -10.612  0.1789E+02  0.3078E+03
    -10.354  0.7904E+01  0.3099E+03
    -10.096  0.4358E+00  0.3100E+03
     -9.838  0.4544E+00  0.3101E+03
     -9.579  0.4214E+01  0.3112E+03
     -9.321  0.2935E+01  0.3120E+03
     -9.063  0.1430E+00  0.3120E+03
     -8.805  0.3560E-03  0.3120E+03
     -8.547  0.3748E-07  0.3120E+03
     -8.289  0.1540E-12  0.3120E+03
     -8.031  0.0000E+00  0.3120E+03
     -7.772  0.0000E+00  0.3120E+03
     -7.514  0.0000E+00  0.3120E+03
     -7.256  0.0000E+00  0.3120E+03
     -6.998  0.8602E-15  0.3120E+03
     -6.740  0.7189E-09  0.3120E+03
     -6.482  0.2133E-04  0.3120E+03
     -6.224  0.2677E-01  0.3120E+03
     -5.965  0.1759E+01  0.3125E+03
     -5.707  0.8941E+01  0.3148E+03
     -5.449  0.8083E+01  0.3169E+03
     -5.191  0.1982E+02  0.3220E+03
     -4.933  0.3527E+02  0.3311E+03
     -4.675  0.4903E+02  0.3437E+03
     -4.417  0.5114E+02  0.3569E+03
     -4.158  0.4230E+02  0.3679E+03
     -3.900  0.4356E+02  0.3791E+03
     -3.642  0.4196E+02  0.3899E+03
     -3.384  0.4512E+02  0.4016E+03
     -3.126  0.5454E+02  0.4157E+03
     -2.868  0.6442E+02  0.4323E+03
     -2.610  0.7647E+02  0.4520E+03
     -2.351  0.8194E+02  0.4732E+03
     -2.093  0.7431E+02  0.4924E+03
     -1.835  0.6351E+02  0.5088E+03
     -1.577  0.4994E+02  0.5217E+03
     -1.319  0.5201E+02  0.5351E+03
     -1.061  0.5998E+02  0.5506E+03
     -0.803  0.7608E+02  0.5702E+03
     -0.544  0.1074E+03  0.5979E+03
     -0.286  0.1387E+03  0.6337E+03
     -0.028  0.1858E+03  0.6817E+03
      0.230  0.1775E+03  0.7275E+03
      0.488  0.1303E+03  0.7611E+03
      0.746  0.1110E+03  0.7898E+03
      1.004  0.1106E+03  0.8183E+03
      1.263  0.7945E+02  0.8388E+03
      1.521  0.5938E+02  0.8542E+03
      1.779  0.6062E+02  0.8698E+03
      2.037  0.6878E+02  0.8876E+03
      2.295  0.6914E+02  0.9054E+03
      2.553  0.5905E+02  0.9207E+03
      2.812  0.4717E+02  0.9328E+03
      3.070  0.2338E+02  0.9389E+03
      3.328  0.4261E+01  0.9400E+03
      3.586  0.2559E+01  0.9406E+03
      3.844  0.1126E+02  0.9435E+03
      4.102  0.8708E+01  0.9458E+03
      4.360  0.8727E+00  0.9460E+03
      4.619  0.3197E+01  0.9468E+03
      4.877  0.1405E+02  0.9505E+03
      5.135  0.1725E+02  0.9549E+03
      5.393  0.1475E+02  0.9587E+03
      5.651  0.1875E+02  0.9636E+03
      5.909  0.2445E+02  0.9699E+03
      6.167  0.3813E+02  0.9797E+03
      6.426  0.2967E+02  0.9874E+03
      6.684  0.2352E+02  0.9935E+03
      6.942  0.3258E+02  0.1002E+04
      7.200  0.3958E+02  0.1012E+04
      7.458  0.4249E+02  0.1023E+04
      7.716  0.4319E+02  0.1034E+04
      7.974  0.2068E+02  0.1040E+04
      8.233  0.1784E+01  0.1040E+04
      8.491  0.1446E-01  0.1040E+04
      8.749  0.6581E-05  0.1040E+04
      9.007  0.1313E-09  0.1040E+04
      9.265  0.0000E+00  0.1040E+04
      9.523  0.0000E+00  0.1040E+04
      9.781  0.0000E+00  0.1040E+04
     10.040  0.0000E+00  0.1040E+04
     10.298  0.0000E+00  0.1040E+04
     10.556  0.0000E+00  0.1040E+04
     10.814  0.0000E+00  0.1040E+04
     11.072  0.0000E+00  0.1040E+04
     11.330  0.0000E+00  0.1040E+04
