LAMMPS data file via write_data, version 5 Jun 2019, timestep = 26

74 atoms
2 atom types

0.0000000000000000e+00 1.1452783670500001e+01 xlo xhi
0.0000000000000000e+00 8.7007307979000004e+00 ylo yhi
0.0000000000000000e+00 2.0642891374400001e+01 zlo zhi
-4.0053990701000002e+00 0.0000000000000000e+00 0.0000000000000000e+00 xy xz yz

Masses

1 58.71
2 32.06

Atoms # atomic

1 1 6.3498294781999993e+00 6.4711805379999998e-01 7.3054051847999997e+00 0 0 0
2 1 8.0708222516999975e+00 1.4393805677000000e+00 4.8022905359000001e+00 0 0 0
3 1 9.7374064722744471e+00 2.1903116270230312e+00 2.5809465982050939e+00 0 0 0
4 1 7.7061159944094959e-01 8.6700681472393679e+00 9.4121713512773511e+00 0 0 0
5 1 -2.8082971716999983e+00 6.9757802645000000e+00 5.6366620856000011e+00 0 0 0
6 1 -1.0873044056999994e+00 7.7680427697000001e+00 3.1335474366999998e+00 0 0 0
7 1 5.8635564277154861e-01 8.6090470558032877e+00 1.5158706586134361e+00 0 0 0
8 1 5.3874060081424391e+00 5.5439957864739293e+00 9.9050932694699814e+00 0 0 0
9 1 6.9234937368000002e+00 6.1835177507000001e+00 8.1397767343999998e+00 0 0 0
10 1 1.8361306526207841e-01 2.8258995889707665e+00 8.6644556609221652e+00 0 0 0
11 1 1.7707661570000006e+00 3.8114491634999998e+00 6.4710336352000004e+00 0 0 0
12 1 3.4917589229999995e+00 4.6037116686999999e+00 3.9679189863000004e+00 0 0 0
13 1 5.2166216763748166e+00 5.3925870772443565e+00 1.7557496847384726e+00 0 0 0
14 1 2.5123357812000005e+00 2.7349656189999999e-01 8.4858440120999994e+00 0 0 0
15 1 4.2333285431999998e+00 1.0657590758000000e+00 5.9827293631999998e+00 0 0 0
16 1 5.9543213205999992e+00 1.8580215810000000e+00 3.4796147143999998e+00 0 0 0
17 1 7.5072221555268541e+00 2.5782305886110515e+00 1.3078228773553013e+00 0 0 0
18 1 -3.2038053407999980e+00 8.1866837917000002e+00 1.8108716151000002e+00 0 0 0
19 1 4.8069928017000008e+00 6.6021587725999993e+00 6.8171009128000009e+00 0 0 0
20 1 6.5279855677000009e+00 7.3944212777999976e+00 4.3139862640000004e+00 0 0 0
21 1 -3.4573477409999864e-01 4.2300901768000001e+00 5.1483578135999997e+00 0 0 0
22 1 1.3752579879000002e+00 5.0223526907000000e+00 2.6452431647000001e+00 0 0 0
23 1 3.0536869678834204e+00 5.7523299834422632e+00 6.1099042706219575e-01 0 0 0
24 1 7.6245914502193903e+00 2.6270548003940335e+00 8.8259420445631367e+00 0 0 0
25 1 9.3860561304000001e+00 3.4378276715999996e+00 7.6514724624000001e+00 0 0 0
26 1 3.7532700052957688e+00 2.1910316882472531e+00 9.4121572043166175e+00 0 0 0
27 1 5.2915790115000014e+00 2.9459033349999997e+00 7.3054051847999997e+00 0 0 0
28 1 7.0125717848999995e+00 3.7381658488000000e+00 4.8022905359000001e+00 0 0 0
29 1 8.6513069125857829e+00 4.5097240535425183e+00 2.5862847559468021e+00 0 0 0
30 1 1.3885143170000011e-01 5.7383474779999988e-01 5.6366620856000011e+00 0 0 0
31 1 1.8598441977000000e+00 1.3660972530000000e+00 3.1335474366999998e+00 0 0 0
32 1 4.3805336264398234e+00 7.7311891567335707e+00 9.9051018649636813e+00 0 0 0
33 1 5.8652432700999997e+00 8.4823030318000008e+00 8.1397767343999998e+00 0 0 0
34 1 -1.0682451400641497e+00 5.5452712102288935e+00 8.6644765767893741e+00 0 0 0
35 1 7.1251569030000206e-01 6.1102344446999997e+00 6.4710336352000004e+00 0 0 0
36 1 2.4335084561999998e+00 6.9024969498999997e+00 3.9679189863000004e+00 0 0 0
37 1 4.1105324355196569e+00 7.6885507141354203e+00 1.7496996118240991e+00 0 0 0
38 2 1.7190785255992196e+00 1.7934164055764286e+00 9.6429952259343423e+00 0 0 0
39 2 3.1253583171000012e+00 2.3294667204000001e+00 7.4938413208999997e+00 0 0 0
40 2 4.8463510790999997e+00 3.1217292343000000e+00 4.9907266721000001e+00 0 0 0
41 2 6.5673438450999990e+00 3.9139917394000001e+00 2.4876120232000001e+00 0 0 0
42 2 -3.0637649669999978e-01 7.4966063839999997e-01 3.3219835727999998e+00 0 0 0
43 2 1.2625726849211136e+00 1.3536510534105506e+00 1.2115091518024936e+00 0 0 0
44 2 3.7794342390415316e+00 7.9874455324203586e+00 8.0072887943240385e+00 0 0 0
45 2 5.4200153376000006e+00 8.6581289311000003e+00 5.8250982217000002e+00 0 0 0
46 2 -1.4537050115999985e+00 5.4937978214000003e+00 6.6594697713000004e+00 0 0 0
47 2 2.6728775040000230e-01 6.2860603352999975e+00 4.1563551223999999e+00 0 0 0
48 2 1.9882805278000000e+00 7.0783228405000003e+00 1.6532404735999999e+00 0 0 0
49 2 8.3435223071801712e+00 4.7158963276436525e+00 8.9033551494164129e+00 0 0 0
50 2 -7.5163631945391562e-01 4.0496324750118635e+00 2.1820420821817299e+00 0 0 0
51 2 5.8204311374000000e+00 1.7963849688000000e+00 9.1780870457999999e+00 0 0 0
52 2 7.5414238993999989e+00 2.5886474826999999e+00 6.6749723969000003e+00 0 0 0
53 2 9.2624166654000000e+00 3.3809099879000000e+00 4.1718577480999999e+00 0 0 0
54 2 2.3886963236000001e+00 2.1657888680000001e-01 5.0062292977000000e+00 0 0 0
55 2 3.9527400993920119e+00 1.0045654878307904e+00 3.1358693866266463e+00 0 0 0
56 2 5.6706919654448864e+00 1.6317219655749007e+00 1.2576311484291849e+00 0 0 0
57 2 -3.3376955084999982e+00 8.1250471709000003e+00 7.5093439464999996e+00 0 0 0
58 2 6.3584202939995862e+00 7.3163583499829068e+00 9.8236211398005189e+00 0 0 0
59 2 8.2714099169897859e-01 4.7699766912307826e+00 8.0939208044986941e+00 0 0 0
60 2 2.9623605707000005e+00 5.7529785837000000e+00 5.8406008473000002e+00 0 0 0
61 2 4.6833533366999998e+00 6.5452410889000001e+00 3.3374861985000002e+00 0 0 0
62 2 6.1894398639818631e+00 7.2591680125823217e+00 1.3854810470258192e+00 0 0 0
63 2 6.1938874881999997e+00 1.9454237189999998e-01 4.9907266721000001e+00 0 0 0
64 2 7.9148802541999990e+00 9.8680487709999998e-01 2.4876120232000001e+00 0 0 0
65 2 -8.5420303597587921e-01 7.3831993682441022e+00 9.6429654305421053e+00 0 0 0
66 2 4.6749565610000132e-01 8.1030106559000004e+00 7.4938413208999997e+00 0 0 0
67 2 -2.9642391576999980e+00 6.5232045740000002e+00 3.3219835727999998e+00 0 0 0
68 2 -1.2778105837402511e+00 7.8057742569443134e+00 1.1136474506078058e+00 0 0 0
69 2 5.1912051708319833e+00 4.9207021782419167e+00 8.0072826038284983e+00 0 0 0
70 2 6.7675517467999988e+00 5.7309420688000001e+00 5.8250982217000002e+00 0 0 0
71 2 -1.0616860239999994e-01 2.5666109591000001e+00 6.6594697713000004e+00 0 0 0
72 2 1.6148241596000008e+00 3.3588734729999992e+00 4.1563551223999999e+00 0 0 0
73 2 3.2889594923919829e+00 4.3026053137943725e+00 1.9536816025846668e+00 0 0 0
74 2 9.6790290107989421e+00 1.8147276430262127e+00 8.9033400720318152e+00 0 0 0

Velocities

1 0.0000000000000000e+00 0.0000000000000000e+00 0.0000000000000000e+00
2 0.0000000000000000e+00 0.0000000000000000e+00 0.0000000000000000e+00
3 0.0000000000000000e+00 0.0000000000000000e+00 0.0000000000000000e+00
4 0.0000000000000000e+00 0.0000000000000000e+00 0.0000000000000000e+00
5 0.0000000000000000e+00 0.0000000000000000e+00 0.0000000000000000e+00
6 0.0000000000000000e+00 0.0000000000000000e+00 0.0000000000000000e+00
7 0.0000000000000000e+00 0.0000000000000000e+00 0.0000000000000000e+00
8 0.0000000000000000e+00 0.0000000000000000e+00 0.0000000000000000e+00
9 0.0000000000000000e+00 0.0000000000000000e+00 0.0000000000000000e+00
10 0.0000000000000000e+00 0.0000000000000000e+00 0.0000000000000000e+00
11 0.0000000000000000e+00 0.0000000000000000e+00 0.0000000000000000e+00
12 0.0000000000000000e+00 0.0000000000000000e+00 0.0000000000000000e+00
13 0.0000000000000000e+00 0.0000000000000000e+00 0.0000000000000000e+00
14 0.0000000000000000e+00 0.0000000000000000e+00 0.0000000000000000e+00
15 0.0000000000000000e+00 0.0000000000000000e+00 0.0000000000000000e+00
16 0.0000000000000000e+00 0.0000000000000000e+00 0.0000000000000000e+00
17 0.0000000000000000e+00 0.0000000000000000e+00 0.0000000000000000e+00
18 0.0000000000000000e+00 0.0000000000000000e+00 0.0000000000000000e+00
19 0.0000000000000000e+00 0.0000000000000000e+00 0.0000000000000000e+00
20 0.0000000000000000e+00 0.0000000000000000e+00 0.0000000000000000e+00
21 0.0000000000000000e+00 0.0000000000000000e+00 0.0000000000000000e+00
22 0.0000000000000000e+00 0.0000000000000000e+00 0.0000000000000000e+00
23 0.0000000000000000e+00 0.0000000000000000e+00 0.0000000000000000e+00
24 0.0000000000000000e+00 0.0000000000000000e+00 0.0000000000000000e+00
25 0.0000000000000000e+00 0.0000000000000000e+00 0.0000000000000000e+00
26 0.0000000000000000e+00 0.0000000000000000e+00 0.0000000000000000e+00
27 0.0000000000000000e+00 0.0000000000000000e+00 0.0000000000000000e+00
28 0.0000000000000000e+00 0.0000000000000000e+00 0.0000000000000000e+00
29 0.0000000000000000e+00 0.0000000000000000e+00 0.0000000000000000e+00
30 0.0000000000000000e+00 0.0000000000000000e+00 0.0000000000000000e+00
31 0.0000000000000000e+00 0.0000000000000000e+00 0.0000000000000000e+00
32 0.0000000000000000e+00 0.0000000000000000e+00 0.0000000000000000e+00
33 0.0000000000000000e+00 0.0000000000000000e+00 0.0000000000000000e+00
34 0.0000000000000000e+00 0.0000000000000000e+00 0.0000000000000000e+00
35 0.0000000000000000e+00 0.0000000000000000e+00 0.0000000000000000e+00
36 0.0000000000000000e+00 0.0000000000000000e+00 0.0000000000000000e+00
37 0.0000000000000000e+00 0.0000000000000000e+00 0.0000000000000000e+00
38 0.0000000000000000e+00 0.0000000000000000e+00 0.0000000000000000e+00
39 0.0000000000000000e+00 0.0000000000000000e+00 0.0000000000000000e+00
40 0.0000000000000000e+00 0.0000000000000000e+00 0.0000000000000000e+00
41 0.0000000000000000e+00 0.0000000000000000e+00 0.0000000000000000e+00
42 0.0000000000000000e+00 0.0000000000000000e+00 0.0000000000000000e+00
43 0.0000000000000000e+00 0.0000000000000000e+00 0.0000000000000000e+00
44 0.0000000000000000e+00 0.0000000000000000e+00 0.0000000000000000e+00
45 0.0000000000000000e+00 0.0000000000000000e+00 0.0000000000000000e+00
46 0.0000000000000000e+00 0.0000000000000000e+00 0.0000000000000000e+00
47 0.0000000000000000e+00 0.0000000000000000e+00 0.0000000000000000e+00
48 0.0000000000000000e+00 0.0000000000000000e+00 0.0000000000000000e+00
49 0.0000000000000000e+00 0.0000000000000000e+00 0.0000000000000000e+00
50 0.0000000000000000e+00 0.0000000000000000e+00 0.0000000000000000e+00
51 0.0000000000000000e+00 0.0000000000000000e+00 0.0000000000000000e+00
52 0.0000000000000000e+00 0.0000000000000000e+00 0.0000000000000000e+00
53 0.0000000000000000e+00 0.0000000000000000e+00 0.0000000000000000e+00
54 0.0000000000000000e+00 0.0000000000000000e+00 0.0000000000000000e+00
55 0.0000000000000000e+00 0.0000000000000000e+00 0.0000000000000000e+00
56 0.0000000000000000e+00 0.0000000000000000e+00 0.0000000000000000e+00
57 0.0000000000000000e+00 0.0000000000000000e+00 0.0000000000000000e+00
58 0.0000000000000000e+00 0.0000000000000000e+00 0.0000000000000000e+00
59 0.0000000000000000e+00 0.0000000000000000e+00 0.0000000000000000e+00
60 0.0000000000000000e+00 0.0000000000000000e+00 0.0000000000000000e+00
61 0.0000000000000000e+00 0.0000000000000000e+00 0.0000000000000000e+00
62 0.0000000000000000e+00 0.0000000000000000e+00 0.0000000000000000e+00
63 0.0000000000000000e+00 0.0000000000000000e+00 0.0000000000000000e+00
64 0.0000000000000000e+00 0.0000000000000000e+00 0.0000000000000000e+00
65 0.0000000000000000e+00 0.0000000000000000e+00 0.0000000000000000e+00
66 0.0000000000000000e+00 0.0000000000000000e+00 0.0000000000000000e+00
67 0.0000000000000000e+00 0.0000000000000000e+00 0.0000000000000000e+00
68 0.0000000000000000e+00 0.0000000000000000e+00 0.0000000000000000e+00
69 0.0000000000000000e+00 0.0000000000000000e+00 0.0000000000000000e+00
70 0.0000000000000000e+00 0.0000000000000000e+00 0.0000000000000000e+00
71 0.0000000000000000e+00 0.0000000000000000e+00 0.0000000000000000e+00
72 0.0000000000000000e+00 0.0000000000000000e+00 0.0000000000000000e+00
73 0.0000000000000000e+00 0.0000000000000000e+00 0.0000000000000000e+00
74 0.0000000000000000e+00 0.0000000000000000e+00 0.0000000000000000e+00
