LAMMPS (5 Jun 2019)
OMP_NUM_THREADS environment is not set. Defaulting to 1 thread. (../comm.cpp:88)
  using 1 OpenMP thread(s) per MPI task
Reading data file ...
  triclinic box = (0 0 0) to (16.8847 9.57841 16.1691) with tilt (0 0 0)
  1 by 1 by 1 MPI processor grid
  reading atoms ...
  72 atoms
  read_data CPU = 0.000803016 secs
34 atoms in group bulk
WARNING: Using 'neigh_modify every 1 delay 0 check yes' setting during minimization (../min.cpp:168)
Neighbor list info ...
  update every 1 steps, delay 0 steps, check yes
  max neighbors/atom: 2000, page size: 100000
  master list distance cutoff = 8.5
  ghost atom cutoff = 8.5
  binsize = 4.25, bins = 4 3 4
  1 neighbor lists, perpetual/occasional/extra = 1 0 0
  (1) pair eam/alloy, perpetual
      attributes: half, newton on
      pair build: half/bin/newton/tri
      stencil: half/bin/3d/newton/tri
      bin: standard
Setting up cg style minimization ...
  Unit style    : metal
  Current step  : 0
Per MPI rank memory allocation (min/avg/max) = 4.106 | 4.106 | 4.106 Mbytes
Step Temp E_pair E_mol TotEng Press 
       0            0   -296.86601            0   -296.86601   -101640.85 
      31            0   -323.63046            0   -323.63046   -15228.746 
Loop time of 0.0171866 on 1 procs for 31 steps with 72 atoms

99.8% CPU use with 1 MPI tasks x 1 OpenMP threads

Minimization stats:
  Stopping criterion = energy tolerance
  Energy initial, next-to-last, final = 
        -296.866011534     -323.627877436      -323.63046052
  Force two-norm initial, final = 14.0109 0.18482
  Force max component initial, final = 2.84072 0.0659331
  Final line search alpha, max atom move = 0.761877 0.0502329
  Iterations, force evaluations = 31 46

MPI task timing breakdown:
Section |  min time  |  avg time  |  max time  |%varavg| %total
---------------------------------------------------------------
Pair    | 0.015875   | 0.015875   | 0.015875   |   0.0 | 92.37
Neigh   | 0.00048232 | 0.00048232 | 0.00048232 |   0.0 |  2.81
Comm    | 0.00036271 | 0.00036271 | 0.00036271 |   0.0 |  2.11
Output  | 0          | 0          | 0          |   0.0 |  0.00
Modify  | 3.7264e-05 | 3.7264e-05 | 3.7264e-05 |   0.0 |  0.22
Other   |            | 0.0004289  |            |       |  2.50

Nlocal:    72 ave 72 max 72 min
Histogram: 1 0 0 0 0 0 0 0 0 0
Nghost:    744 ave 744 max 744 min
Histogram: 1 0 0 0 0 0 0 0 0 0
Neighs:    3338 ave 3338 max 3338 min
Histogram: 1 0 0 0 0 0 0 0 0 0

Total # of neighbors = 3338
Ave neighs/atom = 46.3611
Neighbor list builds = 1
Dangerous builds = 0
System init for write_data ...
Total wall time: 0:00:00
