 104 104   0   0
  0.2492376E+02  0.1125646E-08  0.1125646E-08  0.2288365E-08  0.5000000E-15
  1.000000000000000E-004
  CAR 
 "Millerite NiS"                         
     11.86737648    -66.36171777  301      2.12880967      1.00000000
    -66.362  0.0000E+00  0.0000E+00
    -66.101  0.0000E+00  0.0000E+00
    -65.840  0.0000E+00  0.0000E+00
    -65.579  0.0000E+00  0.0000E+00
    -65.319  0.0000E+00  0.0000E+00
    -65.058  0.0000E+00  0.0000E+00
    -64.797  0.0000E+00  0.0000E+00
    -64.536  0.0000E+00  0.0000E+00
    -64.276  0.0000E+00  0.0000E+00
    -64.015  0.0000E+00  0.0000E+00
    -63.754  0.7723E-10  0.2014E-10
    -63.493  0.4477E-05  0.1167E-05
    -63.233  0.9815E-02  0.2561E-02
    -62.972  0.9730E+00  0.2563E+00
    -62.711  0.1050E+02  0.2995E+01
    -62.450  0.6362E+02  0.1958E+02
    -62.189  0.2255E+03  0.7838E+02
    -61.929  0.3248E+03  0.1631E+03
    -61.668  0.2791E+03  0.2358E+03
    -61.407  0.1320E+03  0.2703E+03
    -61.146  0.6250E+02  0.2866E+03
    -60.886  0.5796E+02  0.3017E+03
    -60.625  0.3623E+02  0.3111E+03
    -60.364  0.3309E+01  0.3120E+03
    -60.103  0.1880E-01  0.3120E+03
    -59.843  0.4844E-05  0.3120E+03
    -59.582  0.4900E-10  0.3120E+03
    -59.321  0.0000E+00  0.3120E+03
    -59.060  0.0000E+00  0.3120E+03
    -58.800  0.0000E+00  0.3120E+03
    -58.539  0.0000E+00  0.3120E+03
    -58.278  0.0000E+00  0.3120E+03
    -58.017  0.0000E+00  0.3120E+03
    -57.757  0.0000E+00  0.3120E+03
    -57.496  0.0000E+00  0.3120E+03
    -57.235  0.0000E+00  0.3120E+03
    -56.974  0.0000E+00  0.3120E+03
    -56.713  0.0000E+00  0.3120E+03
    -56.453  0.0000E+00  0.3120E+03
    -56.192  0.0000E+00  0.3120E+03
    -55.931  0.0000E+00  0.3120E+03
    -55.670  0.0000E+00  0.3120E+03
    -55.410  0.0000E+00  0.3120E+03
    -55.149  0.0000E+00  0.3120E+03
    -54.888  0.0000E+00  0.3120E+03
    -54.627  0.0000E+00  0.3120E+03
    -54.367  0.0000E+00  0.3120E+03
    -54.106  0.0000E+00  0.3120E+03
    -53.845  0.0000E+00  0.3120E+03
    -53.584  0.0000E+00  0.3120E+03
    -53.324  0.0000E+00  0.3120E+03
    -53.063  0.0000E+00  0.3120E+03
    -52.802  0.0000E+00  0.3120E+03
    -52.541  0.0000E+00  0.3120E+03
    -52.280  0.0000E+00  0.3120E+03
    -52.020  0.0000E+00  0.3120E+03
    -51.759  0.0000E+00  0.3120E+03
    -51.498  0.0000E+00  0.3120E+03
    -51.237  0.0000E+00  0.3120E+03
    -50.977  0.0000E+00  0.3120E+03
    -50.716  0.0000E+00  0.3120E+03
    -50.455  0.0000E+00  0.3120E+03
    -50.194  0.0000E+00  0.3120E+03
    -49.934  0.0000E+00  0.3120E+03
    -49.673  0.0000E+00  0.3120E+03
    -49.412  0.0000E+00  0.3120E+03
    -49.151  0.0000E+00  0.3120E+03
    -48.891  0.0000E+00  0.3120E+03
    -48.630  0.0000E+00  0.3120E+03
    -48.369  0.0000E+00  0.3120E+03
    -48.108  0.0000E+00  0.3120E+03
    -47.847  0.0000E+00  0.3120E+03
    -47.587  0.0000E+00  0.3120E+03
    -47.326  0.0000E+00  0.3120E+03
    -47.065  0.0000E+00  0.3120E+03
    -46.804  0.0000E+00  0.3120E+03
    -46.544  0.0000E+00  0.3120E+03
    -46.283  0.0000E+00  0.3120E+03
    -46.022  0.0000E+00  0.3120E+03
    -45.761  0.0000E+00  0.3120E+03
    -45.501  0.0000E+00  0.3120E+03
    -45.240  0.0000E+00  0.3120E+03
    -44.979  0.0000E+00  0.3120E+03
    -44.718  0.0000E+00  0.3120E+03
    -44.458  0.0000E+00  0.3120E+03
    -44.197  0.0000E+00  0.3120E+03
    -43.936  0.0000E+00  0.3120E+03
    -43.675  0.0000E+00  0.3120E+03
    -43.415  0.0000E+00  0.3120E+03
    -43.154  0.0000E+00  0.3120E+03
    -42.893  0.0000E+00  0.3120E+03
    -42.632  0.0000E+00  0.3120E+03
    -42.371  0.0000E+00  0.3120E+03
    -42.111  0.0000E+00  0.3120E+03
    -41.850  0.0000E+00  0.3120E+03
    -41.589  0.0000E+00  0.3120E+03
    -41.328  0.0000E+00  0.3120E+03
    -41.068  0.0000E+00  0.3120E+03
    -40.807  0.0000E+00  0.3120E+03
    -40.546  0.0000E+00  0.3120E+03
    -40.285  0.0000E+00  0.3120E+03
    -40.025  0.0000E+00  0.3120E+03
    -39.764  0.0000E+00  0.3120E+03
    -39.503  0.0000E+00  0.3120E+03
    -39.242  0.0000E+00  0.3120E+03
    -38.982  0.0000E+00  0.3120E+03
    -38.721  0.0000E+00  0.3120E+03
    -38.460  0.0000E+00  0.3120E+03
    -38.199  0.0000E+00  0.3120E+03
    -37.938  0.0000E+00  0.3120E+03
    -37.678  0.0000E+00  0.3120E+03
    -37.417  0.0000E+00  0.3120E+03
    -37.156  0.0000E+00  0.3120E+03
    -36.895  0.0000E+00  0.3120E+03
    -36.635  0.0000E+00  0.3120E+03
    -36.374  0.0000E+00  0.3120E+03
    -36.113  0.0000E+00  0.3120E+03
    -35.852  0.0000E+00  0.3120E+03
    -35.592  0.0000E+00  0.3120E+03
    -35.331  0.0000E+00  0.3120E+03
    -35.070  0.0000E+00  0.3120E+03
    -34.809  0.0000E+00  0.3120E+03
    -34.549  0.0000E+00  0.3120E+03
    -34.288  0.0000E+00  0.3120E+03
    -34.027  0.0000E+00  0.3120E+03
    -33.766  0.0000E+00  0.3120E+03
    -33.505  0.0000E+00  0.3120E+03
    -33.245  0.0000E+00  0.3120E+03
    -32.984  0.0000E+00  0.3120E+03
    -32.723  0.0000E+00  0.3120E+03
    -32.462  0.0000E+00  0.3120E+03
    -32.202  0.0000E+00  0.3120E+03
    -31.941  0.0000E+00  0.3120E+03
    -31.680  0.0000E+00  0.3120E+03
    -31.419  0.0000E+00  0.3120E+03
    -31.159  0.0000E+00  0.3120E+03
    -30.898  0.0000E+00  0.3120E+03
    -30.637  0.0000E+00  0.3120E+03
    -30.376  0.0000E+00  0.3120E+03
    -30.116  0.0000E+00  0.3120E+03
    -29.855  0.0000E+00  0.3120E+03
    -29.594  0.0000E+00  0.3120E+03
    -29.333  0.0000E+00  0.3120E+03
    -29.073  0.0000E+00  0.3120E+03
    -28.812  0.0000E+00  0.3120E+03
    -28.551  0.0000E+00  0.3120E+03
    -28.290  0.0000E+00  0.3120E+03
    -28.029  0.0000E+00  0.3120E+03
    -27.769  0.0000E+00  0.3120E+03
    -27.508  0.0000E+00  0.3120E+03
    -27.247  0.0000E+00  0.3120E+03
    -26.986  0.0000E+00  0.3120E+03
    -26.726  0.0000E+00  0.3120E+03
    -26.465  0.0000E+00  0.3120E+03
    -26.204  0.0000E+00  0.3120E+03
    -25.943  0.0000E+00  0.3120E+03
    -25.683  0.0000E+00  0.3120E+03
    -25.422  0.0000E+00  0.3120E+03
    -25.161  0.0000E+00  0.3120E+03
    -24.900  0.0000E+00  0.3120E+03
    -24.640  0.0000E+00  0.3120E+03
    -24.379  0.0000E+00  0.3120E+03
    -24.118  0.0000E+00  0.3120E+03
    -23.857  0.0000E+00  0.3120E+03
    -23.596  0.0000E+00  0.3120E+03
    -23.336  0.0000E+00  0.3120E+03
    -23.075  0.0000E+00  0.3120E+03
    -22.814  0.0000E+00  0.3120E+03
    -22.553  0.0000E+00  0.3120E+03
    -22.293  0.0000E+00  0.3120E+03
    -22.032  0.0000E+00  0.3120E+03
    -21.771  0.0000E+00  0.3120E+03
    -21.510  0.0000E+00  0.3120E+03
    -21.250  0.0000E+00  0.3120E+03
    -20.989  0.0000E+00  0.3120E+03
    -20.728  0.0000E+00  0.3120E+03
    -20.467  0.0000E+00  0.3120E+03
    -20.207  0.0000E+00  0.3120E+03
    -19.946  0.0000E+00  0.3120E+03
    -19.685  0.0000E+00  0.3120E+03
    -19.424  0.0000E+00  0.3120E+03
    -19.163  0.0000E+00  0.3120E+03
    -18.903  0.0000E+00  0.3120E+03
    -18.642  0.0000E+00  0.3120E+03
    -18.381  0.0000E+00  0.3120E+03
    -18.120  0.0000E+00  0.3120E+03
    -17.860  0.0000E+00  0.3120E+03
    -17.599  0.0000E+00  0.3120E+03
    -17.338  0.0000E+00  0.3120E+03
    -17.077  0.0000E+00  0.3120E+03
    -16.817  0.0000E+00  0.3120E+03
    -16.556  0.0000E+00  0.3120E+03
    -16.295  0.0000E+00  0.3120E+03
    -16.034  0.0000E+00  0.3120E+03
    -15.774  0.0000E+00  0.3120E+03
    -15.513  0.0000E+00  0.3120E+03
    -15.252  0.2670E-11  0.3120E+03
    -14.991  0.3638E-06  0.3120E+03
    -14.731  0.1835E-02  0.3120E+03
    -14.470  0.3787E+00  0.3121E+03
    -14.209  0.4051E+01  0.3132E+03
    -13.948  0.3702E+01  0.3141E+03
    -13.687  0.9211E+01  0.3165E+03
    -13.427  0.1745E+02  0.3211E+03
    -13.166  0.1892E+02  0.3260E+03
    -12.905  0.2103E+02  0.3315E+03
    -12.644  0.2763E+02  0.3387E+03
    -12.384  0.3058E+02  0.3467E+03
    -12.123  0.3747E+02  0.3564E+03
    -11.862  0.4569E+02  0.3684E+03
    -11.601  0.4473E+02  0.3800E+03
    -11.341  0.4650E+02  0.3921E+03
    -11.080  0.4377E+02  0.4036E+03
    -10.819  0.2711E+02  0.4106E+03
    -10.558  0.1445E+02  0.4144E+03
    -10.298  0.5476E+01  0.4158E+03
    -10.037  0.6735E+00  0.4160E+03
     -9.776  0.5319E-02  0.4160E+03
     -9.515  0.1774E-05  0.4160E+03
     -9.254  0.2216E-10  0.4160E+03
     -8.994  0.0000E+00  0.4160E+03
     -8.733  0.0000E+00  0.4160E+03
     -8.472  0.0000E+00  0.4160E+03
     -8.211  0.0000E+00  0.4160E+03
     -7.951  0.0000E+00  0.4160E+03
     -7.690  0.0000E+00  0.4160E+03
     -7.429  0.0000E+00  0.4160E+03
     -7.168  0.0000E+00  0.4160E+03
     -6.908  0.4773E-11  0.4160E+03
     -6.647  0.6284E-06  0.4160E+03
     -6.386  0.3233E-02  0.4160E+03
     -6.125  0.7613E+00  0.4162E+03
     -5.865  0.1185E+02  0.4193E+03
     -5.604  0.2335E+02  0.4254E+03
     -5.343  0.2804E+02  0.4327E+03
     -5.082  0.3610E+02  0.4421E+03
     -4.821  0.4478E+02  0.4538E+03
     -4.561  0.6072E+02  0.4696E+03
     -4.300  0.6754E+02  0.4872E+03
     -4.039  0.6493E+02  0.5042E+03
     -3.778  0.6883E+02  0.5221E+03
     -3.518  0.6930E+02  0.5402E+03
     -3.257  0.6918E+02  0.5582E+03
     -2.996  0.7059E+02  0.5766E+03
     -2.735  0.8254E+02  0.5981E+03
     -2.475  0.9049E+02  0.6217E+03
     -2.214  0.7671E+02  0.6417E+03
     -1.953  0.9098E+02  0.6655E+03
     -1.692  0.9155E+02  0.6893E+03
     -1.432  0.6158E+02  0.7054E+03
     -1.171  0.5829E+02  0.7206E+03
     -0.910  0.7262E+02  0.7395E+03
     -0.649  0.9527E+02  0.7644E+03
     -0.389  0.1250E+03  0.7970E+03
     -0.128  0.1566E+03  0.8378E+03
      0.133  0.1736E+03  0.8831E+03
      0.394  0.1852E+03  0.9314E+03
      0.655  0.1899E+03  0.9809E+03
      0.915  0.1541E+03  0.1021E+04
      1.176  0.1213E+03  0.1053E+04
      1.437  0.1032E+03  0.1080E+04
      1.698  0.9877E+02  0.1105E+04
      1.958  0.9385E+02  0.1130E+04
      2.219  0.7580E+02  0.1150E+04
      2.480  0.4918E+02  0.1162E+04
      2.741  0.6656E+02  0.1180E+04
      3.001  0.7453E+02  0.1199E+04
      3.262  0.7525E+02  0.1219E+04
      3.523  0.5213E+02  0.1232E+04
      3.784  0.3253E+02  0.1241E+04
      4.044  0.2194E+02  0.1247E+04
      4.305  0.1254E+02  0.1250E+04
      4.566  0.1298E+02  0.1253E+04
      4.827  0.1083E+02  0.1256E+04
      5.088  0.1376E+02  0.1260E+04
      5.348  0.2078E+02  0.1265E+04
      5.609  0.1902E+02  0.1270E+04
      5.870  0.1309E+02  0.1273E+04
      6.131  0.2629E+02  0.1280E+04
      6.391  0.2934E+02  0.1288E+04
      6.652  0.3406E+02  0.1297E+04
      6.913  0.3265E+02  0.1305E+04
      7.174  0.2906E+02  0.1313E+04
      7.434  0.4027E+02  0.1323E+04
      7.695  0.4865E+02  0.1336E+04
      7.956  0.5667E+02  0.1351E+04
      8.217  0.5362E+02  0.1365E+04
      8.477  0.2482E+02  0.1371E+04
      8.738  0.2337E+01  0.1372E+04
      8.999  0.1805E-01  0.1372E+04
      9.260  0.6839E-05  0.1372E+04
      9.521  0.1043E-09  0.1372E+04
      9.781  0.0000E+00  0.1372E+04
     10.042  0.0000E+00  0.1372E+04
     10.303  0.0000E+00  0.1372E+04
     10.564  0.0000E+00  0.1372E+04
     10.824  0.0000E+00  0.1372E+04
     11.085  0.0000E+00  0.1372E+04
     11.346  0.0000E+00  0.1372E+04
     11.607  0.0000E+00  0.1372E+04
     11.867  0.0000E+00  0.1372E+04
