       N       E                     dE             d eps       ncg     rms          rms(c)
DAV:   1     0.926240986218E+04    0.92624E+04   -0.50602E+05  1168   0.158E+03
DAV:   2     0.536723379381E+03   -0.87257E+04   -0.84211E+04  1016   0.506E+02
DAV:   3    -0.348506499868E+03   -0.88523E+03   -0.83516E+03  1096   0.169E+02
DAV:   4    -0.403664974198E+03   -0.55158E+02   -0.54550E+02  1088   0.384E+01
DAV:   5    -0.405881301642E+03   -0.22163E+01   -0.22133E+01  1224   0.830E+00    0.824E+01
DAV:   6    -0.499400154702E+03   -0.93519E+02   -0.10144E+03  1136   0.119E+02    0.167E+02
DAV:   7    -0.375044544774E+03    0.12436E+03   -0.18302E+02  1120   0.618E+01    0.662E+01
DAV:   8    -0.419841605477E+03   -0.44797E+02   -0.16719E+02  1376   0.819E+01    0.121E+02
DAV:   9    -0.381858658747E+03    0.37983E+02   -0.12076E+02  1272   0.561E+01    0.657E+01
DAV:  10    -0.359314338169E+03    0.22544E+02   -0.45439E+01  1344   0.413E+01    0.431E+01
DAV:  11    -0.369491723505E+03   -0.10177E+02   -0.58044E+01  1336   0.434E+01    0.594E+01
DAV:  12    -0.359780408637E+03    0.97113E+01   -0.32686E+01  1288   0.275E+01    0.306E+01
DAV:  13    -0.356791281411E+03    0.29891E+01   -0.11811E+01  1240   0.201E+01    0.263E+01
DAV:  14    -0.353797817290E+03    0.29935E+01   -0.56841E+00  1232   0.153E+01    0.113E+01
DAV:  15    -0.353649099134E+03    0.14872E+00   -0.21441E+00  1320   0.791E+00    0.915E+00
DAV:  16    -0.353821026807E+03   -0.17193E+00   -0.14331E+00  1248   0.851E+00    0.996E+00
DAV:  17    -0.353653623460E+03    0.16740E+00   -0.62319E-01  1192   0.502E+00    0.727E+00
DAV:  18    -0.353459191466E+03    0.19443E+00   -0.22797E-01  1328   0.293E+00    0.378E+00
DAV:  19    -0.353414230629E+03    0.44961E-01   -0.98477E-02  1288   0.121E+00    0.206E+00
DAV:  20    -0.353401615441E+03    0.12615E-01   -0.20474E-02  1248   0.511E-01    0.156E+00
DAV:  21    -0.353391186353E+03    0.10429E-01   -0.10806E-02  1256   0.464E-01    0.940E-01
DAV:  22    -0.353388865314E+03    0.23210E-02   -0.79616E-03  1208   0.332E-01    0.292E-01
DAV:  23    -0.353389870942E+03   -0.10056E-02   -0.25309E-03   904   0.194E-01    0.326E-01
DAV:  24    -0.353390214092E+03   -0.34315E-03   -0.42589E-04   816   0.903E-02    0.153E-01
DAV:  25    -0.353392606196E+03   -0.23921E-02   -0.86035E-04  1088   0.106E-01    0.194E-01
DAV:  26    -0.353393394912E+03   -0.78872E-03   -0.34344E-04   864   0.990E-02    0.133E-01
DAV:  27    -0.353393871962E+03   -0.47705E-03   -0.96417E-05   600   0.376E-02    0.751E-02
DAV:  28    -0.353395226041E+03   -0.13541E-02   -0.20703E-04   712   0.369E-02    0.280E-02
DAV:  29    -0.353395727426E+03   -0.50138E-03   -0.58599E-05   624   0.216E-02    0.314E-02
DAV:  30    -0.353395893190E+03   -0.16576E-03   -0.28930E-05   592   0.169E-02    0.202E-02
DAV:  31    -0.353396001054E+03   -0.10786E-03   -0.17661E-05   584   0.101E-02    0.143E-02
DAV:  32    -0.353396040986E+03   -0.39932E-04   -0.89800E-06   600   0.980E-03
   1 F= -.35339604E+03 E0= -.35290089E+03  d E =-.990303E+00
