"Millerite NiS"                         
           1
    11.235110    3.690579    0.000000
     0.000000   11.825737    0.000000
     0.000000    0.000000   16.638969
   Ni   S 
    36    36
Direct configuration=     1
   0.42408821  0.19381755  0.07949265
   0.06067373  0.05723204  0.22992953
   0.19725924  0.42064652  0.38036642
   0.11612079  0.13388798  0.00000000
   0.25270630  0.49730245  0.15043688
   0.38929181  0.36071695  0.30087376
   0.05619122  0.32592055  0.07949265
   0.19277673  0.18933504  0.22992953
   0.32936223  0.05274953  0.38036642
   0.92408821  0.19381755  0.07949265
   0.56067373  0.05723204  0.22992953
   0.69725924  0.42064652  0.38036642
   0.61612079  0.13388798  0.00000000
   0.75270630  0.49730245  0.15043688
   0.88929181  0.36071695  0.30087376
   0.55619122  0.32592055  0.07949265
   0.69277673  0.18933504  0.22992953
   0.82936223  0.05274953  0.38036642
   0.42408821  0.69381755  0.07949265
   0.06067373  0.55723204  0.22992953
   0.19725924  0.92064652  0.38036642
   0.11612079  0.63388798  0.00000000
   0.25270630  0.99730245  0.15043688
   0.38929181  0.86071695  0.30087376
   0.05619122  0.82592055  0.07949265
   0.19277673  0.68933504  0.22992953
   0.32936223  0.55274953  0.38036642
   0.92408821  0.69381755  0.07949265
   0.56067373  0.55723204  0.22992953
   0.69725924  0.92064652  0.38036642
   0.61612079  0.63388798  0.00000000
   0.75270630  0.99730245  0.15043688
   0.88929181  0.86071695  0.30087376
   0.55619122  0.82592055  0.07949265
   0.69277673  0.68933504  0.22992953
   0.82936223  0.55274953  0.38036642
   0.01449627  0.40372749  0.39900123
   0.24132524  0.17689852  0.09812747
   0.37791075  0.04031301  0.24856435
   0.36021265  0.38979610  0.04891355
   0.49679816  0.25321059  0.19935043
   0.13338368  0.11662508  0.34978731
   0.07311025  0.00868353  0.09812747
   0.20969575  0.37209800  0.24856435
   0.34628126  0.23551250  0.39900123
   0.51449627  0.40372749  0.39900123
   0.74132524  0.17689852  0.09812747
   0.87791075  0.04031301  0.24856435
   0.86021265  0.38979610  0.04891355
   0.99679816  0.25321059  0.19935043
   0.63338368  0.11662508  0.34978731
   0.57311025  0.00868353  0.09812747
   0.70969575  0.37209800  0.24856435
   0.84628126  0.23551250  0.39900123
   0.01449627  0.90372749  0.39900123
   0.24132524  0.67689852  0.09812747
   0.37791075  0.54031301  0.24856435
   0.36021265  0.88979610  0.04891355
   0.49679816  0.75321059  0.19935043
   0.13338368  0.61662508  0.34978731
   0.07311025  0.50868353  0.09812747
   0.20969575  0.87209800  0.24856435
   0.34628126  0.73551250  0.39900123
   0.51449627  0.90372749  0.39900123
   0.74132524  0.67689852  0.09812747
   0.87791075  0.54031301  0.24856435
   0.86021265  0.88979610  0.04891355
   0.99679816  0.75321059  0.19935043
   0.63338368  0.61662508  0.34978731
   0.57311025  0.50868353  0.09812747
   0.70969575  0.87209800  0.24856435
   0.84628126  0.73551250  0.39900123
