
96 atoms
2 atom types
   0.0000000000   11.2564630382 xlo xhi
   0.0000000000   10.0628203371 ylo yhi
   0.0000000000   21.7442318436 zlo zhi
   5.0445621212    0.0000000000    0.0000000000 xy xz yz

Atoms # atomic

     1      1    5.3522814389    4.8178807436    5.5084225035
     2      1    5.9359508116    3.8723794831    8.4444804618
     3      1    6.5196201894    2.9268782326   11.3805384201
     4      1    2.2463310649    0.7319719765    2.5723645453
     5      1    0.8913888420    0.5180279029   10.6048142972
     6      1    4.7686120527    3.3545316644    1.7966404224
     7      1    5.3522814305    2.4090304139    4.7326983807
     8      1    5.9359508195    1.4635291635    7.6687563389
     9      1    1.8774643416    3.7383591286    4.7326983807
    10      1    2.4611337307    2.7928578782    7.6687563389
    11      1    3.0448031034    1.8473566177   10.6048142972
    12      1    6.9220263192    4.6838603892    1.7966404224
    13      1   10.9805129580    4.8178807436    5.5084225035
    14      1   11.5641823307    3.8723794831    8.4444804618
    15      1   12.1478517085    2.9268782326   11.3805384201
    16      1    7.8745625840    0.7319719765    2.5723645453
    17      1    6.5196203611    0.5180279029   10.6048142972
    18      1   10.3968435718    3.3545316644    1.7966404224
    19      1   10.9805129496    2.4090304139    4.7326983807
    20      1   11.5641823386    1.4635291635    7.6687563389
    21      1    7.5056958608    3.7383591286    4.7326983807
    22      1    8.0893652498    2.7928578782    7.6687563389
    23      1    8.6730346225    1.8473566177   10.6048142972
    24      1   12.5502578383    4.6838603892    1.7966404224
    25      1    7.8745624994    9.8492909121    5.5084225035
    26      1    8.4582318722    8.9037896516    8.4444804618
    27      1    9.0419012499    7.9582884012   11.3805384201
    28      1    4.7686121255    5.7633821450    2.5723645453
    29      1    3.4136699025    5.5494380715   10.6048142972
    30      1    7.2908931133    8.3859418329    1.7966404224
    31      1    7.8745624911    7.4404405824    4.7326983807
    32      1    8.4582318801    6.4949393320    7.6687563389
    33      1    4.3997454022    8.7697692972    4.7326983807
    34      1    4.9834147912    7.8242680467    7.6687563389
    35      1    5.5670841640    6.8787667862   10.6048142972
    36      1    9.4443073798    9.7152705577    1.7966404224
    37      1   13.5027940186    9.8492909121    5.5084225035
    38      1   14.0864633913    8.9037896516    8.4444804618
    39      1   14.6701327691    7.9582884012   11.3805384201
    40      1   10.3968436446    5.7633821450    2.5723645453
    41      1    9.0419014217    5.5494380715   10.6048142972
    42      1   12.9191246324    8.3859418329    1.7966404224
    43      1   13.5027940102    7.4404405824    4.7326983807
    44      1   14.0864633992    6.4949393320    7.6687563389
    45      1   10.0279769213    8.7697692972    4.7326983807
    46      1   10.6116463104    7.8242680467    7.6687563389
    47      1   11.1953156831    6.8787667862   10.6048142972
    48      1   15.0725388989    9.7152705577    1.7966404224
    49      2    1.6618955858    1.6787142544    5.8721159165
    50      2    2.2455649698    0.7332129939    8.8081738748
    51      2    6.1227881856    3.5697167654    0.0000000000
    52      2    6.7064575583    2.6242155049    2.9360579583
    53      2    5.3515153325    4.8191217610   11.7442318330
    54      2    2.2455649706    3.8005525507    9.7959518563
    55      2    7.2901269369    4.7460538113    6.8598938980
    56      2    3.6005072015    1.6056463046    0.9877779815
    57      2    4.1841765742    0.6601450441    3.9238359397
    58      2    3.3807113207    4.9443390495    0.9877779815
    59      2    3.9643806934    3.9988377890    3.9238359397
    60      2    4.5480500712    3.0533365386    6.8598938980
    61      2    5.1317194552    2.1078352781    9.7959518563
    62      2    7.2901271049    1.6787142544    5.8721159165
    63      2    7.8737964889    0.7332129939    8.8081738748
    64      2   11.7510197047    3.5697167654    0.0000000000
    65      2   12.3346890774    2.6242155049    2.9360579583
    66      2   10.9797468516    4.8191217610   11.7442318330
    67      2    7.8737964897    3.8005525507    9.7959518563
    68      2   12.9183584560    4.7460538113    6.8598938980
    69      2    9.2287387206    1.6056463046    0.9877779815
    70      2    9.8124080933    0.6601450441    3.9238359397
    71      2    9.0089428398    4.9443390495    0.9877779815
    72      2    9.5926122126    3.9988377890    3.9238359397
    73      2   10.1762815903    3.0533365386    6.8598938980
    74      2   10.7599509743    2.1078352781    9.7959518563
    75      2    4.1841766464    6.7101244229    5.8721159165
    76      2    4.7678460304    5.7646231624    8.8081738748
    77      2    8.6450692462    8.6011269339    0.0000000000
    78      2    9.2287386189    7.6556256734    2.9360579583
    79      2    7.8737963931    9.8505319296   11.7442318330
    80      2    4.7678460312    8.8319627193    9.7959518563
    81      2    9.8124079975    9.7774639798    6.8598938980
    82      2    6.7064576348    5.6915552127    3.9238359397
    83      2    6.4866617540    9.0302479576    3.9238359397
    84      2    7.0703311318    8.0847467071    6.8598938980
    85      2    7.6540005158    7.1392454466    9.7959518563
    86      2    9.8124081655    6.7101244229    5.8721159165
    87      2   10.3960775495    5.7646231624    8.8081738748
    88      2   14.8569701380    7.6556256734    2.9360579583
    89      2   10.3960775503    8.8319627193    9.7959518563
    90      2   15.4406395166    9.7774639798    6.8598938980
    91      2   11.7510197812    6.6370564732    0.9877779815
    92      2   12.3346891539    5.6915552127    3.9238359397
    93      2   11.5312239004    9.9757492181    0.9877779815
    94      2   12.1148932731    9.0302479576    3.9238359397
    95      2   12.6985626509    8.0847467071    6.8598938980
    96      2   13.2822320349    7.1392454466    9.7959518563
