<?xml version="1.0" encoding="ISO-8859-1"?>
<modeling>
 <generator>
  <i name="program" type="string">vasp </i>
  <i name="version" type="string">5.4.4.18Apr17-6-g9f103f2a35  </i>
  <i name="subversion" type="string">(build Aug 13 2019 17:33:20) gamma-only         parallel </i>
  <i name="platform" type="string">LinuxIFC </i>
  <i name="date" type="string">2020 05 12 </i>
  <i name="time" type="string">16:14:09 </i>
 </generator>
 <incar>
  <i type="string" name="SYSTEM">"Millerite NiS"</i>
  <i type="string" name="PREC">normal</i>
  <i type="int" name="NSIM">     4</i>
  <i type="int" name="NELM">   100</i>
  <i name="ENCUT">    450.00000000</i>
  <i type="string" name="LREAL">A</i>
  <i type="int" name="ISMEAR">     0</i>
  <i type="int" name="NWRITE">     2</i>
  <i type="logical" name="LWAVE"> F  </i>
  <i type="logical" name="LCHARG"> F  </i>
  <v type="int" name="KPOINT_BSE">    -1     0     0     0</v>
  <i type="int" name="NELM">   100</i>
 </incar>
 <structure name="primitive_cell" >
  <crystal>
   <varray name="basis" >
    <v>      10.07973298       0.00000000       0.00000000 </v>
    <v>       3.57329804       9.42510255       0.00000000 </v>
    <v>       0.00000000       0.00000000      20.51013988 </v>
   </varray>
   <i name="volume">   1948.51491473 </i>
   <varray name="rec_basis" >
    <v>       0.09920898      -0.03761267       0.00000000 </v>
    <v>       0.00000000       0.10609964       0.00000000 </v>
    <v>       0.00000000       0.00000000       0.04875637 </v>
   </varray>
  </crystal>
  <varray name="positions" >
   <v>       0.33780669      -0.27812723       0.15721755 </v>
   <v>       0.14670739      -0.15413438       0.12800997 </v>
   <v>       0.29697590      -0.30440289       0.25601994 </v>
   <v>       0.47740939      -0.48793304       0.12840637 </v>
   <v>      -0.47539934      -0.39890632       0.22312232 </v>
   <v>      -0.47203578      -0.20205788       0.17147277 </v>
   <v>      -0.44669952      -0.33686544       0.09342469 </v>
   <v>       0.09282582      -0.30046480       0.19815030 </v>
   <v>       0.13252766      -0.07596064       0.23197130 </v>
   <v>       0.14454139      -0.48530171       0.12880278 </v>
   <v>       0.24425506       0.07855462       0.21374635 </v>
   <v>       0.36568198       0.35755170       0.14663132 </v>
   <v>       0.46794919      -0.04136954       0.06138628 </v>
   <v>       0.47624865      -0.01722097       0.24082029 </v>
   <v>      -0.29059702       0.41629137       0.15548031 </v>
   <v>      -0.25089518      -0.35920447       0.18930132 </v>
   <v>      -0.33063807      -0.15330472       0.10619730 </v>
   <v>      -0.05744270      -0.15019629       0.07014033 </v>
   <v>       0.24309433      -0.45073331       0.32616027 </v>
   <v>      -0.01774085       0.07430787       0.10396133 </v>
   <v>       0.28279617      -0.22622916       0.35998128 </v>
   <v>       0.32598014       0.13304754       0.11281032 </v>
   <v>      -0.23671545      -0.43737821       0.08533998 </v>
   <v>      -0.37232210       0.36179845       0.25641634 </v>
   <v>       0.29480990       0.36442978       0.25681275 </v>
   <v>      -0.32176726      -0.35232639       0.29948274 </v>
   <v>       0.39452358      -0.07171389       0.34175632 </v>
   <v>       0.00634902      -0.01770549       0.01670291 </v>
   <v>      -0.13916777      -0.20468921       0.17107636 </v>
   <v>      -0.09197650      -0.11566249       0.26579231 </v>
   <v>       0.01110074      -0.35495773       0.29908634 </v>
   <v>      -0.08861294       0.08118595       0.21414276 </v>
   <v>      -0.00047345      -0.39847730       0.03863934 </v>
   <v>       0.06165557      -0.06908256       0.34215273 </v>
   <v>       0.36622390       0.28471607       0.05140552 </v>
   <v>       0.15138707       0.38836825       0.04896868 </v>
   <v>       0.44724441      -0.45467140       0.38402991 </v>
   <v>       0.09573615       0.22853080       0.09471628 </v>
   <v>      -0.46986977       0.12910945       0.17067996 </v>
   <v>       0.14117783       0.31784985       0.18045233 </v>
   <v>      -0.04425370       0.48478972       0.12074171 </v>
   <v>      -0.32513082       0.45082517       0.35113229 </v>
   <v>       0.29144634       0.16758134       0.30846230 </v>
   <v>      -0.48404950       0.20728318       0.27464130 </v>
   <v>      -0.22650869       0.22388522       0.10332040 </v>
   <v>      -0.44689469       0.11773210       0.06791591 </v>
   <v>      -0.37348283      -0.16748948       0.36883026 </v>
   <v>      -0.24224501       0.03460603       0.13778234 </v>
   <v>       0.05829201      -0.26593100       0.39380228 </v>
   <v>      -0.08644694       0.41235328       0.21334995 </v>
   <v>       0.48895504      -0.28890741       0.42783023 </v>
   <v>      -0.31960126      -0.02115906       0.29868993 </v>
   <v>      -0.25782683      -0.03612621       0.03988794 </v>
   <v>       0.22750898      -0.26249877       0.45015311 </v>
   <v>      -0.14032851       0.26602286       0.28349028 </v>
   <v>       0.34914592       0.41582466       0.42236399 </v>
   <v>      -0.10062667       0.49052701       0.31731128 </v>
   <v>       0.13510074      -0.49239637       0.41076686 </v>
   <v>       0.06382158       0.26208477       0.34135992 </v>
   <v>       0.42287943       0.03313188       0.42275487 </v>
   <v>       0.00994000       0.11575434       0.41150025 </v>
   <v>       0.44507841       0.21416127       0.38482272 </v>
   <v>       0.20632716       0.13398432       0.43998869 </v>
   <v>      -0.43703553      -0.14511428       0.46969990 </v>
   <v>      -0.17752384      -0.15060083       0.40844720 </v>
   <v>      -0.22205359       0.21152993       0.38442632 </v>
   <v>      -0.17149875       0.49740510       0.42749271 </v>
   <v>      -0.33834990       0.06672249       0.38908620 </v>
   <v>      -0.23946383      -0.29627026       0.45834797 </v>
   <v>      -0.21447338       0.32910808       0.46225612 </v>
   <v>       0.04007589       0.34323012       0.43476870 </v>
   <v>      -0.02509464       0.21892435      -0.49978539 </v>
  </varray>
 </structure>
 <varray name="primitive_index" >
  <v type="int" >        1 </v>
  <v type="int" >       41 </v>
  <v type="int" >       42 </v>
  <v type="int" >       61 </v>
  <v type="int" >        2 </v>
  <v type="int" >       50 </v>
  <v type="int" >       14 </v>
  <v type="int" >       17 </v>
  <v type="int" >       30 </v>
  <v type="int" >       57 </v>
  <v type="int" >       70 </v>
  <v type="int" >       34 </v>
  <v type="int" >       49 </v>
  <v type="int" >       22 </v>
  <v type="int" >       15 </v>
  <v type="int" >       27 </v>
  <v type="int" >       26 </v>
  <v type="int" >       20 </v>
  <v type="int" >       18 </v>
  <v type="int" >       29 </v>
  <v type="int" >       31 </v>
  <v type="int" >       21 </v>
  <v type="int" >       39 </v>
  <v type="int" >       62 </v>
  <v type="int" >       58 </v>
  <v type="int" >       51 </v>
  <v type="int" >       71 </v>
  <v type="int" >       44 </v>
  <v type="int" >       68 </v>
  <v type="int" >        8 </v>
  <v type="int" >       65 </v>
  <v type="int" >       54 </v>
  <v type="int" >       60 </v>
  <v type="int" >       55 </v>
  <v type="int" >       45 </v>
  <v type="int" >       33 </v>
  <v type="int" >       43 </v>
  <v type="int" >       69 </v>
  <v type="int" >       46 </v>
  <v type="int" >        9 </v>
  <v type="int" >       12 </v>
  <v type="int" >        3 </v>
  <v type="int" >       10 </v>
  <v type="int" >       35 </v>
  <v type="int" >       53 </v>
  <v type="int" >        5 </v>
  <v type="int" >       23 </v>
  <v type="int" >        6 </v>
  <v type="int" >        7 </v>
  <v type="int" >       40 </v>
  <v type="int" >       32 </v>
  <v type="int" >       47 </v>
  <v type="int" >       67 </v>
  <v type="int" >       56 </v>
  <v type="int" >       16 </v>
  <v type="int" >       19 </v>
  <v type="int" >       28 </v>
  <v type="int" >       66 </v>
  <v type="int" >       37 </v>
  <v type="int" >       11 </v>
  <v type="int" >       13 </v>
  <v type="int" >       59 </v>
  <v type="int" >       38 </v>
  <v type="int" >       72 </v>
  <v type="int" >       48 </v>
  <v type="int" >       63 </v>
  <v type="int" >       52 </v>
  <v type="int" >       36 </v>
  <v type="int" >       24 </v>
  <v type="int" >        4 </v>
  <v type="int" >       25 </v>
  <v type="int" >       64 </v>
 </varray>
 <kpoints>
  <generation param="Gamma">
   <v type="int" name="divisions">       1        1        1 </v>
   <v name="usershift">      0.00000000       0.00000000       0.00000000 </v>
   <v name="genvec1">      1.00000000       0.00000000       0.00000000 </v>
   <v name="genvec2">      0.00000000       1.00000000       0.00000000 </v>
   <v name="genvec3">      0.00000000       0.00000000       1.00000000 </v>
   <v name="shift">      0.00000000       0.00000000       0.00000000 </v>
  </generation>
  <varray name="kpointlist" >
   <v>       0.00000000       0.00000000       0.00000000 </v>
  </varray>
  <varray name="weights" >
   <v>       1.00000000 </v>
  </varray>
 </kpoints>
 <parameters>
  <separator name="general" >
   <i type="string" name="SYSTEM">"Millerite NiS"</i>
   <i type="logical" name="LCOMPAT"> F  </i>
  </separator>
  <separator name="electronic" >
   <i type="string" name="PREC">normal</i>
   <i name="ENMAX">    450.00000000</i>
   <i name="ENAUG">    703.44300000</i>
   <i name="EDIFF">      0.00010000</i>
   <i type="int" name="IALGO">    38</i>
   <i type="int" name="IWAVPR">    10</i>
   <i type="int" name="NBANDS">   476</i>
   <i name="NELECT">    792.00000000</i>
   <i type="int" name="TURBO">     0</i>
   <i type="int" name="IRESTART">     0</i>
   <i type="int" name="NREBOOT">     0</i>
   <i type="int" name="NMIN">     0</i>
   <i name="EREF">      0.00000000</i>
   <separator name="electronic smearing" >
    <i type="int" name="ISMEAR">     0</i>
    <i name="SIGMA">      0.20000000</i>
    <i name="KSPACING">      0.50000000</i>
    <i type="logical" name="KGAMMA"> T  </i>
   </separator>
   <separator name="electronic projectors" >
    <i type="logical" name="LREAL"> T  </i>
    <v name="ROPT">     -0.00050000     -0.00050000</v>
    <i type="int" name="LMAXPAW">  -100</i>
    <i type="int" name="LMAXMIX">     2</i>
    <i type="logical" name="NLSPLINE"> F  </i>
   </separator>
   <separator name="electronic startup" >
    <i type="int" name="ISTART">     0</i>
    <i type="int" name="ICHARG">     2</i>
    <i type="int" name="INIWAV">     1</i>
   </separator>
   <separator name="electronic spin" >
    <i type="int" name="ISPIN">     1</i>
    <i type="logical" name="LNONCOLLINEAR"> F  </i>
    <v name="MAGMOM">      1.00000000      1.00000000      1.00000000      1.00000000      1.00000000      1.00000000      1.00000000      1.00000000      1.00000000      1.00000000      1.00000000      1.00000000      1.00000000      1.00000000      1.00000000      1.00000000      1.00000000      1.00000000      1.00000000      1.00000000
      1.00000000      1.00000000      1.00000000      1.00000000      1.00000000      1.00000000      1.00000000      1.00000000      1.00000000      1.00000000      1.00000000      1.00000000      1.00000000      1.00000000      1.00000000      1.00000000      1.00000000      1.00000000      1.00000000      1.00000000
      1.00000000      1.00000000      1.00000000      1.00000000      1.00000000      1.00000000      1.00000000      1.00000000      1.00000000      1.00000000      1.00000000      1.00000000      1.00000000      1.00000000      1.00000000      1.00000000      1.00000000      1.00000000      1.00000000      1.00000000
      1.00000000      1.00000000      1.00000000      1.00000000      1.00000000      1.00000000      1.00000000      1.00000000      1.00000000      1.00000000      1.00000000      1.00000000</v>
    <i name="NUPDOWN">     -1.00000000</i>
    <i type="logical" name="LSORBIT"> F  </i>
    <v name="SAXIS">      0.00000000      0.00000000      1.00000000</v>
    <i type="logical" name="LSPIRAL"> F  </i>
    <v name="QSPIRAL">      0.00000000      0.00000000      0.00000000</v>
    <i type="logical" name="LZEROZ"> F  </i>
   </separator>
   <separator name="electronic exchange-correlation" >
    <i type="logical" name="LASPH"> F  </i>
    <i type="logical" name="LMETAGGA"> F  </i>
   </separator>
   <separator name="electronic convergence" >
    <i type="int" name="NELM">   100</i>
    <i type="int" name="NELMDL">    -5</i>
    <i type="int" name="NELMIN">     2</i>
    <i name="ENINI">    450.00000000</i>
    <separator name="electronic convergence detail" >
     <i type="logical" name="LDIAG"> T  </i>
     <i type="logical" name="LSUBROT"> F  </i>
     <i name="WEIMIN">      0.00000000</i>
     <i name="EBREAK">      0.00000005</i>
     <i name="DEPER">      0.30000000</i>
     <i type="int" name="NRMM">     4</i>
     <i name="TIME">      0.40000000</i>
    </separator>
   </separator>
   <separator name="electronic mixer" >
    <i name="AMIX">      0.40000000</i>
    <i name="BMIX">      1.00000000</i>
    <i name="AMIN">      0.10000000</i>
    <i name="AMIX_MAG">      1.60000000</i>
    <i name="BMIX_MAG">      1.00000000</i>
    <separator name="electronic mixer details" >
     <i type="int" name="IMIX">     4</i>
     <i type="logical" name="MIXFIRST"> F  </i>
     <i type="int" name="MAXMIX">   -45</i>
     <i name="WC">    100.00000000</i>
     <i type="int" name="INIMIX">     1</i>
     <i type="int" name="MIXPRE">     1</i>
     <i type="int" name="MREMOVE">     5</i>
    </separator>
   </separator>
   <separator name="electronic dipolcorrection" >
    <i type="logical" name="LDIPOL"> F  </i>
    <i type="logical" name="LMONO"> F  </i>
    <i type="int" name="IDIPOL">     0</i>
    <i name="EPSILON">      1.00000000</i>
    <v name="DIPOL">   -100.00000000   -100.00000000   -100.00000000</v>
    <i name="EFIELD">      0.00000000</i>
   </separator>
  </separator>
  <separator name="grids" >
   <i type="int" name="NGX">    54</i>
   <i type="int" name="NGY">    54</i>
   <i type="int" name="NGZ">   108</i>
   <i type="int" name="NGXF">   108</i>
   <i type="int" name="NGYF">   108</i>
   <i type="int" name="NGZF">   216</i>
   <i type="logical" name="ADDGRID"> F  </i>
  </separator>
  <separator name="ionic" >
   <i type="int" name="NSW">     0</i>
   <i type="int" name="IBRION">    -1</i>
   <i type="int" name="MDALGO">     0</i>
   <i type="int" name="ISIF">     2</i>
   <i name="PSTRESS">      0.00000000</i>
   <i name="EDIFFG">      0.00100000</i>
   <i type="int" name="NFREE">     0</i>
   <i name="POTIM">      0.50000000</i>
   <i name="SMASS">     -3.00000000</i>
   <i name="SCALEE">      1.00000000</i>
  </separator>
  <separator name="ionic md" >
   <i name="TEBEG">      0.00010000</i>
   <i name="TEEND">      0.00010000</i>
   <i type="int" name="NBLOCK">     1</i>
   <i type="int" name="KBLOCK">     1</i>
   <i type="int" name="NPACO">   256</i>
   <i name="APACO">     16.00000000</i>
  </separator>
  <separator name="symmetry" >
   <i type="int" name="ISYM">     2</i>
   <i name="SYMPREC">      0.00001000</i>
  </separator>
  <separator name="dos" >
   <i type="int" name="LORBIT">     0</i>
   <v name="RWIGS">     -1.00000000     -1.00000000</v>
   <i type="int" name="NEDOS">   301</i>
   <i name="EMIN">     10.00000000</i>
   <i name="EMAX">    -10.00000000</i>
   <i name="EFERMI">      0.00000000</i>
  </separator>
  <separator name="writing" >
   <i type="int" name="NWRITE">     2</i>
   <i type="logical" name="LWAVE"> F  </i>
   <i type="logical" name="LDOWNSAMPLE"> F  </i>
   <i type="logical" name="LCHARG"> F  </i>
   <i type="logical" name="LPARD"> F  </i>
   <i type="logical" name="LVTOT"> F  </i>
   <i type="logical" name="LVHAR"> F  </i>
   <i type="logical" name="LELF"> F  </i>
   <i type="logical" name="LOPTICS"> F  </i>
   <v name="STM">      0.00000000      0.00000000      0.00000000      0.00000000      0.00000000      0.00000000      0.00000000</v>
  </separator>
  <separator name="performance" >
   <i type="int" name="NPAR">     2</i>
   <i type="int" name="NSIM">     4</i>
   <i type="int" name="NBLK">    -1</i>
   <i type="logical" name="LPLANE"> T  </i>
   <i type="logical" name="LSCALAPACK"> T  </i>
   <i type="logical" name="LSCAAWARE"> F  </i>
   <i type="logical" name="LSCALU"> F  </i>
   <i type="logical" name="LASYNC"> F  </i>
   <i type="logical" name="LORBITALREAL"> F  </i>
  </separator>
  <separator name="miscellaneous" >
   <i type="int" name="IDIOT">     3</i>
   <i type="int" name="ISPECIAL">     0</i>
   <i type="logical" name="LMUSIC"> F  </i>
   <v name="POMASS">     58.69000000     32.06600000</v>
   <v name="DARWINR">      0.00000000      0.00000000</v>
   <v name="DARWINV">      1.00000000      1.00000000</v>
   <i type="logical" name="LCORR"> T  </i>
  </separator>
  <i type="logical" name="GGA_COMPAT"> T  </i>
  <i type="logical" name="LBERRY"> F  </i>
  <i type="int" name="ICORELEVEL">     0</i>
  <i type="logical" name="LDAU"> F  </i>
  <i type="int" name="I_CONSTRAINED_M">     0</i>
  <separator name="electronic exchange-correlation" >
   <i type="string" name="GGA">--</i>
   <i type="int" name="VOSKOWN">     0</i>
   <i type="logical" name="LHFCALC"> F  </i>
   <i type="string" name="PRECFOCK"></i>
   <i type="logical" name="LSYMGRAD"> F  </i>
   <i type="logical" name="LHFONE"> F  </i>
   <i type="logical" name="LRHFCALC"> F  </i>
   <i type="logical" name="LTHOMAS"> F  </i>
   <i type="logical" name="LMODELHF"> F  </i>
   <i name="ENCUT4O">     -1.00000000</i>
   <i type="int" name="EXXOEP">     0</i>
   <i type="int" name="FOURORBIT">     0</i>
   <i name="AEXX">      0.00000000</i>
   <i name="HFALPHA">      0.00000000</i>
   <i name="MCALPHA">      0.00000000</i>
   <i name="ALDAX">      1.00000000</i>
   <i name="AGGAX">      1.00000000</i>
   <i name="ALDAC">      1.00000000</i>
   <i name="AGGAC">      1.00000000</i>
   <i type="int" name="NKREDX">     1</i>
   <i type="int" name="NKREDY">     1</i>
   <i type="int" name="NKREDZ">     1</i>
   <i type="logical" name="SHIFTRED"> F  </i>
   <i type="logical" name="ODDONLY"> F  </i>
   <i type="logical" name="EVENONLY"> F  </i>
   <i type="int" name="LMAXFOCK">     0</i>
   <i type="int" name="NMAXFOCKAE">     0</i>
   <i type="logical" name="LFOCKAEDFT"> F  </i>
   <i name="HFSCREEN">      0.00000000</i>
   <i name="HFSCREENC">      0.00000000</i>
   <i type="int" name="NBANDSGWLOW">     0</i>
  </separator>
  <separator name="vdW DFT" >
   <i type="logical" name="LUSE_VDW"> F  </i>
   <i name="Zab_VDW">     -0.84910000</i>
   <i name="PARAM1">      0.12340000</i>
   <i name="PARAM2">      1.00000000</i>
   <i name="PARAM3">      0.00000000</i>
  </separator>
  <separator name="model GW" >
   <i type="int" name="MODEL_GW">     0</i>
   <i name="MODEL_EPS0">     16.23762429</i>
   <i name="MODEL_ALPHA">      1.00000000</i>
  </separator>
  <separator name="linear response parameters" >
   <i type="logical" name="LEPSILON"> F  </i>
   <i type="logical" name="LRPA"> F  </i>
   <i type="logical" name="LNABLA"> F  </i>
   <i type="logical" name="LVEL"> F  </i>
   <i type="int" name="KINTER">     0</i>
   <i name="CSHIFT">      0.10000000</i>
   <i name="OMEGAMAX">     -1.00000000</i>
   <i name="DEG_THRESHOLD">      0.00200000</i>
   <i name="RTIME">     -0.10000000</i>
   <i name="WPLASMAI">      0.00000000</i>
   <v name="DFIELD">      0.00000000      0.00000000      0.00000000</v>
   <v name="WPLASMA">      0.00000000      0.00000000      0.00000000      0.00000000      0.00000000      0.00000000      0.00000000      0.00000000      0.00000000</v>
  </separator>
  <separator name="orbital magnetization" >
   <i type="logical" name="NUCIND"> F  </i>
   <v name="MAGPOS">      0.00000000      0.00000000      0.00000000</v>
   <i type="logical" name="LNICSALL"> T  </i>
   <i type="logical" name="ORBITALMAG"> F  </i>
   <i type="logical" name="LMAGBLOCH"> F  </i>
   <i type="logical" name="LCHIMAG"> F  </i>
   <i type="logical" name="LGAUGE"> T  </i>
   <i type="int" name="MAGATOM">     0</i>
   <v name="MAGDIPOL">      0.00000000      0.00000000      0.00000000</v>
   <v name="AVECCONST">      0.00000000      0.00000000      0.00000000</v>
  </separator>
  <separator name="response functions" >
   <i type="logical" name="LADDER"> F  </i>
   <i type="logical" name="LRPAFORCE"> F  </i>
   <i type="logical" name="LFXC"> F  </i>
   <i type="logical" name="LHARTREE"> T  </i>
   <i type="int" name="IBSE">     0</i>
   <v type="int" name="KPOINT">    -1     0     0     0</v>
   <i type="logical" name="LTCTE"> F  </i>
   <i type="logical" name="LTETE"> F  </i>
   <i type="logical" name="LTRIPLET"> F  </i>
   <i type="logical" name="LFXCEPS"> F  </i>
   <i type="logical" name="LFXHEG"> F  </i>
   <i type="int" name="NATURALO">     2</i>
   <i type="logical" name="L2ORDER"> F  </i>
   <i type="logical" name="LMP2LT"> F  </i>
   <i type="logical" name="LUSEW"> F  </i>
   <i name="ENCUTGW">     -2.00000000</i>
   <i name="ENCUTGWSOFT">     -2.00000000</i>
   <i name="ENCUTLF">     -1.00000000</i>
   <i type="int" name="LMAXMP2">    -1</i>
   <i name="SCISSOR">      0.00000000</i>
   <i type="int" name="NOMEGA">     0</i>
   <i type="int" name="NOMEGAR">     0</i>
   <i type="int" name="NBANDSGW">    -1</i>
   <i type="int" name="NBANDSO">    -1</i>
   <i type="int" name="NBANDSV">    -1</i>
   <i type="int" name="NELM">   100</i>
   <i type="int" name="NELMHF">     1</i>
   <i type="int" name="DIM">     3</i>
   <i type="int" name="ANTIRES">     0</i>
   <i name="OMEGAMAX">    -30.00000000</i>
   <i name="OMEGAMIN">    -30.00000000</i>
   <i name="OMEGATL">   -200.00000000</i>
   <i type="int" name="OMEGAGRID">   140</i>
   <i name="CSHIFT">     -0.10000000</i>
   <i type="logical" name="SELFENERGY"> F  </i>
   <i type="logical" name="LSPECTRAL"> F  </i>
   <i type="logical" name="LSPECTRALGW"> F  </i>
   <i type="logical" name="LSINGLES"> F  </i>
   <i type="logical" name="LFERMIGW"> F  </i>
   <i type="logical" name="ODDONLYGW"> F  </i>
   <i type="logical" name="EVENONLYGW"> F  </i>
   <i type="int" name="NKREDLFX">     1</i>
   <i type="int" name="NKREDLFY">     1</i>
   <i type="int" name="NKREDLFZ">     1</i>
   <i type="int" name="MAXMEM">  2800</i>
   <i type="int" name="TELESCOPE">     0</i>
   <i type="int" name="TAUPAR">     1</i>
   <i type="int" name="OMEGAPAR">    -1</i>
   <i name="LAMBDA">      1.00000000</i>
  </separator>
  <separator name="External order field" >
   <i name="OFIELD_KAPPA">      0.00000000</i>
   <v name="OFIELD_K">      0.00000000      0.00000000      0.00000000</v>
   <i name="OFIELD_Q6_NEAR">      0.00000000</i>
   <i name="OFIELD_Q6_FAR">      0.00000000</i>
   <i name="OFIELD_A">      0.00000000</i>
  </separator>
 </parameters>
 <atominfo>
  <atoms>      72 </atoms>
  <types>       2 </types>
  <array name="atoms" >
   <dimension dim="1">ion</dimension>
   <field type="string">element</field>
   <field type="int">atomtype</field>
   <set>
    <rc><c>Ni</c><c>   1</c></rc>
    <rc><c>Ni</c><c>   1</c></rc>
    <rc><c>Ni</c><c>   1</c></rc>
    <rc><c>Ni</c><c>   1</c></rc>
    <rc><c>Ni</c><c>   1</c></rc>
    <rc><c>Ni</c><c>   1</c></rc>
    <rc><c>Ni</c><c>   1</c></rc>
    <rc><c>Ni</c><c>   1</c></rc>
    <rc><c>Ni</c><c>   1</c></rc>
    <rc><c>Ni</c><c>   1</c></rc>
    <rc><c>Ni</c><c>   1</c></rc>
    <rc><c>Ni</c><c>   1</c></rc>
    <rc><c>Ni</c><c>   1</c></rc>
    <rc><c>Ni</c><c>   1</c></rc>
    <rc><c>Ni</c><c>   1</c></rc>
    <rc><c>Ni</c><c>   1</c></rc>
    <rc><c>Ni</c><c>   1</c></rc>
    <rc><c>Ni</c><c>   1</c></rc>
    <rc><c>Ni</c><c>   1</c></rc>
    <rc><c>Ni</c><c>   1</c></rc>
    <rc><c>Ni</c><c>   1</c></rc>
    <rc><c>Ni</c><c>   1</c></rc>
    <rc><c>Ni</c><c>   1</c></rc>
    <rc><c>Ni</c><c>   1</c></rc>
    <rc><c>Ni</c><c>   1</c></rc>
    <rc><c>Ni</c><c>   1</c></rc>
    <rc><c>Ni</c><c>   1</c></rc>
    <rc><c>Ni</c><c>   1</c></rc>
    <rc><c>Ni</c><c>   1</c></rc>
    <rc><c>Ni</c><c>   1</c></rc>
    <rc><c>Ni</c><c>   1</c></rc>
    <rc><c>Ni</c><c>   1</c></rc>
    <rc><c>Ni</c><c>   1</c></rc>
    <rc><c>Ni</c><c>   1</c></rc>
    <rc><c>Ni</c><c>   1</c></rc>
    <rc><c>Ni</c><c>   1</c></rc>
    <rc><c>S </c><c>   2</c></rc>
    <rc><c>S </c><c>   2</c></rc>
    <rc><c>S </c><c>   2</c></rc>
    <rc><c>S </c><c>   2</c></rc>
    <rc><c>S </c><c>   2</c></rc>
    <rc><c>S </c><c>   2</c></rc>
    <rc><c>S </c><c>   2</c></rc>
    <rc><c>S </c><c>   2</c></rc>
    <rc><c>S </c><c>   2</c></rc>
    <rc><c>S </c><c>   2</c></rc>
    <rc><c>S </c><c>   2</c></rc>
    <rc><c>S </c><c>   2</c></rc>
    <rc><c>S </c><c>   2</c></rc>
    <rc><c>S </c><c>   2</c></rc>
    <rc><c>S </c><c>   2</c></rc>
    <rc><c>S </c><c>   2</c></rc>
    <rc><c>S </c><c>   2</c></rc>
    <rc><c>S </c><c>   2</c></rc>
    <rc><c>S </c><c>   2</c></rc>
    <rc><c>S </c><c>   2</c></rc>
    <rc><c>S </c><c>   2</c></rc>
    <rc><c>S </c><c>   2</c></rc>
    <rc><c>S </c><c>   2</c></rc>
    <rc><c>S </c><c>   2</c></rc>
    <rc><c>S </c><c>   2</c></rc>
    <rc><c>S </c><c>   2</c></rc>
    <rc><c>S </c><c>   2</c></rc>
    <rc><c>S </c><c>   2</c></rc>
    <rc><c>S </c><c>   2</c></rc>
    <rc><c>S </c><c>   2</c></rc>
    <rc><c>S </c><c>   2</c></rc>
    <rc><c>S </c><c>   2</c></rc>
    <rc><c>S </c><c>   2</c></rc>
    <rc><c>S </c><c>   2</c></rc>
    <rc><c>S </c><c>   2</c></rc>
    <rc><c>S </c><c>   2</c></rc>
   </set>
  </array>
  <array name="atomtypes" >
   <dimension dim="1">type</dimension>
   <field type="int">atomspertype</field>
   <field type="string">element</field>
   <field>mass</field>
   <field>valence</field>
   <field type="string">pseudopotential</field>
   <set>
    <rc><c>  36</c><c>Ni</c><c>     58.69000000</c><c>     16.00000000</c><c>  PAW_PBE Ni_pv 06Sep2000               </c></rc>
    <rc><c>  36</c><c>S </c><c>     32.06600000</c><c>      6.00000000</c><c>  PAW_PBE S 06Sep2000                   </c></rc>
   </set>
  </array>
 </atominfo>
 <structure name="initialpos" >
  <crystal>
   <varray name="basis" >
    <v>      10.07973298       0.00000000       0.00000000 </v>
    <v>       3.57329804       9.42510255       0.00000000 </v>
    <v>       0.00000000       0.00000000      20.51013988 </v>
   </varray>
   <i name="volume">   1948.51491473 </i>
   <varray name="rec_basis" >
    <v>       0.09920898      -0.03761267       0.00000000 </v>
    <v>       0.00000000       0.10609964       0.00000000 </v>
    <v>       0.00000000       0.00000000       0.04875637 </v>
   </varray>
  </crystal>
  <varray name="positions" >
   <v>       0.33780669       0.72187277       0.15721755 </v>
   <v>       0.52460066       0.60109368       0.22312232 </v>
   <v>       0.67486918       0.45082517       0.35113229 </v>
   <v>       0.78552662       0.32910808       0.46225612 </v>
   <v>       0.55310531       0.11773210       0.06791591 </v>
   <v>       0.75775499       0.03460603       0.13778234 </v>
   <v>       0.05829201       0.73406900       0.39380228 </v>
   <v>       0.90802350       0.88433751       0.26579231 </v>
   <v>       0.14117783       0.31784985       0.18045233 </v>
   <v>       0.29144634       0.16758134       0.30846230 </v>
   <v>       0.42287943       0.03313188       0.42275487 </v>
   <v>       0.95574630       0.48478972       0.12074171 </v>
   <v>       0.00994000       0.11575434       0.41150025 </v>
   <v>       0.55330048       0.66313456       0.09342469 </v>
   <v>       0.70940298       0.41629137       0.15548031 </v>
   <v>       0.85967149       0.26602286       0.28349028 </v>
   <v>       0.09282582       0.69953520       0.19815030 </v>
   <v>       0.24309433       0.54926669       0.32616027 </v>
   <v>       0.34914592       0.41582466       0.42236399 </v>
   <v>       0.94255730       0.84980371       0.07014033 </v>
   <v>       0.32598014       0.13304754       0.11281032 </v>
   <v>       0.47624865       0.98277903       0.24082029 </v>
   <v>       0.62651717       0.83251052       0.36883026 </v>
   <v>       0.76053617       0.70372974       0.45834797 </v>
   <v>       0.04007589       0.34323012       0.43476870 </v>
   <v>       0.66936193       0.84669528       0.10619730 </v>
   <v>       0.74910482       0.64079553       0.18930132 </v>
   <v>       0.89937333       0.49052701       0.31731128 </v>
   <v>       0.98225915       0.07430787       0.10396133 </v>
   <v>       0.13252766       0.92403936       0.23197130 </v>
   <v>       0.28279617       0.77377084       0.35998128 </v>
   <v>       0.48895504       0.71109259       0.42783023 </v>
   <v>       0.15138707       0.38836825       0.04896868 </v>
   <v>       0.36568198       0.35755170       0.14663132 </v>
   <v>       0.51595050       0.20728318       0.27464130 </v>
   <v>       0.66165010       0.06672249       0.38908620 </v>
   <v>       0.06382158       0.26208477       0.34135992 </v>
   <v>       0.20632716       0.13398432       0.43998869 </v>
   <v>       0.76328455       0.56262179       0.08533998 </v>
   <v>       0.91355306       0.41235328       0.21334995 </v>
   <v>       0.14670739       0.84586562       0.12800997 </v>
   <v>       0.29697590       0.69559711       0.25601994 </v>
   <v>       0.44724441       0.54532860       0.38402991 </v>
   <v>       0.00634902       0.98229451       0.01670291 </v>
   <v>       0.36622390       0.28471607       0.05140552 </v>
   <v>       0.53013023       0.12910945       0.17067996 </v>
   <v>       0.68039874       0.97884094       0.29868993 </v>
   <v>       0.82247616       0.84939917       0.40844720 </v>
   <v>       0.46794919       0.95863046       0.06138628 </v>
   <v>       0.52796422       0.79794212       0.17147277 </v>
   <v>       0.67823274       0.64767361       0.29948274 </v>
   <v>       0.82850125       0.49740510       0.42749271 </v>
   <v>       0.77349131       0.22388522       0.10332040 </v>
   <v>       0.91138706       0.08118595       0.21414276 </v>
   <v>       0.06165557       0.93091744       0.34215273 </v>
   <v>       0.22750898       0.73750123       0.45015311 </v>
   <v>       0.14454139       0.51469829       0.12880278 </v>
   <v>       0.29480990       0.36442978       0.25681275 </v>
   <v>       0.44507841       0.21416127       0.38482272 </v>
   <v>       0.99952655       0.60152270       0.03863934 </v>
   <v>       0.47740939       0.51206696       0.12840637 </v>
   <v>       0.62767790       0.36179845       0.25641634 </v>
   <v>       0.77794641       0.21152993       0.38442632 </v>
   <v>       0.97490536       0.21892435       0.50021461 </v>
   <v>       0.01110074       0.64504227       0.29908634 </v>
   <v>       0.13510074       0.50760363       0.41076686 </v>
   <v>       0.74217317       0.96387379       0.03988794 </v>
   <v>       0.86083223       0.79531079       0.17107636 </v>
   <v>       0.09573615       0.22853080       0.09471628 </v>
   <v>       0.24425506       0.07855462       0.21374635 </v>
   <v>       0.39452358       0.92828611       0.34175632 </v>
   <v>       0.56296447       0.85488572       0.46969990 </v>
  </varray>
 </structure>
 <calculation>
  <scstep>
   <time name="dav">    6.71    6.72</time>
   <time name="total">    6.99    6.99</time>
   <energy>
    <i name="alphaZ">   1909.09476555 </i>
    <i name="ewald"> 223672.46010484 </i>
    <i name="hartreedc">-345907.47828742 </i>
    <i name="XCdc">   3682.36685969 </i>
    <i name="pawpsdc"> 112729.53333415 </i>
    <i name="pawaedc">-117641.51188735 </i>
    <i name="eentropy">     -0.39530640 </i>
    <i name="bandstr">  -4440.10391782 </i>
    <i name="atom"> 136002.60505376 </i>
    <i name="e_fr_energy">  10006.57071901 </i>
    <i name="e_wo_entrp">  10006.96602541 </i>
    <i name="e_0_energy">  10006.76837221 </i>
   </energy>
  </scstep>
  <scstep>
   <time name="dav">    6.07    6.07</time>
   <time name="total">    6.07    6.07</time>
   <energy>
    <i name="e_fr_energy">    637.41553850 </i>
    <i name="e_wo_entrp">    638.01862228 </i>
    <i name="e_0_energy">    637.71708039 </i>
   </energy>
  </scstep>
  <scstep>
   <time name="dav">    6.55    6.55</time>
   <time name="total">    6.55    6.55</time>
   <energy>
    <i name="e_fr_energy">   -334.76736816 </i>
    <i name="e_wo_entrp">   -333.76888563 </i>
    <i name="e_0_energy">   -334.26812689 </i>
   </energy>
  </scstep>
  <scstep>
   <time name="dav">    6.87    6.87</time>
   <time name="total">    6.87    6.88</time>
   <energy>
    <i name="e_fr_energy">   -393.68973047 </i>
    <i name="e_wo_entrp">   -392.66354285 </i>
    <i name="e_0_energy">   -393.17663666 </i>
   </energy>
  </scstep>
  <scstep>
   <time name="dav">    6.86    6.87</time>
   <time name="total">    7.08    7.09</time>
   <energy>
    <i name="e_fr_energy">   -395.67477694 </i>
    <i name="e_wo_entrp">   -394.64761863 </i>
    <i name="e_0_energy">   -395.16119779 </i>
   </energy>
  </scstep>
  <scstep>
   <time name="dav">    6.86    6.87</time>
   <time name="total">    7.36    7.36</time>
   <energy>
    <i name="e_fr_energy">   -459.81180163 </i>
    <i name="e_wo_entrp">   -458.86004545 </i>
    <i name="e_0_energy">   -459.33592354 </i>
   </energy>
  </scstep>
  <scstep>
   <time name="dav">    6.37    6.37</time>
   <time name="total">    7.10    7.10</time>
   <energy>
    <i name="e_fr_energy">   -362.55064883 </i>
    <i name="e_wo_entrp">   -361.73633030 </i>
    <i name="e_0_energy">   -362.14348956 </i>
   </energy>
  </scstep>
  <scstep>
   <time name="dav">    7.15    7.15</time>
   <time name="total">    7.64    7.64</time>
   <energy>
    <i name="e_fr_energy">   -426.59450863 </i>
    <i name="e_wo_entrp">   -425.78213172 </i>
    <i name="e_0_energy">   -426.18832018 </i>
   </energy>
  </scstep>
  <scstep>
   <time name="dav">    7.05    7.05</time>
   <time name="total">    7.55    7.55</time>
   <energy>
    <i name="e_fr_energy">   -372.79854891 </i>
    <i name="e_wo_entrp">   -371.85079419 </i>
    <i name="e_0_energy">   -372.32467155 </i>
   </energy>
  </scstep>
  <scstep>
   <time name="dav">    7.90    7.90</time>
   <time name="total">    8.38    8.38</time>
   <energy>
    <i name="e_fr_energy">   -399.80748281 </i>
    <i name="e_wo_entrp">   -398.69136748 </i>
    <i name="e_0_energy">   -399.24942515 </i>
   </energy>
  </scstep>
  <scstep>
   <time name="dav">    7.43    7.43</time>
   <time name="total">    7.91    7.92</time>
   <energy>
    <i name="e_fr_energy">   -378.68668277 </i>
    <i name="e_wo_entrp">   -377.80748963 </i>
    <i name="e_0_energy">   -378.24708620 </i>
   </energy>
  </scstep>
  <scstep>
   <time name="dav">    7.51    7.51</time>
   <time name="total">    8.00    8.00</time>
   <energy>
    <i name="e_fr_energy">   -361.28071305 </i>
    <i name="e_wo_entrp">   -360.49003407 </i>
    <i name="e_0_energy">   -360.88537356 </i>
   </energy>
  </scstep>
  <scstep>
   <time name="dav">    7.36    7.37</time>
   <time name="total">    7.85    7.86</time>
   <energy>
    <i name="e_fr_energy">   -360.86840918 </i>
    <i name="e_wo_entrp">   -359.92464452 </i>
    <i name="e_0_energy">   -360.39652685 </i>
   </energy>
  </scstep>
  <scstep>
   <time name="dav">    7.60    7.61</time>
   <time name="total">    8.09    8.09</time>
   <energy>
    <i name="e_fr_energy">   -355.08529515 </i>
    <i name="e_wo_entrp">   -354.34101239 </i>
    <i name="e_0_energy">   -354.71315377 </i>
   </energy>
  </scstep>
  <scstep>
   <time name="dav">    7.42    7.42</time>
   <time name="total">    7.91    7.91</time>
   <energy>
    <i name="e_fr_energy">   -352.39501239 </i>
    <i name="e_wo_entrp">   -351.56277396 </i>
    <i name="e_0_energy">   -351.97889318 </i>
   </energy>
  </scstep>
  <scstep>
   <time name="dav">    7.74    7.74</time>
   <time name="total">    8.23    8.23</time>
   <energy>
    <i name="e_fr_energy">   -351.73901563 </i>
    <i name="e_wo_entrp">   -350.91229484 </i>
    <i name="e_0_energy">   -351.32565524 </i>
   </energy>
  </scstep>
  <scstep>
   <time name="dav">    7.37    7.37</time>
   <time name="total">    7.87    7.87</time>
   <energy>
    <i name="e_fr_energy">   -350.75700767 </i>
    <i name="e_wo_entrp">   -349.89695793 </i>
    <i name="e_0_energy">   -350.32698280 </i>
   </energy>
  </scstep>
  <scstep>
   <time name="dav">    7.60    7.60</time>
   <time name="total">    8.09    8.09</time>
   <energy>
    <i name="e_fr_energy">   -350.39135476 </i>
    <i name="e_wo_entrp">   -349.51413730 </i>
    <i name="e_0_energy">   -349.95274603 </i>
   </energy>
  </scstep>
  <scstep>
   <time name="dav">    7.49    7.49</time>
   <time name="total">    7.98    7.98</time>
   <energy>
    <i name="e_fr_energy">   -349.79464741 </i>
    <i name="e_wo_entrp">   -348.90576570 </i>
    <i name="e_0_energy">   -349.35020655 </i>
   </energy>
  </scstep>
  <scstep>
   <time name="dav">    7.69    7.70</time>
   <time name="total">    8.18    8.18</time>
   <energy>
    <i name="e_fr_energy">   -349.08652175 </i>
    <i name="e_wo_entrp">   -348.16866629 </i>
    <i name="e_0_energy">   -348.62759402 </i>
   </energy>
  </scstep>
  <scstep>
   <time name="dav">    7.61    7.61</time>
   <time name="total">    8.11    8.11</time>
   <energy>
    <i name="e_fr_energy">   -348.44371497 </i>
    <i name="e_wo_entrp">   -347.48802989 </i>
    <i name="e_0_energy">   -347.96587243 </i>
   </energy>
  </scstep>
  <scstep>
   <time name="dav">    7.38    7.38</time>
   <time name="total">    8.10    8.11</time>
   <energy>
    <i name="e_fr_energy">   -348.33049891 </i>
    <i name="e_wo_entrp">   -347.36729431 </i>
    <i name="e_0_energy">   -347.84889661 </i>
   </energy>
  </scstep>
  <scstep>
   <time name="dav">    6.61    6.61</time>
   <time name="total">    7.10    7.11</time>
   <energy>
    <i name="e_fr_energy">   -348.29980133 </i>
    <i name="e_wo_entrp">   -347.33888854 </i>
    <i name="e_0_energy">   -347.81934494 </i>
   </energy>
  </scstep>
  <scstep>
   <time name="dav">    6.79    6.79</time>
   <time name="total">    7.29    7.29</time>
   <energy>
    <i name="e_fr_energy">   -348.29370800 </i>
    <i name="e_wo_entrp">   -347.33186432 </i>
    <i name="e_0_energy">   -347.81278616 </i>
   </energy>
  </scstep>
  <scstep>
   <time name="dav">    7.33    7.34</time>
   <time name="total">    7.83    7.84</time>
   <energy>
    <i name="e_fr_energy">   -348.27183987 </i>
    <i name="e_wo_entrp">   -347.32143493 </i>
    <i name="e_0_energy">   -347.79663740 </i>
   </energy>
  </scstep>
  <scstep>
   <time name="dav">    7.44    7.44</time>
   <time name="total">    7.94    7.95</time>
   <energy>
    <i name="e_fr_energy">   -348.27666348 </i>
    <i name="e_wo_entrp">   -347.31459440 </i>
    <i name="e_0_energy">   -347.79562894 </i>
   </energy>
  </scstep>
  <scstep>
   <time name="dav">    7.39    7.39</time>
   <time name="total">    7.89    7.89</time>
   <energy>
    <i name="e_fr_energy">   -348.23658440 </i>
    <i name="e_wo_entrp">   -347.27485936 </i>
    <i name="e_0_energy">   -347.75572188 </i>
   </energy>
  </scstep>
  <scstep>
   <time name="dav">    7.28    7.28</time>
   <time name="total">    7.78    7.78</time>
   <energy>
    <i name="e_fr_energy">   -348.24259161 </i>
    <i name="e_wo_entrp">   -347.28165642 </i>
    <i name="e_0_energy">   -347.76212401 </i>
   </energy>
  </scstep>
  <scstep>
   <time name="dav">    6.42    6.42</time>
   <time name="total">    6.92    6.93</time>
   <energy>
    <i name="e_fr_energy">   -348.23776666 </i>
    <i name="e_wo_entrp">   -347.27921861 </i>
    <i name="e_0_energy">   -347.75849264 </i>
   </energy>
  </scstep>
  <scstep>
   <time name="dav">    7.55    7.56</time>
   <time name="total">    8.05    8.06</time>
   <energy>
    <i name="e_fr_energy">   -348.23802464 </i>
    <i name="e_wo_entrp">   -347.28050325 </i>
    <i name="e_0_energy">   -347.75926394 </i>
   </energy>
  </scstep>
  <scstep>
   <time name="dav">    7.29    7.29</time>
   <time name="total">    7.80    7.80</time>
   <energy>
    <i name="e_fr_energy">   -348.23652170 </i>
    <i name="e_wo_entrp">   -347.27763104 </i>
    <i name="e_0_energy">   -347.75707637 </i>
   </energy>
  </scstep>
  <scstep>
   <time name="dav">    6.92    6.92</time>
   <time name="total">    7.55    7.55</time>
   <energy>
    <i name="e_fr_energy">   -348.23658279 </i>
    <i name="e_wo_entrp">   -347.27667225 </i>
    <i name="e_0_energy">   -347.75662752 </i>
   </energy>
  </scstep>
  <scstep>
   <time name="dav">    6.01    6.01</time>
   <time name="total">    6.51    6.52</time>
   <energy>
    <i name="e_fr_energy">   -348.23652471 </i>
    <i name="e_wo_entrp">   -347.27693337 </i>
    <i name="e_0_energy">   -347.75672904 </i>
   </energy>
  </scstep>
  <scstep>
   <time name="dav">    5.18    5.19</time>
   <time name="total">    5.69    5.69</time>
   <energy>
    <i name="e_fr_energy">   -348.23663438 </i>
    <i name="e_wo_entrp">   -347.27667334 </i>
    <i name="e_0_energy">   -347.75665386 </i>
   </energy>
  </scstep>
  <scstep>
   <time name="dav">    4.33    4.33</time>
   <time name="total">    4.84    4.88</time>
   <energy>
    <i name="e_fr_energy">   -348.23682789 </i>
    <i name="e_wo_entrp">   -347.27669711 </i>
    <i name="e_0_energy">   -347.75676250 </i>
   </energy>
  </scstep>
  <scstep>
   <time name="dav">    4.27    4.27</time>
   <time name="total">    4.77    4.78</time>
   <energy>
    <i name="e_fr_energy">   -348.23697711 </i>
    <i name="e_wo_entrp">   -347.27695179 </i>
    <i name="e_0_energy">   -347.75696445 </i>
   </energy>
  </scstep>
  <scstep>
   <time name="dav">    4.18    4.18</time>
   <time name="total">    4.87    4.92</time>
   <energy>
    <i name="e_fr_energy">   -348.23734028 </i>
    <i name="e_wo_entrp">   -347.27683211 </i>
    <i name="e_0_energy">   -347.75708619 </i>
   </energy>
  </scstep>
  <scstep>
   <time name="dav">    4.06    4.06</time>
   <time name="total">    4.62    4.62</time>
   <energy>
    <i name="e_fr_energy">   -348.23749341 </i>
    <i name="e_wo_entrp">   -347.27694785 </i>
    <i name="e_0_energy">   -347.75722063 </i>
   </energy>
  </scstep>
  <scstep>
   <time name="dav">    4.26    4.27</time>
   <time name="total">    4.78    4.78</time>
   <energy>
    <i name="e_fr_energy">   -348.23777198 </i>
    <i name="e_wo_entrp">   -347.27699450 </i>
    <i name="e_0_energy">   -347.75738324 </i>
   </energy>
  </scstep>
  <scstep>
   <time name="dav">    4.27    4.27</time>
   <time name="total">    4.79    4.83</time>
   <energy>
    <i name="e_fr_energy">   -348.23795851 </i>
    <i name="e_wo_entrp">   -347.27712625 </i>
    <i name="e_0_energy">   -347.75754238 </i>
   </energy>
  </scstep>
  <scstep>
   <time name="dav">    4.38    4.38</time>
   <time name="total">    4.90    4.90</time>
   <energy>
    <i name="e_fr_energy">   -348.23819654 </i>
    <i name="e_wo_entrp">   -347.27739608 </i>
    <i name="e_0_energy">   -347.75779631 </i>
   </energy>
  </scstep>
  <scstep>
   <time name="dav">    4.33    4.33</time>
   <time name="total">    4.85    4.85</time>
   <energy>
    <i name="e_fr_energy">   -348.23839851 </i>
    <i name="e_wo_entrp">   -347.27765485 </i>
    <i name="e_0_energy">   -347.75802668 </i>
   </energy>
  </scstep>
  <scstep>
   <time name="dav">    4.27    4.27</time>
   <time name="total">    4.80    4.81</time>
   <energy>
    <i name="e_fr_energy">   -348.23852334 </i>
    <i name="e_wo_entrp">   -347.27790013 </i>
    <i name="e_0_energy">   -347.75821174 </i>
   </energy>
  </scstep>
  <scstep>
   <time name="dav">    4.26    4.26</time>
   <time name="total">    4.80    4.80</time>
   <energy>
    <i name="e_fr_energy">   -348.23866034 </i>
    <i name="e_wo_entrp">   -347.27807884 </i>
    <i name="e_0_energy">   -347.75836959 </i>
   </energy>
  </scstep>
  <scstep>
   <time name="dav">    4.13    4.18</time>
   <time name="total">    4.40    4.45</time>
   <energy>
    <i name="alphaZ">   1909.09476555 </i>
    <i name="ewald"> 223672.46010484 </i>
    <i name="hartreedc">-345199.85227072 </i>
    <i name="XCdc">   3652.86017567 </i>
    <i name="pawpsdc"> 139394.20050414 </i>
    <i name="pawaedc">-144379.06267527 </i>
    <i name="eentropy">     -0.96058999 </i>
    <i name="bandstr"> -15399.58376737 </i>
    <i name="atom"> 136002.60505376 </i>
    <i name="e_fr_energy">   -348.23869939 </i>
    <i name="e_wo_entrp">   -347.27810940 </i>
    <i name="e_0_energy">   -347.75840439 </i>
   </energy>
  </scstep>
  <structure>
   <crystal>
    <varray name="basis" >
     <v>      10.07973298       0.00000000       0.00000000 </v>
     <v>       3.57329804       9.42510255       0.00000000 </v>
     <v>       0.00000000       0.00000000      20.51013988 </v>
    </varray>
    <i name="volume">   1948.51491473 </i>
    <varray name="rec_basis" >
     <v>       0.09920898      -0.03761267       0.00000000 </v>
     <v>       0.00000000       0.10609964       0.00000000 </v>
     <v>       0.00000000       0.00000000       0.04875637 </v>
    </varray>
   </crystal>
   <varray name="positions" >
    <v>       0.33780669       0.72187277       0.15721755 </v>
    <v>       0.52460066       0.60109368       0.22312232 </v>
    <v>       0.67486918       0.45082517       0.35113229 </v>
    <v>       0.78552662       0.32910808       0.46225612 </v>
    <v>       0.55310531       0.11773210       0.06791591 </v>
    <v>       0.75775499       0.03460603       0.13778234 </v>
    <v>       0.05829201       0.73406900       0.39380228 </v>
    <v>       0.90802350       0.88433751       0.26579231 </v>
    <v>       0.14117783       0.31784985       0.18045233 </v>
    <v>       0.29144634       0.16758134       0.30846230 </v>
    <v>       0.42287943       0.03313188       0.42275487 </v>
    <v>       0.95574630       0.48478972       0.12074171 </v>
    <v>       0.00994000       0.11575434       0.41150025 </v>
    <v>       0.55330048       0.66313456       0.09342469 </v>
    <v>       0.70940298       0.41629137       0.15548031 </v>
    <v>       0.85967149       0.26602286       0.28349028 </v>
    <v>       0.09282582       0.69953520       0.19815030 </v>
    <v>       0.24309433       0.54926669       0.32616027 </v>
    <v>       0.34914592       0.41582466       0.42236399 </v>
    <v>       0.94255730       0.84980371       0.07014033 </v>
    <v>       0.32598014       0.13304754       0.11281032 </v>
    <v>       0.47624865       0.98277903       0.24082029 </v>
    <v>       0.62651717       0.83251052       0.36883026 </v>
    <v>       0.76053617       0.70372974       0.45834797 </v>
    <v>       0.04007589       0.34323012       0.43476870 </v>
    <v>       0.66936193       0.84669528       0.10619730 </v>
    <v>       0.74910482       0.64079553       0.18930132 </v>
    <v>       0.89937333       0.49052701       0.31731128 </v>
    <v>       0.98225915       0.07430787       0.10396133 </v>
    <v>       0.13252766       0.92403936       0.23197130 </v>
    <v>       0.28279617       0.77377084       0.35998128 </v>
    <v>       0.48895504       0.71109259       0.42783023 </v>
    <v>       0.15138707       0.38836825       0.04896868 </v>
    <v>       0.36568198       0.35755170       0.14663132 </v>
    <v>       0.51595050       0.20728318       0.27464130 </v>
    <v>       0.66165010       0.06672249       0.38908620 </v>
    <v>       0.06382158       0.26208477       0.34135992 </v>
    <v>       0.20632716       0.13398432       0.43998869 </v>
    <v>       0.76328455       0.56262179       0.08533998 </v>
    <v>       0.91355306       0.41235328       0.21334995 </v>
    <v>       0.14670739       0.84586562       0.12800997 </v>
    <v>       0.29697590       0.69559711       0.25601994 </v>
    <v>       0.44724441       0.54532860       0.38402991 </v>
    <v>       0.00634902       0.98229451       0.01670291 </v>
    <v>       0.36622390       0.28471607       0.05140552 </v>
    <v>       0.53013023       0.12910945       0.17067996 </v>
    <v>       0.68039874       0.97884094       0.29868993 </v>
    <v>       0.82247616       0.84939917       0.40844720 </v>
    <v>       0.46794919       0.95863046       0.06138628 </v>
    <v>       0.52796422       0.79794212       0.17147277 </v>
    <v>       0.67823274       0.64767361       0.29948274 </v>
    <v>       0.82850125       0.49740510       0.42749271 </v>
    <v>       0.77349131       0.22388522       0.10332040 </v>
    <v>       0.91138706       0.08118595       0.21414276 </v>
    <v>       0.06165557       0.93091744       0.34215273 </v>
    <v>       0.22750898       0.73750123       0.45015311 </v>
    <v>       0.14454139       0.51469829       0.12880278 </v>
    <v>       0.29480990       0.36442978       0.25681275 </v>
    <v>       0.44507841       0.21416127       0.38482272 </v>
    <v>       0.99952655       0.60152270       0.03863934 </v>
    <v>       0.47740939       0.51206696       0.12840637 </v>
    <v>       0.62767790       0.36179845       0.25641634 </v>
    <v>       0.77794641       0.21152993       0.38442632 </v>
    <v>       0.97490536       0.21892435       0.50021461 </v>
    <v>       0.01110074       0.64504227       0.29908634 </v>
    <v>       0.13510074       0.50760363       0.41076686 </v>
    <v>       0.74217317       0.96387379       0.03988794 </v>
    <v>       0.86083223       0.79531079       0.17107636 </v>
    <v>       0.09573615       0.22853080       0.09471628 </v>
    <v>       0.24425506       0.07855462       0.21374635 </v>
    <v>       0.39452358       0.92828611       0.34175632 </v>
    <v>       0.56296447       0.85488572       0.46969990 </v>
   </varray>
  </structure>
  <varray name="forces" >
   <v>       0.62690567       0.23978682      -0.56755264 </v>
   <v>       0.97125913      -0.84503170       1.37169656 </v>
   <v>      -0.02961812      -0.09456753       0.23090459 </v>
   <v>      -1.88179849       0.86187893       0.73451732 </v>
   <v>       1.17572800       1.07669014      -1.13856410 </v>
   <v>       0.83998031       0.08632205       1.98207071 </v>
   <v>      -1.06590833       0.80781806      -1.08905354 </v>
   <v>       0.18088748       0.17238134       0.02332274 </v>
   <v>       0.68843458      -0.65086454       1.88261297 </v>
   <v>       0.24746496      -0.13870941      -0.23445137 </v>
   <v>       0.20866719       0.53671203       0.98277773 </v>
   <v>       0.20318187      -0.73640937       0.34306271 </v>
   <v>      -0.81856129      -1.31404086      -1.98222495 </v>
   <v>      -0.35413477       0.60156970      -1.43372162 </v>
   <v>      -0.24664218      -0.05931814       0.62331081 </v>
   <v>      -0.02362748      -0.41525015      -0.17101395 </v>
   <v>       0.16394008       0.14874404       0.16409089 </v>
   <v>      -0.13566767       0.38159469      -1.73206739 </v>
   <v>       0.65299064      -0.52432003       1.21219086 </v>
   <v>       0.29146374      -2.71236694       1.65244908 </v>
   <v>      -1.44557367      -0.14343163       1.47005926 </v>
   <v>      -0.01802709      -0.00268750       0.05593142 </v>
   <v>      -0.40276197       0.36254682      -2.25147181 </v>
   <v>       0.11934515      -0.49489874       0.85762344 </v>
   <v>       1.77891413       1.85408827       0.39991652 </v>
   <v>      -0.38708407      -1.17123079      -0.48948903 </v>
   <v>       0.15957991       0.09713135       0.33053041 </v>
   <v>       0.09931577       0.02489632      -0.09096056 </v>
   <v>       1.08029120       0.70329278       2.59424127 </v>
   <v>      -0.00119732       0.12157476      -0.11786490 </v>
   <v>       0.32114671       0.86900387      -2.24843354 </v>
   <v>      -0.64981994      -0.47832570       0.45039174 </v>
   <v>       0.01270351      -0.17122874      -2.24772446 </v>
   <v>       0.31174837       0.33358034       1.40930241 </v>
   <v>       0.21394004       0.05155534       0.17051366 </v>
   <v>       0.66816732       0.88715405       1.03297726 </v>
   <v>      -0.56077395      -0.06921622      -2.82219965 </v>
   <v>       0.49131353      -0.81892098       1.98617123 </v>
   <v>      -1.62021744       0.28775217      -2.61456247 </v>
   <v>      -0.39117514      -0.40053335       1.44068296 </v>
   <v>      -1.33957607       1.14568115      -0.88299827 </v>
   <v>       0.07029361      -0.24475315       1.03536401 </v>
   <v>       0.98835431      -1.27992783      -0.50995296 </v>
   <v>       1.31459087       0.35726014      -4.22310677 </v>
   <v>       1.31050313       0.87307266      -3.15986417 </v>
   <v>       0.10118740       0.57881576       2.33840589 </v>
   <v>      -0.58870694      -0.28466335      -2.47759453 </v>
   <v>       1.36724423      -0.01183572       1.64488923 </v>
   <v>      -1.81058374      -1.55126109      -2.07676719 </v>
   <v>      -0.75448745       1.34265451       2.65513685 </v>
   <v>      -0.22018239      -0.18075187      -0.58717321 </v>
   <v>       0.26071475       1.19097947      -0.37578866 </v>
   <v>      -0.63532040       1.77783456      -1.74630731 </v>
   <v>       0.14364883      -0.23422497       0.63553808 </v>
   <v>      -0.13300283       0.08354824      -0.16445586 </v>
   <v>       0.55544791       0.40103096       3.77675319 </v>
   <v>       2.69702630       1.82447134       2.23992840 </v>
   <v>       0.16671312       0.02690483      -0.43876245 </v>
   <v>       0.71474594       1.11052347      -0.42551698 </v>
   <v>       0.02184350       1.18733529      -1.44648668 </v>
   <v>      -1.23114189      -1.58148594      -0.18557287 </v>
   <v>       0.03057957       0.00232536       0.42608637 </v>
   <v>      -0.94992048      -1.21926636      -1.06994068 </v>
   <v>       0.23178917      -0.91527637       4.28595367 </v>
   <v>      -0.34849570       0.04757431      -0.88216646 </v>
   <v>      -0.76058586      -0.77500284       1.99449812 </v>
   <v>      -0.25211130      -0.55453600      -3.37579783 </v>
   <v>      -0.12503520      -0.09443576       0.54984605 </v>
   <v>      -1.66051112      -1.49045927      -1.43512581 </v>
   <v>       0.06235446      -0.21689443       0.39364412 </v>
   <v>      -0.39291399      -0.98245102      -2.05981090 </v>
   <v>      -0.30924210       0.40249234       3.37715302 </v>
  </varray>
  <varray name="stress" >
   <v>      78.61439702      -6.45206542       3.06337754 </v>
   <v>      -6.45206604      76.28891562       0.34557047 </v>
   <v>       3.06337758       0.34557038      84.79638443 </v>
  </varray>
  <energy>
   <i name="e_fr_energy">   -348.23869939 </i>
   <i name="e_wo_entrp">   -347.75840439 </i>
   <i name="e_0_energy">     -0.96058999 </i>
  </energy>
  <time name="totalsc">  315.22  315.51</time>
  <eigenvalues>
   <array>
    <dimension dim="1">band</dimension>
    <dimension dim="2">kpoint</dimension>
    <dimension dim="3">spin</dimension>
    <field>eigene</field>
    <field>occ</field>
    <set>
     <set comment="spin 1">
      <set comment="kpoint 1">
       <r>  -63.5395    1.0000 </r>
       <r>  -63.2984    1.0000 </r>
       <r>  -63.2624    1.0000 </r>
       <r>  -63.1791    1.0000 </r>
       <r>  -63.1737    1.0000 </r>
       <r>  -63.1611    1.0000 </r>
       <r>  -63.1585    1.0000 </r>
       <r>  -63.1413    1.0000 </r>
       <r>  -63.1315    1.0000 </r>
       <r>  -63.0610    1.0000 </r>
       <r>  -63.0305    1.0000 </r>
       <r>  -63.0298    1.0000 </r>
       <r>  -63.0167    1.0000 </r>
       <r>  -63.0020    1.0000 </r>
       <r>  -62.9841    1.0000 </r>
       <r>  -62.9651    1.0000 </r>
       <r>  -62.9555    1.0000 </r>
       <r>  -62.9501    1.0000 </r>
       <r>  -62.9483    1.0000 </r>
       <r>  -62.9362    1.0000 </r>
       <r>  -62.9220    1.0000 </r>
       <r>  -62.9187    1.0000 </r>
       <r>  -62.9051    1.0000 </r>
       <r>  -62.8822    1.0000 </r>
       <r>  -62.8774    1.0000 </r>
       <r>  -62.8750    1.0000 </r>
       <r>  -62.8706    1.0000 </r>
       <r>  -62.8600    1.0000 </r>
       <r>  -62.8591    1.0000 </r>
       <r>  -62.8341    1.0000 </r>
       <r>  -62.8257    1.0000 </r>
       <r>  -62.8252    1.0000 </r>
       <r>  -62.8243    1.0000 </r>
       <r>  -62.8190    1.0000 </r>
       <r>  -62.7962    1.0000 </r>
       <r>  -62.7760    1.0000 </r>
       <r>  -62.7673    1.0000 </r>
       <r>  -62.7412    1.0000 </r>
       <r>  -62.7322    1.0000 </r>
       <r>  -62.7145    1.0000 </r>
       <r>  -62.7087    1.0000 </r>
       <r>  -62.6996    1.0000 </r>
       <r>  -62.6993    1.0000 </r>
       <r>  -62.6986    1.0000 </r>
       <r>  -62.6899    1.0000 </r>
       <r>  -62.6770    1.0000 </r>
       <r>  -62.6689    1.0000 </r>
       <r>  -62.6592    1.0000 </r>
       <r>  -62.6454    1.0000 </r>
       <r>  -62.6441    1.0000 </r>
       <r>  -62.6413    1.0000 </r>
       <r>  -62.6398    1.0000 </r>
       <r>  -62.6374    1.0000 </r>
       <r>  -62.6309    1.0000 </r>
       <r>  -62.6224    1.0000 </r>
       <r>  -62.6199    1.0000 </r>
       <r>  -62.6188    1.0000 </r>
       <r>  -62.6153    1.0000 </r>
       <r>  -62.6111    1.0000 </r>
       <r>  -62.6040    1.0000 </r>
       <r>  -62.6010    1.0000 </r>
       <r>  -62.5967    1.0000 </r>
       <r>  -62.5894    1.0000 </r>
       <r>  -62.5854    1.0000 </r>
       <r>  -62.5785    1.0000 </r>
       <r>  -62.5733    1.0000 </r>
       <r>  -62.5562    1.0000 </r>
       <r>  -62.5514    1.0000 </r>
       <r>  -62.5444    1.0000 </r>
       <r>  -62.5412    1.0000 </r>
       <r>  -62.5263    1.0000 </r>
       <r>  -62.5252    1.0000 </r>
       <r>  -62.5144    1.0000 </r>
       <r>  -62.5124    1.0000 </r>
       <r>  -62.4951    1.0000 </r>
       <r>  -62.4929    1.0000 </r>
       <r>  -62.4895    1.0000 </r>
       <r>  -62.4788    1.0000 </r>
       <r>  -62.4759    1.0000 </r>
       <r>  -62.4750    1.0000 </r>
       <r>  -62.4742    1.0000 </r>
       <r>  -62.4715    1.0000 </r>
       <r>  -62.4660    1.0000 </r>
       <r>  -62.4624    1.0000 </r>
       <r>  -62.4491    1.0000 </r>
       <r>  -62.4431    1.0000 </r>
       <r>  -62.4404    1.0000 </r>
       <r>  -62.4274    1.0000 </r>
       <r>  -62.4237    1.0000 </r>
       <r>  -62.4206    1.0000 </r>
       <r>  -62.4074    1.0000 </r>
       <r>  -62.4064    1.0000 </r>
       <r>  -62.4008    1.0000 </r>
       <r>  -62.3801    1.0000 </r>
       <r>  -62.3730    1.0000 </r>
       <r>  -62.3712    1.0000 </r>
       <r>  -62.3596    1.0000 </r>
       <r>  -62.3534    1.0000 </r>
       <r>  -62.3257    1.0000 </r>
       <r>  -62.3182    1.0000 </r>
       <r>  -62.2950    1.0000 </r>
       <r>  -62.2884    1.0000 </r>
       <r>  -62.1926    1.0000 </r>
       <r>  -62.1541    1.0000 </r>
       <r>  -61.8511    1.0000 </r>
       <r>  -61.8494    1.0000 </r>
       <r>  -61.7978    1.0000 </r>
       <r>  -61.6232    1.0000 </r>
       <r>  -15.0840    1.0000 </r>
       <r>  -14.6145    1.0000 </r>
       <r>  -14.4159    1.0000 </r>
       <r>  -13.9872    1.0000 </r>
       <r>  -13.9466    1.0000 </r>
       <r>  -13.7631    1.0000 </r>
       <r>  -13.6801    1.0000 </r>
       <r>  -13.6001    1.0000 </r>
       <r>  -13.4945    1.0000 </r>
       <r>  -13.3535    1.0000 </r>
       <r>  -13.2661    1.0000 </r>
       <r>  -13.2339    1.0000 </r>
       <r>  -13.1163    1.0000 </r>
       <r>  -13.0181    1.0000 </r>
       <r>  -12.9767    1.0000 </r>
       <r>  -12.9464    1.0000 </r>
       <r>  -12.8774    1.0000 </r>
       <r>  -12.8289    1.0000 </r>
       <r>  -12.7648    1.0000 </r>
       <r>  -12.6906    1.0000 </r>
       <r>  -12.6551    1.0000 </r>
       <r>  -12.6251    1.0000 </r>
       <r>  -12.5744    1.0000 </r>
       <r>  -12.4262    1.0000 </r>
       <r>  -12.3852    1.0000 </r>
       <r>  -12.3069    1.0000 </r>
       <r>  -12.1375    1.0000 </r>
       <r>  -12.0997    1.0000 </r>
       <r>  -12.0142    1.0000 </r>
       <r>  -11.9188    1.0000 </r>
       <r>  -11.8449    1.0000 </r>
       <r>  -11.6704    1.0000 </r>
       <r>  -11.5581    1.0000 </r>
       <r>  -11.4805    1.0000 </r>
       <r>  -11.3775    1.0000 </r>
       <r>  -11.3350    1.0000 </r>
       <r>   -6.5993    1.0000 </r>
       <r>   -6.5649    1.0000 </r>
       <r>   -6.3824    1.0000 </r>
       <r>   -6.3458    1.0000 </r>
       <r>   -6.1807    1.0000 </r>
       <r>   -6.1001    1.0000 </r>
       <r>   -6.0550    1.0000 </r>
       <r>   -5.9996    1.0000 </r>
       <r>   -5.9805    1.0000 </r>
       <r>   -5.9113    1.0000 </r>
       <r>   -5.8329    1.0000 </r>
       <r>   -5.7706    1.0000 </r>
       <r>   -5.6814    1.0000 </r>
       <r>   -5.6341    1.0000 </r>
       <r>   -5.6168    1.0000 </r>
       <r>   -5.5186    1.0000 </r>
       <r>   -5.4940    1.0000 </r>
       <r>   -5.4657    1.0000 </r>
       <r>   -5.4419    1.0000 </r>
       <r>   -5.3978    1.0000 </r>
       <r>   -5.3660    1.0000 </r>
       <r>   -5.3070    1.0000 </r>
       <r>   -5.2342    1.0000 </r>
       <r>   -5.2204    1.0000 </r>
       <r>   -5.1353    1.0000 </r>
       <r>   -5.1242    1.0000 </r>
       <r>   -5.0413    1.0000 </r>
       <r>   -5.0241    1.0000 </r>
       <r>   -4.9820    1.0000 </r>
       <r>   -4.9235    1.0000 </r>
       <r>   -4.9059    1.0000 </r>
       <r>   -4.7992    1.0000 </r>
       <r>   -4.7726    1.0000 </r>
       <r>   -4.7279    1.0000 </r>
       <r>   -4.6848    1.0000 </r>
       <r>   -4.6787    1.0000 </r>
       <r>   -4.6144    1.0000 </r>
       <r>   -4.5579    1.0000 </r>
       <r>   -4.4754    1.0000 </r>
       <r>   -4.4211    1.0000 </r>
       <r>   -4.3750    1.0000 </r>
       <r>   -4.3713    1.0000 </r>
       <r>   -4.3057    1.0000 </r>
       <r>   -4.2797    1.0000 </r>
       <r>   -4.2150    1.0000 </r>
       <r>   -4.1870    1.0000 </r>
       <r>   -4.1044    1.0000 </r>
       <r>   -4.0251    1.0000 </r>
       <r>   -4.0113    1.0000 </r>
       <r>   -3.9480    1.0000 </r>
       <r>   -3.8938    1.0000 </r>
       <r>   -3.8775    1.0000 </r>
       <r>   -3.8532    1.0000 </r>
       <r>   -3.8428    1.0000 </r>
       <r>   -3.7928    1.0000 </r>
       <r>   -3.7490    1.0000 </r>
       <r>   -3.7154    1.0000 </r>
       <r>   -3.7041    1.0000 </r>
       <r>   -3.6152    1.0000 </r>
       <r>   -3.5909    1.0000 </r>
       <r>   -3.5828    1.0000 </r>
       <r>   -3.5560    1.0000 </r>
       <r>   -3.5293    1.0000 </r>
       <r>   -3.5092    1.0000 </r>
       <r>   -3.4882    1.0000 </r>
       <r>   -3.4553    1.0000 </r>
       <r>   -3.4393    1.0000 </r>
       <r>   -3.3918    1.0000 </r>
       <r>   -3.3384    1.0000 </r>
       <r>   -3.3072    1.0000 </r>
       <r>   -3.2792    1.0000 </r>
       <r>   -3.2657    1.0000 </r>
       <r>   -3.2282    1.0000 </r>
       <r>   -3.2075    1.0000 </r>
       <r>   -3.1926    1.0000 </r>
       <r>   -3.1608    1.0000 </r>
       <r>   -3.1257    1.0000 </r>
       <r>   -3.1093    1.0000 </r>
       <r>   -3.0658    1.0000 </r>
       <r>   -3.0145    1.0000 </r>
       <r>   -3.0005    1.0000 </r>
       <r>   -2.9591    1.0000 </r>
       <r>   -2.9195    1.0000 </r>
       <r>   -2.8795    1.0000 </r>
       <r>   -2.8571    1.0000 </r>
       <r>   -2.8068    1.0000 </r>
       <r>   -2.7905    1.0000 </r>
       <r>   -2.7483    1.0000 </r>
       <r>   -2.7375    1.0000 </r>
       <r>   -2.7088    1.0000 </r>
       <r>   -2.6277    1.0000 </r>
       <r>   -2.6095    1.0000 </r>
       <r>   -2.5789    1.0000 </r>
       <r>   -2.5234    1.0000 </r>
       <r>   -2.5145    1.0000 </r>
       <r>   -2.4471    1.0000 </r>
       <r>   -2.4050    1.0000 </r>
       <r>   -2.3669    1.0000 </r>
       <r>   -2.2412    1.0000 </r>
       <r>   -2.1805    1.0000 </r>
       <r>   -2.1395    1.0000 </r>
       <r>   -2.0932    1.0000 </r>
       <r>   -2.0318    1.0000 </r>
       <r>   -1.9885    1.0000 </r>
       <r>   -1.9804    1.0000 </r>
       <r>   -1.9300    1.0000 </r>
       <r>   -1.8801    1.0000 </r>
       <r>   -1.8193    1.0000 </r>
       <r>   -1.8058    1.0000 </r>
       <r>   -1.7526    1.0000 </r>
       <r>   -1.7341    1.0000 </r>
       <r>   -1.6943    1.0000 </r>
       <r>   -1.6664    1.0000 </r>
       <r>   -1.6389    1.0000 </r>
       <r>   -1.6024    1.0000 </r>
       <r>   -1.5483    1.0000 </r>
       <r>   -1.5252    1.0000 </r>
       <r>   -1.4999    1.0000 </r>
       <r>   -1.4740    1.0000 </r>
       <r>   -1.4603    1.0000 </r>
       <r>   -1.4292    1.0000 </r>
       <r>   -1.4079    1.0000 </r>
       <r>   -1.3976    1.0000 </r>
       <r>   -1.3726    1.0000 </r>
       <r>   -1.3582    1.0000 </r>
       <r>   -1.3355    1.0000 </r>
       <r>   -1.3046    1.0000 </r>
       <r>   -1.2571    1.0000 </r>
       <r>   -1.2388    1.0000 </r>
       <r>   -1.2348    1.0000 </r>
       <r>   -1.1985    1.0000 </r>
       <r>   -1.1658    1.0000 </r>
       <r>   -1.1521    1.0000 </r>
       <r>   -1.1342    1.0000 </r>
       <r>   -1.0958    1.0000 </r>
       <r>   -1.0760    1.0000 </r>
       <r>   -1.0686    1.0000 </r>
       <r>   -1.0587    1.0000 </r>
       <r>   -1.0270    1.0000 </r>
       <r>   -1.0167    1.0000 </r>
       <r>   -0.9948    1.0000 </r>
       <r>   -0.9742    1.0000 </r>
       <r>   -0.9534    1.0000 </r>
       <r>   -0.9268    1.0000 </r>
       <r>   -0.9243    1.0000 </r>
       <r>   -0.8864    1.0000 </r>
       <r>   -0.8710    1.0000 </r>
       <r>   -0.8571    1.0000 </r>
       <r>   -0.8269    1.0000 </r>
       <r>   -0.8116    1.0000 </r>
       <r>   -0.7892    1.0000 </r>
       <r>   -0.7639    1.0000 </r>
       <r>   -0.7517    1.0000 </r>
       <r>   -0.7428    1.0000 </r>
       <r>   -0.7332    1.0000 </r>
       <r>   -0.6963    1.0000 </r>
       <r>   -0.6700    1.0000 </r>
       <r>   -0.6545    1.0000 </r>
       <r>   -0.6413    1.0000 </r>
       <r>   -0.6238    1.0000 </r>
       <r>   -0.5960    1.0000 </r>
       <r>   -0.5784    1.0000 </r>
       <r>   -0.5724    1.0000 </r>
       <r>   -0.5508    1.0000 </r>
       <r>   -0.5361    1.0000 </r>
       <r>   -0.5272    1.0000 </r>
       <r>   -0.5130    1.0000 </r>
       <r>   -0.5060    1.0000 </r>
       <r>   -0.4824    1.0000 </r>
       <r>   -0.4692    1.0000 </r>
       <r>   -0.4564    1.0000 </r>
       <r>   -0.4498    1.0000 </r>
       <r>   -0.4230    1.0000 </r>
       <r>   -0.4095    1.0000 </r>
       <r>   -0.4082    1.0000 </r>
       <r>   -0.3837    1.0000 </r>
       <r>   -0.3595    1.0000 </r>
       <r>   -0.3550    1.0000 </r>
       <r>   -0.3336    1.0000 </r>
       <r>   -0.3212    1.0000 </r>
       <r>   -0.3104    1.0000 </r>
       <r>   -0.2966    1.0000 </r>
       <r>   -0.2927    1.0000 </r>
       <r>   -0.2802    1.0000 </r>
       <r>   -0.2457    1.0000 </r>
       <r>   -0.2372    1.0000 </r>
       <r>   -0.2294    1.0000 </r>
       <r>   -0.2129    1.0000 </r>
       <r>   -0.2009    1.0000 </r>
       <r>   -0.1974    1.0000 </r>
       <r>   -0.1902    1.0000 </r>
       <r>   -0.1609    1.0000 </r>
       <r>   -0.1395    1.0000 </r>
       <r>   -0.1302    1.0000 </r>
       <r>   -0.1152    1.0000 </r>
       <r>   -0.1064    1.0000 </r>
       <r>   -0.0993    1.0000 </r>
       <r>   -0.0807    1.0000 </r>
       <r>   -0.0605    1.0000 </r>
       <r>   -0.0487    1.0000 </r>
       <r>   -0.0413    1.0000 </r>
       <r>   -0.0222    1.0000 </r>
       <r>   -0.0122    1.0000 </r>
       <r>    0.0014    1.0000 </r>
       <r>    0.0134    1.0000 </r>
       <r>    0.0307    1.0000 </r>
       <r>    0.0539    1.0000 </r>
       <r>    0.0735    1.0000 </r>
       <r>    0.0957    1.0000 </r>
       <r>    0.1154    1.0000 </r>
       <r>    0.1349    1.0000 </r>
       <r>    0.1550    1.0000 </r>
       <r>    0.1657    1.0000 </r>
       <r>    0.2110    1.0000 </r>
       <r>    0.2402    1.0000 </r>
       <r>    0.2636    1.0000 </r>
       <r>    0.3114    1.0000 </r>
       <r>    0.3181    1.0000 </r>
       <r>    0.3416    1.0000 </r>
       <r>    0.3619    1.0000 </r>
       <r>    0.3797    1.0000 </r>
       <r>    0.4074    1.0000 </r>
       <r>    0.4355    1.0000 </r>
       <r>    0.5095    1.0000 </r>
       <r>    0.5178    1.0000 </r>
       <r>    0.5529    1.0000 </r>
       <r>    0.5693    1.0000 </r>
       <r>    0.6004    1.0000 </r>
       <r>    0.6474    1.0000 </r>
       <r>    0.6657    1.0000 </r>
       <r>    0.7071    1.0000 </r>
       <r>    0.7148    1.0000 </r>
       <r>    0.7541    1.0000 </r>
       <r>    0.7732    1.0000 </r>
       <r>    0.7803    1.0000 </r>
       <r>    0.8190    1.0000 </r>
       <r>    0.8709    1.0000 </r>
       <r>    0.9365    1.0000 </r>
       <r>    0.9539    1.0000 </r>
       <r>    1.0045    0.9999 </r>
       <r>    1.0435    0.9997 </r>
       <r>    1.0687    0.9994 </r>
       <r>    1.0965    0.9989 </r>
       <r>    1.1488    0.9963 </r>
       <r>    1.2391    0.9795 </r>
       <r>    1.2503    0.9753 </r>
       <r>    1.3063    0.9416 </r>
       <r>    1.3420    0.9059 </r>
       <r>    1.3671    0.8725 </r>
       <r>    1.4168    0.7843 </r>
       <r>    1.4744    0.6479 </r>
       <r>    1.5079    0.5568 </r>
       <r>    1.5627    0.4032 </r>
       <r>    1.5765    0.3660 </r>
       <r>    1.6569    0.1812 </r>
       <r>    1.6641    0.1680 </r>
       <r>    1.7037    0.1072 </r>
       <r>    1.7430    0.0643 </r>
       <r>    1.7942    0.0300 </r>
       <r>    1.8508    0.0112 </r>
       <r>    1.8840    0.0059 </r>
       <r>    1.9194    0.0028 </r>
       <r>    1.9444    0.0016 </r>
       <r>    2.0275    0.0002 </r>
       <r>    2.0436    0.0001 </r>
       <r>    2.0702    0.0001 </r>
       <r>    2.1146    0.0000 </r>
       <r>    2.1509    0.0000 </r>
       <r>    2.1718    0.0000 </r>
       <r>    2.2271    0.0000 </r>
       <r>    2.2631    0.0000 </r>
       <r>    2.3001    0.0000 </r>
       <r>    2.3631    0.0000 </r>
       <r>    2.3819    0.0000 </r>
       <r>    2.4141    0.0000 </r>
       <r>    2.4603    0.0000 </r>
       <r>    2.4848    0.0000 </r>
       <r>    2.4981    0.0000 </r>
       <r>    2.5413    0.0000 </r>
       <r>    2.6107    0.0000 </r>
       <r>    2.6392    0.0000 </r>
       <r>    2.7682    0.0000 </r>
       <r>    2.8074    0.0000 </r>
       <r>    2.8635    0.0000 </r>
       <r>    2.9508    0.0000 </r>
       <r>    3.0471    0.0000 </r>
       <r>    3.1507    0.0000 </r>
       <r>    3.1747    0.0000 </r>
       <r>    4.3691    0.0000 </r>
       <r>    4.5320    0.0000 </r>
       <r>    4.6526    0.0000 </r>
       <r>    4.7325    0.0000 </r>
       <r>    5.0411    0.0000 </r>
       <r>    5.0782    0.0000 </r>
       <r>    5.3411    0.0000 </r>
       <r>    5.3796    0.0000 </r>
       <r>    5.4706    0.0000 </r>
       <r>    5.6309    0.0000 </r>
       <r>    5.6754    0.0000 </r>
       <r>    5.7544    0.0000 </r>
       <r>    5.8183    0.0000 </r>
       <r>    5.9284    0.0000 </r>
       <r>    5.9526    0.0000 </r>
       <r>    6.0664    0.0000 </r>
       <r>    6.1328    0.0000 </r>
       <r>    6.2162    0.0000 </r>
       <r>    6.2573    0.0000 </r>
       <r>    6.2873    0.0000 </r>
       <r>    6.3868    0.0000 </r>
       <r>    6.4350    0.0000 </r>
       <r>    6.5445    0.0000 </r>
       <r>    6.5811    0.0000 </r>
       <r>    6.6560    0.0000 </r>
       <r>    6.7165    0.0000 </r>
       <r>    6.8060    0.0000 </r>
       <r>    6.8591    0.0000 </r>
       <r>    6.9165    0.0000 </r>
       <r>    6.9810    0.0000 </r>
       <r>    7.0065    0.0000 </r>
       <r>    7.0741    0.0000 </r>
       <r>    7.0788    0.0000 </r>
       <r>    7.1037    0.0000 </r>
       <r>    7.1866    0.0000 </r>
       <r>    7.2151    0.0000 </r>
       <r>    7.2738    0.0000 </r>
       <r>    7.3634    0.0000 </r>
       <r>    7.3895    0.0000 </r>
       <r>    7.4216    0.0000 </r>
       <r>    7.4737    0.0000 </r>
       <r>    7.4767    0.0000 </r>
       <r>    7.5188    0.0000 </r>
       <r>    7.5882    0.0000 </r>
      </set>
     </set>
    </set>
   </array>
  </eigenvalues>
  <separator name="orbital magnetization" >
   <v name="MAGDIPOLOUT">      0.00000000      0.00000000      0.00000000</v>
  </separator>
  <dos>
   <i name="efermi">      1.52809516 </i>
   <total>
    <array>
     <dimension dim="1">gridpoints</dimension>
     <dimension dim="2">spin</dimension>
     <field>energy</field>
     <field>total</field>
     <field>integrated</field>
     <set>
      <set comment="spin 1">
       <r>   -67.0959     0.0000     0.0000 </r>
       <r>   -66.8351     0.0000     0.0000 </r>
       <r>   -66.5743     0.0000     0.0000 </r>
       <r>   -66.3135     0.0000     0.0000 </r>
       <r>   -66.0527     0.0000     0.0000 </r>
       <r>   -65.7919     0.0000     0.0000 </r>
       <r>   -65.5311     0.0000     0.0000 </r>
       <r>   -65.2703     0.0000     0.0000 </r>
       <r>   -65.0095     0.0000     0.0000 </r>
       <r>   -64.7487     0.0000     0.0000 </r>
       <r>   -64.4879     0.0000     0.0000 </r>
       <r>   -64.2271     0.0000     0.0000 </r>
       <r>   -63.9663     0.0098     0.0026 </r>
       <r>   -63.7055     0.9374     0.2470 </r>
       <r>   -63.4447     7.7966     2.2804 </r>
       <r>   -63.1839    39.4151    12.5599 </r>
       <r>   -62.9231   123.0055    44.6399 </r>
       <r>   -62.6623   222.3594   102.6316 </r>
       <r>   -62.4015   269.0388   172.7973 </r>
       <r>   -62.1407   120.7284   204.2835 </r>
       <r>   -61.8799    22.7030   210.2045 </r>
       <r>   -61.6191    16.9013   214.6123 </r>
       <r>   -61.3583     5.0756   215.9361 </r>
       <r>   -61.0975     0.2444   215.9998 </r>
       <r>   -60.8367     0.0008   216.0000 </r>
       <r>   -60.5759     0.0000   216.0000 </r>
       <r>   -60.3151     0.0000   216.0000 </r>
       <r>   -60.0543     0.0000   216.0000 </r>
       <r>   -59.7935     0.0000   216.0000 </r>
       <r>   -59.5327     0.0000   216.0000 </r>
       <r>   -59.2719     0.0000   216.0000 </r>
       <r>   -59.0111     0.0000   216.0000 </r>
       <r>   -58.7503     0.0000   216.0000 </r>
       <r>   -58.4895     0.0000   216.0000 </r>
       <r>   -58.2287     0.0000   216.0000 </r>
       <r>   -57.9679     0.0000   216.0000 </r>
       <r>   -57.7071     0.0000   216.0000 </r>
       <r>   -57.4463     0.0000   216.0000 </r>
       <r>   -57.1855     0.0000   216.0000 </r>
       <r>   -56.9247     0.0000   216.0000 </r>
       <r>   -56.6639     0.0000   216.0000 </r>
       <r>   -56.4031     0.0000   216.0000 </r>
       <r>   -56.1423     0.0000   216.0000 </r>
       <r>   -55.8815     0.0000   216.0000 </r>
       <r>   -55.6207     0.0000   216.0000 </r>
       <r>   -55.3599     0.0000   216.0000 </r>
       <r>   -55.0991     0.0000   216.0000 </r>
       <r>   -54.8382     0.0000   216.0000 </r>
       <r>   -54.5774     0.0000   216.0000 </r>
       <r>   -54.3166     0.0000   216.0000 </r>
       <r>   -54.0558     0.0000   216.0000 </r>
       <r>   -53.7950     0.0000   216.0000 </r>
       <r>   -53.5342     0.0000   216.0000 </r>
       <r>   -53.2734     0.0000   216.0000 </r>
       <r>   -53.0126     0.0000   216.0000 </r>
       <r>   -52.7518     0.0000   216.0000 </r>
       <r>   -52.4910     0.0000   216.0000 </r>
       <r>   -52.2302     0.0000   216.0000 </r>
       <r>   -51.9694     0.0000   216.0000 </r>
       <r>   -51.7086     0.0000   216.0000 </r>
       <r>   -51.4478     0.0000   216.0000 </r>
       <r>   -51.1870     0.0000   216.0000 </r>
       <r>   -50.9262     0.0000   216.0000 </r>
       <r>   -50.6654     0.0000   216.0000 </r>
       <r>   -50.4046     0.0000   216.0000 </r>
       <r>   -50.1438     0.0000   216.0000 </r>
       <r>   -49.8830     0.0000   216.0000 </r>
       <r>   -49.6222     0.0000   216.0000 </r>
       <r>   -49.3614     0.0000   216.0000 </r>
       <r>   -49.1006     0.0000   216.0000 </r>
       <r>   -48.8398     0.0000   216.0000 </r>
       <r>   -48.5790     0.0000   216.0000 </r>
       <r>   -48.3182     0.0000   216.0000 </r>
       <r>   -48.0574     0.0000   216.0000 </r>
       <r>   -47.7966     0.0000   216.0000 </r>
       <r>   -47.5358     0.0000   216.0000 </r>
       <r>   -47.2750     0.0000   216.0000 </r>
       <r>   -47.0142     0.0000   216.0000 </r>
       <r>   -46.7534     0.0000   216.0000 </r>
       <r>   -46.4926     0.0000   216.0000 </r>
       <r>   -46.2318     0.0000   216.0000 </r>
       <r>   -45.9710     0.0000   216.0000 </r>
       <r>   -45.7102     0.0000   216.0000 </r>
       <r>   -45.4494     0.0000   216.0000 </r>
       <r>   -45.1886     0.0000   216.0000 </r>
       <r>   -44.9278     0.0000   216.0000 </r>
       <r>   -44.6670     0.0000   216.0000 </r>
       <r>   -44.4062     0.0000   216.0000 </r>
       <r>   -44.1454     0.0000   216.0000 </r>
       <r>   -43.8846     0.0000   216.0000 </r>
       <r>   -43.6238     0.0000   216.0000 </r>
       <r>   -43.3630     0.0000   216.0000 </r>
       <r>   -43.1022     0.0000   216.0000 </r>
       <r>   -42.8414     0.0000   216.0000 </r>
       <r>   -42.5806     0.0000   216.0000 </r>
       <r>   -42.3198     0.0000   216.0000 </r>
       <r>   -42.0590     0.0000   216.0000 </r>
       <r>   -41.7982     0.0000   216.0000 </r>
       <r>   -41.5374     0.0000   216.0000 </r>
       <r>   -41.2766     0.0000   216.0000 </r>
       <r>   -41.0158     0.0000   216.0000 </r>
       <r>   -40.7550     0.0000   216.0000 </r>
       <r>   -40.4942     0.0000   216.0000 </r>
       <r>   -40.2334     0.0000   216.0000 </r>
       <r>   -39.9726     0.0000   216.0000 </r>
       <r>   -39.7118     0.0000   216.0000 </r>
       <r>   -39.4510     0.0000   216.0000 </r>
       <r>   -39.1902     0.0000   216.0000 </r>
       <r>   -38.9294     0.0000   216.0000 </r>
       <r>   -38.6686     0.0000   216.0000 </r>
       <r>   -38.4078     0.0000   216.0000 </r>
       <r>   -38.1470     0.0000   216.0000 </r>
       <r>   -37.8862     0.0000   216.0000 </r>
       <r>   -37.6253     0.0000   216.0000 </r>
       <r>   -37.3645     0.0000   216.0000 </r>
       <r>   -37.1037     0.0000   216.0000 </r>
       <r>   -36.8429     0.0000   216.0000 </r>
       <r>   -36.5821     0.0000   216.0000 </r>
       <r>   -36.3213     0.0000   216.0000 </r>
       <r>   -36.0605     0.0000   216.0000 </r>
       <r>   -35.7997     0.0000   216.0000 </r>
       <r>   -35.5389     0.0000   216.0000 </r>
       <r>   -35.2781     0.0000   216.0000 </r>
       <r>   -35.0173     0.0000   216.0000 </r>
       <r>   -34.7565     0.0000   216.0000 </r>
       <r>   -34.4957     0.0000   216.0000 </r>
       <r>   -34.2349     0.0000   216.0000 </r>
       <r>   -33.9741     0.0000   216.0000 </r>
       <r>   -33.7133     0.0000   216.0000 </r>
       <r>   -33.4525     0.0000   216.0000 </r>
       <r>   -33.1917     0.0000   216.0000 </r>
       <r>   -32.9309     0.0000   216.0000 </r>
       <r>   -32.6701     0.0000   216.0000 </r>
       <r>   -32.4093     0.0000   216.0000 </r>
       <r>   -32.1485     0.0000   216.0000 </r>
       <r>   -31.8877     0.0000   216.0000 </r>
       <r>   -31.6269     0.0000   216.0000 </r>
       <r>   -31.3661     0.0000   216.0000 </r>
       <r>   -31.1053     0.0000   216.0000 </r>
       <r>   -30.8445     0.0000   216.0000 </r>
       <r>   -30.5837     0.0000   216.0000 </r>
       <r>   -30.3229     0.0000   216.0000 </r>
       <r>   -30.0621     0.0000   216.0000 </r>
       <r>   -29.8013     0.0000   216.0000 </r>
       <r>   -29.5405     0.0000   216.0000 </r>
       <r>   -29.2797     0.0000   216.0000 </r>
       <r>   -29.0189     0.0000   216.0000 </r>
       <r>   -28.7581     0.0000   216.0000 </r>
       <r>   -28.4973     0.0000   216.0000 </r>
       <r>   -28.2365     0.0000   216.0000 </r>
       <r>   -27.9757     0.0000   216.0000 </r>
       <r>   -27.7149     0.0000   216.0000 </r>
       <r>   -27.4541     0.0000   216.0000 </r>
       <r>   -27.1933     0.0000   216.0000 </r>
       <r>   -26.9325     0.0000   216.0000 </r>
       <r>   -26.6717     0.0000   216.0000 </r>
       <r>   -26.4109     0.0000   216.0000 </r>
       <r>   -26.1501     0.0000   216.0000 </r>
       <r>   -25.8893     0.0000   216.0000 </r>
       <r>   -25.6285     0.0000   216.0000 </r>
       <r>   -25.3677     0.0000   216.0000 </r>
       <r>   -25.1069     0.0000   216.0000 </r>
       <r>   -24.8461     0.0000   216.0000 </r>
       <r>   -24.5853     0.0000   216.0000 </r>
       <r>   -24.3245     0.0000   216.0000 </r>
       <r>   -24.0637     0.0000   216.0000 </r>
       <r>   -23.8029     0.0000   216.0000 </r>
       <r>   -23.5421     0.0000   216.0000 </r>
       <r>   -23.2813     0.0000   216.0000 </r>
       <r>   -23.0205     0.0000   216.0000 </r>
       <r>   -22.7597     0.0000   216.0000 </r>
       <r>   -22.4989     0.0000   216.0000 </r>
       <r>   -22.2381     0.0000   216.0000 </r>
       <r>   -21.9773     0.0000   216.0000 </r>
       <r>   -21.7165     0.0000   216.0000 </r>
       <r>   -21.4557     0.0000   216.0000 </r>
       <r>   -21.1949     0.0000   216.0000 </r>
       <r>   -20.9341     0.0000   216.0000 </r>
       <r>   -20.6732     0.0000   216.0000 </r>
       <r>   -20.4124     0.0000   216.0000 </r>
       <r>   -20.1516     0.0000   216.0000 </r>
       <r>   -19.8908     0.0000   216.0000 </r>
       <r>   -19.6300     0.0000   216.0000 </r>
       <r>   -19.3692     0.0000   216.0000 </r>
       <r>   -19.1084     0.0000   216.0000 </r>
       <r>   -18.8476     0.0000   216.0000 </r>
       <r>   -18.5868     0.0000   216.0000 </r>
       <r>   -18.3260     0.0000   216.0000 </r>
       <r>   -18.0652     0.0000   216.0000 </r>
       <r>   -17.8044     0.0000   216.0000 </r>
       <r>   -17.5436     0.0000   216.0000 </r>
       <r>   -17.2828     0.0000   216.0000 </r>
       <r>   -17.0220     0.0000   216.0000 </r>
       <r>   -16.7612     0.0000   216.0000 </r>
       <r>   -16.5004     0.0000   216.0000 </r>
       <r>   -16.2396     0.0000   216.0000 </r>
       <r>   -15.9788     0.0000   216.0000 </r>
       <r>   -15.7180     0.0000   216.0000 </r>
       <r>   -15.4572     0.0319   216.0083 </r>
       <r>   -15.1964     1.6046   216.4268 </r>
       <r>   -14.9356     4.9946   217.7294 </r>
       <r>   -14.6748     3.8481   218.7330 </r>
       <r>   -14.4140     8.1478   220.8580 </r>
       <r>   -14.1532     5.6327   222.3270 </r>
       <r>   -13.8924    11.5269   225.3332 </r>
       <r>   -13.6316    18.2701   230.0981 </r>
       <r>   -13.3708    19.8195   235.2670 </r>
       <r>   -13.1100    24.1623   241.5686 </r>
       <r>   -12.8492    32.4635   250.0351 </r>
       <r>   -12.5884    34.7870   259.1076 </r>
       <r>   -12.3276    25.9749   265.8819 </r>
       <r>   -12.0668    21.8059   271.5689 </r>
       <r>   -11.8060    20.9589   277.0350 </r>
       <r>   -11.5452    17.7841   281.6732 </r>
       <r>   -11.2844    18.6776   286.5443 </r>
       <r>   -11.0236     5.4229   287.9586 </r>
       <r>   -10.7628     0.1584   287.9999 </r>
       <r>   -10.5020     0.0003   288.0000 </r>
       <r>   -10.2412     0.0000   288.0000 </r>
       <r>    -9.9804     0.0000   288.0000 </r>
       <r>    -9.7196     0.0000   288.0000 </r>
       <r>    -9.4588     0.0000   288.0000 </r>
       <r>    -9.1980     0.0000   288.0000 </r>
       <r>    -8.9372     0.0000   288.0000 </r>
       <r>    -8.6764     0.0000   288.0000 </r>
       <r>    -8.4156     0.0000   288.0000 </r>
       <r>    -8.1548     0.0000   288.0000 </r>
       <r>    -7.8940     0.0000   288.0000 </r>
       <r>    -7.6332     0.0000   288.0000 </r>
       <r>    -7.3724     0.0000   288.0000 </r>
       <r>    -7.1116     0.0015   288.0004 </r>
       <r>    -6.8508     0.4580   288.1198 </r>
       <r>    -6.5900     7.7552   290.1424 </r>
       <r>    -6.3292    17.5656   294.7236 </r>
       <r>    -6.0684    24.7089   301.1677 </r>
       <r>    -5.8076    33.1683   309.8180 </r>
       <r>    -5.5468    37.2995   319.5458 </r>
       <r>    -5.2860    45.6750   331.4579 </r>
       <r>    -5.0252    42.9817   342.6676 </r>
       <r>    -4.7644    42.7602   353.8195 </r>
       <r>    -4.5036    41.7149   364.6988 </r>
       <r>    -4.2428    42.0092   375.6549 </r>
       <r>    -3.9820    41.9904   386.6061 </r>
       <r>    -3.7211    54.9066   400.9258 </r>
       <r>    -3.4603    64.9863   417.8743 </r>
       <r>    -3.1995    67.6564   435.5192 </r>
       <r>    -2.9387    63.2531   452.0157 </r>
       <r>    -2.6779    57.8039   467.0911 </r>
       <r>    -2.4171    47.9883   479.6065 </r>
       <r>    -2.1563    35.6109   488.8939 </r>
       <r>    -1.8955    44.4586   500.4887 </r>
       <r>    -1.6347    56.4817   515.2193 </r>
       <r>    -1.3739    74.3633   534.6133 </r>
       <r>    -1.1131    87.2838   557.3771 </r>
       <r>    -0.8523    98.9391   583.1805 </r>
       <r>    -0.5915   110.3504   611.9601 </r>
       <r>    -0.3307   133.1690   646.6908 </r>
       <r>    -0.0699   140.2934   683.2795 </r>
       <r>     0.1909   111.3761   712.3265 </r>
       <r>     0.4517    77.5463   732.5507 </r>
       <r>     0.7125    67.8280   750.2404 </r>
       <r>     0.9733    58.9386   765.6117 </r>
       <r>     1.2341    48.1194   778.1613 </r>
       <r>     1.4949    46.9605   790.4086 </r>
       <r>     1.7557    48.4609   803.0473 </r>
       <r>     2.0165    49.5517   815.9705 </r>
       <r>     2.2773    52.5648   829.6794 </r>
       <r>     2.5381    51.5584   843.1259 </r>
       <r>     2.7989    36.1520   852.5544 </r>
       <r>     3.0597    25.7945   859.2817 </r>
       <r>     3.3205    15.8052   863.4037 </r>
       <r>     3.5813     2.2613   863.9935 </r>
       <r>     3.8421     0.0258   864.0002 </r>
       <r>     4.1029     0.2382   864.0623 </r>
       <r>     4.3637     4.5680   865.2536 </r>
       <r>     4.6245    13.2444   868.7078 </r>
       <r>     4.8853    12.8238   872.0523 </r>
       <r>     5.1461    12.0552   875.1963 </r>
       <r>     5.4069    15.8211   879.3225 </r>
       <r>     5.6677    21.3028   884.8783 </r>
       <r>     5.9285    25.9802   891.6539 </r>
       <r>     6.1893    28.1185   898.9873 </r>
       <r>     6.4501    30.5659   906.9589 </r>
       <r>     6.7109    29.5135   914.6561 </r>
       <r>     6.9717    35.1015   923.8106 </r>
       <r>     7.2325    43.0152   935.0291 </r>
       <r>     7.4933    41.7493   945.9174 </r>
       <r>     7.7541    21.5241   951.5309 </r>
       <r>     8.0149     1.7860   951.9967 </r>
       <r>     8.2757     0.0127   952.0000 </r>
       <r>     8.5365     0.0000   952.0000 </r>
       <r>     8.7973     0.0000   952.0000 </r>
       <r>     9.0581     0.0000   952.0000 </r>
       <r>     9.3189     0.0000   952.0000 </r>
       <r>     9.5797     0.0000   952.0000 </r>
       <r>     9.8405     0.0000   952.0000 </r>
       <r>    10.1013     0.0000   952.0000 </r>
       <r>    10.3621     0.0000   952.0000 </r>
       <r>    10.6229     0.0000   952.0000 </r>
       <r>    10.8837     0.0000   952.0000 </r>
       <r>    11.1445     0.0000   952.0000 </r>
      </set>
     </set>
    </array>
   </total>
  </dos>
 </calculation>
 <structure name="finalpos" >
  <crystal>
   <varray name="basis" >
    <v>      10.07973298       0.00000000       0.00000000 </v>
    <v>       3.57329804       9.42510255       0.00000000 </v>
    <v>       0.00000000       0.00000000      20.51013988 </v>
   </varray>
   <i name="volume">   1948.51491473 </i>
   <varray name="rec_basis" >
    <v>       0.09920898      -0.03761267       0.00000000 </v>
    <v>       0.00000000       0.10609964       0.00000000 </v>
    <v>       0.00000000       0.00000000       0.04875637 </v>
   </varray>
  </crystal>
  <varray name="positions" >
   <v>       0.33780669       0.72187277       0.15721755 </v>
   <v>       0.52460066       0.60109368       0.22312232 </v>
   <v>       0.67486918       0.45082517       0.35113229 </v>
   <v>       0.78552662       0.32910808       0.46225612 </v>
   <v>       0.55310531       0.11773210       0.06791591 </v>
   <v>       0.75775499       0.03460603       0.13778234 </v>
   <v>       0.05829201       0.73406900       0.39380228 </v>
   <v>       0.90802350       0.88433751       0.26579231 </v>
   <v>       0.14117783       0.31784985       0.18045233 </v>
   <v>       0.29144634       0.16758134       0.30846230 </v>
   <v>       0.42287943       0.03313188       0.42275487 </v>
   <v>       0.95574630       0.48478972       0.12074171 </v>
   <v>       0.00994000       0.11575434       0.41150025 </v>
   <v>       0.55330048       0.66313456       0.09342469 </v>
   <v>       0.70940298       0.41629137       0.15548031 </v>
   <v>       0.85967149       0.26602286       0.28349028 </v>
   <v>       0.09282582       0.69953520       0.19815030 </v>
   <v>       0.24309433       0.54926669       0.32616027 </v>
   <v>       0.34914592       0.41582466       0.42236399 </v>
   <v>       0.94255730       0.84980371       0.07014033 </v>
   <v>       0.32598014       0.13304754       0.11281032 </v>
   <v>       0.47624865       0.98277903       0.24082029 </v>
   <v>       0.62651717       0.83251052       0.36883026 </v>
   <v>       0.76053617       0.70372974       0.45834797 </v>
   <v>       0.04007589       0.34323012       0.43476870 </v>
   <v>       0.66936193       0.84669528       0.10619730 </v>
   <v>       0.74910482       0.64079553       0.18930132 </v>
   <v>       0.89937333       0.49052701       0.31731128 </v>
   <v>       0.98225915       0.07430787       0.10396133 </v>
   <v>       0.13252766       0.92403936       0.23197130 </v>
   <v>       0.28279617       0.77377084       0.35998128 </v>
   <v>       0.48895504       0.71109259       0.42783023 </v>
   <v>       0.15138707       0.38836825       0.04896868 </v>
   <v>       0.36568198       0.35755170       0.14663132 </v>
   <v>       0.51595050       0.20728318       0.27464130 </v>
   <v>       0.66165010       0.06672249       0.38908620 </v>
   <v>       0.06382158       0.26208477       0.34135992 </v>
   <v>       0.20632716       0.13398432       0.43998869 </v>
   <v>       0.76328455       0.56262179       0.08533998 </v>
   <v>       0.91355306       0.41235328       0.21334995 </v>
   <v>       0.14670739       0.84586562       0.12800997 </v>
   <v>       0.29697590       0.69559711       0.25601994 </v>
   <v>       0.44724441       0.54532860       0.38402991 </v>
   <v>       0.00634902       0.98229451       0.01670291 </v>
   <v>       0.36622390       0.28471607       0.05140552 </v>
   <v>       0.53013023       0.12910945       0.17067996 </v>
   <v>       0.68039874       0.97884094       0.29868993 </v>
   <v>       0.82247616       0.84939917       0.40844720 </v>
   <v>       0.46794919       0.95863046       0.06138628 </v>
   <v>       0.52796422       0.79794212       0.17147277 </v>
   <v>       0.67823274       0.64767361       0.29948274 </v>
   <v>       0.82850125       0.49740510       0.42749271 </v>
   <v>       0.77349131       0.22388522       0.10332040 </v>
   <v>       0.91138706       0.08118595       0.21414276 </v>
   <v>       0.06165557       0.93091744       0.34215273 </v>
   <v>       0.22750898       0.73750123       0.45015311 </v>
   <v>       0.14454139       0.51469829       0.12880278 </v>
   <v>       0.29480990       0.36442978       0.25681275 </v>
   <v>       0.44507841       0.21416127       0.38482272 </v>
   <v>       0.99952655       0.60152270       0.03863934 </v>
   <v>       0.47740939       0.51206696       0.12840637 </v>
   <v>       0.62767790       0.36179845       0.25641634 </v>
   <v>       0.77794641       0.21152993       0.38442632 </v>
   <v>       0.97490536       0.21892435       0.50021461 </v>
   <v>       0.01110074       0.64504227       0.29908634 </v>
   <v>       0.13510074       0.50760363       0.41076686 </v>
   <v>       0.74217317       0.96387379       0.03988794 </v>
   <v>       0.86083223       0.79531079       0.17107636 </v>
   <v>       0.09573615       0.22853080       0.09471628 </v>
   <v>       0.24425506       0.07855462       0.21374635 </v>
   <v>       0.39452358       0.92828611       0.34175632 </v>
   <v>       0.56296447       0.85488572       0.46969990 </v>
  </varray>
 </structure>
</modeling>
