"Millerite NiS"                         
           1
     9.425103    3.573298    0.000000
     0.000000   10.079733    0.000000
     0.000000    0.000000   20.190263
   Ni   S 
    36    36
Direct configuration=     1
   0.37433214  0.75136221  0.09661922
   0.52460065  0.60109369  0.22665728
   0.67486917  0.45082518  0.35669533
   0.82513768  0.30055667  0.48673338
   0.60748647  0.18487455  0.00992719
   0.75775498  0.03460604  0.13996524
   0.05829200  0.73406901  0.40004134
   0.90802349  0.88433752  0.27000329
   0.14117782  0.31784986  0.18331126
   0.29144633  0.16758135  0.31334931
   0.44171484  0.01731284  0.44338736
   0.99090930  0.46811838  0.05327321
   0.00993999  0.11575435  0.41801971
   0.55913446  0.56655989  0.02790556
   0.70940297  0.41629138  0.15794361
   0.85967148  0.26602287  0.28798166
   0.09282580  0.69953521  0.20128963
   0.24309432  0.54926670  0.33132768
   0.39336283  0.39899818  0.46136573
   0.94255729  0.84980372  0.07125158
   0.32598013  0.13304755  0.11459759
   0.47624864  0.98277904  0.24463564
   0.62651716  0.83251053  0.37467369
   0.77678567  0.68224201  0.50471174
   0.04964184  0.34025851  0.45237654
   0.59883630  0.79106405  0.06226239
   0.74910481  0.64079554  0.19230044
   0.89937332  0.49052702  0.32233849
   0.98225914  0.07430788  0.10560841
   0.13252765  0.92403936  0.23564646
   0.28279616  0.77377085  0.36568451
   0.43306467  0.62350234  0.49572256
   0.21541346  0.50782022  0.01891638
   0.36568197  0.35755171  0.14895442
   0.51595048  0.20728320  0.27899248
   0.66621900  0.05701468  0.40903053
   0.06382157  0.26208478  0.34676813
   0.21409008  0.11181627  0.47680619
   0.76328454  0.56262180  0.08669203
   0.91355306  0.41235329  0.21673008
   0.14670738  0.84586563  0.13003805
   0.29697589  0.69559712  0.26007610
   0.44724440  0.54532861  0.39011415
   0.99643887  0.99613415  0.00000000
   0.37986171  0.27937798  0.04334602
   0.53013022  0.12910946  0.17338407
   0.68039873  0.97884095  0.30342212
   0.83066724  0.82857244  0.43346017
   0.37769570  0.94821065  0.04415139
   0.52796421  0.79794213  0.17418944
   0.67823273  0.64767362  0.30422749
   0.82850124  0.49740511  0.43426554
   0.76111854  0.23145447  0.08749740
   0.91138705  0.08118596  0.21753545
   0.06165556  0.93091745  0.34757350
   0.21192408  0.78064894  0.47761155
   0.14454138  0.51469830  0.13084342
   0.29480989  0.36442979  0.26088147
   0.44507840  0.21416128  0.39091952
   0.99427286  0.66496682  0.00080537
   0.32714087  0.66233548  0.00040268
   0.47740938  0.51206697  0.13044074
   0.62767789  0.36179846  0.26047878
   0.77794640  0.21152994  0.39051684
   0.01110073  0.64504229  0.30382480
   0.16136924  0.49477377  0.43386285
   0.71056370  0.94557931  0.04374870
   0.86083222  0.79531080  0.17378675
   0.09398654  0.22882314  0.08709472
   0.24425505  0.07855463  0.21713277
   0.39452357  0.92828611  0.34717082
   0.54479208  0.77801760  0.47720887
