       N       E                     dE             d eps       ncg     rms          rms(c)
DAV:   1     0.997904217886E+04    0.99790E+04   -0.51320E+05  1160   0.166E+03
DAV:   2     0.628181472621E+03   -0.93509E+04   -0.90414E+04  1004   0.534E+02
DAV:   3    -0.338391943640E+03   -0.96657E+03   -0.92014E+03  1080   0.187E+02
DAV:   4    -0.399533978116E+03   -0.61142E+02   -0.60350E+02  1104   0.418E+01
DAV:   5    -0.402028646142E+03   -0.24947E+01   -0.24901E+01  1232   0.885E+00    0.937E+01
DAV:   6    -0.457632774290E+03   -0.55604E+02   -0.92950E+02  1168   0.117E+02    0.144E+02
DAV:   7    -0.363940431615E+03    0.93692E+02   -0.19462E+02  1088   0.756E+01    0.585E+01
DAV:   8    -0.428036577153E+03   -0.64096E+02   -0.20249E+02  1240   0.905E+01    0.126E+02
DAV:   9    -0.374798740413E+03    0.53238E+02   -0.11706E+02  1224   0.608E+01    0.555E+01
DAV:  10    -0.399410574650E+03   -0.24612E+02   -0.82697E+01  1344   0.650E+01    0.863E+01
DAV:  11    -0.371076455169E+03    0.28334E+02   -0.51631E+01  1320   0.474E+01    0.507E+01
DAV:  12    -0.365844863696E+03    0.52316E+01   -0.36065E+01  1328   0.345E+01    0.353E+01
DAV:  13    -0.358959572395E+03    0.68853E+01   -0.12724E+01  1240   0.256E+01    0.255E+01
DAV:  14    -0.357674065607E+03    0.12855E+01   -0.11978E+01  1312   0.195E+01    0.235E+01
DAV:  15    -0.355710372982E+03    0.19637E+01   -0.32516E+00  1312   0.110E+01    0.154E+01
DAV:  16    -0.355335688111E+03    0.37468E+00   -0.93605E-01  1304   0.579E+00    0.138E+01
DAV:  17    -0.354981897487E+03    0.35379E+00   -0.44026E-01  1328   0.433E+00    0.126E+01
DAV:  18    -0.354701343909E+03    0.28055E+00   -0.26076E-01  1256   0.325E+00    0.111E+01
DAV:  19    -0.354208554188E+03    0.49279E+00   -0.29285E-01  1392   0.418E+00    0.841E+00
DAV:  20    -0.353761428796E+03    0.44713E+00   -0.66759E-01  1400   0.562E+00    0.423E+00
DAV:  21    -0.353729338446E+03    0.32090E-01   -0.33362E-01  1264   0.267E+00    0.313E+00
DAV:  22    -0.353714566280E+03    0.14772E-01   -0.64271E-02  1120   0.145E+00    0.251E+00
DAV:  23    -0.353715744035E+03   -0.11778E-02   -0.45860E-02  1184   0.160E+00    0.260E+00
DAV:  24    -0.353705134409E+03    0.10610E-01   -0.60521E-02  1224   0.181E+00    0.194E+00
DAV:  25    -0.353696099380E+03    0.90350E-02   -0.50373E-02  1272   0.166E+00    0.156E+00
DAV:  26    -0.353687939723E+03    0.81597E-02   -0.34382E-02  1304   0.130E+00    0.996E-01
DAV:  27    -0.353685020351E+03    0.29194E-02   -0.12888E-02  1264   0.712E-01    0.622E-01
DAV:  28    -0.353685524459E+03   -0.50411E-03   -0.43332E-03  1176   0.422E-01    0.581E-01
DAV:  29    -0.353684816982E+03    0.70748E-03   -0.17009E-03  1112   0.308E-01    0.418E-01
DAV:  30    -0.353684759478E+03    0.57504E-04   -0.10497E-03  1184   0.211E-01    0.259E-01
DAV:  31    -0.353685114746E+03   -0.35527E-03   -0.11523E-03  1240   0.241E-01    0.263E-01
DAV:  32    -0.353685217039E+03   -0.10229E-03   -0.86525E-04  1016   0.206E-01    0.159E-01
DAV:  33    -0.353685403502E+03   -0.18646E-03   -0.29746E-04   752   0.143E-01    0.143E-01
DAV:  34    -0.353685551372E+03   -0.14787E-03   -0.16167E-04   592   0.107E-01    0.813E-02
DAV:  35    -0.353685706031E+03   -0.15466E-03   -0.85724E-05   592   0.635E-02    0.695E-02
DAV:  36    -0.353686033447E+03   -0.32742E-03   -0.93705E-05   600   0.530E-02    0.412E-02
DAV:  37    -0.353686247780E+03   -0.21433E-03   -0.64485E-05   592   0.453E-02    0.474E-02
DAV:  38    -0.353686508084E+03   -0.26030E-03   -0.55602E-05   584   0.460E-02    0.331E-02
DAV:  39    -0.353686749361E+03   -0.24128E-03   -0.41315E-05   584   0.351E-02    0.425E-02
DAV:  40    -0.353687028458E+03   -0.27910E-03   -0.42025E-05   600   0.336E-02    0.215E-02
DAV:  41    -0.353687312957E+03   -0.28450E-03   -0.37496E-05   616   0.249E-02    0.307E-02
DAV:  42    -0.353687398256E+03   -0.85299E-04   -0.31141E-05   592   0.264E-02
   1 F= -.35368740E+03 E0= -.35322349E+03  d E =-.927807E+00
