LAMMPS (5 Jun 2019)
OMP_NUM_THREADS environment is not set. Defaulting to 1 thread. (../comm.cpp:88)
  using 1 OpenMP thread(s) per MPI task
Reading data file ...
  triclinic box = (0 0 0) to (10.0797 9.4251 20.5101) with tilt (3.5733 0 0)
  1 by 1 by 1 MPI processor grid
  reading atoms ...
  72 atoms
  read_data CPU = 0.000807691 secs
44 atoms in group bulk
WARNING: Using 'neigh_modify every 1 delay 0 check yes' setting during minimization (../min.cpp:168)
Neighbor list info ...
  update every 1 steps, delay 0 steps, check yes
  max neighbors/atom: 2000, page size: 100000
  master list distance cutoff = 8.5
  ghost atom cutoff = 8.5
  binsize = 4.25, bins = 4 3 5
  1 neighbor lists, perpetual/occasional/extra = 1 0 0
  (1) pair eam/alloy, perpetual
      attributes: half, newton on
      pair build: half/bin/newton/tri
      stencil: half/bin/3d/newton/tri
      bin: standard
Setting up cg style minimization ...
  Unit style    : metal
  Current step  : 0
Per MPI rank memory allocation (min/avg/max) = 4.115 | 4.115 | 4.115 Mbytes
Step Temp E_pair E_mol TotEng Press 
       0            0   -306.14196            0   -306.14196   -129398.34 
      36            0    -325.3564            0    -325.3564   -47141.582 
Loop time of 0.0232925 on 1 procs for 36 steps with 72 atoms

99.8% CPU use with 1 MPI tasks x 1 OpenMP threads

Minimization stats:
  Stopping criterion = energy tolerance
  Energy initial, next-to-last, final = 
        -306.141955038     -325.353840027      -325.35640023
  Force two-norm initial, final = 10.785 0.217714
  Force max component initial, final = 3.20167 0.100781
  Final line search alpha, max atom move = 0.392678 0.0395743
  Iterations, force evaluations = 36 48

MPI task timing breakdown:
Section |  min time  |  avg time  |  max time  |%varavg| %total
---------------------------------------------------------------
Pair    | 0.021236   | 0.021236   | 0.021236   |   0.0 | 91.17
Neigh   | 0.0011261  | 0.0011261  | 0.0011261  |   0.0 |  4.83
Comm    | 0.00048523 | 0.00048523 | 0.00048523 |   0.0 |  2.08
Output  | 0          | 0          | 0          |   0.0 |  0.00
Modify  | 3.6698e-05 | 3.6698e-05 | 3.6698e-05 |   0.0 |  0.16
Other   |            | 0.0004082  |            |       |  1.75

Nlocal:    72 ave 72 max 72 min
Histogram: 1 0 0 0 0 0 0 0 0 0
Nghost:    953 ave 953 max 953 min
Histogram: 1 0 0 0 0 0 0 0 0 0
Neighs:    4756 ave 4756 max 4756 min
Histogram: 1 0 0 0 0 0 0 0 0 0

Total # of neighbors = 4756
Ave neighs/atom = 66.0556
Neighbor list builds = 2
Dangerous builds = 0
System init for write_data ...
Total wall time: 0:00:00
