       N       E                     dE             d eps       ncg     rms          rms(c)
DAV:   1     0.999349689111E+04    0.99935E+04   -0.51337E+05  1160   0.166E+03
DAV:   2     0.619914744565E+03   -0.93736E+04   -0.90401E+04  1012   0.534E+02
DAV:   3    -0.338684351313E+03   -0.95860E+03   -0.91222E+03  1080   0.186E+02
DAV:   4    -0.397469674469E+03   -0.58785E+02   -0.58130E+02  1120   0.416E+01
DAV:   5    -0.399568388982E+03   -0.20987E+01   -0.20954E+01  1192   0.841E+00    0.964E+01
DAV:   6    -0.461410438124E+03   -0.61842E+02   -0.91709E+02  1216   0.121E+02    0.151E+02
DAV:   7    -0.368442653445E+03    0.92968E+02   -0.20180E+02  1064   0.810E+01    0.666E+01
DAV:   8    -0.458032417903E+03   -0.89590E+02   -0.21940E+02  1256   0.108E+02    0.148E+02
DAV:   9    -0.382804265481E+03    0.75228E+02   -0.15958E+02  1232   0.740E+01    0.773E+01
DAV:  10    -0.407524773043E+03   -0.24721E+02   -0.14583E+02  1352   0.782E+01    0.918E+01
DAV:  11    -0.391687360758E+03    0.15837E+02   -0.81358E+01  1280   0.500E+01    0.726E+01
DAV:  12    -0.367836417386E+03    0.23851E+02   -0.43949E+01  1248   0.433E+01    0.422E+01
DAV:  13    -0.364973348566E+03    0.28631E+01   -0.29306E+01  1288   0.371E+01    0.538E+01
DAV:  14    -0.359448562862E+03    0.55248E+01   -0.29582E+01  1312   0.223E+01    0.325E+01
DAV:  15    -0.354787915301E+03    0.46606E+01   -0.66341E+00  1312   0.167E+01    0.207E+01
DAV:  16    -0.354030269998E+03    0.75765E+00   -0.24980E+00  1320   0.812E+00    0.187E+01
DAV:  17    -0.353198466457E+03    0.83180E+00   -0.93259E-01  1272   0.614E+00    0.156E+01
DAV:  18    -0.352871129571E+03    0.32734E+00   -0.56342E-01  1320   0.508E+00    0.150E+01
DAV:  19    -0.352254376068E+03    0.61675E+00   -0.33506E-01  1280   0.367E+00    0.124E+01
DAV:  20    -0.351663439898E+03    0.59094E+00   -0.32582E-01  1360   0.396E+00    0.954E+00
DAV:  21    -0.351154768235E+03    0.50867E+00   -0.61460E-01  1392   0.569E+00    0.542E+00
DAV:  22    -0.351110645225E+03    0.44123E-01   -0.34879E-01  1288   0.290E+00    0.439E+00
DAV:  23    -0.351079621197E+03    0.31024E-01   -0.14843E-01  1200   0.260E+00    0.363E+00
DAV:  24    -0.351088027486E+03   -0.84063E-02   -0.15837E-01  1192   0.301E+00    0.367E+00
DAV:  25    -0.351052458650E+03    0.35569E-01   -0.19111E-01  1288   0.338E+00    0.228E+00
DAV:  26    -0.351047003131E+03    0.54555E-02   -0.11225E-01  1272   0.218E+00    0.211E+00
DAV:  27    -0.351030802468E+03    0.16201E-01   -0.53014E-02  1144   0.160E+00    0.113E+00
DAV:  28    -0.351029744729E+03    0.10577E-02   -0.19879E-02  1304   0.867E-01    0.101E+00
DAV:  29    -0.351025957300E+03    0.37874E-02   -0.77735E-03  1296   0.623E-01    0.466E-01
DAV:  30    -0.351026500489E+03   -0.54319E-03   -0.31914E-03  1264   0.328E-01    0.504E-01
DAV:  31    -0.351026546535E+03   -0.46046E-04   -0.23520E-03  1088   0.350E-01    0.425E-01
DAV:  32    -0.351026598180E+03   -0.51645E-04   -0.11448E-03  1136   0.247E-01    0.327E-01
DAV:  33    -0.351026532672E+03    0.65509E-04   -0.85087E-04  1032   0.223E-01
   1 F= -.35102653E+03 E0= -.35051222E+03  d E =-.102863E+01
