  72  72   0   0
  0.3631948E+02  0.1688469E-08  0.9578410E-09  0.1616909E-08  0.5000000E-15
  1.000000000000000E-004
  CAR 
 "Millerite NiS"                         
      9.27754403    -68.72499429  301     -0.21923876      1.00000000
    -68.725  0.0000E+00  0.0000E+00
    -68.465  0.0000E+00  0.0000E+00
    -68.205  0.0000E+00  0.0000E+00
    -67.945  0.0000E+00  0.0000E+00
    -67.685  0.0000E+00  0.0000E+00
    -67.425  0.0000E+00  0.0000E+00
    -67.165  0.0000E+00  0.0000E+00
    -66.905  0.0000E+00  0.0000E+00
    -66.645  0.0000E+00  0.0000E+00
    -66.385  0.0000E+00  0.0000E+00
    -66.125  0.9255E-10  0.2406E-10
    -65.865  0.5387E-05  0.1401E-05
    -65.605  0.1323E-01  0.3441E-02
    -65.345  0.1767E+01  0.4628E+00
    -65.085  0.2503E+02  0.6970E+01
    -64.825  0.1034E+03  0.3385E+02
    -64.565  0.1788E+03  0.8035E+02
    -64.305  0.2035E+03  0.1333E+03
    -64.045  0.1731E+03  0.1783E+03
    -63.785  0.8470E+02  0.2003E+03
    -63.525  0.4429E+02  0.2118E+03
    -63.265  0.1532E+02  0.2158E+03
    -63.005  0.8088E+00  0.2160E+03
    -62.745  0.2820E-02  0.2160E+03
    -62.485  0.4538E-06  0.2160E+03
    -62.225  0.2889E-11  0.2160E+03
    -61.965  0.0000E+00  0.2160E+03
    -61.705  0.0000E+00  0.2160E+03
    -61.445  0.0000E+00  0.2160E+03
    -61.185  0.0000E+00  0.2160E+03
    -60.925  0.0000E+00  0.2160E+03
    -60.665  0.0000E+00  0.2160E+03
    -60.405  0.0000E+00  0.2160E+03
    -60.145  0.0000E+00  0.2160E+03
    -59.885  0.0000E+00  0.2160E+03
    -59.625  0.0000E+00  0.2160E+03
    -59.365  0.0000E+00  0.2160E+03
    -59.105  0.0000E+00  0.2160E+03
    -58.845  0.0000E+00  0.2160E+03
    -58.585  0.0000E+00  0.2160E+03
    -58.325  0.0000E+00  0.2160E+03
    -58.065  0.0000E+00  0.2160E+03
    -57.805  0.0000E+00  0.2160E+03
    -57.545  0.0000E+00  0.2160E+03
    -57.285  0.0000E+00  0.2160E+03
    -57.025  0.0000E+00  0.2160E+03
    -56.765  0.0000E+00  0.2160E+03
    -56.505  0.0000E+00  0.2160E+03
    -56.245  0.0000E+00  0.2160E+03
    -55.985  0.0000E+00  0.2160E+03
    -55.725  0.0000E+00  0.2160E+03
    -55.465  0.0000E+00  0.2160E+03
    -55.205  0.0000E+00  0.2160E+03
    -54.945  0.0000E+00  0.2160E+03
    -54.685  0.0000E+00  0.2160E+03
    -54.425  0.0000E+00  0.2160E+03
    -54.165  0.0000E+00  0.2160E+03
    -53.905  0.0000E+00  0.2160E+03
    -53.645  0.0000E+00  0.2160E+03
    -53.384  0.0000E+00  0.2160E+03
    -53.124  0.0000E+00  0.2160E+03
    -52.864  0.0000E+00  0.2160E+03
    -52.604  0.0000E+00  0.2160E+03
    -52.344  0.0000E+00  0.2160E+03
    -52.084  0.0000E+00  0.2160E+03
    -51.824  0.0000E+00  0.2160E+03
    -51.564  0.0000E+00  0.2160E+03
    -51.304  0.0000E+00  0.2160E+03
    -51.044  0.0000E+00  0.2160E+03
    -50.784  0.0000E+00  0.2160E+03
    -50.524  0.0000E+00  0.2160E+03
    -50.264  0.0000E+00  0.2160E+03
    -50.004  0.0000E+00  0.2160E+03
    -49.744  0.0000E+00  0.2160E+03
    -49.484  0.0000E+00  0.2160E+03
    -49.224  0.0000E+00  0.2160E+03
    -48.964  0.0000E+00  0.2160E+03
    -48.704  0.0000E+00  0.2160E+03
    -48.444  0.0000E+00  0.2160E+03
    -48.184  0.0000E+00  0.2160E+03
    -47.924  0.0000E+00  0.2160E+03
    -47.664  0.0000E+00  0.2160E+03
    -47.404  0.0000E+00  0.2160E+03
    -47.144  0.0000E+00  0.2160E+03
    -46.884  0.0000E+00  0.2160E+03
    -46.624  0.0000E+00  0.2160E+03
    -46.364  0.0000E+00  0.2160E+03
    -46.104  0.0000E+00  0.2160E+03
    -45.844  0.0000E+00  0.2160E+03
    -45.584  0.0000E+00  0.2160E+03
    -45.324  0.0000E+00  0.2160E+03
    -45.064  0.0000E+00  0.2160E+03
    -44.804  0.0000E+00  0.2160E+03
    -44.544  0.0000E+00  0.2160E+03
    -44.284  0.0000E+00  0.2160E+03
    -44.024  0.0000E+00  0.2160E+03
    -43.764  0.0000E+00  0.2160E+03
    -43.504  0.0000E+00  0.2160E+03
    -43.244  0.0000E+00  0.2160E+03
    -42.984  0.0000E+00  0.2160E+03
    -42.724  0.0000E+00  0.2160E+03
    -42.464  0.0000E+00  0.2160E+03
    -42.204  0.0000E+00  0.2160E+03
    -41.944  0.0000E+00  0.2160E+03
    -41.684  0.0000E+00  0.2160E+03
    -41.424  0.0000E+00  0.2160E+03
    -41.164  0.0000E+00  0.2160E+03
    -40.904  0.0000E+00  0.2160E+03
    -40.644  0.0000E+00  0.2160E+03
    -40.384  0.0000E+00  0.2160E+03
    -40.124  0.0000E+00  0.2160E+03
    -39.864  0.0000E+00  0.2160E+03
    -39.604  0.0000E+00  0.2160E+03
    -39.344  0.0000E+00  0.2160E+03
    -39.084  0.0000E+00  0.2160E+03
    -38.824  0.0000E+00  0.2160E+03
    -38.564  0.0000E+00  0.2160E+03
    -38.304  0.0000E+00  0.2160E+03
    -38.044  0.0000E+00  0.2160E+03
    -37.784  0.0000E+00  0.2160E+03
    -37.524  0.0000E+00  0.2160E+03
    -37.264  0.0000E+00  0.2160E+03
    -37.004  0.0000E+00  0.2160E+03
    -36.744  0.0000E+00  0.2160E+03
    -36.484  0.0000E+00  0.2160E+03
    -36.224  0.0000E+00  0.2160E+03
    -35.964  0.0000E+00  0.2160E+03
    -35.704  0.0000E+00  0.2160E+03
    -35.444  0.0000E+00  0.2160E+03
    -35.184  0.0000E+00  0.2160E+03
    -34.924  0.0000E+00  0.2160E+03
    -34.664  0.0000E+00  0.2160E+03
    -34.404  0.0000E+00  0.2160E+03
    -34.144  0.0000E+00  0.2160E+03
    -33.884  0.0000E+00  0.2160E+03
    -33.624  0.0000E+00  0.2160E+03
    -33.364  0.0000E+00  0.2160E+03
    -33.104  0.0000E+00  0.2160E+03
    -32.844  0.0000E+00  0.2160E+03
    -32.584  0.0000E+00  0.2160E+03
    -32.324  0.0000E+00  0.2160E+03
    -32.064  0.0000E+00  0.2160E+03
    -31.804  0.0000E+00  0.2160E+03
    -31.544  0.0000E+00  0.2160E+03
    -31.284  0.0000E+00  0.2160E+03
    -31.024  0.0000E+00  0.2160E+03
    -30.764  0.0000E+00  0.2160E+03
    -30.504  0.0000E+00  0.2160E+03
    -30.244  0.0000E+00  0.2160E+03
    -29.984  0.0000E+00  0.2160E+03
    -29.724  0.0000E+00  0.2160E+03
    -29.464  0.0000E+00  0.2160E+03
    -29.204  0.0000E+00  0.2160E+03
    -28.944  0.0000E+00  0.2160E+03
    -28.684  0.0000E+00  0.2160E+03
    -28.424  0.0000E+00  0.2160E+03
    -28.164  0.0000E+00  0.2160E+03
    -27.904  0.0000E+00  0.2160E+03
    -27.644  0.0000E+00  0.2160E+03
    -27.384  0.0000E+00  0.2160E+03
    -27.124  0.0000E+00  0.2160E+03
    -26.864  0.0000E+00  0.2160E+03
    -26.604  0.0000E+00  0.2160E+03
    -26.344  0.0000E+00  0.2160E+03
    -26.084  0.0000E+00  0.2160E+03
    -25.824  0.0000E+00  0.2160E+03
    -25.564  0.0000E+00  0.2160E+03
    -25.304  0.0000E+00  0.2160E+03
    -25.044  0.0000E+00  0.2160E+03
    -24.784  0.0000E+00  0.2160E+03
    -24.524  0.0000E+00  0.2160E+03
    -24.264  0.0000E+00  0.2160E+03
    -24.004  0.0000E+00  0.2160E+03
    -23.744  0.0000E+00  0.2160E+03
    -23.484  0.0000E+00  0.2160E+03
    -23.224  0.0000E+00  0.2160E+03
    -22.964  0.0000E+00  0.2160E+03
    -22.703  0.0000E+00  0.2160E+03
    -22.443  0.0000E+00  0.2160E+03
    -22.183  0.0000E+00  0.2160E+03
    -21.923  0.0000E+00  0.2160E+03
    -21.663  0.0000E+00  0.2160E+03
    -21.403  0.0000E+00  0.2160E+03
    -21.143  0.0000E+00  0.2160E+03
    -20.883  0.0000E+00  0.2160E+03
    -20.623  0.0000E+00  0.2160E+03
    -20.363  0.0000E+00  0.2160E+03
    -20.103  0.0000E+00  0.2160E+03
    -19.843  0.0000E+00  0.2160E+03
    -19.583  0.0000E+00  0.2160E+03
    -19.323  0.0000E+00  0.2160E+03
    -19.063  0.0000E+00  0.2160E+03
    -18.803  0.0000E+00  0.2160E+03
    -18.543  0.0000E+00  0.2160E+03
    -18.283  0.0000E+00  0.2160E+03
    -18.023  0.0000E+00  0.2160E+03
    -17.763  0.3292E-12  0.2160E+03
    -17.503  0.7224E-07  0.2160E+03
    -17.243  0.5927E-03  0.2160E+03
    -16.983  0.1982E+00  0.2161E+03
    -16.723  0.3340E+01  0.2169E+03
    -16.463  0.5238E+01  0.2183E+03
    -16.203  0.7699E+01  0.2203E+03
    -15.943  0.9663E+01  0.2228E+03
    -15.683  0.1307E+02  0.2262E+03
    -15.423  0.9804E+01  0.2287E+03
    -15.163  0.1655E+02  0.2330E+03
    -14.903  0.2598E+02  0.2398E+03
    -14.643  0.2801E+02  0.2471E+03
    -14.383  0.3347E+02  0.2558E+03
    -14.123  0.2860E+02  0.2632E+03
    -13.863  0.2114E+02  0.2687E+03
    -13.603  0.1663E+02  0.2730E+03
    -13.343  0.2525E+02  0.2796E+03
    -13.083  0.1892E+02  0.2845E+03
    -12.823  0.1004E+02  0.2871E+03
    -12.563  0.3205E+01  0.2880E+03
    -12.303  0.1092E+00  0.2880E+03
    -12.043  0.2034E-03  0.2880E+03
    -11.783  0.1558E-07  0.2880E+03
    -11.523  0.4441E-13  0.2880E+03
    -11.263  0.0000E+00  0.2880E+03
    -11.003  0.0000E+00  0.2880E+03
    -10.743  0.0000E+00  0.2880E+03
    -10.483  0.0000E+00  0.2880E+03
    -10.223  0.0000E+00  0.2880E+03
     -9.963  0.0000E+00  0.2880E+03
     -9.703  0.0000E+00  0.2880E+03
     -9.443  0.2562E-13  0.2880E+03
     -9.183  0.1057E-07  0.2880E+03
     -8.923  0.1679E-03  0.2880E+03
     -8.663  0.1129E+00  0.2880E+03
     -8.403  0.3979E+01  0.2891E+03
     -8.143  0.1349E+02  0.2926E+03
     -7.883  0.2264E+02  0.2985E+03
     -7.623  0.3140E+02  0.3066E+03
     -7.363  0.3636E+02  0.3161E+03
     -7.103  0.3696E+02  0.3257E+03
     -6.843  0.3478E+02  0.3347E+03
     -6.583  0.3833E+02  0.3447E+03
     -6.323  0.5062E+02  0.3579E+03
     -6.063  0.5414E+02  0.3719E+03
     -5.803  0.5485E+02  0.3862E+03
     -5.543  0.5308E+02  0.4000E+03
     -5.283  0.6032E+02  0.4157E+03
     -5.023  0.6411E+02  0.4323E+03
     -4.763  0.5921E+02  0.4477E+03
     -4.503  0.4904E+02  0.4605E+03
     -4.243  0.5014E+02  0.4735E+03
     -3.983  0.4440E+02  0.4851E+03
     -3.723  0.4650E+02  0.4972E+03
     -3.463  0.5659E+02  0.5119E+03
     -3.203  0.6521E+02  0.5288E+03
     -2.943  0.7952E+02  0.5495E+03
     -2.683  0.9550E+02  0.5743E+03
     -2.423  0.1122E+03  0.6035E+03
     -2.163  0.1217E+03  0.6352E+03
     -1.903  0.1259E+03  0.6679E+03
     -1.643  0.1086E+03  0.6961E+03
     -1.383  0.8620E+02  0.7186E+03
     -1.123  0.7940E+02  0.7392E+03
     -0.863  0.6424E+02  0.7559E+03
     -0.603  0.5706E+02  0.7707E+03
     -0.343  0.5664E+02  0.7855E+03
     -0.083  0.5179E+02  0.7989E+03
      0.177  0.5147E+02  0.8123E+03
      0.437  0.4352E+02  0.8236E+03
      0.697  0.3711E+02  0.8333E+03
      0.957  0.3786E+02  0.8431E+03
      1.217  0.3483E+02  0.8522E+03
      1.477  0.3120E+02  0.8603E+03
      1.737  0.1329E+02  0.8638E+03
      1.997  0.1776E+01  0.8642E+03
      2.257  0.5083E+01  0.8655E+03
      2.517  0.6411E+01  0.8672E+03
      2.777  0.1032E+02  0.8699E+03
      3.037  0.1101E+02  0.8727E+03
      3.297  0.1091E+02  0.8756E+03
      3.557  0.1415E+02  0.8793E+03
      3.817  0.1589E+02  0.8834E+03
      4.077  0.1756E+02  0.8880E+03
      4.337  0.2860E+02  0.8954E+03
      4.597  0.3552E+02  0.9046E+03
      4.857  0.3579E+02  0.9139E+03
      5.117  0.3750E+02  0.9237E+03
      5.377  0.4450E+02  0.9353E+03
      5.637  0.4112E+02  0.9460E+03
      5.897  0.2127E+02  0.9515E+03
      6.157  0.1972E+01  0.9520E+03
      6.417  0.1496E-01  0.9520E+03
      6.677  0.5953E-05  0.9520E+03
      6.937  0.9947E-10  0.9520E+03
      7.197  0.0000E+00  0.9520E+03
      7.457  0.0000E+00  0.9520E+03
      7.717  0.0000E+00  0.9520E+03
      7.978  0.0000E+00  0.9520E+03
      8.238  0.0000E+00  0.9520E+03
      8.498  0.0000E+00  0.9520E+03
      8.758  0.0000E+00  0.9520E+03
      9.018  0.0000E+00  0.9520E+03
      9.278  0.0000E+00  0.9520E+03
