LAMMPS data file via write_data, version 5 Jun 2019, timestep = 52

74 atoms
2 atom types

0.0000000000000000e+00 1.6884694054200001e+01 xlo xhi
0.0000000000000000e+00 9.5784099999999999e+00 ylo yhi
0.0000000000000000e+00 1.6654645685100000e+01 zlo zhi
0.0000000000000000e+00 0.0000000000000000e+00 0.0000000000000000e+00 xy xz yz

Masses

1 58.71
2 32.06

Atoms # atomic

1 1 1.3170843208000003e+01 1.3917138258999999e+00 2.0563623765000001e+00 0 0 0
2 1 1.3338009889470566e+01 1.3935988866116185e+00 4.6548308063328632e+00 0 0 0
3 1 3.6278364265781655e+00 5.9062820811655765e+00 1.6531814984579420e+00 0 0 0
4 1 5.0203308784000003e+00 6.1809188259000001e+00 3.5986341463999998e+00 0 0 0
5 1 6.6136261495569304e+00 1.2076654024825171e+00 2.1172868992796863e+00 0 0 0
6 1 7.9317247696999997e+00 1.3917138258999999e+00 4.1127247530000002e+00 0 0 0
7 1 1.6082237116200002e+01 6.1809188259000001e+00 2.5704529665000000e+00 0 0 0
8 1 1.6487933573334015e+01 6.1784111284507155e+00 5.3004097954906655e+00 0 0 0
9 1 2.8922969086052963e+00 1.4163349812443362e+00 7.8484274026071543e-01 0 0 0
10 1 2.1089369701999998e+00 1.3917138258999999e+00 3.0845435563999999e+00 0 0 0
11 1 1.1758266620681503e+00 9.4183289140415116e-01 5.1983048266189815e+00 0 0 0
12 1 9.6268361685272446e+00 6.1986281589467849e+00 2.6996097500292717e+00 0 0 0
13 1 1.0843118677900000e+01 6.1809188259000001e+00 4.6268153428999996e+00 0 0 0
14 1 1.5354115371749181e+01 4.4810333722015212e-02 1.9803520914427035e+00 0 0 0
15 1 1.5872044679501663e+01 8.3952327044211683e-02 4.4794109029822238e+00 0 0 0
16 1 6.0423275963023695e+00 6.1689135394807408e+00 1.0449488513674170e+00 0 0 0
17 1 7.1737451382000001e+00 4.9155821296999997e+00 3.1911566886000000e+00 0 0 0
18 1 7.7494860410473922e+00 4.5655176958138899e+00 5.5475924323890302e+00 0 0 0
19 1 9.0682970838102541e+00 1.4614153340556129e+00 1.7380085595044654e+00 0 0 0
20 1 1.0085139046400000e+01 1.2637712970000001e-01 3.7052472952000000e+00 0 0 0
21 1 1.3509573217999999e+00 4.9155821296999997e+00 2.1629755087000002e+00 0 0 0
22 1 1.8994202291066766e+00 4.7895208202635464e+00 4.8751750114594641e+00 0 0 0
23 1 4.2623512300000002e+00 1.2637712970000001e-01 2.6770660986000001e+00 0 0 0
24 1 4.9950885586110196e+00 9.3170882696660584e+00 4.9460861901744329e+00 0 -1 0
25 1 1.3047976226236017e+01 4.1318114027372053e+00 2.0246068569987674e+00 0 0 0
26 1 1.2996532937700001e+01 4.9155821296999997e+00 4.2193378850999999e+00 0 0 0
27 1 1.5354664279405508e+01 2.7407263567288487e+00 1.9931813976592299e+00 0 0 0
28 1 1.5944785244102427e+01 2.6568408447233383e+00 4.4998118546519335e+00 0 0 0
29 1 7.0221777647536578e+00 8.4381909809418598e+00 1.0660198013993285e+00 0 0 0
30 1 7.1737451382000001e+00 7.4462555221000031e+00 3.1911566886000000e+00 0 0 0
31 1 7.8477902880970012e+00 7.8821337493748143e+00 5.5126107493840646e+00 0 0 0
32 1 1.0085139046400000e+01 2.6570505221000000e+00 3.7052472952000000e+00 0 0 0
33 1 1.3509573217999999e+00 7.4462555221000031e+00 2.1629755087000002e+00 0 0 0
34 1 1.8936861090208179e+00 7.5300671548678375e+00 4.9167869813278244e+00 0 0 0
35 1 4.2623512300000002e+00 2.6570505221000000e+00 2.6770660986000001e+00 0 0 0
36 1 1.3078105512112133e+01 8.2114490648487664e+00 2.0166739193764660e+00 0 0 0
37 1 1.2996532937700001e+01 7.4462555221000031e+00 4.2193378850999999e+00 0 0 0
38 2 1.6259136932478054e+01 1.3518544151446377e+00 6.0478815191606490e+00 -1 0 0
39 2 1.6740519096100002e+01 1.3917138258999999e+00 3.0560115336000000e+00 0 0 0
40 2 8.0063373716000008e+00 6.1809188259000001e+00 1.5137397470000000e+00 0 0 0
41 2 8.5900067496000005e+00 6.1809188259000001e+00 4.5982833201000002e+00 0 0 0
42 2 1.1053046172650584e+01 1.4022683554098949e+00 2.2329886182960030e+00 0 0 0
43 2 1.1301512991558129e+01 1.4018469129913975e+00 4.8799483197770490e+00 0 0 0
44 2 1.8936718653604001e+00 6.1841395447548209e+00 6.3389456989658466e-01 0 0 0
45 2 2.7672189501000002e+00 6.1809188259000001e+00 3.5701021234999999e+00 0 0 0
46 2 1.3769915584107435e+00 6.1345914891229514e+00 6.3252754271308502e+00 0 0 0
47 2 4.8854343878137474e+00 1.4280721700744683e+00 1.0516245717459043e+00 0 0 0
48 2 5.5514740083791292e+00 1.4334636675126078e+00 3.9133405421070031e+00 0 0 0
49 2 1.3829125188000001e+01 6.1809188259000001e+00 2.5419209436000001e+00 0 0 0
50 2 1.4384285647491090e+01 6.1802569941085332e+00 5.1945774635358068e+00 0 0 0
51 2 1.3772421455724450e+01 2.8218081662004884e+00 6.7379286743882871e-01 0 0 0
52 2 1.3998442232200000e+01 3.0029460640000001e+00 3.5748780264000000e+00 0 0 0
53 2 5.2642605076000004e+00 7.7921510639999996e+00 2.0326062398999998e+00 0 0 0
54 2 5.9138908723135550e+00 7.5098286452496845e+00 4.9782816861828065e+00 0 0 0
55 2 7.9750872356097906e+00 2.9492776142853110e+00 2.6548663033010591e+00 0 0 0
56 2 8.8016707636593257e+00 2.8630962615481619e+00 5.3323422745631115e+00 0 0 0
57 2 2.5142086099999999e-02 7.7921510639999996e+00 4.0889686162999999e+00 0 0 0
58 2 1.6334864214292374e+01 7.8655143104531353e+00 1.3898654569889166e+00 0 0 0
59 2 2.4053446806832808e+00 3.1195324724996816e+00 1.8219821103419906e+00 0 0 0
60 2 2.2047467605777631e+00 2.6899548974036502e+00 4.7552134802941604e+00 0 0 0
61 2 1.1087048324000000e+01 7.7921510639999996e+00 3.0607874364000001e+00 0 0 0
62 2 1.1742191382803760e+01 7.5760574732033925e+00 5.7920854313623913e+00 0 0 0
63 2 5.2642605076000004e+00 4.5696865876999997e+00 2.0326062398999998e+00 0 0 0
64 2 5.8734201208672419e+00 4.6728431697986252e+00 4.7992830047525636e+00 0 0 0
65 2 1.3767652832538161e+01 9.5424111171855941e+00 6.6845051195192351e-01 0 0 0
66 2 1.3998442232200000e+01 9.3588915877000023e+00 3.5748780264000000e+00 0 0 0
67 2 2.5142086099999999e-02 4.5696865876999997e+00 4.0889686162999999e+00 0 0 0
68 2 1.6330042717481380e+01 4.4957288741818378e+00 1.3912386002722674e+00 0 0 0
69 2 8.1756544158000004e+00 9.3588915877000023e+00 2.5466968465000002e+00 0 0 0
70 2 8.8649527215635899e+00 2.9902297559616917e-02 5.3917019117937990e+00 0 1 0
71 2 1.1087048324000000e+01 4.5696865876999997e+00 3.0607874364000001e+00 0 0 0
72 2 1.1742916821507420e+01 4.7864116710269142e+00 5.7918821530878919e+00 0 0 0
73 2 2.3598106234572556e+00 9.2829580453697371e+00 1.7759058021564240e+00 0 0 0
74 2 2.9365359774000002e+00 9.3588915877000023e+00 4.6030592063000002e+00 0 0 0

Velocities

1 0.0000000000000000e+00 0.0000000000000000e+00 0.0000000000000000e+00
2 0.0000000000000000e+00 0.0000000000000000e+00 0.0000000000000000e+00
3 0.0000000000000000e+00 0.0000000000000000e+00 0.0000000000000000e+00
4 0.0000000000000000e+00 0.0000000000000000e+00 0.0000000000000000e+00
5 0.0000000000000000e+00 0.0000000000000000e+00 0.0000000000000000e+00
6 0.0000000000000000e+00 0.0000000000000000e+00 0.0000000000000000e+00
7 0.0000000000000000e+00 0.0000000000000000e+00 0.0000000000000000e+00
8 0.0000000000000000e+00 0.0000000000000000e+00 0.0000000000000000e+00
9 0.0000000000000000e+00 0.0000000000000000e+00 0.0000000000000000e+00
10 0.0000000000000000e+00 0.0000000000000000e+00 0.0000000000000000e+00
11 0.0000000000000000e+00 0.0000000000000000e+00 0.0000000000000000e+00
12 0.0000000000000000e+00 0.0000000000000000e+00 0.0000000000000000e+00
13 0.0000000000000000e+00 0.0000000000000000e+00 0.0000000000000000e+00
14 0.0000000000000000e+00 0.0000000000000000e+00 0.0000000000000000e+00
15 0.0000000000000000e+00 0.0000000000000000e+00 0.0000000000000000e+00
16 0.0000000000000000e+00 0.0000000000000000e+00 0.0000000000000000e+00
17 0.0000000000000000e+00 0.0000000000000000e+00 0.0000000000000000e+00
18 0.0000000000000000e+00 0.0000000000000000e+00 0.0000000000000000e+00
19 0.0000000000000000e+00 0.0000000000000000e+00 0.0000000000000000e+00
20 0.0000000000000000e+00 0.0000000000000000e+00 0.0000000000000000e+00
21 0.0000000000000000e+00 0.0000000000000000e+00 0.0000000000000000e+00
22 0.0000000000000000e+00 0.0000000000000000e+00 0.0000000000000000e+00
23 0.0000000000000000e+00 0.0000000000000000e+00 0.0000000000000000e+00
24 0.0000000000000000e+00 0.0000000000000000e+00 0.0000000000000000e+00
25 0.0000000000000000e+00 0.0000000000000000e+00 0.0000000000000000e+00
26 0.0000000000000000e+00 0.0000000000000000e+00 0.0000000000000000e+00
27 0.0000000000000000e+00 0.0000000000000000e+00 0.0000000000000000e+00
28 0.0000000000000000e+00 0.0000000000000000e+00 0.0000000000000000e+00
29 0.0000000000000000e+00 0.0000000000000000e+00 0.0000000000000000e+00
30 0.0000000000000000e+00 0.0000000000000000e+00 0.0000000000000000e+00
31 0.0000000000000000e+00 0.0000000000000000e+00 0.0000000000000000e+00
32 0.0000000000000000e+00 0.0000000000000000e+00 0.0000000000000000e+00
33 0.0000000000000000e+00 0.0000000000000000e+00 0.0000000000000000e+00
34 0.0000000000000000e+00 0.0000000000000000e+00 0.0000000000000000e+00
35 0.0000000000000000e+00 0.0000000000000000e+00 0.0000000000000000e+00
36 0.0000000000000000e+00 0.0000000000000000e+00 0.0000000000000000e+00
37 0.0000000000000000e+00 0.0000000000000000e+00 0.0000000000000000e+00
38 0.0000000000000000e+00 0.0000000000000000e+00 0.0000000000000000e+00
39 0.0000000000000000e+00 0.0000000000000000e+00 0.0000000000000000e+00
40 0.0000000000000000e+00 0.0000000000000000e+00 0.0000000000000000e+00
41 0.0000000000000000e+00 0.0000000000000000e+00 0.0000000000000000e+00
42 0.0000000000000000e+00 0.0000000000000000e+00 0.0000000000000000e+00
43 0.0000000000000000e+00 0.0000000000000000e+00 0.0000000000000000e+00
44 0.0000000000000000e+00 0.0000000000000000e+00 0.0000000000000000e+00
45 0.0000000000000000e+00 0.0000000000000000e+00 0.0000000000000000e+00
46 0.0000000000000000e+00 0.0000000000000000e+00 0.0000000000000000e+00
47 0.0000000000000000e+00 0.0000000000000000e+00 0.0000000000000000e+00
48 0.0000000000000000e+00 0.0000000000000000e+00 0.0000000000000000e+00
49 0.0000000000000000e+00 0.0000000000000000e+00 0.0000000000000000e+00
50 0.0000000000000000e+00 0.0000000000000000e+00 0.0000000000000000e+00
51 0.0000000000000000e+00 0.0000000000000000e+00 0.0000000000000000e+00
52 0.0000000000000000e+00 0.0000000000000000e+00 0.0000000000000000e+00
53 0.0000000000000000e+00 0.0000000000000000e+00 0.0000000000000000e+00
54 0.0000000000000000e+00 0.0000000000000000e+00 0.0000000000000000e+00
55 0.0000000000000000e+00 0.0000000000000000e+00 0.0000000000000000e+00
56 0.0000000000000000e+00 0.0000000000000000e+00 0.0000000000000000e+00
57 0.0000000000000000e+00 0.0000000000000000e+00 0.0000000000000000e+00
58 0.0000000000000000e+00 0.0000000000000000e+00 0.0000000000000000e+00
59 0.0000000000000000e+00 0.0000000000000000e+00 0.0000000000000000e+00
60 0.0000000000000000e+00 0.0000000000000000e+00 0.0000000000000000e+00
61 0.0000000000000000e+00 0.0000000000000000e+00 0.0000000000000000e+00
62 0.0000000000000000e+00 0.0000000000000000e+00 0.0000000000000000e+00
63 0.0000000000000000e+00 0.0000000000000000e+00 0.0000000000000000e+00
64 0.0000000000000000e+00 0.0000000000000000e+00 0.0000000000000000e+00
65 0.0000000000000000e+00 0.0000000000000000e+00 0.0000000000000000e+00
66 0.0000000000000000e+00 0.0000000000000000e+00 0.0000000000000000e+00
67 0.0000000000000000e+00 0.0000000000000000e+00 0.0000000000000000e+00
68 0.0000000000000000e+00 0.0000000000000000e+00 0.0000000000000000e+00
69 0.0000000000000000e+00 0.0000000000000000e+00 0.0000000000000000e+00
70 0.0000000000000000e+00 0.0000000000000000e+00 0.0000000000000000e+00
71 0.0000000000000000e+00 0.0000000000000000e+00 0.0000000000000000e+00
72 0.0000000000000000e+00 0.0000000000000000e+00 0.0000000000000000e+00
73 0.0000000000000000e+00 0.0000000000000000e+00 0.0000000000000000e+00
74 0.0000000000000000e+00 0.0000000000000000e+00 0.0000000000000000e+00
