 vasp.6.1.0 28Jan20 (build Mar 31 2020 17:42:31) gamma-only                     
  
 executed on             LinuxIFC date 2020.04.13  01:50:01
 running on   48 total cores
 distrk:  each k-point on   48 cores,    1 groups
 distr:  one band on NCORE=   6 cores,    8 groups


--------------------------------------------------------------------------------------------------------


 INCAR:
 POTCAR:    PAW_PBE Ni_pv 06Sep2000               
 POTCAR:    PAW_PBE S 06Sep2000                   
 POTCAR:    PAW_PBE Ni_pv 06Sep2000               
   VRHFIN =Ni:                                                                                      
   LEXCH  = PE                                                                                      
   EATOM  =  3501.1230 eV,  257.3253 Ry                                                             
                                                                                                    
   TITEL  = PAW_PBE Ni_pv 06Sep2000                                                                 
   LULTRA =        F    use ultrasoft PP ?                                                          
   IUNSCR =        1    unscreen: 0-lin 1-nonlin 2-no                                               
   RPACOR =    1.500    partial core radius                                                         
   POMASS =   58.690; ZVAL   =   16.000    mass and valenz                                          
   RCORE  =    2.000    outmost cutoff radius                                                       
   RWIGS  =    2.000; RWIGS  =    1.058    wigner-seitz radius (au A)                               
   ENMAX  =  367.986; ENMIN  =  275.989 eV                                                          
   RCLOC  =    1.301    cutoff for local pot                                                        
   LCOR   =        T    correct aug charges                                                         
   LPAW   =        T    paw PP                                                                      
   EAUG   =  703.443                                                                                
   DEXC   =    0.000                                                                                
   RMAX   =    2.041    core radius for proj-oper                                                   
   RAUG   =    1.300    factor for augmentation sphere                                              
   RDEP   =    2.103    radius for radial grids                                                     
   RDEPT  =    1.618    core radius for aug-charge                                                  
                                                                                                    
   Atomic configuration                                                                             
    8 entries                                                                                       
     n  l   j            E        occ.                                                              
     1  0  0.50     -8206.4253   2.0000                                                             
     2  0  0.50      -976.1748   2.0000                                                             
     2  1  1.50      -839.0571   6.0000                                                             
     3  0  0.50      -105.9991   2.0000                                                             
     3  1  1.50       -66.4603   6.0000                                                             
     3  2  2.50        -4.6458   9.0000                                                             
     4  0  0.50        -4.4926   1.0000                                                             
     4  3  2.50        -1.3606   0.0000                                                             
   Description                                                                                      
     l       E           TYP  RCUT    TYP  RCUT                                                     
     1    -66.4602962     23  1.700                                                                 
     1     -1.3605826     23  1.700                                                                 
     2     -4.6457867     23  2.000                                                                 
     2     -6.0063693     23  2.000                                                                 
     0     -4.4925576     23  1.900                                                                 
     0     16.3626226     23  1.900                                                                 
  local pseudopotential read in
  partial core-charges read in
  partial kinetic energy density read in
  atomic valenz-charges read in
  non local Contribution for L=           1  read in
    real space projection operators read in
  non local Contribution for L=           1  read in
    real space projection operators read in
  non local Contribution for L=           2  read in
    real space projection operators read in
  non local Contribution for L=           2  read in
    real space projection operators read in
  non local Contribution for L=           0  read in
    real space projection operators read in
  non local Contribution for L=           0  read in
    real space projection operators read in
    PAW grid and wavefunctions read in
 
   number of l-projection  operators is LMAX  =           6
   number of lm-projection operators is LMMAX =          18
 
 POTCAR:    PAW_PBE S 06Sep2000                   
   VRHFIN =S : s2p4                                                                                 
   LEXCH  = PE                                                                                      
   EATOM  =   276.8230 eV,   20.3459 Ry                                                             
                                                                                                    
   TITEL  = PAW_PBE S 06Sep2000                                                                     
   LULTRA =        F    use ultrasoft PP ?                                                          
   IUNSCR =        1    unscreen: 0-lin 1-nonlin 2-no                                               
   RPACOR =    1.500    partial core radius                                                         
   POMASS =   32.066; ZVAL   =    6.000    mass and valenz                                          
   RCORE  =    1.900    outmost cutoff radius                                                       
   RWIGS  =    2.200; RWIGS  =    1.164    wigner-seitz radius (au A)                               
   ENMAX  =  258.689; ENMIN  =  194.016 eV                                                          
   ICORE  =        2    local potential                                                             
   LCOR   =        T    correct aug charges                                                         
   LPAW   =        T    paw PP                                                                      
   EAUG   =  335.092                                                                                
   DEXC   =    0.000                                                                                
   RMAX   =    1.942    core radius for proj-oper                                                   
   RAUG   =    1.300    factor for augmentation sphere                                              
   RDEP   =    1.954    radius for radial grids                                                     
   RDEPT  =    1.744    core radius for aug-charge                                                  
                                                                                                    
   Atomic configuration                                                                             
    6 entries                                                                                       
     n  l   j            E        occ.                                                              
     1  0  0.50     -2405.8406   2.0000                                                             
     2  0  0.50      -211.7007   2.0000                                                             
     2  1  1.50      -156.4958   6.0000                                                             
     3  0  0.50       -17.2562   2.0000                                                             
     3  1  0.50        -7.0085   4.0000                                                             
     3  2  1.50        -6.8029   0.0000                                                             
   Description                                                                                      
     l       E           TYP  RCUT    TYP  RCUT                                                     
     0    -17.2561641     23  1.900                                                                 
     0    -15.8743224     23  1.900                                                                 
     1     -7.0085400     23  1.900                                                                 
     1     -2.7779785     23  1.900                                                                 
     2     -6.8029130     23  1.900                                                                 
  local pseudopotential read in
  partial core-charges read in
  partial kinetic energy density read in
  atomic valenz-charges read in
  non local Contribution for L=           0  read in
    real space projection operators read in
  non local Contribution for L=           0  read in
    real space projection operators read in
  non local Contribution for L=           1  read in
    real space projection operators read in
  non local Contribution for L=           1  read in
    real space projection operators read in
    PAW grid and wavefunctions read in
 
   number of l-projection  operators is LMAX  =           4
   number of lm-projection operators is LMMAX =           8
 
 Optimization of the real space projectors (new method)

 maximal supplied QI-value         = 18.90
 optimisation between [QCUT,QGAM] = [ 10.77, 21.73] = [ 32.49,132.25] Ry 
 Optimized for a Real-space Cutoff    1.38 Angstroem

   l    n(q)    QCUT    max X(q) W(low)/X(q) W(high)/X(q)  e(spline) 
   1      8    10.771     2.836    0.40E-04    0.29E-04    0.12E-06
   1      8    10.771     4.023    0.10E-03    0.48E-04    0.29E-06
   2      8    10.771    73.368    0.42E-03    0.97E-04    0.44E-06
   2      8    10.771    69.010    0.42E-03    0.99E-04    0.45E-06
   0      9    10.771    54.797    0.10E-03    0.56E-04    0.74E-07
   0      9    10.771    24.266    0.89E-04    0.49E-04    0.67E-07
 Optimization of the real space projectors (new method)

 maximal supplied QI-value         = 19.84
 optimisation between [QCUT,QGAM] = [ 10.71, 21.63] = [ 32.15,130.99] Ry 
 Optimized for a Real-space Cutoff    1.19 Angstroem

   l    n(q)    QCUT    max X(q) W(low)/X(q) W(high)/X(q)  e(spline) 
   0      8    10.715   187.594    0.41E-03    0.53E-04    0.66E-07
   0      8    10.715   164.243    0.41E-03    0.53E-04    0.65E-07
   1      7    10.715    67.533    0.19E-03    0.59E-03    0.68E-07
   1      7    10.715    50.729    0.19E-03    0.58E-03    0.67E-07
  PAW_PBE Ni_pv 06Sep2000               :
 energy of atom  1       EATOM=-3501.1230
 kinetic energy error for atom=    0.0925 (will be added to EATOM!!)
  PAW_PBE S 06Sep2000                   :
 energy of atom  2       EATOM= -276.8230
 kinetic energy error for atom=    0.0033 (will be added to EATOM!!)
 
 
 POSCAR: Structure 29 made from 011-3.xsd file
  positions in direct lattice
  No initial velocities read in
 exchange correlation table for  LEXCH =        8
   RHO(1)=    0.500       N(1)  =     2000
   RHO(2)=  100.500       N(2)  =     4000
 


--------------------------------------------------------------------------------------------------------


 ion  position               nearest neighbor table
   1  0.645  0.915  0.103-  31 2.25  37 2.26  38 2.36  46 2.36  19 2.53  10 2.53
   2  0.583  0.790  0.257-  32 2.25  46 2.26  38 2.26  39 2.36  47 2.36  11 2.53  20 2.53
   3  0.520  0.665  0.412-  33 2.25  47 2.26  39 2.26  48 2.36  21 2.53  12 2.53
   4  0.333  0.290  0.051-  34 2.25  40 2.36  49 2.36  13 2.53  22 2.53
   5  0.270  0.165  0.206-  35 2.25  49 2.26  40 2.26  50 2.36  41 2.36  14 2.53  23 2.53
   6  0.208  0.040  0.360-  36 2.25  50 2.26  41 2.26  42 2.36  51 2.36  24 2.53  15 2.53
   7  0.020  0.665  0.000-  43 2.36  52 2.36  25 2.53
   8  0.958  0.540  0.154-  28 2.25  52 2.26  43 2.26  44 2.36  53 2.36  26 2.53  17 2.53
   9  0.895  0.415  0.309-  29 2.25  53 2.26  44 2.26  45 2.36  54 2.36  18 2.53  27 2.53
  10  0.662  0.684  0.062-  46 2.36  28 2.36  19 2.53   1 2.53
  11  0.599  0.559  0.217-  40 2.25  46 2.26  28 2.26  47 2.36  29 2.36   2 2.53  20 2.53
  12  0.537  0.434  0.371-  41 2.25  29 2.26  47 2.26  30 2.36  48 2.36  21 2.53   3 2.53
  13  0.349  0.059  0.011-  31 2.36  49 2.36   4 2.53  22 2.53
  14  0.287  0.934  0.165-  43 2.25  31 2.26  49 2.26  50 2.36  32 2.36   5 2.53  23 2.53
  15  0.224  0.809  0.320-  44 2.25  50 2.26  32 2.26  51 2.36  33 2.36  24 2.53   6 2.53
  16  0.161  0.683  0.474-  45 2.25  51 2.26  33 2.26
  17  0.974  0.309  0.114-  37 2.25  34 2.26  52 2.26  35 2.36  53 2.36  26 2.53   8 2.53
  18  0.912  0.184  0.268-  38 2.25  53 2.26  35 2.26  36 2.36  54 2.36   9 2.53  27 2.53
  19  0.909  0.915  0.103-  49 2.25  37 2.26  38 2.36  28 2.36   1 2.53  10 2.53
  20  0.847  0.790  0.257-  50 2.25  28 2.26  38 2.26  29 2.36  39 2.36   2 2.53  11 2.53
  21  0.784  0.665  0.412-  51 2.25  29 2.26  39 2.26  30 2.36   3 2.53  12 2.53
  22  0.597  0.290  0.051-  52 2.25  31 2.36  40 2.36  13 2.53   4 2.53
  23  0.534  0.165  0.206-  53 2.25  31 2.26  40 2.26  41 2.36  32 2.36  14 2.53   5 2.53
  24  0.472  0.040  0.360-  54 2.25  41 2.26  32 2.26  42 2.36  33 2.36   6 2.53  15 2.53
  25  0.285  0.665  0.000-  34 2.36  43 2.36   7 2.53
  26  0.222  0.540  0.154-  46 2.25  34 2.26  43 2.26  44 2.36  35 2.36   8 2.53  17 2.53
  27  0.159  0.415  0.309-  47 2.25  35 2.26  44 2.26  45 2.36  36 2.36  18 2.53   9 2.53
  28  0.825  0.674  0.153-   8 2.25  20 2.26  11 2.26  10 2.36  19 2.36
  29  0.763  0.549  0.307-   9 2.25  21 2.26  12 2.26  20 2.36  11 2.36
  30  0.700  0.424  0.462-  12 2.36  21 2.36
  31  0.513  0.050  0.102-   1 2.25  23 2.26  14 2.26  22 2.36  13 2.36
  32  0.450  0.924  0.256-   2 2.25  24 2.26  15 2.26  23 2.36  14 2.36
  33  0.387  0.799  0.410-   3 2.25  16 2.26  15 2.36  24 2.36
  34  0.200  0.425  0.050-   4 2.25  26 2.26  17 2.26  25 2.36
  35  0.138  0.299  0.204-   5 2.25  27 2.26  18 2.26  17 2.36  26 2.36
  36  0.075  0.174  0.359-   6 2.25  18 2.36  27 2.36
  37  0.867  0.094  0.051-  17 2.25  19 2.26   1 2.26
  38  0.804  0.969  0.205-  18 2.25   2 2.26  20 2.26  19 2.36   1 2.36
  39  0.741  0.843  0.359-  21 2.26   3 2.26   2 2.36  20 2.36
  40  0.492  0.344  0.153-  11 2.25   5 2.26  23 2.26   4 2.36  22 2.36
  41  0.429  0.219  0.308-  12 2.25  24 2.26   6 2.26  23 2.36   5 2.36
  42  0.366  0.093  0.462-  24 2.36   6 2.36
  43  0.179  0.719  0.102-  14 2.25  26 2.26   8 2.26   7 2.36  25 2.36
  44  0.117  0.594  0.256-  15 2.25  27 2.26   9 2.26  26 2.36   8 2.36
  45  0.054  0.468  0.411-  16 2.25   9 2.36  27 2.36
  46  0.489  0.674  0.153-  26 2.25  11 2.26   2 2.26  10 2.36   1 2.36
  47  0.426  0.549  0.307-  27 2.25   3 2.26  12 2.26   2 2.36  11 2.36
  48  0.363  0.424  0.462-   3 2.36  12 2.36
  49  0.176  0.050  0.102-  19 2.25   5 2.26  14 2.26   4 2.36  13 2.36
  50  0.114  0.924  0.256-  20 2.25   6 2.26  15 2.26   5 2.36  14 2.36
  51  0.051  0.799  0.410-  21 2.25  16 2.26  15 2.36   6 2.36
  52  0.864  0.425  0.050-  22 2.25   8 2.26  17 2.26   7 2.36
  53  0.801  0.299  0.204-  23 2.25   9 2.26  18 2.26   8 2.36  17 2.36
  54  0.739  0.174  0.359-  24 2.25  18 2.36   9 2.36
 
  LATTYP: Found a base centered orthorhombic cell.
 ALAT       =     9.5784100000
 B/A-ratio  =     1.8519363485
 C/A-ratio  =     1.9847903504
  
  Lattice vectors:
  
 A1 = (   8.4281814759,   5.5287226424,   0.0000000000)
 A2 = (   0.0000000000, -10.0797329849,   0.0000000000)
 A3 = (   0.0000000000,   0.0000000000, -19.0111357400)


Analysis of symmetry for initial positions (statically):
=====================================================================
 Subroutine PRICEL returns:
 Original cell was already a primitive cell.
 

 Routine SETGRP: Setting up the symmetry group for a 
 base centered orthorhombic supercell.


 Subroutine GETGRP returns: Found  2 space group operations
 (whereof  1 operations were pure point group operations)
 out of a pool of  8 trial point group operations.


The static configuration has the point symmetry C_1 .
 The point group associated with its full space group is C_1h.


Analysis of symmetry for dynamics (positions and initial velocities):
=====================================================================
 Subroutine PRICEL returns:
 Original cell was already a primitive cell.
 

 Routine SETGRP: Setting up the symmetry group for a 
 base centered orthorhombic supercell.


 Subroutine GETGRP returns: Found  2 space group operations
 (whereof  1 operations were pure point group operations)
 out of a pool of  8 trial point group operations.


The dynamic configuration has the point symmetry C_1 .
 The point group associated with its full space group is C_1h.


 Subroutine INISYM returns: Found  2 space group operations
 (whereof  1 operations are pure point group operations),
 and found     1 'primitive' translations


----------------------------------------------------------------------------------------

                                     Primitive cell                                     

  volume of cell :    1615.0686

  direct lattice vectors                    reciprocal lattice vectors
     8.428181476 -4.551010342  0.000000000     0.118649557  0.000000000  0.000000000
     0.000000000 10.079732985  0.000000000     0.053570403  0.099208977  0.000000000
     0.000000000  0.000000000 19.011135740     0.000000000  0.000000000  0.052600750

  length of vectors
     9.578410000 10.079732985 19.011135740     0.118649557  0.112748434  0.052600750

  position of ions in fractional coordinates (direct lattice)
     0.645270229  0.915243159  0.102959234
     0.582630317  0.789963333  0.257398085
     0.519990404  0.664683508  0.411836936
     0.332816867  0.290336434  0.051479617
     0.270176954  0.165056608  0.205918468
     0.207537041  0.039776783  0.360357319
     0.020363505  0.665429709  0.000000000
     0.957723592  0.540149884  0.154438851
     0.895083679  0.414870058  0.308877702
     0.661820070  0.684136840  0.062155563
     0.599180157  0.558857015  0.216594414
     0.536540245  0.433577189  0.371033265
     0.349366708  0.059230116  0.010675946
     0.286726795  0.933950290  0.165114797
     0.224086882  0.808670464  0.319553648
     0.161446969  0.683390639  0.473992499
     0.974273433  0.309043565  0.113635180
     0.911633520  0.183763740  0.268074031
     0.909476229  0.915243159  0.102959234
     0.846836317  0.789963333  0.257398085
     0.784196404  0.664683508  0.411836936
     0.597022867  0.290336434  0.051479617
     0.534382954  0.165056608  0.205918468
     0.471743041  0.039776783  0.360357319
     0.284569505  0.665429709  0.000000000
     0.221929592  0.540149884  0.154438851
     0.159289679  0.414870058  0.308877702
     0.825181678  0.674430055  0.153010292
     0.762541765  0.549150230  0.307449143
     0.699901852  0.423870404  0.461887994
     0.512728315  0.049523331  0.101530675
     0.450088403  0.924243505  0.255969526
     0.387448490  0.798963679  0.410408377
     0.200274953  0.424616606  0.050051058
     0.137635040  0.299336780  0.204489909
     0.074995127  0.174056954  0.358928760
     0.866747645  0.093991989  0.050529303
     0.804107732  0.968712164  0.204968154
     0.741467819  0.843432338  0.359407005
     0.491654369  0.343805439  0.153488537
     0.429014457  0.218525613  0.307927388
     0.366374544  0.093245787  0.462366239
     0.179201007  0.718898714  0.102008920
     0.116561094  0.593618888  0.256447771
     0.053921181  0.468339063  0.410886622
     0.488751678  0.674430055  0.153010292
     0.426111765  0.549150230  0.307449143
     0.363471852  0.423870404  0.461887994
     0.176298315  0.049523331  0.101530675
     0.113658403  0.924243505  0.255969526
     0.051018490  0.798963679  0.410408377
     0.863844953  0.424616606  0.050051058
     0.801205040  0.299336780  0.204489909
     0.738565127  0.174056954  0.358928760

  ion indices of the primitive-cell ions
   primitive index   ion index
                 1           1
                 2           2
                 3           3
                 4           4
                 5           5
                 6           6
                 7           7
                 8           8
                 9           9
                10          10
                11          11
                12          12
                13          13
                14          14
                15          15
                16          16
                17          17
                18          18
                19          19
                20          20
                21          21
                22          22
                23          23
                24          24
                25          25
                26          26
                27          27
                28          28
                29          29
                30          30
                31          31
                32          32
                33          33
                34          34
                35          35
                36          36
                37          37
                38          38
                39          39
                40          40
                41          41
                42          42
                43          43
                44          44
                45          45
                46          46
                47          47
                48          48
                49          49
                50          50
                51          51
                52          52
                53          53
                54          54

----------------------------------------------------------------------------------------

 
 
 KPOINTS: gamma-point-only calculation. no periodi

Automatic generation of k-mesh.
Space group operators:
 irot       det(A)        alpha          n_x          n_y          n_z        tau_x        tau_y        tau_z
    1     1.000000     0.000000     1.000000     0.000000     0.000000     0.000000     0.000000     0.000000
    2    -1.000000   180.000000     0.879914    -0.475132     0.000000    -0.360497     0.000000     0.000000
 
 Subroutine IBZKPT returns following result:
 ===========================================
 
 Found      1 irreducible k-points:
 
 Following reciprocal coordinates:
            Coordinates               Weight
  0.000000  0.000000  0.000000      1.000000
 
 Following cartesian coordinates:
            Coordinates               Weight
  0.000000  0.000000  0.000000      1.000000
 


--------------------------------------------------------------------------------------------------------




 Dimension of arrays:
   k-points           NKPTS =      1   k-points in BZ     NKDIM =      1   number of bands    NBANDS=    360
   number of dos      NEDOS =    301   number of ions     NIONS =     54
   non local maximal  LDIM  =      6   non local SUM 2l+1 LMDIM =     18
   total plane-waves  NPLWV = 270000
   max r-space proj   IRMAX =   1893   max aug-charges    IRDMAX=   5466
   dimension x,y,z NGX =    50 NGY =   54 NGZ =  100
   dimension x,y,z NGXF=   100 NGYF=  108 NGZF=  200
   support grid    NGXF=   100 NGYF=  108 NGZF=  200
   ions per type =              27  27
   NGX,Y,Z   is equivalent  to a cutoff of   8.68,  8.91,  8.74 a.u.
   NGXF,Y,Z  is equivalent  to a cutoff of  17.36, 17.81, 17.49 a.u.

 SYSTEM =  "Millerite NiS"                         
 POSCAR =  Structure 29 made from 011-3.xsd file   

 Startparameter for this run:
   NWRITE =      2    write-flag & timer
   PREC   = normal    normal or accurate (medium, high low for compatibility)
   ISTART =      0    job   : 0-new  1-cont  2-samecut
   ICHARG =      2    charge: 1-file 2-atom 10-const
   ISPIN  =      1    spin polarized calculation?
   LNONCOLLINEAR =      F non collinear calculations
   LSORBIT =      F    spin-orbit coupling
   INIWAV =      1    electr: 0-lowe 1-rand  2-diag
   LASPH  =      F    aspherical Exc in radial PAW
   METAGGA=      F    non-selfconsistent MetaGGA calc.

 Electronic Relaxation 1
   ENCUT  =  450.0 eV  33.07 Ry    5.75 a.u.  16.57 17.43 32.88*2*pi/ulx,y,z
   ENINI  =  450.0     initial cutoff
   ENAUG  =  703.4 eV  augmentation charge cutoff
   NELM   =    100;   NELMIN=  2; NELMDL= -5     # of ELM steps 
   EDIFF  = 0.1E-03   stopping-criterion for ELM
   LREAL  =      T    real-space projection
   NLSPLINE    = F    spline interpolate recip. space projectors
   LCOMPAT=      F    compatible to vasp.4.4
   GGA_COMPAT  = T    GGA compatible to vasp.4.4-vasp.4.6
   LMAXPAW     = -100 max onsite density
   LMAXMIX     =    2 max onsite mixed and CHGCAR
   VOSKOWN=      0    Vosko Wilk Nusair interpolation
   ROPT   =   -0.00050  -0.00050
 Ionic relaxation
   EDIFFG = 0.1E-02   stopping-criterion for IOM
   NSW    =      0    number of steps for IOM
   NBLOCK =      1;   KBLOCK =      1    inner block; outer block 
   IBRION =     -1    ionic relax: 0-MD 1-quasi-New 2-CG
   NFREE  =      0    steps in history (QN), initial steepest desc. (CG)
   ISIF   =      2    stress and relaxation
   IWAVPR =     10    prediction:  0-non 1-charg 2-wave 3-comb
   ISYM   =      2    0-nonsym 1-usesym 2-fastsym
   LCORR  =      T    Harris-Foulkes like correction to forces

   POTIM  = 0.5000    time-step for ionic-motion
   TEIN   =    0.0    initial temperature
   TEBEG  =    0.0;   TEEND  =   0.0 temperature during run
   SMASS  =  -3.00    Nose mass-parameter (am)
   estimated Nose-frequenzy (Omega)   =  0.10E-29 period in steps = 0.13E+47 mass=  -0.210E-26a.u.
   SCALEE = 1.0000    scale energy and forces
   NPACO  =    256;   APACO  = 16.0  distance and # of slots for P.C.
   PSTRESS=    0.0 pullay stress

  Mass of Ions in am
   POMASS =  58.69 32.07
  Ionic Valenz
   ZVAL   =  16.00  6.00
  Atomic Wigner-Seitz radii
   RWIGS  =  -1.00 -1.00
  virtual crystal weights 
   VCA    =   1.00  1.00
   NELECT =     594.0000    total number of electrons
   NUPDOWN=      -1.0000    fix difference up-down

 DOS related values:
   EMIN   =  10.00;   EMAX   =-10.00  energy-range for DOS
   EFERMI =   0.00
   ISMEAR =     0;   SIGMA  =   0.20  broadening in eV -4-tet -1-fermi 0-gaus

 Electronic relaxation 2 (details)
   IALGO  =     38    algorithm
   LDIAG  =      T    sub-space diagonalisation (order eigenvalues)
   LSUBROT=      F    optimize rotation matrix (better conditioning)
   TURBO    =      0    0=normal 1=particle mesh
   IRESTART =      0    0=no restart 2=restart with 2 vectors
   NREBOOT  =      0    no. of reboots
   NMIN     =      0    reboot dimension
   EREF     =   0.00    reference energy to select bands
   IMIX   =      4    mixing-type and parameters
     AMIX     =   0.40;   BMIX     =  1.00
     AMIX_MAG =   1.60;   BMIX_MAG =  1.00
     AMIN     =   0.10
     WC   =   100.;   INIMIX=   1;  MIXPRE=   1;  MAXMIX= -45

 Intra band minimization:
   WEIMIN = 0.0000     energy-eigenvalue tresh-hold
   EBREAK =  0.69E-07  absolut break condition
   DEPER  =   0.30     relativ break condition  

   TIME   =   0.40     timestep for ELM

  volume/ion in A,a.u.               =      29.91       201.83
  Fermi-wavevector in a.u.,A,eV,Ry     =   1.172933  2.216523 18.718522  1.375773
  Thomas-Fermi vector in A             =   2.309354
 
 Write flags
   LWAVE        =      F    write WAVECAR
   LDOWNSAMPLE  =      F    k-point downsampling of WAVECAR
   LCHARG       =      F    write CHGCAR
   LVTOT        =      F    write LOCPOT, total local potential
   LVHAR        =      F    write LOCPOT, Hartree potential only
   LELF         =      F    write electronic localiz. function (ELF)
   LORBIT       =      0    0 simple, 1 ext, 2 COOP (PROOUT), +10 PAW based schemes


 Dipole corrections
   LMONO  =      F    monopole corrections only (constant potential shift)
   LDIPOL =      F    correct potential (dipole corrections)
   IDIPOL =      0    1-x, 2-y, 3-z, 4-all directions 
   EPSILON=  1.0000000 bulk dielectric constant

 Exchange correlation treatment:
   GGA     =    --    GGA type
   LEXCH   =     8    internal setting for exchange type
   VOSKOWN=      0    Vosko Wilk Nusair interpolation
   LHFCALC =     F    Hartree Fock is set to
   LHFONE  =     F    Hartree Fock one center treatment
   AEXX    =    0.0000 exact exchange contribution

 Linear response parameters
   LEPSILON=     F    determine dielectric tensor
   LRPA    =     F    only Hartree local field effects (RPA)
   LNABLA  =     F    use nabla operator in PAW spheres
   LVEL    =     F    velocity operator in full k-point grid
   LINTERFAST=   F  fast interpolation
   KINTER  =     0    interpolate to denser k-point grid
   CSHIFT  =0.1000    complex shift for real part using Kramers Kronig
   OMEGAMAX=  -1.0    maximum frequency
   DEG_THRESHOLD= 0.2000000E-02 threshold for treating states as degnerate
   RTIME   =   -0.100 relaxation time in fs
  (WPLASMAI=    0.000 imaginary part of plasma frequency in eV, 0.658/RTIME)
   DFIELD  = 0.0000000 0.0000000 0.0000000 field for delta impulse in time
 
 Orbital magnetization related:
   ORBITALMAG=     F  switch on orbital magnetization
   LCHIMAG   =     F  perturbation theory with respect to B field
   DQ        =  0.001000  dq finite difference perturbation B field
   LLRAUG    =     F  two centre corrections for induced B field



--------------------------------------------------------------------------------------------------------


 Static calculation
 charge density and potential will be updated during run
 non-spin polarized calculation
 Variant of blocked Davidson
 Davidson routine will perform the subspace rotation
 perform sub-space diagonalisation
    after iterative eigenvector-optimisation
 modified Broyden-mixing scheme, WC =      100.0
 initial mixing is a Kerker type mixing with AMIX =  0.4000 and BMIX =      1.0000
 Hartree-type preconditioning will be used
 using additional bands           63
 real space projection scheme for non local part
 use partial core corrections
 calculate Harris-corrections to forces 
   (improved forces if not selfconsistent)
 use gradient corrections 
 use of overlap-Matrix (Vanderbilt PP)
 Gauss-broadening in eV      SIGMA  =   0.20


--------------------------------------------------------------------------------------------------------


  energy-cutoff  :      450.00
  volume of cell :     1615.07
      direct lattice vectors                 reciprocal lattice vectors
     8.428181476 -4.551010342  0.000000000     0.118649557  0.000000000  0.000000000
     0.000000000 10.079732985  0.000000000     0.053570403  0.099208977  0.000000000
     0.000000000  0.000000000 19.011135740     0.000000000  0.000000000  0.052600750

  length of vectors
     9.578410000 10.079732985 19.011135740     0.118649557  0.112748434  0.052600750


 
 k-points in units of 2pi/SCALE and weight: gamma-point-only calculation. no periodi
   0.00000000  0.00000000  0.00000000       1.000
 
 k-points in reciprocal lattice and weights: gamma-point-only calculation. no periodi
   0.00000000  0.00000000  0.00000000       1.000
 
 position of ions in fractional coordinates (direct lattice) 
   0.64527023  0.91524316  0.10295923
   0.58263032  0.78996333  0.25739808
   0.51999040  0.66468351  0.41183694
   0.33281687  0.29033643  0.05147962
   0.27017695  0.16505661  0.20591847
   0.20753704  0.03977678  0.36035732
   0.02036350  0.66542971  0.00000000
   0.95772359  0.54014988  0.15443885
   0.89508368  0.41487006  0.30887770
   0.66182007  0.68413684  0.06215556
   0.59918016  0.55885702  0.21659441
   0.53654024  0.43357719  0.37103327
   0.34936671  0.05923012  0.01067595
   0.28672679  0.93395029  0.16511480
   0.22408688  0.80867046  0.31955365
   0.16144697  0.68339064  0.47399250
   0.97427343  0.30904357  0.11363518
   0.91163352  0.18376374  0.26807403
   0.90947623  0.91524316  0.10295923
   0.84683632  0.78996333  0.25739808
   0.78419640  0.66468351  0.41183694
   0.59702287  0.29033643  0.05147962
   0.53438295  0.16505661  0.20591847
   0.47174304  0.03977678  0.36035732
   0.28456951  0.66542971  0.00000000
   0.22192959  0.54014988  0.15443885
   0.15928968  0.41487006  0.30887770
   0.82518168  0.67443006  0.15301029
   0.76254177  0.54915023  0.30744914
   0.69990185  0.42387040  0.46188799
   0.51272831  0.04952333  0.10153067
   0.45008840  0.92424350  0.25596953
   0.38744849  0.79896368  0.41040838
   0.20027495  0.42461661  0.05005106
   0.13763504  0.29933678  0.20448991
   0.07499513  0.17405695  0.35892876
   0.86674764  0.09399199  0.05052930
   0.80410773  0.96871216  0.20496815
   0.74146782  0.84343234  0.35940701
   0.49165437  0.34380544  0.15348854
   0.42901446  0.21852561  0.30792739
   0.36637454  0.09324579  0.46236624
   0.17920101  0.71889871  0.10200892
   0.11656109  0.59361889  0.25644777
   0.05392118  0.46833906  0.41088662
   0.48875168  0.67443006  0.15301029
   0.42611177  0.54915023  0.30744914
   0.36347185  0.42387040  0.46188799
   0.17629831  0.04952333  0.10153067
   0.11365840  0.92424350  0.25596953
   0.05101849  0.79896368  0.41040838
   0.86384495  0.42461661  0.05005106
   0.80120504  0.29933678  0.20448991
   0.73856513  0.17405695  0.35892876
 
 position of ions in cartesian coordinates  (Angst):
   5.43845459  6.28877517  1.95737197
   4.91051405  5.31106287  4.89342993
   4.38257349  4.33335057  7.82948789
   2.80504095  1.41186073  0.97868599
   2.27710040  0.43414842  3.91474395
   1.74915984 -0.54356387  6.85080191
   0.17162732  6.61467927  0.00000000
   8.07186824  1.08595663  2.93605796
   7.54392768  0.10824433  5.87211592
   5.57793965  3.88396669  1.18164785
   5.04999910  2.90625440  4.11770581
   4.52205855  1.92854209  7.05376376
   2.94452602 -0.99294775  0.20296186
   2.41658546  8.10907293  3.13901982
   1.88864491  7.13136063  6.07507778
   1.36070435  6.15364834  9.01113574
   8.21135330 -1.31885185  2.16033383
   7.68341275 -2.29656415  5.09639179
   7.66523071  5.08637093  1.95737197
   7.13729016  4.10865863  4.89342993
   6.60934961  3.13094633  7.82948789
   5.03181707  0.20945649  0.97868599
   4.50387651 -0.76825581  3.91474395
   3.97593596 -1.74596811  6.85080191
   2.39840343  5.41227503  0.00000000
   1.87046288  4.43456273  2.93605796
   1.34252232  3.45685043  5.87211592
   6.95478093  3.04266452  2.90889943
   6.42684038  2.06495223  5.84495739
   5.89889982  1.08723993  8.78101535
   4.32136729 -1.83424991  1.93021344
   3.79342674  7.26777077  4.86627140
   3.26548619  6.29005846  7.80232936
   1.68795365  3.36856863  0.95152746
   1.16001309  2.39085632  3.88758542
   0.63207254  1.41314402  6.82364338
   7.30510645 -2.99716334  0.96061944
   6.77716589  6.10485735  3.89667740
   6.24922534  5.12714504  6.83273536
   4.14375225  1.22794291  2.91799141
   3.61581170  0.25023060  5.85404937
   3.08787114 -0.72748170  8.79010733
   1.51033861  6.43076144  1.93930542
   0.98239805  5.45304914  4.87536338
   0.45445750  4.47533685  7.81142134
   4.11928784  4.57376093  2.90889943
   3.59134728  3.59604864  5.84495739
   3.06340673  2.61833633  8.78101535
   1.48587419 -0.30315350  1.93021344
   0.95793365  8.79886718  4.86627140
   0.42999309  7.82115487  7.80232936
   7.28064203  0.34865469  0.95152746
   6.75270148 -0.62905761  3.88758542
   6.22476092 -1.60676991  6.82364338
 


--------------------------------------------------------------------------------------------------------


 use parallel FFT for orbitals z direction half grid
 k-point   1 :   0.0000 0.0000 0.0000  plane waves:   17472

 maximum and minimum number of plane-waves per node :      2913     2910

 maximum number of plane-waves:     17472
 maximum index in each direction: 
   IXMAX=   16   IYMAX=   17   IZMAX=   32
   IXMIN=  -16   IYMIN=  -17   IZMIN=    0


 real space projection operators:
  total allocation   :       8731.80 KBytes
  max/ min on nodes  :       1553.38       1401.81


 parallel 3D FFT for wavefunctions:
    minimum data exchange during FFTs selected (reduces bandwidth)
 parallel 3D FFT for charge:
    minimum data exchange during FFTs selected (reduces bandwidth)


 total amount of memory used by VASP MPI-rank0    42822. kBytes
=======================================================================

   base      :      30000. kBytes
   nonlr-proj:       1908. kBytes
   fftplans  :       3097. kBytes
   grid      :       5606. kBytes
   one-center:         69. kBytes
   wavefun   :       2142. kBytes
 
     INWAV:  cpu time    0.0000: real time    0.0000
 Broyden mixing: mesh for mixing (old mesh)
   NGX = 33   NGY = 35   NGZ = 65
  (NGX  =100   NGY  =108   NGZ  =200)
  gives a total of  75075 points

 initial charge density was supplied:
 charge density of overlapping atoms calculated
 number of electron     594.0000000 magnetization 
 keeping initial charge density in first step


--------------------------------------------------------------------------------------------------------


 Maximum index for non-local projection operator          410
 Maximum index for augmentation-charges          505 (set IRDMAX)


--------------------------------------------------------------------------------------------------------


 First call to EWALD:  gamma=   0.151
 Maximum number of real-space cells 4x 3x 2
 Maximum number of reciprocal cells 2x 2x 4

    FEWALD:  cpu time    0.0040: real time    0.0041


--------------------------------------- Iteration      1(   1)  ---------------------------------------


    POTLOK:  cpu time    0.0383: real time    0.0387
    SETDIJ:  cpu time    0.0050: real time    0.0052
     EDDAV:  cpu time    1.1387: real time    1.1436
       DOS:  cpu time    0.0016: real time    0.0016
    --------------------------------------------
      LOOP:  cpu time    1.1836: real time    1.1891

 eigenvalue-minimisations  :   880
 total energy-change (2. order) : 0.7001825E+04  (-0.3789022E+05)
 number of electron     594.0000000 magnetization 
 augmentation part      594.0000000 magnetization 

 Free energy of the ion-electron system (eV)
  ---------------------------------------------------
  alpha Z        PSCENC =      1295.57565721
  Ewald energy   TEWEN  =    109358.52609070
  -Hartree energ DENC   =   -200846.37718879
  -exchange      EXHF   =         0.00000000
  -V(xc)+E(xc)   XCENC  =      2734.90867034
  PAW double counting   =     84547.15000061   -88231.13391551
  entropy T*S    EENTRO =        -0.23413897
  eigenvalues    EBANDS =     -3858.54432003
  atomic energy  EATOM  =    102001.95379032
  Solvation  Ediel_sol  =         0.00000000
  ---------------------------------------------------
  free energy    TOTEN  =      7001.82464588 eV

  energy without entropy =     7002.05878485  energy(sigma->0) =     7001.94171536


--------------------------------------------------------------------------------------------------------




--------------------------------------- Iteration      1(   2)  ---------------------------------------


     EDDAV:  cpu time    0.9958: real time    0.9996
       DOS:  cpu time    0.0008: real time    0.0008
    --------------------------------------------
      LOOP:  cpu time    0.9966: real time    1.0004

 eigenvalue-minimisations  :   768
 total energy-change (2. order) :-0.6606280E+04  (-0.6371170E+04)
 number of electron     594.0000000 magnetization 
 augmentation part      594.0000000 magnetization 

 Free energy of the ion-electron system (eV)
  ---------------------------------------------------
  alpha Z        PSCENC =      1295.57565721
  Ewald energy   TEWEN  =    109358.52609070
  -Hartree energ DENC   =   -200846.37718879
  -exchange      EXHF   =         0.00000000
  -V(xc)+E(xc)   XCENC  =      2734.90867034
  PAW double counting   =     84547.15000061   -88231.13391551
  entropy T*S    EENTRO =        -0.60654844
  eigenvalues    EBANDS =    -10464.45220735
  atomic energy  EATOM  =    102001.95379032
  Solvation  Ediel_sol  =         0.00000000
  ---------------------------------------------------
  free energy    TOTEN  =       395.54434910 eV

  energy without entropy =      396.15089754  energy(sigma->0) =      395.84762332


--------------------------------------------------------------------------------------------------------




--------------------------------------- Iteration      1(   3)  ---------------------------------------


     EDDAV:  cpu time    1.0891: real time    1.0935
       DOS:  cpu time    0.0008: real time    0.0008
    --------------------------------------------
      LOOP:  cpu time    1.0899: real time    1.0943

 eigenvalue-minimisations  :   832
 total energy-change (2. order) :-0.6556584E+03  (-0.6211037E+03)
 number of electron     594.0000000 magnetization 
 augmentation part      594.0000000 magnetization 

 Free energy of the ion-electron system (eV)
  ---------------------------------------------------
  alpha Z        PSCENC =      1295.57565721
  Ewald energy   TEWEN  =    109358.52609070
  -Hartree energ DENC   =   -200846.37718879
  -exchange      EXHF   =         0.00000000
  -V(xc)+E(xc)   XCENC  =      2734.90867034
  PAW double counting   =     84547.15000061   -88231.13391551
  entropy T*S    EENTRO =        -1.07681591
  eigenvalues    EBANDS =    -11119.64031148
  atomic energy  EATOM  =    102001.95379032
  Solvation  Ediel_sol  =         0.00000000
  ---------------------------------------------------
  free energy    TOTEN  =      -260.11402251 eV

  energy without entropy =     -259.03720660  energy(sigma->0) =     -259.57561456


--------------------------------------------------------------------------------------------------------




--------------------------------------- Iteration      1(   4)  ---------------------------------------


     EDDAV:  cpu time    1.0617: real time    1.0664
       DOS:  cpu time    0.0007: real time    0.0007
    --------------------------------------------
      LOOP:  cpu time    1.0624: real time    1.0671

 eigenvalue-minimisations  :   840
 total energy-change (2. order) :-0.3906861E+02  (-0.3868384E+02)
 number of electron     594.0000000 magnetization 
 augmentation part      594.0000000 magnetization 

 Free energy of the ion-electron system (eV)
  ---------------------------------------------------
  alpha Z        PSCENC =      1295.57565721
  Ewald energy   TEWEN  =    109358.52609070
  -Hartree energ DENC   =   -200846.37718879
  -exchange      EXHF   =         0.00000000
  -V(xc)+E(xc)   XCENC  =      2734.90867034
  PAW double counting   =     84547.15000061   -88231.13391551
  entropy T*S    EENTRO =        -1.08597019
  eigenvalues    EBANDS =    -11158.69976711
  atomic energy  EATOM  =    102001.95379032
  Solvation  Ediel_sol  =         0.00000000
  ---------------------------------------------------
  free energy    TOTEN  =      -299.18263243 eV

  energy without entropy =     -298.09666223  energy(sigma->0) =     -298.63964733


--------------------------------------------------------------------------------------------------------




--------------------------------------- Iteration      1(   5)  ---------------------------------------


     EDDAV:  cpu time    1.1062: real time    1.1088
       DOS:  cpu time    0.0007: real time    0.0007
    CHARGE:  cpu time    0.0567: real time    0.0568
    MIXING:  cpu time    0.0021: real time    0.0024
    --------------------------------------------
      LOOP:  cpu time    1.1656: real time    1.1687

 eigenvalue-minimisations  :   880
 total energy-change (2. order) :-0.1334906E+01  (-0.1332430E+01)
 number of electron     594.0000113 magnetization 
 augmentation part      214.1182612 magnetization 

 Broyden mixing:
  rms(total) = 0.71245E+01    rms(broyden)= 0.71111E+01
  rms(prec ) = 0.76031E+01
  weight for this iteration     100.00

 Free energy of the ion-electron system (eV)
  ---------------------------------------------------
  alpha Z        PSCENC =      1295.57565721
  Ewald energy   TEWEN  =    109358.52609070
  -Hartree energ DENC   =   -200846.37718879
  -exchange      EXHF   =         0.00000000
  -V(xc)+E(xc)   XCENC  =      2734.90867034
  PAW double counting   =     84547.15000061   -88231.13391551
  entropy T*S    EENTRO =        -1.08450626
  eigenvalues    EBANDS =    -11160.03613727
  atomic energy  EATOM  =    102001.95379032
  Solvation  Ediel_sol  =         0.00000000
  ---------------------------------------------------
  free energy    TOTEN  =      -300.51753865 eV

  energy without entropy =     -299.43303239  energy(sigma->0) =     -299.97528552


--------------------------------------------------------------------------------------------------------




--------------------------------------- Iteration      1(   6)  ---------------------------------------


    POTLOK:  cpu time    0.0355: real time    0.0355
    SETDIJ:  cpu time    0.0040: real time    0.0057
     EDDAV:  cpu time    1.0901: real time    1.0928
       DOS:  cpu time    0.0007: real time    0.0007
    CHARGE:  cpu time    0.0559: real time    0.0560
    MIXING:  cpu time    0.0015: real time    0.0016
    --------------------------------------------
      LOOP:  cpu time    1.1877: real time    1.1924

 eigenvalue-minimisations  :   872
 total energy-change (2. order) :-0.8674874E+02  (-0.7523480E+02)
 number of electron     594.0000183 magnetization 
 augmentation part      267.5002449 magnetization 

 Broyden mixing:
  rms(total) = 0.14497E+02    rms(broyden)= 0.14494E+02
  rms(prec ) = 0.15428E+02
  weight for this iteration     100.00

 eigenvalues of (default mixing * dielectric matrix)
  average eigenvalue GAMMA=   0.2167
  0.2167

 Free energy of the ion-electron system (eV)
  ---------------------------------------------------
  alpha Z        PSCENC =      1295.57565721
  Ewald energy   TEWEN  =    109358.52609070
  -Hartree energ DENC   =   -198712.19388634
  -exchange      EXHF   =         0.00000000
  -V(xc)+E(xc)   XCENC  =      2675.98835821
  PAW double counting   =     85550.16674412   -89050.08022381
  entropy T*S    EENTRO =        -0.48593776
  eigenvalues    EBANDS =    -13506.71686705
  atomic energy  EATOM  =    102001.95379032
  Solvation  Ediel_sol  =         0.00000000
  ---------------------------------------------------
  free energy    TOTEN  =      -387.26627440 eV

  energy without entropy =     -386.78033664  energy(sigma->0) =     -387.02330552


--------------------------------------------------------------------------------------------------------




--------------------------------------- Iteration      1(   7)  ---------------------------------------


    POTLOK:  cpu time    0.0350: real time    0.0351
    SETDIJ:  cpu time    0.0047: real time    0.0047
     EDDAV:  cpu time    1.1464: real time    1.1503
       DOS:  cpu time    0.0007: real time    0.0007
    CHARGE:  cpu time    0.0571: real time    0.0573
    MIXING:  cpu time    0.0015: real time    0.0015
    --------------------------------------------
      LOOP:  cpu time    1.2454: real time    1.2495

 eigenvalue-minimisations  :   864
 total energy-change (2. order) : 0.1048511E+03  (-0.1343080E+02)
 number of electron     594.0000176 magnetization 
 augmentation part      249.6420645 magnetization 

 Broyden mixing:
  rms(total) = 0.65299E+01    rms(broyden)= 0.65284E+01
  rms(prec ) = 0.70547E+01
  weight for this iteration     100.00

 eigenvalues of (default mixing * dielectric matrix)
  average eigenvalue GAMMA=   0.4679
  0.4679  0.4679

 Free energy of the ion-electron system (eV)
  ---------------------------------------------------
  alpha Z        PSCENC =      1295.57565721
  Ewald energy   TEWEN  =    109358.52609070
  -Hartree energ DENC   =   -199671.09227183
  -exchange      EXHF   =         0.00000000
  -V(xc)+E(xc)   XCENC  =      2698.84851822
  PAW double counting   =     88655.41270868   -92267.53562683
  entropy T*S    EENTRO =        -0.74994966
  eigenvalues    EBANDS =    -12353.35404519
  atomic energy  EATOM  =    102001.95379032
  Solvation  Ediel_sol  =         0.00000000
  ---------------------------------------------------
  free energy    TOTEN  =      -282.41512838 eV

  energy without entropy =     -281.66517872  energy(sigma->0) =     -282.04015355


--------------------------------------------------------------------------------------------------------




--------------------------------------- Iteration      1(   8)  ---------------------------------------


    POTLOK:  cpu time    0.0352: real time    0.0373
    SETDIJ:  cpu time    0.0041: real time    0.0064
     EDDAV:  cpu time    1.1324: real time    1.1351
       DOS:  cpu time    0.0005: real time    0.0005
    CHARGE:  cpu time    0.0559: real time    0.0561
    MIXING:  cpu time    0.0014: real time    0.0014
    --------------------------------------------
      LOOP:  cpu time    1.2295: real time    1.2368

 eigenvalue-minimisations  :   920
 total energy-change (2. order) :-0.6613307E+02  (-0.1338783E+02)
 number of electron     594.0000104 magnetization 
 augmentation part      233.0992915 magnetization 

 Broyden mixing:
  rms(total) = 0.12801E+02    rms(broyden)= 0.12798E+02
  rms(prec ) = 0.16240E+02
  weight for this iteration     100.00

 eigenvalues of (default mixing * dielectric matrix)
  average eigenvalue GAMMA=   0.3924
  0.5556  0.5188  0.1028

 Free energy of the ion-electron system (eV)
  ---------------------------------------------------
  alpha Z        PSCENC =      1295.57565721
  Ewald energy   TEWEN  =    109358.52609070
  -Hartree energ DENC   =   -200020.91468379
  -exchange      EXHF   =         0.00000000
  -V(xc)+E(xc)   XCENC  =      2709.44428648
  PAW double counting   =     91519.69935040   -95188.51063392
  entropy T*S    EENTRO =        -0.61624822
  eigenvalues    EBANDS =    -12023.70581156
  atomic energy  EATOM  =    102001.95379032
  Solvation  Ediel_sol  =         0.00000000
  ---------------------------------------------------
  free energy    TOTEN  =      -348.54820239 eV

  energy without entropy =     -347.93195416  energy(sigma->0) =     -348.24007827


--------------------------------------------------------------------------------------------------------




--------------------------------------- Iteration      1(   9)  ---------------------------------------


    POTLOK:  cpu time    0.0349: real time    0.0350
    SETDIJ:  cpu time    0.0046: real time    0.0046
     EDDAV:  cpu time    1.1815: real time    1.1845
       DOS:  cpu time    0.0006: real time    0.0006
    CHARGE:  cpu time    0.0558: real time    0.0560
    MIXING:  cpu time    0.0016: real time    0.0016
    --------------------------------------------
      LOOP:  cpu time    1.2791: real time    1.2822

 eigenvalue-minimisations  :   968
 total energy-change (2. order) : 0.4120085E+02  (-0.1448253E+02)
 number of electron     594.0000148 magnetization 
 augmentation part      232.4207843 magnetization 

 Broyden mixing:
  rms(total) = 0.77536E+01    rms(broyden)= 0.77487E+01
  rms(prec ) = 0.89710E+01
  weight for this iteration     100.00

 eigenvalues of (default mixing * dielectric matrix)
  average eigenvalue GAMMA=   0.3693
  0.8157  0.3906  0.1355  0.1355

 Free energy of the ion-electron system (eV)
  ---------------------------------------------------
  alpha Z        PSCENC =      1295.57565721
  Ewald energy   TEWEN  =    109358.52609070
  -Hartree energ DENC   =   -200172.00223514
  -exchange      EXHF   =         0.00000000
  -V(xc)+E(xc)   XCENC  =      2711.43271053
  PAW double counting   =     93391.98714315   -97086.26413516
  entropy T*S    EENTRO =        -1.03570151
  eigenvalues    EBANDS =    -11807.52067049
  atomic energy  EATOM  =    102001.95379032
  Solvation  Ediel_sol  =         0.00000000
  ---------------------------------------------------
  free energy    TOTEN  =      -307.34735040 eV

  energy without entropy =     -306.31164889  energy(sigma->0) =     -306.82949964


--------------------------------------------------------------------------------------------------------




--------------------------------------- Iteration      1(  10)  ---------------------------------------


    POTLOK:  cpu time    0.0346: real time    0.0347
    SETDIJ:  cpu time    0.0047: real time    0.0047
     EDDAV:  cpu time    1.2062: real time    1.2092
       DOS:  cpu time    0.0005: real time    0.0005
    CHARGE:  cpu time    0.0564: real time    0.0565
    MIXING:  cpu time    0.0016: real time    0.0016
    --------------------------------------------
      LOOP:  cpu time    1.3039: real time    1.3071

 eigenvalue-minimisations  :   992
 total energy-change (2. order) : 0.2632988E+02  (-0.5001593E+01)
 number of electron     594.0000082 magnetization 
 augmentation part      231.7734498 magnetization 

 Broyden mixing:
  rms(total) = 0.75998E+01    rms(broyden)= 0.75971E+01
  rms(prec ) = 0.88535E+01
  weight for this iteration     100.00

 eigenvalues of (default mixing * dielectric matrix)
  average eigenvalue GAMMA=   0.3416
  0.9180  0.3677  0.1581  0.1322  0.1322

 Free energy of the ion-electron system (eV)
  ---------------------------------------------------
  alpha Z        PSCENC =      1295.57565721
  Ewald energy   TEWEN  =    109358.52609070
  -Hartree energ DENC   =   -200139.09235318
  -exchange      EXHF   =         0.00000000
  -V(xc)+E(xc)   XCENC  =      2712.87262537
  PAW double counting   =     94734.82619488   -98447.37653353
  entropy T*S    EENTRO =        -1.00641375
  eigenvalues    EBANDS =    -11797.29652762
  atomic energy  EATOM  =    102001.95379032
  Solvation  Ediel_sol  =         0.00000000
  ---------------------------------------------------
  free energy    TOTEN  =      -281.01746961 eV

  energy without entropy =     -280.01105585  energy(sigma->0) =     -280.51426273


--------------------------------------------------------------------------------------------------------




--------------------------------------- Iteration      1(  11)  ---------------------------------------


    POTLOK:  cpu time    0.0346: real time    0.0347
    SETDIJ:  cpu time    0.0045: real time    0.0045
     EDDAV:  cpu time    1.1963: real time    1.1992
       DOS:  cpu time    0.0005: real time    0.0005
    CHARGE:  cpu time    0.0564: real time    0.0565
    MIXING:  cpu time    0.0016: real time    0.0016
    --------------------------------------------
      LOOP:  cpu time    1.2939: real time    1.2970

 eigenvalue-minimisations  :   984
 total energy-change (2. order) : 0.6628040E+01  (-0.6077322E+01)
 number of electron     594.0000145 magnetization 
 augmentation part      234.0887750 magnetization 

 Broyden mixing:
  rms(total) = 0.37301E+01    rms(broyden)= 0.37278E+01
  rms(prec ) = 0.41878E+01
  weight for this iteration     100.00

 eigenvalues of (default mixing * dielectric matrix)
  average eigenvalue GAMMA=   0.3933
  1.2029  0.3309  0.3102  0.3102  0.1029  0.1029

 Free energy of the ion-electron system (eV)
  ---------------------------------------------------
  alpha Z        PSCENC =      1295.57565721
  Ewald energy   TEWEN  =    109358.52609070
  -Hartree energ DENC   =   -200178.71424007
  -exchange      EXHF   =         0.00000000
  -V(xc)+E(xc)   XCENC  =      2712.38172581
  PAW double counting   =     95330.12612648   -99047.72866550
  entropy T*S    EENTRO =        -0.79986084
  eigenvalues    EBANDS =    -11745.71005337
  atomic energy  EATOM  =    102001.95379032
  Solvation  Ediel_sol  =         0.00000000
  ---------------------------------------------------
  free energy    TOTEN  =      -274.38942926 eV

  energy without entropy =     -273.58956842  energy(sigma->0) =     -273.98949884


--------------------------------------------------------------------------------------------------------




--------------------------------------- Iteration      1(  12)  ---------------------------------------


    POTLOK:  cpu time    0.0344: real time    0.0345
    SETDIJ:  cpu time    0.0045: real time    0.0045
     EDDAV:  cpu time    1.2017: real time    1.2049
       DOS:  cpu time    0.0008: real time    0.0008
    CHARGE:  cpu time    0.0572: real time    0.0573
    MIXING:  cpu time    0.0018: real time    0.0018
    --------------------------------------------
      LOOP:  cpu time    1.3004: real time    1.3038

 eigenvalue-minimisations  :   952
 total energy-change (2. order) :-0.2097445E+00  (-0.4164933E+01)
 number of electron     594.0000161 magnetization 
 augmentation part      231.4476550 magnetization 

 Broyden mixing:
  rms(total) = 0.65129E+01    rms(broyden)= 0.65100E+01
  rms(prec ) = 0.74731E+01
  weight for this iteration     100.00

 eigenvalues of (default mixing * dielectric matrix)
  average eigenvalue GAMMA=   0.4391
  1.6625  0.4021  0.4021  0.2509  0.1534  0.1015  0.1015

 Free energy of the ion-electron system (eV)
  ---------------------------------------------------
  alpha Z        PSCENC =      1295.57565721
  Ewald energy   TEWEN  =    109358.52609070
  -Hartree energ DENC   =   -200223.21226928
  -exchange      EXHF   =         0.00000000
  -V(xc)+E(xc)   XCENC  =      2712.98491922
  PAW double counting   =     96383.19033990  -100111.99561913
  entropy T*S    EENTRO =        -1.18999438
  eigenvalues    EBANDS =    -11690.43208831
  atomic energy  EATOM  =    102001.95379032
  Solvation  Ediel_sol  =         0.00000000
  ---------------------------------------------------
  free energy    TOTEN  =      -274.59917375 eV

  energy without entropy =     -273.40917937  energy(sigma->0) =     -274.00417656


--------------------------------------------------------------------------------------------------------




--------------------------------------- Iteration      1(  13)  ---------------------------------------


    POTLOK:  cpu time    0.0354: real time    0.0364
    SETDIJ:  cpu time    0.0040: real time    0.0058
     EDDAV:  cpu time    1.1957: real time    1.1986
       DOS:  cpu time    0.0010: real time    0.0010
    CHARGE:  cpu time    0.0565: real time    0.0566
    MIXING:  cpu time    0.0017: real time    0.0017
    --------------------------------------------
      LOOP:  cpu time    1.2943: real time    1.3001

 eigenvalue-minimisations  :   984
 total energy-change (2. order) : 0.1050082E+01  (-0.5226225E+01)
 number of electron     594.0000166 magnetization 
 augmentation part      233.3162286 magnetization 

 Broyden mixing:
  rms(total) = 0.42349E+01    rms(broyden)= 0.42325E+01
  rms(prec ) = 0.48409E+01
  weight for this iteration     100.00

 eigenvalues of (default mixing * dielectric matrix)
  average eigenvalue GAMMA=   0.4163
  1.7307  0.4067  0.4067  0.2901  0.1674  0.1062  0.1062  0.1164

 Free energy of the ion-electron system (eV)
  ---------------------------------------------------
  alpha Z        PSCENC =      1295.57565721
  Ewald energy   TEWEN  =    109358.52609070
  -Hartree energ DENC   =   -200216.97253216
  -exchange      EXHF   =         0.00000000
  -V(xc)+E(xc)   XCENC  =      2712.11098627
  PAW double counting   =     97558.87346123  -101295.78416579
  entropy T*S    EENTRO =        -0.87476022
  eigenvalues    EBANDS =    -11686.95761888
  atomic energy  EATOM  =    102001.95379032
  Solvation  Ediel_sol  =         0.00000000
  ---------------------------------------------------
  free energy    TOTEN  =      -273.54909131 eV

  energy without entropy =     -272.67433110  energy(sigma->0) =     -273.11171121


--------------------------------------------------------------------------------------------------------




--------------------------------------- Iteration      1(  14)  ---------------------------------------


    POTLOK:  cpu time    0.0353: real time    0.0354
    SETDIJ:  cpu time    0.0045: real time    0.0045
     EDDAV:  cpu time    1.1746: real time    1.1774
       DOS:  cpu time    0.0009: real time    0.0009
    CHARGE:  cpu time    0.0559: real time    0.0560
    MIXING:  cpu time    0.0018: real time    0.0018
    --------------------------------------------
      LOOP:  cpu time    1.2730: real time    1.2760

 eigenvalue-minimisations  :   960
 total energy-change (2. order) : 0.7006646E+01  (-0.1121018E+01)
 number of electron     594.0000138 magnetization 
 augmentation part      235.1796585 magnetization 

 Broyden mixing:
  rms(total) = 0.23302E+01    rms(broyden)= 0.23280E+01
  rms(prec ) = 0.27399E+01
  weight for this iteration     100.00

 eigenvalues of (default mixing * dielectric matrix)
  average eigenvalue GAMMA=   0.3997
  1.6532  0.4507  0.4507  0.3590  0.1746  0.1746  0.1286  0.1029  0.1029

 Free energy of the ion-electron system (eV)
  ---------------------------------------------------
  alpha Z        PSCENC =      1295.57565721
  Ewald energy   TEWEN  =    109358.52609070
  -Hartree energ DENC   =   -200209.01714467
  -exchange      EXHF   =         0.00000000
  -V(xc)+E(xc)   XCENC  =      2712.18064895
  PAW double counting   =     97832.53081649  -101572.16432453
  entropy T*S    EENTRO =        -0.72222082
  eigenvalues    EBANDS =    -11685.40575908
  atomic energy  EATOM  =    102001.95379032
  Solvation  Ediel_sol  =         0.00000000
  ---------------------------------------------------
  free energy    TOTEN  =      -266.54244544 eV

  energy without entropy =     -265.82022461  energy(sigma->0) =     -266.18133502


--------------------------------------------------------------------------------------------------------




--------------------------------------- Iteration      1(  15)  ---------------------------------------


    POTLOK:  cpu time    0.0353: real time    0.0354
    SETDIJ:  cpu time    0.0044: real time    0.0044
     EDDAV:  cpu time    1.2062: real time    1.2091
       DOS:  cpu time    0.0009: real time    0.0008
    CHARGE:  cpu time    0.0564: real time    0.0566
    MIXING:  cpu time    0.0019: real time    0.0019
    --------------------------------------------
      LOOP:  cpu time    1.3050: real time    1.3081

 eigenvalue-minimisations  :   992
 total energy-change (2. order) : 0.1372070E+01  (-0.4566237E+00)
 number of electron     594.0000151 magnetization 
 augmentation part      234.3359500 magnetization 

 Broyden mixing:
  rms(total) = 0.22449E+01    rms(broyden)= 0.22433E+01
  rms(prec ) = 0.25950E+01
  weight for this iteration     100.00

 eigenvalues of (default mixing * dielectric matrix)
  average eigenvalue GAMMA=   0.3936
  1.6124  0.5500  0.5500  0.3566  0.1964  0.1728  0.1728  0.1043  0.1043  0.1158

 Free energy of the ion-electron system (eV)
  ---------------------------------------------------
  alpha Z        PSCENC =      1295.57565721
  Ewald energy   TEWEN  =    109358.52609070
  -Hartree energ DENC   =   -200225.32437059
  -exchange      EXHF   =         0.00000000
  -V(xc)+E(xc)   XCENC  =      2713.00343686
  PAW double counting   =     97734.37260592  -101474.26029228
  entropy T*S    EENTRO =        -0.83381084
  eigenvalues    EBANDS =    -11668.18348248
  atomic energy  EATOM  =    102001.95379032
  Solvation  Ediel_sol  =         0.00000000
  ---------------------------------------------------
  free energy    TOTEN  =      -265.17037518 eV

  energy without entropy =     -264.33656434  energy(sigma->0) =     -264.75346976


--------------------------------------------------------------------------------------------------------




--------------------------------------- Iteration      1(  16)  ---------------------------------------


    POTLOK:  cpu time    0.0352: real time    0.0353
    SETDIJ:  cpu time    0.0044: real time    0.0044
     EDDAV:  cpu time    1.1748: real time    1.1776
       DOS:  cpu time    0.0005: real time    0.0005
    CHARGE:  cpu time    0.0563: real time    0.0565
    MIXING:  cpu time    0.0020: real time    0.0020
    --------------------------------------------
      LOOP:  cpu time    1.2732: real time    1.2762

 eigenvalue-minimisations  :   960
 total energy-change (2. order) : 0.9988442E+00  (-0.4405366E+00)
 number of electron     594.0000149 magnetization 
 augmentation part      234.3783122 magnetization 

 Broyden mixing:
  rms(total) = 0.18259E+01    rms(broyden)= 0.18245E+01
  rms(prec ) = 0.21549E+01
  weight for this iteration     100.00

 eigenvalues of (default mixing * dielectric matrix)
  average eigenvalue GAMMA=   0.3920
  1.6253  0.6156  0.6156  0.3063  0.3063  0.2156  0.1608  0.1527  0.1028  0.1028
  0.1084

 Free energy of the ion-electron system (eV)
  ---------------------------------------------------
  alpha Z        PSCENC =      1295.57565721
  Ewald energy   TEWEN  =    109358.52609070
  -Hartree energ DENC   =   -200247.81658361
  -exchange      EXHF   =         0.00000000
  -V(xc)+E(xc)   XCENC  =      2713.39978493
  PAW double counting   =     97707.61663481  -101447.14356733
  entropy T*S    EENTRO =        -0.72966862
  eigenvalues    EBANDS =    -11645.55366938
  atomic energy  EATOM  =    102001.95379032
  Solvation  Ediel_sol  =         0.00000000
  ---------------------------------------------------
  free energy    TOTEN  =      -264.17153096 eV

  energy without entropy =     -263.44186235  energy(sigma->0) =     -263.80669666


--------------------------------------------------------------------------------------------------------




--------------------------------------- Iteration      1(  17)  ---------------------------------------


    POTLOK:  cpu time    0.0349: real time    0.0350
    SETDIJ:  cpu time    0.0044: real time    0.0044
     EDDAV:  cpu time    1.2097: real time    1.2126
       DOS:  cpu time    0.0005: real time    0.0005
    CHARGE:  cpu time    0.0565: real time    0.0566
    MIXING:  cpu time    0.0020: real time    0.0020
    --------------------------------------------
      LOOP:  cpu time    1.3081: real time    1.3112

 eigenvalue-minimisations  :   992
 total energy-change (2. order) : 0.1202514E+01  (-0.1288105E+00)
 number of electron     594.0000144 magnetization 
 augmentation part      234.0879027 magnetization 

 Broyden mixing:
  rms(total) = 0.14471E+01    rms(broyden)= 0.14467E+01
  rms(prec ) = 0.16861E+01
  weight for this iteration     100.00

 eigenvalues of (default mixing * dielectric matrix)
  average eigenvalue GAMMA=   0.4526
  1.8116  0.8934  0.8934  0.4008  0.4008  0.2106  0.2106  0.1475  0.1475  0.1031
  0.1031  0.1086

 Free energy of the ion-electron system (eV)
  ---------------------------------------------------
  alpha Z        PSCENC =      1295.57565721
  Ewald energy   TEWEN  =    109358.52609070
  -Hartree energ DENC   =   -200255.77451439
  -exchange      EXHF   =         0.00000000
  -V(xc)+E(xc)   XCENC  =      2713.62947118
  PAW double counting   =     97668.71412187  -101407.20892504
  entropy T*S    EENTRO =        -0.74812147
  eigenvalues    EBANDS =    -11637.63658685
  atomic energy  EATOM  =    102001.95379032
  Solvation  Ediel_sol  =         0.00000000
  ---------------------------------------------------
  free energy    TOTEN  =      -262.96901648 eV

  energy without entropy =     -262.22089501  energy(sigma->0) =     -262.59495575


--------------------------------------------------------------------------------------------------------




--------------------------------------- Iteration      1(  18)  ---------------------------------------


    POTLOK:  cpu time    0.0354: real time    0.0354
    SETDIJ:  cpu time    0.0043: real time    0.0043
     EDDAV:  cpu time    1.1904: real time    1.1933
       DOS:  cpu time    0.0006: real time    0.0006
    CHARGE:  cpu time    0.0623: real time    0.0624
    MIXING:  cpu time    0.0021: real time    0.0022
    --------------------------------------------
      LOOP:  cpu time    1.2951: real time    1.2983

 eigenvalue-minimisations  :   976
 total energy-change (2. order) : 0.5573663E+00  (-0.1472999E+00)
 number of electron     594.0000150 magnetization 
 augmentation part      233.9230374 magnetization 

 Broyden mixing:
  rms(total) = 0.12469E+01    rms(broyden)= 0.12456E+01
  rms(prec ) = 0.14176E+01
  weight for this iteration     100.00

 eigenvalues of (default mixing * dielectric matrix)
  average eigenvalue GAMMA=   0.4511
  1.8559  0.9901  0.9901  0.4078  0.4078  0.2309  0.2309  0.1560  0.1560  0.1034
  0.1034  0.1215  0.1104

 Free energy of the ion-electron system (eV)
  ---------------------------------------------------
  alpha Z        PSCENC =      1295.57565721
  Ewald energy   TEWEN  =    109358.52609070
  -Hartree energ DENC   =   -200262.31916683
  -exchange      EXHF   =         0.00000000
  -V(xc)+E(xc)   XCENC  =      2713.36847164
  PAW double counting   =     97678.11632638  -101413.48625183
  entropy T*S    EENTRO =        -0.78345272
  eigenvalues    EBANDS =    -11633.36311504
  atomic energy  EATOM  =    102001.95379032
  Solvation  Ediel_sol  =         0.00000000
  ---------------------------------------------------
  free energy    TOTEN  =      -262.41165017 eV

  energy without entropy =     -261.62819745  energy(sigma->0) =     -262.01992381


--------------------------------------------------------------------------------------------------------




--------------------------------------- Iteration      1(  19)  ---------------------------------------


    POTLOK:  cpu time    0.0353: real time    0.0353
    SETDIJ:  cpu time    0.0043: real time    0.0043
     EDDAV:  cpu time    1.2022: real time    1.2051
       DOS:  cpu time    0.0007: real time    0.0007
    CHARGE:  cpu time    0.0563: real time    0.0565
    MIXING:  cpu time    0.0022: real time    0.0022
    --------------------------------------------
      LOOP:  cpu time    1.3011: real time    1.3042

 eigenvalue-minimisations  :   984
 total energy-change (2. order) : 0.3192927E+00  (-0.1078963E+00)
 number of electron     594.0000139 magnetization 
 augmentation part      234.2301690 magnetization 

 Broyden mixing:
  rms(total) = 0.92244E+00    rms(broyden)= 0.92155E+00
  rms(prec ) = 0.10362E+01
  weight for this iteration     100.00

 eigenvalues of (default mixing * dielectric matrix)
  average eigenvalue GAMMA=   0.4665
  1.8554  1.1592  1.1592  0.4349  0.4349  0.3170  0.2200  0.1033  0.1033  0.1658
  0.1658  0.1619  0.1409  0.1089

 Free energy of the ion-electron system (eV)
  ---------------------------------------------------
  alpha Z        PSCENC =      1295.57565721
  Ewald energy   TEWEN  =    109358.52609070
  -Hartree energ DENC   =   -200252.32792152
  -exchange      EXHF   =         0.00000000
  -V(xc)+E(xc)   XCENC  =      2713.17749525
  PAW double counting   =     97674.06334691  -101407.90238605
  entropy T*S    EENTRO =        -0.74571158
  eigenvalues    EBANDS =    -11644.41271871
  atomic energy  EATOM  =    102001.95379032
  Solvation  Ediel_sol  =         0.00000000
  ---------------------------------------------------
  free energy    TOTEN  =      -262.09235748 eV

  energy without entropy =     -261.34664589  energy(sigma->0) =     -261.71950169


--------------------------------------------------------------------------------------------------------




--------------------------------------- Iteration      1(  20)  ---------------------------------------


    POTLOK:  cpu time    0.0352: real time    0.0353
    SETDIJ:  cpu time    0.0043: real time    0.0043
     EDDAV:  cpu time    1.2666: real time    1.2705
       DOS:  cpu time    0.0007: real time    0.0007
    CHARGE:  cpu time    0.0578: real time    0.0579
    MIXING:  cpu time    0.0024: real time    0.0024
    --------------------------------------------
      LOOP:  cpu time    1.3671: real time    1.3712

 eigenvalue-minimisations  :  1008
 total energy-change (2. order) : 0.1814232E+00  (-0.4451206E-01)
 number of electron     594.0000141 magnetization 
 augmentation part      234.2776236 magnetization 

 Broyden mixing:
  rms(total) = 0.87482E+00    rms(broyden)= 0.87410E+00
  rms(prec ) = 0.98583E+00
  weight for this iteration     100.00

 eigenvalues of (default mixing * dielectric matrix)
  average eigenvalue GAMMA=   0.4624
  1.8233  1.2225  1.2225  0.4006  0.4006  0.3445  0.3445  0.2425  0.1799  0.1550
  0.1550  0.1033  0.1033  0.1289  0.1091

 Free energy of the ion-electron system (eV)
  ---------------------------------------------------
  alpha Z        PSCENC =      1295.57565721
  Ewald energy   TEWEN  =    109358.52609070
  -Hartree energ DENC   =   -200253.57864794
  -exchange      EXHF   =         0.00000000
  -V(xc)+E(xc)   XCENC  =      2713.19979040
  PAW double counting   =     97568.02692231  -101299.40966928
  entropy T*S    EENTRO =        -0.84072776
  eigenvalues    EBANDS =    -11645.36414022
  atomic energy  EATOM  =    102001.95379032
  Solvation  Ediel_sol  =         0.00000000
  ---------------------------------------------------
  free energy    TOTEN  =      -261.91093426 eV

  energy without entropy =     -261.07020651  energy(sigma->0) =     -261.49057038


--------------------------------------------------------------------------------------------------------




--------------------------------------- Iteration      1(  21)  ---------------------------------------


    POTLOK:  cpu time    0.0361: real time    0.0380
    SETDIJ:  cpu time    0.0064: real time    0.0065
     EDDAV:  cpu time    1.1642: real time    1.1670
       DOS:  cpu time    0.0009: real time    0.0009
    CHARGE:  cpu time    0.0565: real time    0.0566
    MIXING:  cpu time    0.0023: real time    0.0023
    --------------------------------------------
      LOOP:  cpu time    1.2664: real time    1.2713

 eigenvalue-minimisations  :   944
 total energy-change (2. order) : 0.6389065E-01  (-0.2487567E-01)
 number of electron     594.0000139 magnetization 
 augmentation part      234.1557833 magnetization 

 Broyden mixing:
  rms(total) = 0.69264E+00    rms(broyden)= 0.69233E+00
  rms(prec ) = 0.78434E+00
  weight for this iteration     100.00

 eigenvalues of (default mixing * dielectric matrix)
  average eigenvalue GAMMA=   0.4793
  1.8037  1.3219  1.3219  0.5481  0.5481  0.4009  0.4009  0.2187  0.2187  0.1557
  0.1557  0.1033  0.1033  0.1091  0.1296  0.1296

 Free energy of the ion-electron system (eV)
  ---------------------------------------------------
  alpha Z        PSCENC =      1295.57565721
  Ewald energy   TEWEN  =    109358.52609070
  -Hartree energ DENC   =   -200263.96032671
  -exchange      EXHF   =         0.00000000
  -V(xc)+E(xc)   XCENC  =      2713.29260967
  PAW double counting   =     97469.31093846  -101199.36385542
  entropy T*S    EENTRO =        -0.83372376
  eigenvalues    EBANDS =    -11636.34822407
  atomic energy  EATOM  =    102001.95379032
  Solvation  Ediel_sol  =         0.00000000
  ---------------------------------------------------
  free energy    TOTEN  =      -261.84704361 eV

  energy without entropy =     -261.01331985  energy(sigma->0) =     -261.43018173


--------------------------------------------------------------------------------------------------------




--------------------------------------- Iteration      1(  22)  ---------------------------------------


    POTLOK:  cpu time    0.0354: real time    0.0355
    SETDIJ:  cpu time    0.0044: real time    0.0044
     EDDAV:  cpu time    1.1913: real time    1.1942
       DOS:  cpu time    0.0007: real time    0.0007
    CHARGE:  cpu time    0.0562: real time    0.0563
    MIXING:  cpu time    0.0024: real time    0.0024
    --------------------------------------------
      LOOP:  cpu time    1.2905: real time    1.2936

 eigenvalue-minimisations  :   976
 total energy-change (2. order) : 0.1040047E-01  (-0.1950877E-01)
 number of electron     594.0000141 magnetization 
 augmentation part      233.8901371 magnetization 

 Broyden mixing:
  rms(total) = 0.62446E+00    rms(broyden)= 0.62405E+00
  rms(prec ) = 0.73249E+00
  weight for this iteration     100.00

 eigenvalues of (default mixing * dielectric matrix)
  average eigenvalue GAMMA=   0.5119
  1.9864  1.3877  1.3877  0.7492  0.7492  0.4198  0.4198  0.2724  0.2724  0.1611
  0.1611  0.1033  0.1033  0.1578  0.1092  0.1366  0.1244

 Free energy of the ion-electron system (eV)
  ---------------------------------------------------
  alpha Z        PSCENC =      1295.57565721
  Ewald energy   TEWEN  =    109358.52609070
  -Hartree energ DENC   =   -200279.54810972
  -exchange      EXHF   =         0.00000000
  -V(xc)+E(xc)   XCENC  =      2713.41412323
  PAW double counting   =     97360.13067795  -101088.69807059
  entropy T*S    EENTRO =        -0.85164976
  eigenvalues    EBANDS =    -11622.33915248
  atomic energy  EATOM  =    102001.95379032
  Solvation  Ediel_sol  =         0.00000000
  ---------------------------------------------------
  free energy    TOTEN  =      -261.83664314 eV

  energy without entropy =     -260.98499338  energy(sigma->0) =     -261.41081826


--------------------------------------------------------------------------------------------------------




--------------------------------------- Iteration      1(  23)  ---------------------------------------


    POTLOK:  cpu time    0.0354: real time    0.0355
    SETDIJ:  cpu time    0.0043: real time    0.0044
     EDDAV:  cpu time    1.1593: real time    1.1620
       DOS:  cpu time    0.0007: real time    0.0007
    CHARGE:  cpu time    0.0564: real time    0.0565
    MIXING:  cpu time    0.0025: real time    0.0025
    --------------------------------------------
      LOOP:  cpu time    1.2586: real time    1.2616

 eigenvalue-minimisations  :   944
 total energy-change (2. order) :-0.2163534E-01  (-0.3330017E-01)
 number of electron     594.0000137 magnetization 
 augmentation part      234.4000465 magnetization 

 Broyden mixing:
  rms(total) = 0.62655E+00    rms(broyden)= 0.62601E+00
  rms(prec ) = 0.71035E+00
  weight for this iteration     100.00

 eigenvalues of (default mixing * dielectric matrix)
  average eigenvalue GAMMA=   0.5124
  2.0549  1.4023  1.4023  0.8246  0.8246  0.4348  0.4348  0.3446  0.2315  0.2315
  0.1606  0.1606  0.1033  0.1033  0.1410  0.1410  0.1094  0.1187

 Free energy of the ion-electron system (eV)
  ---------------------------------------------------
  alpha Z        PSCENC =      1295.57565721
  Ewald energy   TEWEN  =    109358.52609070
  -Hartree energ DENC   =   -200277.85318258
  -exchange      EXHF   =         0.00000000
  -V(xc)+E(xc)   XCENC  =      2713.22460427
  PAW double counting   =     97337.71077912  -101064.39169357
  entropy T*S    EENTRO =        -0.83390633
  eigenvalues    EBANDS =    -11625.77041762
  atomic energy  EATOM  =    102001.95379032
  Solvation  Ediel_sol  =         0.00000000
  ---------------------------------------------------
  free energy    TOTEN  =      -261.85827848 eV

  energy without entropy =     -261.02437215  energy(sigma->0) =     -261.44132532


--------------------------------------------------------------------------------------------------------




--------------------------------------- Iteration      1(  24)  ---------------------------------------


    POTLOK:  cpu time    0.0357: real time    0.0357
[...]
-64.959   0.079   0.012  11.872  -0.034  -0.004   0.030  -0.015
  0.079 -64.852   0.092  -0.034  11.824  -0.038   0.003   0.011
  0.012   0.092 -64.989  -0.004  -0.038  11.884   0.006   0.003
 11.872  -0.034  -0.004   4.981   0.009   0.002  -0.009   0.004
 -0.034  11.824  -0.038   0.009   4.994   0.012  -0.001  -0.003
 -0.004  -0.038  11.884   0.002   0.012   4.978  -0.002  -0.001
  0.030   0.003   0.006  -0.009  -0.001  -0.002 -10.223   0.073
 -0.015   0.011   0.003   0.004  -0.003  -0.001   0.073 -10.099
 -0.005  -0.013  -0.020   0.001   0.003   0.006  -0.025   0.024
  0.003   0.037  -0.008  -0.001  -0.011   0.002   0.081  -0.011
 -0.014   0.004   0.042   0.004  -0.001  -0.013  -0.019  -0.026
  0.030   0.003   0.006  -0.009  -0.001  -0.002 -10.775   0.072
 -0.015   0.011   0.003   0.004  -0.003  -0.001   0.072 -10.651
 -0.005  -0.013  -0.020   0.001   0.003   0.006  -0.025   0.024
  0.003   0.037  -0.008  -0.001  -0.011   0.002   0.080  -0.011
 -0.014   0.004   0.042   0.004  -0.001  -0.013  -0.019  -0.026
 -0.003   0.004  -0.010   0.000   0.001   0.002  -0.002  -0.017
 -0.007   0.010  -0.023   0.000   0.003   0.005  -0.004  -0.037
 total augmentation occupancy for first ion, spin component:           1
  1.995   0.000   0.000  -0.018   0.001  -0.000  -0.001  -0.003   0.002   0.001   0.001   0.001   0.003  -0.002  -0.001  -0.001
  0.000   1.995   0.000   0.001  -0.017   0.001   0.001  -0.000  -0.007  -0.010   0.000  -0.001  -0.000   0.007   0.008  -0.000
  0.000   0.000   1.995  -0.000   0.001  -0.018  -0.003   0.001   0.003  -0.003  -0.015   0.002  -0.001  -0.003   0.004   0.013
 -0.018   0.001  -0.000   0.119  -0.013  -0.002   0.157   0.012   0.048  -0.002   0.024  -0.142  -0.005  -0.048  -0.002  -0.015
  0.001  -0.017   0.001  -0.013   0.074  -0.012   0.018   0.021  -0.124  -0.186  -0.009  -0.021  -0.022   0.122   0.185   0.004
 -0.000   0.001  -0.018  -0.002  -0.012   0.117  -0.041  -0.032  -0.059  -0.027  -0.272   0.053   0.017   0.056   0.016   0.246
 -0.001   0.001  -0.003   0.157   0.018  -0.041   3.085   0.166  -0.214   0.179  -0.171  -1.652   0.092   0.027   0.203  -0.057
 -0.003  -0.000   0.001   0.012   0.021  -0.032   0.166   2.940   0.018  -0.121   0.384   0.087  -0.982  -0.023  -0.047  -0.199
  0.002  -0.007   0.003   0.048  -0.124  -0.059  -0.214   0.018   3.626  -0.052   0.094   0.017  -0.022  -1.588  -0.224  -0.197
  0.001  -0.010  -0.003  -0.002  -0.186  -0.027   0.179  -0.121  -0.052   3.514   0.320   0.200  -0.056  -0.229  -1.731  -0.151
  0.001   0.000  -0.015   0.024  -0.009  -0.272  -0.171   0.384   0.094   0.320   3.642  -0.052  -0.195  -0.190  -0.148  -1.673
  0.001  -0.001   0.002  -0.142  -0.021   0.053  -1.652   0.087   0.017   0.200  -0.052   1.839  -0.245   0.105  -0.433   0.207
  0.003  -0.000  -0.001  -0.005  -0.022   0.017   0.092  -0.982  -0.022  -0.056  -0.195  -0.245   0.849   0.024   0.153   0.076
 -0.002   0.007  -0.003  -0.048   0.122   0.056   0.027  -0.023  -1.588  -0.229  -0.190   0.105   0.024   1.369   0.380   0.249
 -0.001   0.008   0.004  -0.002   0.185   0.016   0.203  -0.047  -0.224  -1.731  -0.148  -0.433   0.153   0.380   1.655   0.039
 -0.001  -0.000   0.013  -0.015   0.004   0.246  -0.057  -0.199  -0.197  -0.151  -1.673   0.207   0.076   0.249   0.039   1.525
  0.008  -0.014   0.024   0.017   0.002   0.044   0.044   0.466   0.639   0.309   0.074  -0.046  -0.297  -0.494  -0.214  -0.074
 -0.004   0.007  -0.011  -0.001  -0.003  -0.002  -0.020  -0.067  -0.054  -0.039   0.004   0.010   0.023   0.022   0.005   0.002


------------------------ aborting loop because EDIFF is reached ----------------------------------------


    CHARGE:  cpu time    0.0567: real time    0.0568
    FORLOC:  cpu time    0.0106: real time    0.0106
    FORNL :  cpu time    0.2203: real time    0.2210
    STRESS:  cpu time    0.6611: real time    0.6630
    FORCOR:  cpu time    0.0436: real time    0.0438
    FORHAR:  cpu time    0.0174: real time    0.0175
    MIXING:  cpu time    0.0041: real time    0.0041
    OFIELD:  cpu time    0.0001: real time    0.0001

  FORCE on cell =-STRESS in cart. coord.  units (eV):
  Direction    XX          YY          ZZ          XY          YZ          ZX
  --------------------------------------------------------------------------------------
  Alpha Z  1295.57566  1295.57566  1295.57566
  Ewald  146125.05657145426.62747************  -532.35509  -477.93517  -258.07321
  Hartree173595.30126172998.18914************  -455.12958  -249.17557  -134.54927
  E(xc)   -3767.30203 -3767.40306 -3770.61379    -0.08015    -0.96428    -0.52079
  Local  ************************318821.78470   986.24131   699.07349   377.48311
  n-local  -526.57996  -527.39571  -525.83779    -0.64587    -4.21627    -2.26687
  augment  4341.43792  4341.63159  4343.44937     0.16960    12.54615     6.77475
  Kinetic  8215.97855  8216.23124  8242.21795     0.18756    29.93268    16.16371
  Fock        0.00000     0.00000     0.00000     0.00000     0.00000     0.00000
  -------------------------------------------------------------------------------------
  Total     -27.14281   -29.23692   -29.43969    -1.59617     9.26549     5.00313
  in kB     -26.92616   -29.00356   -29.20471    -1.58343     9.19153     4.96320
  external pressure =      -28.38 kB  Pullay stress =        0.00 kB


 VOLUME and BASIS-vectors are now :
 -----------------------------------------------------------------------------
  energy-cutoff  :      450.00
  volume of cell :     1615.07
      direct lattice vectors                 reciprocal lattice vectors
     8.428181476 -4.551010342  0.000000000     0.118649557  0.000000000  0.000000000
     0.000000000 10.079732985  0.000000000     0.053570403  0.099208977  0.000000000
     0.000000000  0.000000000 19.011135740     0.000000000  0.000000000  0.052600750

  length of vectors
     9.578410000 10.079732985 19.011135740     0.118649557  0.112748434  0.052600750


 FORCES acting on ions
    electron-ion (+dipol)            ewald-force                    non-local-force                 convergence-correction
 -----------------------------------------------------------------------------------------------
   0.178E+03 -.359E+03 0.284E+04   -.176E+03 0.361E+03 -.285E+04   -.237E+01 -.814E+00 0.287E+01   0.190E+00 -.216E+00 -.191E+00
   0.178E+03 -.493E+03 -.935E+03   -.177E+03 0.494E+03 0.935E+03   -.389E+00 -.144E+01 0.128E+00   -.228E-01 -.390E-01 0.160E+00
   0.120E+03 -.484E+03 -.399E+04   -.123E+03 0.483E+03 0.399E+04   0.191E+01 0.120E+01 0.502E-01   0.129E+00 -.244E+00 0.260E+00
   0.223E+03 -.476E+03 0.371E+04   -.224E+03 0.475E+03 -.371E+04   -.221E-01 0.615E+00 -.110E+01   0.224E+00 -.362E-03 -.234E+00
   0.341E+03 -.441E+03 0.207E+03   -.340E+03 0.443E+03 -.207E+03   0.805E-01 -.140E+01 0.128E+00   -.448E-01 0.323E+00 -.178E-01
   0.450E+03 -.583E+03 -.325E+04   -.451E+03 0.586E+03 0.325E+04   0.468E+00 -.244E+01 -.303E+01   -.352E-01 0.319E-01 0.247E+00
   0.373E+03 -.325E+03 0.421E+04   -.367E+03 0.316E+03 -.420E+04   -.494E+01 0.800E+01 -.631E+01   -.456E+00 0.104E+00 -.643E-01
   0.313E+03 -.369E+03 0.140E+04   -.313E+03 0.370E+03 -.140E+04   0.991E+00 -.109E+01 0.152E+01   -.255E+00 -.821E-01 0.124E+00
   0.321E+03 -.112E+03 -.226E+04   -.323E+03 0.112E+03 0.226E+04   0.163E+01 -.139E+00 -.212E+01   -.521E-01 0.245E-01 0.180E+00
   0.158E+03 0.293E+03 0.391E+04   -.155E+03 -.286E+03 -.390E+04   -.366E+01 -.677E+01 -.888E+01   -.341E-01 -.631E-01 -.593E-01
   0.225E+03 0.417E+03 0.325E+03   -.226E+03 -.418E+03 -.325E+03   0.615E+00 0.114E+01 -.825E-01   -.416E-01 -.770E-01 -.992E-01
   0.295E+03 0.546E+03 -.307E+04   -.296E+03 -.548E+03 0.307E+04   0.964E+00 0.179E+01 -.395E+01   0.147E+00 0.273E+00 0.347E+00
   0.169E+03 0.313E+03 0.439E+04   -.165E+03 -.306E+03 -.438E+04   -.417E+01 -.772E+01 -.975E+01   0.257E+00 0.476E+00 -.170E+00
   0.226E+03 0.418E+03 0.140E+04   -.226E+03 -.419E+03 -.140E+04   0.404E+00 0.747E+00 0.106E+01   -.871E-02 -.162E-01 -.729E-01
   0.204E+03 0.378E+03 -.198E+04   -.204E+03 -.379E+03 0.198E+04   0.620E+00 0.115E+01 -.206E-01   -.362E-01 -.671E-01 0.379E+00
   0.726E+02 0.134E+03 -.429E+04   -.719E+02 -.133E+03 0.427E+04   -.699E+00 -.130E+01 0.130E+02   -.847E-02 -.157E-01 0.290E+00
   0.271E+03 0.502E+03 0.269E+04   -.273E+03 -.505E+03 -.269E+04   0.161E+01 0.298E+01 0.345E+01   -.687E-01 -.127E+00 -.632E-01
   0.273E+03 0.505E+03 -.126E+04   -.274E+03 -.507E+03 0.126E+04   0.118E+01 0.218E+01 -.268E+01   0.180E-01 0.334E-01 0.942E-01
   -.398E+03 -.480E+02 0.284E+04   0.398E+03 0.510E+02 -.285E+04   0.619E+00 -.243E+01 0.287E+01   -.284E+00 0.406E-01 -.191E+00
   -.510E+03 -.122E+03 -.935E+03   0.510E+03 0.123E+03 0.935E+03   -.991E+00 -.112E+01 0.128E+00   -.201E-01 -.405E-01 0.160E+00
   -.470E+03 -.165E+03 -.399E+04   0.471E+03 0.162E+03 0.399E+04   -.393E-01 0.225E+01 0.502E-01   -.275E+00 -.261E-01 0.260E+00
   -.520E+03 -.742E+02 0.371E+04   0.520E+03 0.735E+02 -.371E+04   0.526E+00 0.319E+00 -.110E+01   -.123E+00 0.187E+00 -.234E+00
   -.556E+03 0.426E+02 0.207E+03   0.557E+03 -.419E+02 -.207E+03   -.122E+01 -.701E+00 0.128E+00   0.295E+00 0.140E+00 -.178E-01
   -.735E+03 0.566E+02 -.325E+04   0.737E+03 -.554E+02 0.325E+04   -.230E+01 -.947E+00 -.303E+01   0.460E-01 -.120E-01 0.247E+00
   -.477E+03 0.133E+03 0.421E+04   0.466E+03 -.134E+03 -.420E+04   0.940E+01 0.257E+00 -.631E+01   0.338E+00 -.324E+00 -.643E-01
   -.480E+03 0.588E+02 0.140E+04   0.481E+03 -.588E+02 -.140E+04   -.146E+01 0.230E+00 0.152E+01   0.712E-01 -.258E+00 0.124E+00
   -.270E+03 0.207E+03 -.226E+04   0.271E+03 -.209E+03 0.226E+04   -.101E+01 0.128E+01 -.212E+01   0.491E-01 -.301E-01 0.180E+00
   -.863E+02 0.961E+02 0.682E+03   0.872E+02 -.981E+02 -.683E+03   -.707E+00 0.228E+01 -.853E+00   -.103E+00 0.253E-01 -.105E+00
   -.987E+02 0.147E+03 -.627E+03   0.100E+03 -.149E+03 0.626E+03   -.181E+01 0.237E+01 0.136E+01   -.561E-01 0.993E-02 0.222E+00
   -.462E+02 0.274E+03 -.166E+04   0.473E+02 -.277E+03 0.166E+04   -.159E+01 0.401E+01 -.330E+01   0.979E-02 0.130E+00 0.364E-02
   -.153E+03 0.151E+03 0.109E+04   0.153E+03 -.152E+03 -.109E+04   -.689E+00 0.157E+01 -.937E+00   0.122E+00 0.723E-01 -.171E+00
   -.138E+03 0.118E+03 -.229E+03   0.139E+03 -.120E+03 0.228E+03   -.172E+01 0.202E+01 0.989E+00   0.395E-01 -.540E-01 0.131E+00
   -.179E+03 0.268E+01 -.144E+04   0.180E+03 -.276E+01 0.145E+04   -.144E+01 0.270E+00 -.144E+01   -.191E-01 -.105E+00 0.155E+00
   -.142E+02 0.119E+03 0.151E+04   0.135E+02 -.121E+03 -.152E+04   0.174E+01 0.141E+01 0.209E+01   0.494E-01 -.242E+00 -.591E-03
   -.647E+02 0.136E+03 0.193E+03   0.662E+02 -.138E+03 -.193E+03   -.161E+01 0.202E+01 0.727E+00   -.261E-01 0.442E-01 0.471E-02
   0.132E+03 0.240E+02 -.134E+04   -.135E+03 -.236E+02 0.134E+04   0.196E+01 0.291E+00 -.487E+01   0.106E-01 -.107E-02 0.756E-01
   -.366E+02 -.678E+02 0.159E+04   0.369E+02 0.683E+02 -.160E+04   -.764E+00 -.141E+01 0.433E+01   -.181E-01 -.335E-01 -.577E-01
   -.915E+02 -.169E+03 0.108E+03   0.926E+02 0.171E+03 -.107E+03   -.131E+01 -.243E+01 -.188E+00   0.166E-01 0.307E-01 -.501E-01
   -.207E+03 -.383E+03 -.124E+04   0.210E+03 0.389E+03 0.124E+04   -.315E+01 -.583E+01 -.237E+01   -.610E-01 -.113E+00 0.219E+00
   -.863E+02 -.160E+03 0.577E+03   0.870E+02 0.161E+03 -.576E+03   -.774E+00 -.143E+01 -.114E+01   0.425E-01 0.788E-01 -.214E+00
   -.756E+02 -.140E+03 -.746E+03   0.769E+02 0.142E+03 0.748E+03   -.139E+01 -.258E+01 -.119E+01   0.488E-01 0.904E-01 0.198E+00
   -.485E+02 -.897E+02 -.174E+04   0.489E+02 0.905E+02 0.174E+04   -.469E+00 -.868E+00 -.499E+01   -.173E-02 -.320E-02 0.603E-01
   -.741E+02 -.137E+03 0.967E+03   0.751E+02 0.139E+03 -.966E+03   -.840E+00 -.156E+01 -.238E+01   -.108E-01 -.201E-01 0.128E+00
   -.648E+02 -.120E+03 -.310E+03   0.661E+02 0.122E+03 0.311E+03   -.135E+01 -.250E+01 -.941E+00   -.196E-01 -.364E-01 0.779E-01
   0.110E+03 0.203E+03 -.153E+04   -.111E+03 -.206E+03 0.153E+04   0.139E+01 0.257E+01 -.316E+01   0.482E-01 0.892E-01 0.139E+00
   0.128E+03 -.194E+02 0.682E+03   -.130E+03 0.191E+02 -.683E+03   0.230E+01 0.660E+00 -.853E+00   0.777E-01 -.723E-01 -.105E+00
   0.177E+03 -.207E+01 -.627E+03   -.180E+03 0.199E+01 0.626E+03   0.298E+01 -.218E+00 0.136E+01   0.391E-01 -.414E-01 0.222E+00
   0.255E+03 0.112E+03 -.166E+04   -.257E+03 -.112E+03 0.166E+04   0.423E+01 0.868E+00 -.330E+01   0.103E+00 0.792E-01 0.364E-02
   0.210E+03 -.453E+02 0.109E+04   -.212E+03 0.447E+02 -.109E+04   0.169E+01 0.284E+00 -.937E+00   -.671E-02 0.142E+00 -.171E+00
   0.174E+03 -.504E+02 -.229E+03   -.177E+03 0.507E+02 0.228E+03   0.263E+01 -.334E+00 0.989E+00   -.668E-01 0.345E-02 0.131E+00
   0.101E+03 -.148E+03 -.144E+04   -.101E+03 0.149E+03 0.145E+04   0.102E+01 -.106E+01 -.144E+01   -.771E-01 -.734E-01 0.155E+00
   0.108E+03 0.536E+02 0.151E+04   -.108E+03 -.549E+02 -.152E+04   0.230E+00 0.223E+01 0.209E+01   -.229E+00 -.913E-01 -.589E-03
   0.149E+03 0.203E+02 0.193E+03   -.151E+03 -.202E+02 -.193E+03   0.258E+01 -.239E+00 0.727E+00   0.513E-01 0.240E-02 0.471E-02
   -.524E+02 0.124E+03 -.134E+04   0.540E+02 -.125E+03 0.134E+04   -.833E+00 0.180E+01 -.487E+01   -.669E-02 0.825E-02 0.756E-01
 -----------------------------------------------------------------------------------------------
   0.253E-01 0.475E-01 0.454E+02   0.119E-11 0.995E-13 -.136E-11   0.234E-01 0.433E-01 -.481E+02   -.456E-01 -.846E-01 0.270E+01
 
 
 POSITION                                       TOTAL-FORCE (eV/Angst)
 -----------------------------------------------------------------------------------
      5.43845      6.28878      1.95737         0.382539      0.383901      0.129544
      4.91051      5.31106      4.89343         0.297785     -0.191036      0.083755
      4.38257      4.33335      7.82949        -0.760695     -0.200575     -0.579297
      2.80504      1.41186      0.97869        -0.282688      0.159092      1.016122
      2.27710      0.43415      3.91474         0.245679      0.015106     -0.266545
      1.74916     -0.54356      6.85080         0.204670      0.198135      0.599332
      0.17163      6.61468      0.00000         0.262293     -1.082670      1.837468
      8.07187      1.08596      2.93606         0.065857     -0.111746     -0.269843
      7.54393      0.10824      5.87212        -0.028723     -0.215781      0.428993
      5.57794      3.88397      1.18165        -0.074247     -0.137500      1.603070
      5.05000      2.90625      4.11771         0.054132      0.100250     -0.272147
      4.52206      1.92854      7.05376         0.196551      0.364001      1.149504
      2.94453     -0.99295      0.20296         0.104618      0.193745      1.983614
      2.41659      8.10907      3.13902         0.035074      0.064956     -0.208466
      1.88864      7.13136      6.07508         0.044900      0.083152      0.254608
      1.36070      6.15365      9.01114        -0.038128     -0.070611     -2.234486
      8.21135     -1.31885      2.16033        -0.037070     -0.068650     -0.257365
      7.68341     -2.29656      5.09639        -0.065283     -0.120900      0.315687
      7.66523      5.08637      1.95737         0.111177      0.530430      0.129544
      7.13729      4.10866      4.89343        -0.323070      0.144210      0.083755
      6.60935      3.13095      7.82949         0.249529     -0.746071     -0.579297
      5.03182      0.20946      0.97869         0.288079     -0.149108      1.016122
      4.50388     -0.76826      3.91474        -0.122123      0.213711     -0.266545
      3.97594     -1.74597      6.85080         0.053410      0.279812      0.599332
      2.39840      5.41228      0.00000        -1.049143     -0.374527      1.837468
      1.87046      4.43456      2.93606        -0.129559     -0.006226     -0.269843
      1.34252      3.45685      5.87212        -0.164671     -0.142372      0.428993
      6.95478      3.04266      2.90890         0.091570      0.390247     -1.141292
      6.42684      2.06495      5.84496        -0.394347     -0.020553     -0.136049
      5.89890      1.08724      8.78102        -0.448416      1.476117     -0.832419
      4.32137     -1.83425      1.93021        -0.140481     -0.102659     -1.577070
      3.79343      7.26777      4.86627        -0.044311     -0.043415      0.217175
      3.26549      6.29006      7.80233        -0.419712      0.084636      0.839792
      1.68795      3.36857      0.95153         1.127630     -0.221516     -0.936327
      1.16001      2.39086      3.88759        -0.176782      0.055851      0.357617
      0.63207      1.41314      6.82364        -0.467880      0.611441     -0.048921
      7.30511     -2.99716      0.96062        -0.510113     -0.944698      0.653685
      6.77717      6.10486      3.89668        -0.210671     -0.390149      0.335640
      6.24923      5.12715      6.83274        -0.066246     -0.122684      0.494352
      4.14375      1.22794      2.91799         0.031379      0.058112     -0.918229
      3.61581      0.25023      5.85405        -0.111515     -0.206519      0.165793
      3.08787     -0.72748      8.79011        -0.063465     -0.117534     -1.527065
      1.51034      6.43076      1.93931         0.102825      0.190426     -1.335025
      0.98240      5.45305      4.87536        -0.097072     -0.179772      0.056525
      0.45446      4.47534      7.81142        -0.066718     -0.123558      0.296237
      4.11929      4.57376      2.90890         0.276080      0.290616     -1.141292
      3.59135      3.59605      5.84496         0.199113     -0.341007     -0.136049
      3.06341      2.61834      8.78102         1.480213      0.434705     -0.832419
      1.48587     -0.30315      1.93021        -0.008785     -0.173772     -1.577070
      0.95793      8.79887      4.86627        -0.011997     -0.060863      0.217175
      0.42999      7.82115      7.80233         0.300980     -0.304520      0.839792
      7.28064      0.34865      0.95153        -0.803725      0.821368     -0.936327
      6.75270     -0.62906      3.88759         0.143665     -0.117182      0.357617
      6.22476     -1.60677      6.82364         0.767889     -0.055843     -0.048921
 -----------------------------------------------------------------------------------
    total drift:                                0.003052      0.006159      0.006858


--------------------------------------------------------------------------------------------------------



  FREE ENERGIE OF THE ION-ELECTRON SYSTEM (eV)
  ---------------------------------------------------
  free  energy   TOTEN  =      -261.67900454 eV

  energy  without entropy=     -260.85043543  energy(sigma->0) =     -261.26471999
 


--------------------------------------------------------------------------------------------------------


    POTLOK:  cpu time    0.0404: real time    0.0413


--------------------------------------------------------------------------------------------------------


     LOOP+:  cpu time   43.2773: real time   43.4647
    4ORBIT:  cpu time    0.0000: real time    0.0000

 total amount of memory used by VASP MPI-rank0    42822. kBytes
=======================================================================

   base      :      30000. kBytes
   nonlr-proj:       1908. kBytes
   fftplans  :       3097. kBytes
   grid      :       5606. kBytes
   one-center:         69. kBytes
   wavefun   :       2142. kBytes
 
  
  
 General timing and accounting informations for this job:
 ========================================================
  
                  Total CPU time used (sec):       44.939
                            User time (sec):       44.357
                          System time (sec):        0.582
                         Elapsed time (sec):       45.545
  
                   Maximum memory used (kb):      197732.
                   Average memory used (kb):           0.
  
                          Minor page faults:        64256
                          Major page faults:            0
                 Voluntary context switches:          872
