LAMMPS data file via write_data, version 5 Jun 2019, timestep = 50

72 atoms
2 atom types

0.0000000000000000e+00 1.0079732984900000e+01 xlo xhi
0.0000000000000000e+00 9.4251025535000004e+00 ylo yhi
0.0000000000000000e+00 2.0683503555200002e+01 zlo zhi
3.5732980426999998e+00 0.0000000000000000e+00 0.0000000000000000e+00 xy xz yz

Masses

1 58.71
2 32.06

Atoms # atomic

1 1 5.8118225350339427e+00 9.0633920602974296e+00 1.3601079741179540e+00 0 0 0
2 1 6.8428472823000002e+00 7.4925021363999997e+00 2.6255023872000001e+00 0 0 0
3 1 7.8205595795000002e+00 6.0762060003000000e+00 5.2510047951000001e+00 0 0 0
4 1 8.7982718831999964e+00 4.6599098547000004e+00 7.8765071823000001e+00 0 0 0
5 1 9.6021475465627724e+00 1.9882773171624959e+00 8.7796821497306929e+00 0 0 0
6 1 2.6177410397999989e+00 3.8787025668999999e+00 3.5006698634000006e+00 0 0 0
7 1 3.5954533369999999e+00 2.4624064308000002e+00 6.1261722505999998e+00 0 0 0
8 1 4.5731656443000004e+00 1.0461102946000000e+00 8.7516746378000008e+00 0 0 0
9 1 1.1896781473529582e+01 5.7006044804101066e+00 2.2106062277144609e+00 0 0 0
10 1 3.8143072339450068e+00 7.1708011163861958e+00 9.3360743650058406e+00 0 0 0
11 1 6.3135393150429042e+00 2.0987378235006924e+00 3.0948218292778611e+00 0 0 0
12 1 8.4723677857999995e+00 2.6490300680000001e-01 4.3758373189000004e+00 0 0 0
13 1 1.3023378125699999e+01 8.2737094241999998e+00 7.0013397268000013e+00 0 0 0
14 1 5.6619351789860195e+00 5.2155151319478499e+00 2.3273243065474811e+00 0 0 0
15 1 6.6181553447999990e+00 3.9602312874000001e+00 4.5573312982000003e+00 0 0 0
16 1 7.5958676419000000e+00 2.5439351512999999e+00 7.1828337061000003e+00 0 0 0
17 1 7.9454317640969903e+00 1.4293135474366142e-01 8.3471891980925310e+00 0 0 0
18 1 1.4153367986000001e+00 1.7627278635000001e+00 2.8069963664999995e+00 0 0 0
19 1 2.3930491057999999e+00 3.4643172729999999e-01 5.4324987744000000e+00 0 0 0
20 1 6.9440594421999959e+00 8.3552381353000005e+00 8.0580011616000000e+00 0 0 0
21 1 7.0565283189962615e+00 6.8997043712610253e+00 9.8938996417033707e+00 0 0 0
22 1 2.0503156090647927e+00 3.5742555672887235e+00 1.0037872979818936e+00 1 0 0
23 1 2.5963892897632772e+00 4.7639630416387035e+00 8.6155027527533434e+00 0 0 0
24 1 1.0843261587200001e+01 7.5740308570000003e+00 3.6821638427000001e+00 0 0 0
25 1 1.1820973880900000e+01 6.1577347113999998e+00 6.3076662299000006e+00 0 0 0
26 1 8.0033459304243504e+00 5.6556375222864084e+00 1.6647038026244667e+00 0 0 0
27 1 9.0229638191999992e+00 4.3344252292999998e+00 3.8636578220000000e+00 0 0 0
28 1 1.0000676122900000e+01 2.9181290836999998e+00 6.4891602091999996e+00 0 0 0
29 1 3.8201452831000000e+00 2.1369218053000001e+00 2.1133228903000001e+00 0 0 0
30 1 4.7978575767000002e+00 7.2062565980000015e-01 4.7388252775000002e+00 0 0 0
31 1 9.3488679165999997e+00 8.7294320771000002e+00 7.3643276854000002e+00 0 0 0
32 1 1.0304786365861331e+01 7.6252855107037520e+00 9.4085105826235615e+00 0 0 0
33 1 3.1683370733000000e+00 7.9482247894000002e+00 2.9884903457999998e+00 0 0 0
34 1 4.1460493804999992e+00 6.5319286531999987e+00 5.6139927537000007e+00 0 0 0
35 1 5.1237616740999989e+00 5.1156325075999991e+00 8.2394951409000008e+00 0 0 0
36 1 7.5520732611401051e+00 2.5345008270494351e-01 1.9662374426251841e+00 0 1 0
37 2 1.3381202364983162e+01 9.2451563276605864e+00 9.2307386339416428e+00 -1 0 0
38 2 7.3554572810999996e+00 3.8265858592000002e+00 2.4250697853999998e+00 0 0 0
39 2 8.3331695782999997e+00 2.4102897230000000e+00 5.0505721932999998e+00 0 0 0
40 2 9.2560148565887506e+00 1.0085753355991123e+00 6.9642662951881285e+00 0 0 0
41 2 2.2345008687915957e+00 1.5738998823634138e+00 8.3952392173901724e-01 0 0 0
42 2 3.1303510321999997e+00 2.1278629909999999e-01 3.3002372616000000e+00 0 0 0
43 2 7.6813613786000001e+00 8.2215927069999992e+00 5.9257396487999996e+00 0 0 0
44 2 8.6590736757000002e+00 6.8052965707999995e+00 8.5512420358999996e+00 0 0 0
45 2 2.4785428323999978e+00 6.0240892831000004e+00 4.1754047171000002e+00 0 0 0
46 2 3.4562551395999996e+00 4.6077931468999997e+00 6.8009071043000002e+00 0 0 0
47 2 4.1570455379868330e+00 3.3399512703883669e+00 8.9081225299183231e+00 0 0 0
48 2 1.1603358958734285e+01 7.6805515951281302e+00 1.7135814202365744e+00 0 0 0
49 2 7.2597695212518802e+00 7.3590800414550293e+00 6.8888025248254703e-01 0 0 0
50 2 8.8865536865999992e+00 6.5209886067999996e+00 3.3083675538000001e+00 0 0 0
51 2 9.8642659902999998e+00 5.1046924612000000e+00 5.9338699617000001e+00 0 0 0
52 2 1.0713164641884850e+01 3.7352172119206060e+00 8.3152272770945910e+00 0 0 0
53 2 3.7590154193972078e+00 4.3768872686126645e+00 1.8014734715218359e+00 0 0 0
54 2 4.6614474441000002e+00 2.9071890372999998e+00 4.1835350299999998e+00 0 0 0
55 2 5.6391597412999985e+00 1.4908929011000001e+00 6.8090374171999999e+00 0 0 0
56 2 6.2543135194007693e+00 1.7535714376046035e-01 9.4817286948705863e+00 0 0 0
57 2 4.0096392479000000e+00 8.7184920307000002e+00 5.0587024854999996e+00 0 0 0
58 2 4.9873515414999998e+00 7.3021958850999997e+00 7.6842048933999996e+00 0 0 0
59 2 5.2887062861570033e+00 5.9435511263152438e+00 1.0112959035703607e+01 0 0 0
60 2 9.5383618828000003e+00 7.0968561330000002e-01 2.4332000982999999e+00 0 0 0
61 2 4.8543921205915170e+00 7.2779503275946436e+00 1.9002260053180637e+00 0 0 0
62 2 5.8243608698999996e+00 6.0445040928999996e+00 4.1916653223000004e+00 0 0 0
63 2 6.8020731670999997e+00 4.6282079566999998e+00 6.8171677301000004e+00 0 0 0
64 2 7.9877940853058575e+00 3.1954966621387872e+00 9.0966542817013814e+00 0 0 0
65 2 1.5992546309999989e+00 2.4307045328000001e+00 5.0668327985000001e+00 0 0 0
66 2 2.9352737166517908e+00 9.1552465602512489e-01 7.3875477808102730e+00 0 0 0
67 2 7.2077945664618666e+00 8.9638904288172014e+00 9.9664187717813562e+00 0 0 0
68 2 1.0701275308600000e+01 3.8470006689999998e+00 2.4413304113000001e+00 0 0 0
69 2 5.6539775900946383e+00 1.2510603551925943e+00 1.3772542380987942e+00 0 0 0
70 2 6.4734419937692378e+00 8.0429137971919654e-02 3.7287064946181641e+00 0 0 0
71 2 1.1027179405999997e+01 8.2420075167999993e+00 5.9420002539999999e+00 0 0 0
72 2 1.2004891713299999e+01 6.8257113806999996e+00 8.5675026618000008e+00 0 0 0

Velocities

1 0.0000000000000000e+00 0.0000000000000000e+00 0.0000000000000000e+00
2 0.0000000000000000e+00 0.0000000000000000e+00 0.0000000000000000e+00
3 0.0000000000000000e+00 0.0000000000000000e+00 0.0000000000000000e+00
4 0.0000000000000000e+00 0.0000000000000000e+00 0.0000000000000000e+00
5 0.0000000000000000e+00 0.0000000000000000e+00 0.0000000000000000e+00
6 0.0000000000000000e+00 0.0000000000000000e+00 0.0000000000000000e+00
7 0.0000000000000000e+00 0.0000000000000000e+00 0.0000000000000000e+00
8 0.0000000000000000e+00 0.0000000000000000e+00 0.0000000000000000e+00
9 0.0000000000000000e+00 0.0000000000000000e+00 0.0000000000000000e+00
10 0.0000000000000000e+00 0.0000000000000000e+00 0.0000000000000000e+00
11 0.0000000000000000e+00 0.0000000000000000e+00 0.0000000000000000e+00
12 0.0000000000000000e+00 0.0000000000000000e+00 0.0000000000000000e+00
13 0.0000000000000000e+00 0.0000000000000000e+00 0.0000000000000000e+00
14 0.0000000000000000e+00 0.0000000000000000e+00 0.0000000000000000e+00
15 0.0000000000000000e+00 0.0000000000000000e+00 0.0000000000000000e+00
16 0.0000000000000000e+00 0.0000000000000000e+00 0.0000000000000000e+00
17 0.0000000000000000e+00 0.0000000000000000e+00 0.0000000000000000e+00
18 0.0000000000000000e+00 0.0000000000000000e+00 0.0000000000000000e+00
19 0.0000000000000000e+00 0.0000000000000000e+00 0.0000000000000000e+00
20 0.0000000000000000e+00 0.0000000000000000e+00 0.0000000000000000e+00
21 0.0000000000000000e+00 0.0000000000000000e+00 0.0000000000000000e+00
22 0.0000000000000000e+00 0.0000000000000000e+00 0.0000000000000000e+00
23 0.0000000000000000e+00 0.0000000000000000e+00 0.0000000000000000e+00
24 0.0000000000000000e+00 0.0000000000000000e+00 0.0000000000000000e+00
25 0.0000000000000000e+00 0.0000000000000000e+00 0.0000000000000000e+00
26 0.0000000000000000e+00 0.0000000000000000e+00 0.0000000000000000e+00
27 0.0000000000000000e+00 0.0000000000000000e+00 0.0000000000000000e+00
28 0.0000000000000000e+00 0.0000000000000000e+00 0.0000000000000000e+00
29 0.0000000000000000e+00 0.0000000000000000e+00 0.0000000000000000e+00
30 0.0000000000000000e+00 0.0000000000000000e+00 0.0000000000000000e+00
31 0.0000000000000000e+00 0.0000000000000000e+00 0.0000000000000000e+00
32 0.0000000000000000e+00 0.0000000000000000e+00 0.0000000000000000e+00
33 0.0000000000000000e+00 0.0000000000000000e+00 0.0000000000000000e+00
34 0.0000000000000000e+00 0.0000000000000000e+00 0.0000000000000000e+00
35 0.0000000000000000e+00 0.0000000000000000e+00 0.0000000000000000e+00
36 0.0000000000000000e+00 0.0000000000000000e+00 0.0000000000000000e+00
37 0.0000000000000000e+00 0.0000000000000000e+00 0.0000000000000000e+00
38 0.0000000000000000e+00 0.0000000000000000e+00 0.0000000000000000e+00
39 0.0000000000000000e+00 0.0000000000000000e+00 0.0000000000000000e+00
40 0.0000000000000000e+00 0.0000000000000000e+00 0.0000000000000000e+00
41 0.0000000000000000e+00 0.0000000000000000e+00 0.0000000000000000e+00
42 0.0000000000000000e+00 0.0000000000000000e+00 0.0000000000000000e+00
43 0.0000000000000000e+00 0.0000000000000000e+00 0.0000000000000000e+00
44 0.0000000000000000e+00 0.0000000000000000e+00 0.0000000000000000e+00
45 0.0000000000000000e+00 0.0000000000000000e+00 0.0000000000000000e+00
46 0.0000000000000000e+00 0.0000000000000000e+00 0.0000000000000000e+00
47 0.0000000000000000e+00 0.0000000000000000e+00 0.0000000000000000e+00
48 0.0000000000000000e+00 0.0000000000000000e+00 0.0000000000000000e+00
49 0.0000000000000000e+00 0.0000000000000000e+00 0.0000000000000000e+00
50 0.0000000000000000e+00 0.0000000000000000e+00 0.0000000000000000e+00
51 0.0000000000000000e+00 0.0000000000000000e+00 0.0000000000000000e+00
52 0.0000000000000000e+00 0.0000000000000000e+00 0.0000000000000000e+00
53 0.0000000000000000e+00 0.0000000000000000e+00 0.0000000000000000e+00
54 0.0000000000000000e+00 0.0000000000000000e+00 0.0000000000000000e+00
55 0.0000000000000000e+00 0.0000000000000000e+00 0.0000000000000000e+00
56 0.0000000000000000e+00 0.0000000000000000e+00 0.0000000000000000e+00
57 0.0000000000000000e+00 0.0000000000000000e+00 0.0000000000000000e+00
58 0.0000000000000000e+00 0.0000000000000000e+00 0.0000000000000000e+00
59 0.0000000000000000e+00 0.0000000000000000e+00 0.0000000000000000e+00
60 0.0000000000000000e+00 0.0000000000000000e+00 0.0000000000000000e+00
61 0.0000000000000000e+00 0.0000000000000000e+00 0.0000000000000000e+00
62 0.0000000000000000e+00 0.0000000000000000e+00 0.0000000000000000e+00
63 0.0000000000000000e+00 0.0000000000000000e+00 0.0000000000000000e+00
64 0.0000000000000000e+00 0.0000000000000000e+00 0.0000000000000000e+00
65 0.0000000000000000e+00 0.0000000000000000e+00 0.0000000000000000e+00
66 0.0000000000000000e+00 0.0000000000000000e+00 0.0000000000000000e+00
67 0.0000000000000000e+00 0.0000000000000000e+00 0.0000000000000000e+00
68 0.0000000000000000e+00 0.0000000000000000e+00 0.0000000000000000e+00
69 0.0000000000000000e+00 0.0000000000000000e+00 0.0000000000000000e+00
70 0.0000000000000000e+00 0.0000000000000000e+00 0.0000000000000000e+00
71 0.0000000000000000e+00 0.0000000000000000e+00 0.0000000000000000e+00
72 0.0000000000000000e+00 0.0000000000000000e+00 0.0000000000000000e+00
