 104 104   0   0
  0.2492376E+02  0.1125646E-08  0.1125646E-08  0.2288365E-08  0.5000000E-15
  1.000000000000000E-004
  CAR 
 "Millerite NiS"                         
     11.59040155    -65.64026542  301      1.95879454      1.00000000
    -65.640  0.0000E+00  0.0000E+00
    -65.383  0.0000E+00  0.0000E+00
    -65.125  0.0000E+00  0.0000E+00
    -64.868  0.0000E+00  0.0000E+00
    -64.611  0.0000E+00  0.0000E+00
    -64.353  0.0000E+00  0.0000E+00
    -64.096  0.0000E+00  0.0000E+00
    -63.838  0.0000E+00  0.0000E+00
    -63.581  0.0000E+00  0.0000E+00
    -63.323  0.0000E+00  0.0000E+00
    -63.066  0.1063E-08  0.2738E-09
    -62.808  0.6456E-04  0.1662E-04
    -62.551  0.1825E+00  0.4701E-01
    -62.294  0.2783E+02  0.7211E+01
    -62.036  0.3070E+03  0.8625E+02
    -61.779  0.4307E+03  0.1971E+03
    -61.521  0.1762E+03  0.2425E+03
    -61.264  0.7983E+02  0.2630E+03
    -61.006  0.5796E+02  0.2780E+03
    -60.749  0.7502E+02  0.2973E+03
    -60.492  0.4658E+02  0.3093E+03
    -60.234  0.8355E+01  0.3114E+03
    -59.977  0.2203E+01  0.3120E+03
    -59.719  0.6790E-01  0.3120E+03
    -59.462  0.1054E-03  0.3120E+03
    -59.204  0.6919E-08  0.3120E+03
    -58.947  0.1811E-13  0.3120E+03
    -58.690  0.0000E+00  0.3120E+03
    -58.432  0.0000E+00  0.3120E+03
    -58.175  0.0000E+00  0.3120E+03
    -57.917  0.0000E+00  0.3120E+03
    -57.660  0.0000E+00  0.3120E+03
    -57.402  0.0000E+00  0.3120E+03
    -57.145  0.0000E+00  0.3120E+03
    -56.887  0.0000E+00  0.3120E+03
    -56.630  0.0000E+00  0.3120E+03
    -56.373  0.0000E+00  0.3120E+03
    -56.115  0.0000E+00  0.3120E+03
    -55.858  0.0000E+00  0.3120E+03
    -55.600  0.0000E+00  0.3120E+03
    -55.343  0.0000E+00  0.3120E+03
    -55.085  0.0000E+00  0.3120E+03
    -54.828  0.0000E+00  0.3120E+03
    -54.571  0.0000E+00  0.3120E+03
    -54.313  0.0000E+00  0.3120E+03
    -54.056  0.0000E+00  0.3120E+03
    -53.798  0.0000E+00  0.3120E+03
    -53.541  0.0000E+00  0.3120E+03
    -53.283  0.0000E+00  0.3120E+03
    -53.026  0.0000E+00  0.3120E+03
    -52.768  0.0000E+00  0.3120E+03
    -52.511  0.0000E+00  0.3120E+03
    -52.254  0.0000E+00  0.3120E+03
    -51.996  0.0000E+00  0.3120E+03
    -51.739  0.0000E+00  0.3120E+03
    -51.481  0.0000E+00  0.3120E+03
    -51.224  0.0000E+00  0.3120E+03
    -50.966  0.0000E+00  0.3120E+03
    -50.709  0.0000E+00  0.3120E+03
    -50.452  0.0000E+00  0.3120E+03
    -50.194  0.0000E+00  0.3120E+03
    -49.937  0.0000E+00  0.3120E+03
    -49.679  0.0000E+00  0.3120E+03
    -49.422  0.0000E+00  0.3120E+03
    -49.164  0.0000E+00  0.3120E+03
    -48.907  0.0000E+00  0.3120E+03
    -48.650  0.0000E+00  0.3120E+03
    -48.392  0.0000E+00  0.3120E+03
    -48.135  0.0000E+00  0.3120E+03
    -47.877  0.0000E+00  0.3120E+03
    -47.620  0.0000E+00  0.3120E+03
    -47.362  0.0000E+00  0.3120E+03
    -47.105  0.0000E+00  0.3120E+03
    -46.847  0.0000E+00  0.3120E+03
    -46.590  0.0000E+00  0.3120E+03
    -46.333  0.0000E+00  0.3120E+03
    -46.075  0.0000E+00  0.3120E+03
    -45.818  0.0000E+00  0.3120E+03
    -45.560  0.0000E+00  0.3120E+03
    -45.303  0.0000E+00  0.3120E+03
    -45.045  0.0000E+00  0.3120E+03
    -44.788  0.0000E+00  0.3120E+03
    -44.531  0.0000E+00  0.3120E+03
    -44.273  0.0000E+00  0.3120E+03
    -44.016  0.0000E+00  0.3120E+03
    -43.758  0.0000E+00  0.3120E+03
    -43.501  0.0000E+00  0.3120E+03
    -43.243  0.0000E+00  0.3120E+03
    -42.986  0.0000E+00  0.3120E+03
    -42.729  0.0000E+00  0.3120E+03
    -42.471  0.0000E+00  0.3120E+03
    -42.214  0.0000E+00  0.3120E+03
    -41.956  0.0000E+00  0.3120E+03
    -41.699  0.0000E+00  0.3120E+03
    -41.441  0.0000E+00  0.3120E+03
    -41.184  0.0000E+00  0.3120E+03
    -40.926  0.0000E+00  0.3120E+03
    -40.669  0.0000E+00  0.3120E+03
    -40.412  0.0000E+00  0.3120E+03
    -40.154  0.0000E+00  0.3120E+03
    -39.897  0.0000E+00  0.3120E+03
    -39.639  0.0000E+00  0.3120E+03
    -39.382  0.0000E+00  0.3120E+03
    -39.124  0.0000E+00  0.3120E+03
    -38.867  0.0000E+00  0.3120E+03
    -38.610  0.0000E+00  0.3120E+03
    -38.352  0.0000E+00  0.3120E+03
    -38.095  0.0000E+00  0.3120E+03
    -37.837  0.0000E+00  0.3120E+03
    -37.580  0.0000E+00  0.3120E+03
    -37.322  0.0000E+00  0.3120E+03
    -37.065  0.0000E+00  0.3120E+03
    -36.807  0.0000E+00  0.3120E+03
    -36.550  0.0000E+00  0.3120E+03
    -36.293  0.0000E+00  0.3120E+03
    -36.035  0.0000E+00  0.3120E+03
    -35.778  0.0000E+00  0.3120E+03
    -35.520  0.0000E+00  0.3120E+03
    -35.263  0.0000E+00  0.3120E+03
    -35.005  0.0000E+00  0.3120E+03
    -34.748  0.0000E+00  0.3120E+03
    -34.491  0.0000E+00  0.3120E+03
    -34.233  0.0000E+00  0.3120E+03
    -33.976  0.0000E+00  0.3120E+03
    -33.718  0.0000E+00  0.3120E+03
    -33.461  0.0000E+00  0.3120E+03
    -33.203  0.0000E+00  0.3120E+03
    -32.946  0.0000E+00  0.3120E+03
    -32.689  0.0000E+00  0.3120E+03
    -32.431  0.0000E+00  0.3120E+03
    -32.174  0.0000E+00  0.3120E+03
    -31.916  0.0000E+00  0.3120E+03
    -31.659  0.0000E+00  0.3120E+03
    -31.401  0.0000E+00  0.3120E+03
    -31.144  0.0000E+00  0.3120E+03
    -30.886  0.0000E+00  0.3120E+03
    -30.629  0.0000E+00  0.3120E+03
    -30.372  0.0000E+00  0.3120E+03
    -30.114  0.0000E+00  0.3120E+03
    -29.857  0.0000E+00  0.3120E+03
    -29.599  0.0000E+00  0.3120E+03
    -29.342  0.0000E+00  0.3120E+03
    -29.084  0.0000E+00  0.3120E+03
    -28.827  0.0000E+00  0.3120E+03
    -28.570  0.0000E+00  0.3120E+03
    -28.312  0.0000E+00  0.3120E+03
    -28.055  0.0000E+00  0.3120E+03
    -27.797  0.0000E+00  0.3120E+03
    -27.540  0.0000E+00  0.3120E+03
    -27.282  0.0000E+00  0.3120E+03
    -27.025  0.0000E+00  0.3120E+03
    -26.767  0.0000E+00  0.3120E+03
    -26.510  0.0000E+00  0.3120E+03
    -26.253  0.0000E+00  0.3120E+03
    -25.995  0.0000E+00  0.3120E+03
    -25.738  0.0000E+00  0.3120E+03
    -25.480  0.0000E+00  0.3120E+03
    -25.223  0.0000E+00  0.3120E+03
    -24.965  0.0000E+00  0.3120E+03
    -24.708  0.0000E+00  0.3120E+03
    -24.451  0.0000E+00  0.3120E+03
    -24.193  0.0000E+00  0.3120E+03
    -23.936  0.0000E+00  0.3120E+03
    -23.678  0.0000E+00  0.3120E+03
    -23.421  0.0000E+00  0.3120E+03
    -23.163  0.0000E+00  0.3120E+03
    -22.906  0.0000E+00  0.3120E+03
    -22.649  0.0000E+00  0.3120E+03
    -22.391  0.0000E+00  0.3120E+03
    -22.134  0.0000E+00  0.3120E+03
    -21.876  0.0000E+00  0.3120E+03
    -21.619  0.0000E+00  0.3120E+03
    -21.361  0.0000E+00  0.3120E+03
    -21.104  0.0000E+00  0.3120E+03
    -20.846  0.0000E+00  0.3120E+03
    -20.589  0.0000E+00  0.3120E+03
    -20.332  0.0000E+00  0.3120E+03
    -20.074  0.0000E+00  0.3120E+03
    -19.817  0.0000E+00  0.3120E+03
    -19.559  0.0000E+00  0.3120E+03
    -19.302  0.0000E+00  0.3120E+03
    -19.044  0.0000E+00  0.3120E+03
    -18.787  0.0000E+00  0.3120E+03
    -18.530  0.0000E+00  0.3120E+03
    -18.272  0.0000E+00  0.3120E+03
    -18.015  0.0000E+00  0.3120E+03
    -17.757  0.0000E+00  0.3120E+03
    -17.500  0.0000E+00  0.3120E+03
    -17.242  0.0000E+00  0.3120E+03
    -16.985  0.0000E+00  0.3120E+03
    -16.728  0.0000E+00  0.3120E+03
    -16.470  0.0000E+00  0.3120E+03
    -16.213  0.0000E+00  0.3120E+03
    -15.955  0.0000E+00  0.3120E+03
    -15.698  0.0000E+00  0.3120E+03
    -15.440  0.0000E+00  0.3120E+03
    -15.183  0.0000E+00  0.3120E+03
    -14.925  0.0000E+00  0.3120E+03
    -14.668  0.0000E+00  0.3120E+03
    -14.411  0.6143E-10  0.3120E+03
    -14.153  0.3364E-05  0.3120E+03
    -13.896  0.7525E-02  0.3120E+03
    -13.638  0.7726E+00  0.3122E+03
    -13.381  0.4708E+01  0.3134E+03
    -13.123  0.2879E+01  0.3142E+03
    -12.866  0.7929E+01  0.3162E+03
    -12.609  0.2067E+02  0.3215E+03
    -12.351  0.2608E+02  0.3282E+03
    -12.094  0.3006E+02  0.3360E+03
    -11.836  0.3377E+02  0.3447E+03
    -11.579  0.5306E+02  0.3583E+03
    -11.321  0.6210E+02  0.3743E+03
    -11.064  0.4814E+02  0.3867E+03
    -10.806  0.3768E+02  0.3964E+03
    -10.549  0.2819E+02  0.4037E+03
    -10.292  0.8841E+01  0.4059E+03
    -10.034  0.3134E+01  0.4067E+03
     -9.777  0.9488E+01  0.4092E+03
     -9.519  0.2024E+02  0.4144E+03
     -9.262  0.6116E+01  0.4160E+03
     -9.004  0.1253E+00  0.4160E+03
     -8.747  0.1277E-03  0.4160E+03
     -8.490  0.5607E-08  0.4160E+03
     -8.232  0.9488E-14  0.4160E+03
     -7.975  0.0000E+00  0.4160E+03
     -7.717  0.0000E+00  0.4160E+03
     -7.460  0.0000E+00  0.4160E+03
     -7.202  0.0000E+00  0.4160E+03
     -6.945  0.0000E+00  0.4160E+03
     -6.688  0.0000E+00  0.4160E+03
     -6.430  0.4744E-14  0.4160E+03
     -6.173  0.2745E-08  0.4160E+03
     -5.915  0.6518E-04  0.4160E+03
     -5.658  0.7527E-01  0.4160E+03
     -5.400  0.5186E+01  0.4174E+03
     -5.143  0.2758E+02  0.4245E+03
     -4.885  0.1815E+02  0.4291E+03
     -4.628  0.2324E+02  0.4351E+03
     -4.371  0.4510E+02  0.4467E+03
     -4.113  0.6583E+02  0.4637E+03
     -3.856  0.6359E+02  0.4800E+03
     -3.598  0.5314E+02  0.4937E+03
     -3.341  0.5130E+02  0.5069E+03
     -3.083  0.6066E+02  0.5225E+03
     -2.826  0.6899E+02  0.5403E+03
     -2.569  0.9770E+02  0.5655E+03
     -2.311  0.9690E+02  0.5904E+03
     -2.054  0.9682E+02  0.6153E+03
     -1.796  0.1132E+03  0.6445E+03
     -1.539  0.8496E+02  0.6663E+03
     -1.281  0.6756E+02  0.6837E+03
     -1.024  0.6128E+02  0.6995E+03
     -0.767  0.7009E+02  0.7175E+03
     -0.509  0.8314E+02  0.7389E+03
     -0.252  0.1329E+03  0.7731E+03
      0.006  0.1664E+03  0.8160E+03
      0.263  0.2127E+03  0.8707E+03
      0.521  0.2556E+03  0.9366E+03
      0.778  0.2036E+03  0.9890E+03
      1.036  0.1539E+03  0.1029E+04
      1.293  0.1494E+03  0.1067E+04
      1.550  0.1354E+03  0.1102E+04
      1.808  0.1095E+03  0.1130E+04
      2.065  0.8540E+02  0.1152E+04
      2.323  0.6407E+02  0.1169E+04
      2.580  0.8125E+02  0.1190E+04
      2.838  0.9225E+02  0.1213E+04
      3.095  0.8956E+02  0.1236E+04
      3.352  0.5112E+02  0.1249E+04
      3.610  0.1185E+02  0.1253E+04
      3.867  0.5257E+01  0.1254E+04
      4.125  0.6954E+01  0.1256E+04
      4.382  0.1507E+02  0.1260E+04
      4.640  0.1313E+02  0.1263E+04
      4.897  0.9491E+01  0.1265E+04
      5.155  0.5256E+01  0.1267E+04
      5.412  0.1857E+02  0.1272E+04
      5.669  0.2100E+02  0.1277E+04
      5.927  0.1829E+02  0.1282E+04
      6.184  0.2817E+02  0.1289E+04
      6.442  0.3329E+02  0.1297E+04
      6.699  0.3118E+02  0.1305E+04
      6.957  0.3062E+02  0.1313E+04
      7.214  0.4083E+02  0.1324E+04
      7.471  0.5610E+02  0.1338E+04
      7.729  0.6223E+02  0.1354E+04
      7.986  0.6004E+02  0.1370E+04
      8.244  0.2241E+02  0.1376E+04
      8.501  0.1706E+01  0.1376E+04
      8.759  0.1371E-01  0.1376E+04
      9.016  0.6610E-05  0.1376E+04
      9.273  0.1431E-09  0.1376E+04
      9.531  0.0000E+00  0.1376E+04
      9.788  0.0000E+00  0.1376E+04
     10.046  0.0000E+00  0.1376E+04
     10.303  0.0000E+00  0.1376E+04
     10.561  0.0000E+00  0.1376E+04
     10.818  0.0000E+00  0.1376E+04
     11.076  0.0000E+00  0.1376E+04
     11.333  0.0000E+00  0.1376E+04
     11.590  0.0000E+00  0.1376E+04
