"Millerite NiS"                         
           1
     9.425103    3.573298    0.000000
     0.000000   10.079733    0.000000
     0.000000    0.000000   20.683504
   Ni   S 
    36    36
Direct configuration=     1
   0.24679038  0.94522030  0.00000000
   0.39705889  0.79495179  0.12693702
   0.54732740  0.64468328  0.25387405
   0.69759592  0.49441476  0.38081107
   0.84786443  0.34414625  0.50774810
   0.11381506  0.41152895  0.16924937
   0.26408358  0.26126044  0.29618639
   0.41435209  0.11099193  0.42312341
   0.96354655  0.56179746  0.04231234
   0.13110826  0.72756909  0.46543576
   0.68030272  0.17837463  0.08462468
   0.83057123  0.02810611  0.21156171
   0.98083975  0.87783760  0.33849873
   0.35735705  0.57044763  0.09339950
   0.50762556  0.42017912  0.22033653
   0.65789407  0.26991061  0.34727355
   0.07411322  0.18702479  0.13571184
   0.22438173  0.03675628  0.26264887
   0.37465024  0.88648777  0.38958589
   0.52491876  0.73621926  0.51652292
   0.92384471  0.33729331  0.00877482
   0.64060088  0.95387047  0.05108716
   0.79086939  0.80360196  0.17802418
   0.94113790  0.65333344  0.30496121
   0.03266674  0.15934394  0.44067305
   0.58186121  0.61014947  0.05986198
   0.73212972  0.45988096  0.18679900
   0.88239823  0.30961245  0.31373603
   0.29861738  0.22672664  0.10217432
   0.44888589  0.07645812  0.22911134
   0.59915440  0.92618961  0.35604837
   0.74942291  0.77592110  0.48298539
   0.01537355  0.84330380  0.14448666
   0.16564206  0.69303529  0.27142369
   0.31591057  0.54276677  0.39836071
   0.86510504  0.99357231  0.01754964
   0.03660483  0.95519385  0.49805764
   0.58579929  0.40599939  0.11724657
   0.73606781  0.25573087  0.24418359
   0.88633632  0.10546236  0.37112062
   0.15228695  0.17284506  0.03262188
   0.30255546  0.02257655  0.15955891
   0.45282398  0.87230804  0.28649593
   0.60309249  0.72203952  0.41343296
   0.01931164  0.63915371  0.20187125
   0.16958015  0.48888520  0.32880827
   0.31984866  0.33861669  0.45574530
   0.86904312  0.78942223  0.07493423
   0.48608562  0.84214306  0.03301497
   0.63635413  0.69187455  0.15995199
   0.78662264  0.54160604  0.28688901
   0.93689115  0.39133753  0.41382604
   0.20284179  0.45872023  0.07532731
   0.35311030  0.30845171  0.20226433
   0.50337881  0.15818320  0.32920136
   0.65364733  0.00791469  0.45613838
   0.06986647  0.92502888  0.24457667
   0.22013498  0.77476036  0.37151370
   0.37040350  0.62449185  0.49845072
   0.91959796  0.07529739  0.11763965
   0.20021045  0.79158823  0.07572039
   0.35047897  0.64131972  0.20265741
   0.50074748  0.49105120  0.32959444
   0.65101599  0.34078269  0.45653146
   0.06723514  0.25789688  0.24496975
   0.21750365  0.10762837  0.37190678
   0.36777216  0.95735985  0.49884380
   0.91696662  0.40816539  0.11803273
   0.48345428  0.17501107  0.03340805
   0.63372279  0.02474255  0.16034507
   0.78399131  0.87447404  0.28728210
   0.93425982  0.72420553  0.41421912
