"Millerite NiS"                         
           1
    16.884694    0.000000    0.000000
     0.000000    9.578410    0.000000
     0.000000    0.000000   16.169087
   Ty   Ty
  36  36
Direct configuration=     1
   0.76939437  0.10708268  0.10569684
   0.80700156  0.11632014  0.25823132
   0.21414814  0.66801856  0.09613331
   0.29733029  0.64529695  0.21596896
   0.38297397  0.08670961  0.13203476
   0.46975828  0.14529695  0.24776362
   0.95247430  0.64529695  0.15237965
   0.95360008  0.64454942  0.30654816
   0.12490229  0.14529695  0.18417431
   0.04577510  0.01673654  0.28211950
   0.56990620  0.64506255  0.15965295
   0.64218627  0.64529695  0.27955828
   0.94292923  0.97682873  0.17615367
   0.38213611  0.31727187  0.07757295
   0.42486676  0.51319395  0.19076795
   0.45509429  0.48182055  0.33802747
   0.63183766  0.94291250  0.07875109
   0.59729475  0.01319395  0.22256260
   0.08001077  0.51319395  0.12717863
   0.12106841  0.38944281  0.24293602
   0.25243876  0.01319395  0.15897329
   0.29963731  0.94891823  0.29004834
   0.77163353  0.42407374  0.11933153
   0.76972274  0.51319395  0.25435726
   0.90142987  0.27804017  0.11205575
   0.98842385  0.25409015  0.23563795
   0.35839395  0.64422445  0.05967542
   0.42486676  0.77739995  0.19076795
   0.47448681  0.84291023  0.32256158
   0.52800804  0.14549359  0.08874596
   0.59729475  0.27739995  0.22256260
   0.08001077  0.77739995  0.12717863
   0.11525047  0.79051872  0.28949420
   0.25243876  0.27739995  0.15897329
   0.75599187  0.81380538  0.10129728
   0.76972274  0.77739995  0.25435726
   0.92715110  0.08686609  0.29159464
   0.00360990  0.14704839  0.12539093
   0.47417723  0.64529695  0.08702573
   0.50874518  0.64529695  0.27779368
   0.64660522  0.14529695  0.11882039
   0.68420884  0.14538510  0.27764247
   0.11121210  0.64562339  0.03178880
   0.16388920  0.64529695  0.21420436
   0.29316968  0.16261054  0.05905474
   0.32413619  0.14502261  0.24075223
   0.81903321  0.64529695  0.15061505
   0.83653237  0.64468756  0.32910357
   0.80429090  0.27725371  0.03623091
   0.82906105  0.31351195  0.21449973
   0.31177708  0.81351195  0.11911576
   0.36008607  0.76918513  0.30534512
   0.48420507  0.31351195  0.15091042
   0.51909338  0.30680358  0.31970497
   0.00148905  0.81351195  0.24629439
   0.96729612  0.82556127  0.08344077
   0.14121435  0.32889011  0.11723164
   0.08897197  0.21633581  0.30779937
   0.65663306  0.81351195  0.18270508
   0.69308882  0.79485827  0.35070843
   0.31177708  0.47708195  0.11911576
   0.34521430  0.48181122  0.28847601
   0.73588907  0.96450355  0.01500908
   0.81859275  0.94583867  0.18120786
   0.00148905  0.47708195  0.24629439
   0.96469761  0.46223575  0.08332445
   0.48420507  0.97708195  0.15091042
   0.53311742  0.02391546  0.33183311
   0.65663306  0.47708195  0.18270508
   0.69190443  0.49226410  0.34884281
   0.14255468  0.96485253  0.10779160
   0.17391704  0.97708195  0.27808905
