  96  96   0   0
  0.2109074E+02  0.6278560E-09  0.1125646E-08  0.2915682E-08  0.5000000E-15
  1.000000000000000E-004
  CAR 
 "Millerite NiS"                         
     13.04291003    -64.73326545  301      3.25998843      1.00000000
    -64.733  0.0000E+00  0.0000E+00
    -64.474  0.0000E+00  0.0000E+00
    -64.215  0.0000E+00  0.0000E+00
    -63.956  0.0000E+00  0.0000E+00
    -63.696  0.0000E+00  0.0000E+00
    -63.437  0.0000E+00  0.0000E+00
    -63.178  0.0000E+00  0.0000E+00
    -62.918  0.0000E+00  0.0000E+00
    -62.659  0.0000E+00  0.0000E+00
    -62.400  0.0000E+00  0.0000E+00
    -62.141  0.1638E-08  0.4247E-09
    -61.881  0.1063E-03  0.2755E-04
    -61.622  0.2803E+00  0.7270E-01
    -61.363  0.3443E+02  0.8998E+01
    -61.104  0.2776E+03  0.8096E+02
    -60.844  0.3203E+03  0.1640E+03
    -60.585  0.2186E+03  0.2207E+03
    -60.326  0.1174E+03  0.2511E+03
    -60.067  0.6456E+02  0.2678E+03
    -59.807  0.3955E+02  0.2781E+03
    -59.548  0.2517E+02  0.2846E+03
    -59.289  0.1172E+02  0.2876E+03
    -59.030  0.1372E+01  0.2880E+03
    -58.770  0.1347E-01  0.2880E+03
    -58.511  0.6612E-05  0.2880E+03
    -58.252  0.1339E-09  0.2880E+03
    -57.993  0.0000E+00  0.2880E+03
    -57.733  0.0000E+00  0.2880E+03
    -57.474  0.0000E+00  0.2880E+03
    -57.215  0.0000E+00  0.2880E+03
    -56.956  0.0000E+00  0.2880E+03
    -56.696  0.0000E+00  0.2880E+03
    -56.437  0.0000E+00  0.2880E+03
    -56.178  0.0000E+00  0.2880E+03
    -55.919  0.0000E+00  0.2880E+03
    -55.659  0.0000E+00  0.2880E+03
    -55.400  0.0000E+00  0.2880E+03
    -55.141  0.0000E+00  0.2880E+03
    -54.882  0.0000E+00  0.2880E+03
    -54.622  0.0000E+00  0.2880E+03
    -54.363  0.0000E+00  0.2880E+03
    -54.104  0.0000E+00  0.2880E+03
    -53.845  0.0000E+00  0.2880E+03
    -53.585  0.0000E+00  0.2880E+03
    -53.326  0.0000E+00  0.2880E+03
    -53.067  0.0000E+00  0.2880E+03
    -52.808  0.0000E+00  0.2880E+03
    -52.548  0.0000E+00  0.2880E+03
    -52.289  0.0000E+00  0.2880E+03
    -52.030  0.0000E+00  0.2880E+03
    -51.771  0.0000E+00  0.2880E+03
    -51.511  0.0000E+00  0.2880E+03
    -51.252  0.0000E+00  0.2880E+03
    -50.993  0.0000E+00  0.2880E+03
    -50.734  0.0000E+00  0.2880E+03
    -50.474  0.0000E+00  0.2880E+03
    -50.215  0.0000E+00  0.2880E+03
    -49.956  0.0000E+00  0.2880E+03
    -49.697  0.0000E+00  0.2880E+03
    -49.437  0.0000E+00  0.2880E+03
    -49.178  0.0000E+00  0.2880E+03
    -48.919  0.0000E+00  0.2880E+03
    -48.660  0.0000E+00  0.2880E+03
    -48.400  0.0000E+00  0.2880E+03
    -48.141  0.0000E+00  0.2880E+03
    -47.882  0.0000E+00  0.2880E+03
    -47.623  0.0000E+00  0.2880E+03
    -47.363  0.0000E+00  0.2880E+03
    -47.104  0.0000E+00  0.2880E+03
    -46.845  0.0000E+00  0.2880E+03
    -46.585  0.0000E+00  0.2880E+03
    -46.326  0.0000E+00  0.2880E+03
    -46.067  0.0000E+00  0.2880E+03
    -45.808  0.0000E+00  0.2880E+03
    -45.548  0.0000E+00  0.2880E+03
    -45.289  0.0000E+00  0.2880E+03
    -45.030  0.0000E+00  0.2880E+03
    -44.771  0.0000E+00  0.2880E+03
    -44.511  0.0000E+00  0.2880E+03
    -44.252  0.0000E+00  0.2880E+03
    -43.993  0.0000E+00  0.2880E+03
    -43.734  0.0000E+00  0.2880E+03
    -43.474  0.0000E+00  0.2880E+03
    -43.215  0.0000E+00  0.2880E+03
    -42.956  0.0000E+00  0.2880E+03
    -42.697  0.0000E+00  0.2880E+03
    -42.437  0.0000E+00  0.2880E+03
    -42.178  0.0000E+00  0.2880E+03
    -41.919  0.0000E+00  0.2880E+03
    -41.660  0.0000E+00  0.2880E+03
    -41.400  0.0000E+00  0.2880E+03
    -41.141  0.0000E+00  0.2880E+03
    -40.882  0.0000E+00  0.2880E+03
    -40.623  0.0000E+00  0.2880E+03
    -40.363  0.0000E+00  0.2880E+03
    -40.104  0.0000E+00  0.2880E+03
    -39.845  0.0000E+00  0.2880E+03
    -39.586  0.0000E+00  0.2880E+03
    -39.326  0.0000E+00  0.2880E+03
    -39.067  0.0000E+00  0.2880E+03
    -38.808  0.0000E+00  0.2880E+03
    -38.549  0.0000E+00  0.2880E+03
    -38.289  0.0000E+00  0.2880E+03
    -38.030  0.0000E+00  0.2880E+03
    -37.771  0.0000E+00  0.2880E+03
    -37.512  0.0000E+00  0.2880E+03
    -37.252  0.0000E+00  0.2880E+03
    -36.993  0.0000E+00  0.2880E+03
    -36.734  0.0000E+00  0.2880E+03
    -36.475  0.0000E+00  0.2880E+03
    -36.215  0.0000E+00  0.2880E+03
    -35.956  0.0000E+00  0.2880E+03
    -35.697  0.0000E+00  0.2880E+03
    -35.438  0.0000E+00  0.2880E+03
    -35.178  0.0000E+00  0.2880E+03
    -34.919  0.0000E+00  0.2880E+03
    -34.660  0.0000E+00  0.2880E+03
    -34.401  0.0000E+00  0.2880E+03
    -34.141  0.0000E+00  0.2880E+03
    -33.882  0.0000E+00  0.2880E+03
    -33.623  0.0000E+00  0.2880E+03
    -33.364  0.0000E+00  0.2880E+03
    -33.104  0.0000E+00  0.2880E+03
    -32.845  0.0000E+00  0.2880E+03
    -32.586  0.0000E+00  0.2880E+03
    -32.327  0.0000E+00  0.2880E+03
    -32.067  0.0000E+00  0.2880E+03
    -31.808  0.0000E+00  0.2880E+03
    -31.549  0.0000E+00  0.2880E+03
    -31.290  0.0000E+00  0.2880E+03
    -31.030  0.0000E+00  0.2880E+03
    -30.771  0.0000E+00  0.2880E+03
    -30.512  0.0000E+00  0.2880E+03
    -30.252  0.0000E+00  0.2880E+03
    -29.993  0.0000E+00  0.2880E+03
    -29.734  0.0000E+00  0.2880E+03
    -29.475  0.0000E+00  0.2880E+03
    -29.215  0.0000E+00  0.2880E+03
    -28.956  0.0000E+00  0.2880E+03
    -28.697  0.0000E+00  0.2880E+03
    -28.438  0.0000E+00  0.2880E+03
    -28.178  0.0000E+00  0.2880E+03
    -27.919  0.0000E+00  0.2880E+03
    -27.660  0.0000E+00  0.2880E+03
    -27.401  0.0000E+00  0.2880E+03
    -27.141  0.0000E+00  0.2880E+03
    -26.882  0.0000E+00  0.2880E+03
    -26.623  0.0000E+00  0.2880E+03
    -26.364  0.0000E+00  0.2880E+03
    -26.104  0.0000E+00  0.2880E+03
    -25.845  0.0000E+00  0.2880E+03
    -25.586  0.0000E+00  0.2880E+03
    -25.327  0.0000E+00  0.2880E+03
    -25.067  0.0000E+00  0.2880E+03
    -24.808  0.0000E+00  0.2880E+03
    -24.549  0.0000E+00  0.2880E+03
    -24.290  0.0000E+00  0.2880E+03
    -24.030  0.0000E+00  0.2880E+03
    -23.771  0.0000E+00  0.2880E+03
    -23.512  0.0000E+00  0.2880E+03
    -23.253  0.0000E+00  0.2880E+03
    -22.993  0.0000E+00  0.2880E+03
    -22.734  0.0000E+00  0.2880E+03
    -22.475  0.0000E+00  0.2880E+03
    -22.216  0.0000E+00  0.2880E+03
    -21.956  0.0000E+00  0.2880E+03
    -21.697  0.0000E+00  0.2880E+03
    -21.438  0.0000E+00  0.2880E+03
    -21.179  0.0000E+00  0.2880E+03
    -20.919  0.0000E+00  0.2880E+03
    -20.660  0.0000E+00  0.2880E+03
    -20.401  0.0000E+00  0.2880E+03
    -20.142  0.0000E+00  0.2880E+03
    -19.882  0.0000E+00  0.2880E+03
    -19.623  0.0000E+00  0.2880E+03
    -19.364  0.0000E+00  0.2880E+03
    -19.105  0.0000E+00  0.2880E+03
    -18.845  0.0000E+00  0.2880E+03
    -18.586  0.0000E+00  0.2880E+03
    -18.327  0.0000E+00  0.2880E+03
    -18.068  0.0000E+00  0.2880E+03
    -17.808  0.0000E+00  0.2880E+03
    -17.549  0.0000E+00  0.2880E+03
    -17.290  0.0000E+00  0.2880E+03
    -17.031  0.0000E+00  0.2880E+03
    -16.771  0.0000E+00  0.2880E+03
    -16.512  0.0000E+00  0.2880E+03
    -16.253  0.0000E+00  0.2880E+03
    -15.994  0.0000E+00  0.2880E+03
    -15.734  0.0000E+00  0.2880E+03
    -15.475  0.0000E+00  0.2880E+03
    -15.216  0.0000E+00  0.2880E+03
    -14.957  0.0000E+00  0.2880E+03
    -14.697  0.0000E+00  0.2880E+03
    -14.438  0.0000E+00  0.2880E+03
    -14.179  0.0000E+00  0.2880E+03
    -13.919  0.5139E-14  0.2880E+03
    -13.660  0.2917E-08  0.2880E+03
    -13.401  0.6001E-04  0.2880E+03
    -13.142  0.4963E-01  0.2880E+03
    -12.882  0.1979E+01  0.2885E+03
    -12.623  0.6757E+01  0.2903E+03
    -12.364  0.6901E+01  0.2921E+03
    -12.105  0.1404E+02  0.2957E+03
    -11.845  0.1991E+02  0.3009E+03
    -11.586  0.1694E+02  0.3053E+03
    -11.327  0.2248E+02  0.3111E+03
    -11.068  0.3562E+02  0.3203E+03
    -10.808  0.4839E+02  0.3329E+03
    -10.549  0.4568E+02  0.3447E+03
    -10.290  0.5216E+02  0.3582E+03
    -10.031  0.4191E+02  0.3691E+03
     -9.771  0.1622E+02  0.3733E+03
     -9.512  0.1968E+02  0.3784E+03
     -9.253  0.5999E+01  0.3800E+03
     -8.994  0.1389E+00  0.3800E+03
     -8.734  0.1807E-03  0.3800E+03
     -8.475  0.1292E-05  0.3800E+03
     -8.216  0.4481E-02  0.3800E+03
     -7.957  0.7373E+00  0.3802E+03
     -7.697  0.7583E+01  0.3822E+03
     -7.438  0.6622E+01  0.3839E+03
     -7.179  0.4792E+00  0.3840E+03
     -6.920  0.2087E-02  0.3840E+03
     -6.660  0.4177E-06  0.3840E+03
     -6.401  0.3339E-11  0.3840E+03
     -6.142  0.0000E+00  0.3840E+03
     -5.883  0.1029E-09  0.3840E+03
     -5.623  0.6402E-05  0.3840E+03
     -5.364  0.1596E-01  0.3840E+03
     -5.105  0.1854E+01  0.3845E+03
     -4.846  0.1453E+02  0.3883E+03
     -4.586  0.2345E+02  0.3943E+03
     -4.327  0.3199E+02  0.4026E+03
     -4.068  0.2515E+02  0.4091E+03
     -3.809  0.4281E+02  0.4202E+03
     -3.549  0.6173E+02  0.4362E+03
     -3.290  0.4562E+02  0.4481E+03
     -3.031  0.3788E+02  0.4579E+03
     -2.772  0.3875E+02  0.4679E+03
     -2.512  0.3337E+02  0.4766E+03
     -2.253  0.3431E+02  0.4855E+03
     -1.994  0.5234E+02  0.4991E+03
     -1.735  0.7404E+02  0.5183E+03
     -1.475  0.7661E+02  0.5381E+03
     -1.216  0.1034E+03  0.5649E+03
     -0.957  0.1173E+03  0.5953E+03
     -0.698  0.8413E+02  0.6171E+03
     -0.438  0.4562E+02  0.6290E+03
     -0.179  0.6975E+02  0.6471E+03
      0.080  0.7899E+02  0.6675E+03
      0.339  0.8054E+02  0.6884E+03
      0.599  0.1207E+03  0.7197E+03
      0.858  0.1470E+03  0.7578E+03
      1.117  0.1341E+03  0.7926E+03
      1.376  0.2242E+03  0.8507E+03
      1.636  0.2284E+03  0.9099E+03
      1.895  0.1569E+03  0.9506E+03
      2.154  0.1310E+03  0.9846E+03
      2.413  0.1024E+03  0.1011E+04
      2.673  0.6693E+02  0.1028E+04
      2.932  0.3953E+02  0.1039E+04
      3.191  0.4946E+02  0.1052E+04
      3.451  0.7750E+02  0.1072E+04
      3.710  0.9687E+02  0.1097E+04
      3.969  0.9465E+02  0.1121E+04
      4.228  0.6843E+02  0.1139E+04
      4.488  0.3907E+02  0.1149E+04
      4.747  0.1045E+02  0.1152E+04
      5.006  0.5496E+00  0.1152E+04
      5.265  0.1410E+01  0.1152E+04
      5.525  0.5666E+01  0.1154E+04
      5.784  0.1106E+02  0.1157E+04
      6.043  0.2445E+02  0.1163E+04
      6.302  0.2648E+02  0.1170E+04
      6.562  0.2276E+02  0.1176E+04
      6.821  0.1935E+02  0.1181E+04
      7.080  0.2981E+02  0.1189E+04
      7.339  0.3308E+02  0.1197E+04
      7.599  0.2721E+02  0.1204E+04
      7.858  0.3589E+02  0.1213E+04
      8.117  0.3212E+02  0.1222E+04
      8.376  0.3475E+02  0.1231E+04
      8.636  0.4113E+02  0.1241E+04
      8.895  0.3668E+02  0.1251E+04
      9.154  0.3674E+02  0.1261E+04
      9.413  0.4581E+02  0.1272E+04
      9.673  0.2704E+02  0.1279E+04
      9.932  0.2252E+01  0.1280E+04
     10.191  0.1592E-01  0.1280E+04
     10.450  0.6341E-05  0.1280E+04
     10.710  0.1115E-09  0.1280E+04
     10.969  0.0000E+00  0.1280E+04
     11.228  0.0000E+00  0.1280E+04
     11.487  0.0000E+00  0.1280E+04
     11.747  0.0000E+00  0.1280E+04
     12.006  0.0000E+00  0.1280E+04
     12.265  0.0000E+00  0.1280E+04
     12.524  0.0000E+00  0.1280E+04
     12.784  0.0000E+00  0.1280E+04
     13.043  0.0000E+00  0.1280E+04
