       N       E                     dE             d eps       ncg     rms          rms(c)
DAV:   1     0.145719588014E+05    0.14572E+05   -0.67804E+05  1528   0.175E+03
DAV:   2     0.116802792110E+04   -0.13404E+05   -0.12937E+05  1296   0.572E+02
DAV:   3    -0.413244179728E+03   -0.15813E+04   -0.14549E+04  1440   0.208E+02
DAV:   4    -0.544098469046E+03   -0.13085E+03   -0.12810E+03  1464   0.513E+01
DAV:   5    -0.549406226362E+03   -0.53078E+01   -0.52904E+01  1616   0.114E+01    0.953E+01
DAV:   6    -0.831669122443E+03   -0.28226E+03   -0.11359E+03  1648   0.145E+02    0.246E+02
DAV:   7    -0.598043627008E+03    0.23363E+03   -0.27509E+02  1568   0.712E+01    0.133E+02
DAV:   8    -0.627782956135E+03   -0.29739E+02   -0.22716E+02  1792   0.981E+01    0.179E+02
DAV:   9    -0.747005328765E+03   -0.11922E+03   -0.39707E+02  1760   0.861E+01    0.196E+02
DAV:  10    -0.605150613828E+03    0.14185E+03   -0.23423E+02  1712   0.778E+01    0.159E+02
DAV:  11    -0.542477425779E+03    0.62673E+02   -0.99189E+01  1752   0.446E+01    0.878E+01
DAV:  12    -0.567863170525E+03   -0.25386E+02   -0.89182E+01  1816   0.588E+01    0.143E+02
DAV:  13    -0.632926667569E+03   -0.65063E+02   -0.13851E+02  1792   0.536E+01    0.160E+02
DAV:  14    -0.577758306018E+03    0.55168E+02   -0.10024E+02  1816   0.429E+01    0.130E+02
DAV:  15    -0.512038517332E+03    0.65720E+02   -0.66827E+01  1704   0.424E+01    0.542E+01
DAV:  16    -0.508994479907E+03    0.30440E+01   -0.46367E+01  1728   0.301E+01    0.705E+01
DAV:  17    -0.500165888485E+03    0.88286E+01   -0.28521E+01  1688   0.206E+01    0.404E+01
DAV:  18    -0.496063634175E+03    0.41023E+01   -0.10170E+01  1688   0.170E+01    0.344E+01
DAV:  19    -0.492949589067E+03    0.31140E+01   -0.58740E+00  1784   0.131E+01    0.322E+01
DAV:  20    -0.491289667829E+03    0.16599E+01   -0.25257E+00  1752   0.686E+00    0.286E+01
DAV:  21    -0.490402328978E+03    0.88734E+00   -0.53589E-01  1736   0.292E+00    0.272E+01
DAV:  22    -0.489837213721E+03    0.56512E+00   -0.15532E-01  1712   0.171E+00    0.266E+01
DAV:  23    -0.488774400865E+03    0.10628E+01   -0.46008E-01  1920   0.398E+00    0.252E+01
DAV:  24    -0.487473957820E+03    0.13004E+01   -0.16434E+00  1744   0.638E+00    0.221E+01
DAV:  25    -0.484187548178E+03    0.32864E+01   -0.53533E+00  1968   0.106E+01    0.131E+01
DAV:  26    -0.483506764976E+03    0.68078E+00   -0.23944E+00  1736   0.538E+00    0.810E+00
DAV:  27    -0.483471267125E+03    0.35498E-01   -0.49336E-01  1376   0.162E+00    0.753E+00
DAV:  28    -0.483466221890E+03    0.50452E-02   -0.16503E-01  1640   0.122E+00    0.754E+00
DAV:  29    -0.483415757145E+03    0.50465E-01   -0.31431E-01  1664   0.172E+00    0.713E+00
DAV:  30    -0.483343676972E+03    0.72080E-01   -0.83979E-02  1792   0.142E+00    0.646E+00
DAV:  31    -0.483295512343E+03    0.48165E-01   -0.23341E-01  1816   0.272E+00    0.653E+00
DAV:  32    -0.483243591008E+03    0.51921E-01   -0.39107E-01  1696   0.314E+00    0.537E+00
DAV:  33    -0.483312286089E+03   -0.68695E-01   -0.40110E-01  1776   0.267E+00    0.548E+00
DAV:  34    -0.483259871231E+03    0.52415E-01   -0.39930E-01  1648   0.168E+00    0.419E+00
DAV:  35    -0.483219695450E+03    0.40176E-01   -0.10681E-01  1640   0.132E+00    0.359E+00
DAV:  36    -0.483215341752E+03    0.43537E-02   -0.41832E-02  1592   0.108E+00    0.369E+00
DAV:  37    -0.483201055970E+03    0.14286E-01   -0.42133E-02  1680   0.117E+00    0.329E+00
DAV:  38    -0.483191457119E+03    0.95989E-02   -0.36240E-02  1744   0.108E+00    0.293E+00
DAV:  39    -0.483176166260E+03    0.15291E-01   -0.23822E-02  1760   0.757E-01    0.244E+00
DAV:  40    -0.483167829023E+03    0.83372E-02   -0.15457E-02  1728   0.550E-01    0.217E+00
DAV:  41    -0.483161180420E+03    0.66486E-02   -0.15071E-02  1536   0.614E-01    0.176E+00
DAV:  42    -0.483160581773E+03    0.59865E-03   -0.87496E-03  1640   0.457E-01    0.164E+00
DAV:  43    -0.483157621342E+03    0.29604E-02   -0.29122E-03  1448   0.269E-01    0.146E+00
DAV:  44    -0.483155456228E+03    0.21651E-02   -0.25185E-03  1632   0.234E-01    0.125E+00
DAV:  45    -0.483152766457E+03    0.26898E-02   -0.18188E-03  1656   0.212E-01    0.969E-01
DAV:  46    -0.483151472736E+03    0.12937E-02   -0.23441E-03  1464   0.196E-01    0.776E-01
DAV:  47    -0.483150749494E+03    0.72324E-03   -0.50294E-04  1136   0.911E-02    0.688E-01
DAV:  48    -0.483149567669E+03    0.11818E-02   -0.68508E-04   936   0.110E-01    0.498E-01
DAV:  49    -0.483149253672E+03    0.31400E-03   -0.51108E-04  1232   0.921E-02    0.418E-01
DAV:  50    -0.483149109842E+03    0.14383E-03   -0.72018E-04  1256   0.120E-01    0.346E-01
DAV:  51    -0.483148710074E+03    0.39977E-03   -0.15929E-03  1512   0.183E-01    0.205E-01
DAV:  52    -0.483148637157E+03    0.72917E-04   -0.54933E-04  1112   0.922E-02
   1 F= -.48314864E+03 E0= -.48245765E+03  d E =-.138198E+01
