       N       E                     dE             d eps       ncg     rms          rms(c)
DAV:   1     0.970144467970E+04    0.97014E+04   -0.50815E+05  1176   0.163E+03
DAV:   2     0.590326779886E+03   -0.91111E+04   -0.87765E+04  1016   0.521E+02
DAV:   3    -0.342043467184E+03   -0.93237E+03   -0.87835E+03  1088   0.178E+02
DAV:   4    -0.402410372534E+03   -0.60367E+02   -0.59651E+02  1096   0.404E+01
DAV:   5    -0.404878756804E+03   -0.24684E+01   -0.24641E+01  1256   0.866E+00    0.821E+01
DAV:   6    -0.490141709009E+03   -0.85263E+02   -0.96799E+02  1160   0.116E+02    0.156E+02
DAV:   7    -0.372110043954E+03    0.11803E+03   -0.17438E+02  1128   0.626E+01    0.602E+01
DAV:   8    -0.412304441851E+03   -0.40194E+02   -0.16138E+02  1328   0.657E+01    0.149E+02
DAV:   9    -0.370318544938E+03    0.41986E+02   -0.89180E+01  1216   0.390E+01    0.555E+01
DAV:  10    -0.380948230546E+03   -0.10630E+02   -0.74255E+01  1392   0.440E+01    0.639E+01
DAV:  11    -0.376098290006E+03    0.48499E+01   -0.36231E+01  1312   0.414E+01    0.705E+01
DAV:  12    -0.363642831363E+03    0.12455E+02   -0.33547E+01  1296   0.261E+01    0.324E+01
DAV:  13    -0.358286737265E+03    0.53561E+01   -0.98277E+00  1272   0.211E+01    0.229E+01
DAV:  14    -0.357399310238E+03    0.88743E+00   -0.71290E+00  1296   0.160E+01    0.226E+01
DAV:  15    -0.356430882672E+03    0.96843E+00   -0.39381E+00  1192   0.127E+01    0.166E+01
DAV:  16    -0.355687828508E+03    0.74305E+00   -0.97650E-01  1296   0.569E+00    0.130E+01
DAV:  17    -0.355341431509E+03    0.34640E+00   -0.39166E-01  1272   0.397E+00    0.115E+01
DAV:  18    -0.355059102337E+03    0.28233E+00   -0.27030E-01  1296   0.332E+00    0.995E+00
DAV:  19    -0.354854259856E+03    0.20484E+00   -0.13987E-01  1296   0.226E+00    0.829E+00
DAV:  20    -0.354759537007E+03    0.94723E-01   -0.14078E-01  1304   0.255E+00    0.744E+00
DAV:  21    -0.354671130895E+03    0.88406E-01   -0.21041E-01  1328   0.313E+00    0.621E+00
DAV:  22    -0.354618226055E+03    0.52905E-01   -0.29057E-01  1320   0.361E+00    0.552E+00
DAV:  23    -0.354499033876E+03    0.11919E+00   -0.23419E-01  1344   0.275E+00    0.278E+00
DAV:  24    -0.354515369977E+03   -0.16336E-01   -0.12894E-01  1312   0.226E+00    0.317E+00
DAV:  25    -0.354508749311E+03    0.66207E-02   -0.12518E-01  1256   0.191E+00    0.295E+00
DAV:  26    -0.354490805171E+03    0.17944E-01   -0.40505E-02  1232   0.114E+00    0.188E+00
DAV:  27    -0.354486405494E+03    0.43997E-02   -0.20730E-02  1296   0.904E-01    0.143E+00
DAV:  28    -0.354483394990E+03    0.30105E-02   -0.16542E-02  1176   0.897E-01    0.101E+00
DAV:  29    -0.354484249120E+03   -0.85413E-03   -0.12881E-02  1288   0.751E-01    0.997E-01
DAV:  30    -0.354482500335E+03    0.17488E-02   -0.64715E-03  1208   0.598E-01    0.804E-01
DAV:  31    -0.354481198698E+03    0.13016E-02   -0.30104E-03  1168   0.312E-01    0.460E-01
DAV:  32    -0.354481331368E+03   -0.13267E-03   -0.19318E-03  1088   0.281E-01    0.282E-01
DAV:  33    -0.354481679929E+03   -0.34856E-03   -0.10721E-03   920   0.189E-01    0.250E-01
DAV:  34    -0.354481628629E+03    0.51300E-04   -0.60572E-04   888   0.160E-01
   1 F= -.35448163E+03 E0= -.35393432E+03  d E =-.109463E+01
