
72 atoms
2 atom types
   0.0000000000   11.8257374458 xlo xhi
   0.0000000000   11.2351097481 ylo yhi
   0.0000000000   17.1992797923 zlo zhi
   3.6905792348    0.0000000000    0.0000000000 xy xz yz

Atoms # atomic

     1      1    5.7304546578    2.1775614341    2.1930504976
     2      1    0.9287308211    0.6430082730    4.6961651394
     3      1    3.8851651037    4.7260098173    7.1992797984
     4      1    1.8673380329    1.5042460818    0.8703746793
     5      1    4.8237723038    5.5872476262    3.3734893211
     6      1    5.9349170244    4.0526944651    5.8766039802
     7      1    1.8673380327    3.6617530922    2.1930504976
     8      1    2.9784827415    2.1271999311    4.6961651394
     9      1    4.0896274621    0.5926467699    7.1992797984
    10      1   11.6433233807    2.1775614341    2.1930504976
    11      1    6.8415995440    0.6430082730    4.6961651394
    12      1    9.7980338266    4.7260098173    7.1992797984
    13      1    7.7802067558    1.5042460818    0.8703746793
    14      1   10.7366410267    5.5872476262    3.3734893211
    15      1   11.8477857473    4.0526944651    5.8766039802
    16      1    7.7802067556    3.6617530922    2.1930504976
    17      1    8.8913514644    2.1271999311    4.6961651394
    18      1   10.0024961850    0.5926467699    7.1992797984
    19      1    7.5757442752    7.7951163081    2.1930504976
    20      1    2.7740204385    6.2605631470    4.6961651394
    21      1    5.7304547211   10.3435646914    7.1992797984
    22      1    3.7126276503    7.1218009559    0.8703746793
    23      1    6.6690619212   11.2048025002    3.3734893211
    24      1    7.7802066418    9.6702493391    5.8766039802
    25      1    3.7126276501    9.2793079663    2.1930504976
    26      1    4.8237723589    7.7447548051    4.6961651394
    27      1    5.9349170795    6.2102016440    7.1992797984
    28      1   13.4886129981    7.7951163081    2.1930504976
    29      1    8.6868891614    6.2605631470    4.6961651394
    30      1   11.6433234440   10.3435646914    7.1992797984
    31      1    9.6254963733    7.1218009559    0.8703746793
    32      1   12.5819306441   11.2048025002    3.3734893211
    33      1   13.6930753647    9.6702493391    5.8766039802
    34      1    9.6254963730    9.2793079663    2.1930504976
    35      1   10.7366410818    7.7447548051    4.6961651394
    36      1   11.8477858024    6.2102016440    7.1992797984
    37      2    2.3955620967    3.5220274588    0.0000000000
    38      2    3.5067068018    1.9874742865    2.5031146418
    39      2    4.6178515106    0.4529211253    5.0062293009
    40      2    5.6983535022    4.3794019404    1.6842457170
    41      2    6.8094982228    2.8448487793    4.1873603760
    42      2    2.0077743861    1.3102956181    6.6904750179
    43      2    5.6983535094    1.6321135287    0.0000000000
    44      2    0.8966296689    0.0975603564    2.5031146418
    45      2    3.8530639398    4.1805619007    5.0062293009
    46      2    8.3084308196    3.5220274588    0.0000000000
    47      2    9.4195755247    1.9874742865    2.5031146418
    48      2   10.5307202335    0.4529211253    5.0062293009
    49      2   11.6112222252    4.3794019404    1.6842457170
    50      2   12.7223669458    2.8448487793    4.1873603760
    51      2    7.9206431090    1.3102956181    6.6904750179
    52      2   11.6112222323    1.6321135287    0.0000000000
    53      2    6.8094983919    0.0975603564    2.5031146418
    54      2    9.7659326627    4.1805619007    5.0062293009
    55      2    4.2408517141    9.1395823329    0.0000000000
    56      2    5.3519964192    7.6050291605    2.5031146418
    57      2    6.4631411280    6.0704759994    5.0062293009
    58      2    7.5436431196    9.9969568144    1.6842457170
    59      2    8.6547878402    8.4624036533    4.1873603760
    60      2    3.8530640035    6.9278504921    6.6904750179
    61      2    7.5436431268    7.2496684028    0.0000000000
    62      2    2.7419192863    5.7151152304    2.5031146418
    63      2    5.6983535572    9.7981167748    5.0062293009
    64      2   10.1537204370    9.1395823329    0.0000000000
    65      2   11.2648651421    7.6050291605    2.5031146418
    66      2   12.3760098509    6.0704759994    5.0062293009
    67      2   13.4565118426    9.9969568144    1.6842457170
    68      2   14.5676565632    8.4624036533    4.1873603760
    69      2    9.7659327264    6.9278504921    6.6904750179
    70      2   13.4565118497    7.2496684028    0.0000000000
    71      2    8.6547880093    5.7151152304    2.5031146418
    72      2   11.6112222801    9.7981167748    5.0062293009
