
96 atoms
2 atom types
   0.0000000000    6.2785600000 xlo xhi
   0.0000000000   11.0601955134 ylo yhi
   0.0000000000   27.5900794763 zlo zhi
   2.0928533957    0.0000000000    0.0000000000 xy xz yz

Atoms # atomic

     1      1    1.6436996031    0.1820352343    2.8765689452
     2      1    1.6436996031    0.1820352343   12.4549789282
     3      1    0.5972729353    2.9470840242    7.6657739367
     4      1    0.5972729353    2.9470840242   17.2441839473
     5      1    1.6436996031    0.1820352343    0.3458955297
     6      1    1.6436996031    0.1820352343    9.9243055403
     7      1    0.5972729353    2.9470840242    5.1351005488
     8      1    0.5972729353    2.9470840242   14.7135105318
     9      1    1.6436996029    2.3736626798    1.6112322512
    10      1    1.6436996029    2.3736626798   11.1896422342
    11      1    3.7365529372    5.1387114808    6.4004372427
    12      1    3.7365529372    5.1387114808   15.9788472258
    13      1    4.7829796031    0.1820352343    2.8765689452
    14      1    4.7829796031    0.1820352343   12.4549789282
    15      1    3.7365529353    2.9470840242    7.6657739367
    16      1    3.7365529353    2.9470840242   17.2441839473
    17      1    4.7829796031    0.1820352343    0.3458955297
    18      1    4.7829796031    0.1820352343    9.9243055403
    19      1    3.7365529353    2.9470840242    5.1351005488
    20      1    3.7365529353    2.9470840242   14.7135105318
    21      1    4.7829796029    2.3736626798    1.6112322512
    22      1    4.7829796029    2.3736626798   11.1896422342
    23      1    6.8758329372    5.1387114808    6.4004372427
    24      1    6.8758329372    5.1387114808   15.9788472258
    25      1    2.6901263010    5.7121329910    2.8765689452
    26      1    2.6901263010    5.7121329910   12.4549789282
    27      1    1.6436996332    8.4771817809    7.6657739367
    28      1    1.6436996332    8.4771817809   17.2441839473
    29      1    2.6901263010    5.7121329910    0.3458955297
    30      1    2.6901263010    5.7121329910    9.9243055403
    31      1    1.6436996332    8.4771817809    5.1351005488
    32      1    1.6436996332    8.4771817809   14.7135105318
    33      1    2.6901263008    7.9037604365    1.6112322512
    34      1    2.6901263008    7.9037604365   11.1896422342
    35      1    4.7829796351   10.6688092375    6.4004372427
    36      1    4.7829796351   10.6688092375   15.9788472258
    37      1    5.8294063010    5.7121329910    2.8765689452
    38      1    5.8294063010    5.7121329910   12.4549789282
    39      1    4.7829796332    8.4771817809    7.6657739367
    40      1    4.7829796332    8.4771817809   17.2441839473
    41      1    5.8294063010    5.7121329910    0.3458955297
    42      1    5.8294063010    5.7121329910    9.9243055403
    43      1    4.7829796332    8.4771817809    5.1351005488
    44      1    4.7829796332    8.4771817809   14.7135105318
    45      1    5.8294063008    7.9037604365    1.6112322512
    46      1    5.8294063008    7.9037604365   11.1896422342
    47      1    7.9222596351   10.6688092375    6.4004372427
    48      1    7.9222596351   10.6688092375   15.9788472258
    49      2    3.2896094581    1.8428230771    0.0000000000
    50      2    3.2896094581    1.8428230771    9.5784100106
    51      2    2.2431827924    4.6078718781    4.7892049915
    52      2    2.2431827924    4.6078718781   14.3676150021
    53      2    3.2896094581    1.8428230771    3.2224644749
    54      2    3.2896094581    1.8428230771   12.8008744855
    55      2    2.2431827924    4.6078718781    8.0116694664
    56      2    2.2431827924    4.6078718781   17.5900794770
    57      2    1.1967561256    4.5821845740    1.6112322512
    58      2    1.1967561256    4.5821845740   11.1896422342
    59      2    2.2431827913    1.8171357730    6.4004372427
    60      2    2.2431827913    1.8171357730   15.9788472258
    61      2    6.4288894581    1.8428230771    0.0000000000
    62      2    6.4288894581    1.8428230771    9.5784100106
    63      2    5.3824627924    4.6078718781    4.7892049915
    64      2    5.3824627924    4.6078718781   14.3676150021
    65      2    6.4288894581    1.8428230771    3.2224644749
    66      2    6.4288894581    1.8428230771   12.8008744855
    67      2    5.3824627924    4.6078718781    8.0116694664
    68      2    5.3824627924    4.6078718781   17.5900794770
    69      2    4.3360361256    4.5821845740    1.6112322512
    70      2    4.3360361256    4.5821845740   11.1896422342
    71      2    5.3824627913    1.8171357730    6.4004372427
    72      2    5.3824627913    1.8171357730   15.9788472258
    73      2    4.3360361560    7.3729208338    0.0000000000
    74      2    4.3360361560    7.3729208338    9.5784100106
    75      2    3.2896094903   10.1379696347    4.7892049915
    76      2    3.2896094903   10.1379696347   14.3676150021
    77      2    4.3360361560    7.3729208338    3.2224644749
    78      2    4.3360361560    7.3729208338   12.8008744855
    79      2    3.2896094903   10.1379696347    8.0116694664
    80      2    3.2896094903   10.1379696347   17.5900794770
    81      2    2.2431828235   10.1122823307    1.6112322512
    82      2    2.2431828235   10.1122823307   11.1896422342
    83      2    3.2896094892    7.3472335297    6.4004372427
    84      2    3.2896094892    7.3472335297   15.9788472258
    85      2    7.4753161560    7.3729208338    0.0000000000
    86      2    7.4753161560    7.3729208338    9.5784100106
    87      2    6.4288894903   10.1379696347    4.7892049915
    88      2    6.4288894903   10.1379696347   14.3676150021
    89      2    7.4753161560    7.3729208338    3.2224644749
    90      2    7.4753161560    7.3729208338   12.8008744855
    91      2    6.4288894903   10.1379696347    8.0116694664
    92      2    6.4288894903   10.1379696347   17.5900794770
    93      2    5.3824628235   10.1122823307    1.6112322512
    94      2    5.3824628235   10.1122823307   11.1896422342
    95      2    6.4288894892    7.3472335297    6.4004372427
    96      2    6.4288894892    7.3472335297   15.9788472258
