 vasp.5.4.4.18Apr17-6-g9f103f2a35 (build Aug 13 2019 17:33:20) gamma-only       
  
 executed on             LinuxIFC date 2020.05.11  10:07:51
 running on   12 total cores
 distrk:  each k-point on   12 cores,    1 groups
 distr:  one band on NCORES_PER_BAND=   6 cores,    2 groups


--------------------------------------------------------------------------------------------------------


 INCAR:
 POTCAR:    PAW_PBE Ni_pv 06Sep2000               
 POTCAR:    PAW_PBE S 06Sep2000                   
 POTCAR:    PAW_PBE Ni_pv 06Sep2000               
   VRHFIN =Ni:                                                                  
   LEXCH  = PE                                                                  
   EATOM  =  3501.1230 eV,  257.3253 Ry                                         
                                                                                
   TITEL  = PAW_PBE Ni_pv 06Sep2000                                             
   LULTRA =        F    use ultrasoft PP ?                                      
   IUNSCR =        1    unscreen: 0-lin 1-nonlin 2-no                           
   RPACOR =    1.500    partial core radius                                     
   POMASS =   58.690; ZVAL   =   16.000    mass and valenz                      
   RCORE  =    2.000    outmost cutoff radius                                   
   RWIGS  =    2.000; RWIGS  =    1.058    wigner-seitz radius (au A)           
   ENMAX  =  367.986; ENMIN  =  275.989 eV                                      
   RCLOC  =    1.301    cutoff for local pot                                    
   LCOR   =        T    correct aug charges                                     
   LPAW   =        T    paw PP                                                  
   EAUG   =  703.443                                                            
   DEXC   =    0.000                                                            
   RMAX   =    2.041    core radius for proj-oper                               
   RAUG   =    1.300    factor for augmentation sphere                          
   RDEP   =    2.103    radius for radial grids                                 
   RDEPT  =    1.618    core radius for aug-charge                              
                                                                                
   Atomic configuration                                                         
    8 entries                                                                   
     n  l   j            E        occ.                                          
     1  0  0.50     -8206.4253   2.0000                                         
     2  0  0.50      -976.1748   2.0000                                         
     2  1  1.50      -839.0571   6.0000                                         
     3  0  0.50      -105.9991   2.0000                                         
     3  1  1.50       -66.4603   6.0000                                         
     3  2  2.50        -4.6458   9.0000                                         
     4  0  0.50        -4.4926   1.0000                                         
     4  3  2.50        -1.3606   0.0000                                         
   Description                                                                  
     l       E           TYP  RCUT    TYP  RCUT                                 
     1    -66.4602962     23  1.700                                             
     1     -1.3605826     23  1.700                                             
     2     -4.6457867     23  2.000                                             
     2     -6.0063693     23  2.000                                             
     0     -4.4925576     23  1.900                                             
     0     16.3626226     23  1.900                                             
  local pseudopotential read in
  partial core-charges read in
  partial kinetic energy density read in
  atomic valenz-charges read in
  non local Contribution for L=           1  read in
    real space projection operators read in
  non local Contribution for L=           1  read in
    real space projection operators read in
  non local Contribution for L=           2  read in
    real space projection operators read in
  non local Contribution for L=           2  read in
    real space projection operators read in
  non local Contribution for L=           0  read in
    real space projection operators read in
  non local Contribution for L=           0  read in
    real space projection operators read in
    PAW grid and wavefunctions read in
 
   number of l-projection  operators is LMAX  =           6
   number of lm-projection operators is LMMAX =          18
 
 POTCAR:    PAW_PBE S 06Sep2000                   
   VRHFIN =S : s2p4                                                             
   LEXCH  = PE                                                                  
   EATOM  =   276.8230 eV,   20.3459 Ry                                         
                                                                                
   TITEL  = PAW_PBE S 06Sep2000                                                 
   LULTRA =        F    use ultrasoft PP ?                                      
   IUNSCR =        1    unscreen: 0-lin 1-nonlin 2-no                           
   RPACOR =    1.500    partial core radius                                     
   POMASS =   32.066; ZVAL   =    6.000    mass and valenz                      
   RCORE  =    1.900    outmost cutoff radius                                   
   RWIGS  =    2.200; RWIGS  =    1.164    wigner-seitz radius (au A)           
   ENMAX  =  258.689; ENMIN  =  194.016 eV                                      
   ICORE  =        2    local potential                                         
   LCOR   =        T    correct aug charges                                     
   LPAW   =        T    paw PP                                                  
   EAUG   =  335.092                                                            
   DEXC   =    0.000                                                            
   RMAX   =    1.942    core radius for proj-oper                               
   RAUG   =    1.300    factor for augmentation sphere                          
   RDEP   =    1.954    radius for radial grids                                 
   RDEPT  =    1.744    core radius for aug-charge                              
                                                                                
   Atomic configuration                                                         
    6 entries                                                                   
     n  l   j            E        occ.                                          
     1  0  0.50     -2405.8406   2.0000                                         
     2  0  0.50      -211.7007   2.0000                                         
     2  1  1.50      -156.4958   6.0000                                         
     3  0  0.50       -17.2562   2.0000                                         
     3  1  0.50        -7.0085   4.0000                                         
     3  2  1.50        -6.8029   0.0000                                         
   Description                                                                  
     l       E           TYP  RCUT    TYP  RCUT                                 
     0    -17.2561641     23  1.900                                             
     0    -15.8743224     23  1.900                                             
     1     -7.0085400     23  1.900                                             
     1     -2.7779785     23  1.900                                             
     2     -6.8029130     23  1.900                                             
  local pseudopotential read in
  partial core-charges read in
  partial kinetic energy density read in
  atomic valenz-charges read in
  non local Contribution for L=           0  read in
    real space projection operators read in
  non local Contribution for L=           0  read in
    real space projection operators read in
  non local Contribution for L=           1  read in
    real space projection operators read in
  non local Contribution for L=           1  read in
    real space projection operators read in
    PAW grid and wavefunctions read in
 
   number of l-projection  operators is LMAX  =           4
   number of lm-projection operators is LMMAX =           8
 
 Optimization of the real space projectors (new method)

 maximal supplied QI-value         = 18.90
 optimisation between [QCUT,QGAM] = [ 10.77, 21.73] = [ 32.49,132.25] Ry 
 Optimized for a Real-space Cutoff    1.38 Angstroem

   l    n(q)    QCUT    max X(q) W(low)/X(q) W(high)/X(q)  e(spline) 
   1      8    10.771     2.836    0.40E-04    0.29E-04    0.12E-06
   1      8    10.771     4.023    0.10E-03    0.48E-04    0.29E-06
   2      8    10.771    73.368    0.42E-03    0.97E-04    0.44E-06
   2      8    10.771    69.010    0.42E-03    0.99E-04    0.45E-06
   0      9    10.771    54.797    0.10E-03    0.56E-04    0.74E-07
   0      9    10.771    24.266    0.89E-04    0.49E-04    0.67E-07
 Optimization of the real space projectors (new method)

 maximal supplied QI-value         = 19.84
 optimisation between [QCUT,QGAM] = [ 10.71, 21.63] = [ 32.15,130.99] Ry 
 Optimized for a Real-space Cutoff    1.19 Angstroem

   l    n(q)    QCUT    max X(q) W(low)/X(q) W(high)/X(q)  e(spline) 
   0      8    10.715   187.594    0.41E-03    0.53E-04    0.66E-07
   0      8    10.715   164.243    0.41E-03    0.53E-04    0.65E-07
   1      7    10.715    67.533    0.19E-03    0.59E-03    0.68E-07
   1      7    10.715    50.729    0.19E-03    0.58E-03    0.67E-07
  PAW_PBE Ni_pv 06Sep2000               :
 energy of atom  1       EATOM=-3501.1230
 kinetic energy error for atom=    0.0925 (will be added to EATOM!!)
  PAW_PBE S 06Sep2000                   :
 energy of atom  2       EATOM= -276.8230
 kinetic energy error for atom=    0.0033 (will be added to EATOM!!)
 
 
 POSCAR: Type_048 Type_148                       
  positions in cartesian coordinates
  No initial velocities read in
 exchange correlation table for  LEXCH =        8
   RHO(1)=    0.500       N(1)  =     2000
   RHO(2)=  100.500       N(2)  =     4000
 


--------------------------------------------------------------------------------------------------------


 ion  position               nearest neighbor table
   1  0.261  0.479  0.295-  73 2.25  58 2.26  80 2.26  59 2.36  54 2.36   7 2.53  19 2.53
   2  0.355  0.385  0.426-  65 2.07  60 2.13  74 2.25  54 2.26  59 2.26   8 2.53  20 2.53
   3  0.031  0.221  0.089-  63 2.04  64 2.13  55 2.22   4 2.39  81 2.39  29 2.51
   4  0.167  0.073  0.165-  55 2.15  64 2.25  81 2.26  56 2.36  82 2.36   3 2.39  36 2.53  30 2.53

   5  0.183  0.319  0.040-  55 2.10  57 2.14  51 2.20   6 2.31  37 2.47
   6  0.274  0.333  0.130-  51 2.03  55 2.16  57 2.26   5 2.31  52 2.36  58 2.36  11 2.53  27 2.53

   7  0.368  0.239  0.261-  56 2.25  58 2.26  52 2.26  59 2.36  61 2.36   1 2.53  19 2.53
   8  0.462  0.145  0.391-  60 2.07  78 2.25  59 2.26  61 2.26  62 2.36  15 2.42   2 2.53  20 2.53

   9  0.000  0.372  0.261-  58 2.25  64 2.26  92 2.26  49 2.36  66 2.36  17 2.53  12 2.53
  10  0.094  0.278  0.391-  53 2.04  50 2.17  59 2.25  49 2.26  66 2.26  13 2.53  18 2.53
  11  0.406  0.465  0.130-  69 2.07  79 2.26  52 2.36  80 2.36  51 2.45  27 2.53   6 2.53
  12  0.761  0.479  0.295-  85 2.25  70 2.26  92 2.26  71 2.36  66 2.36  17 2.53   9 2.53
  13  0.855  0.385  0.426-  53 2.09  72 2.09  86 2.25  66 2.26  71 2.26  18 2.53  10 2.53
  14  0.667  0.073  0.165-  93 2.07  67 2.07  52 2.25  68 2.36  94 2.36  48 2.53  42 2.53
  15  0.520  0.065  0.492-  60 2.03  62 2.03  89 2.07   8 2.42
  16  0.774  0.333  0.130-  63 2.05  69 2.09  67 2.11  64 2.36  70 2.36  22 2.53  40 2.53
  17  0.868  0.239  0.261-  68 2.25  70 2.26  64 2.26  71 2.36  49 2.36  12 2.53   9 2.53
  18  0.962  0.145  0.391-  72 2.04  50 2.17  90 2.25  71 2.26  49 2.26  13 2.53  10 2.53
  19  0.500  0.372  0.261-  70 2.25  52 2.26  80 2.26  61 2.36  54 2.36   7 2.53   1 2.53
  20  0.594  0.278  0.391-  65 2.24  71 2.25  61 2.26  54 2.26  62 2.36  21 2.39   2 2.53   8 2.53

  21  0.715  0.210  0.482-  72 2.00  65 2.04  62 2.07  20 2.39
  22  0.906  0.465  0.130-  63 2.05  91 2.09  57 2.25  64 2.36  92 2.36  40 2.53  16 2.53
  23  0.261  0.979  0.295-  49 2.25  82 2.26  56 2.26  83 2.36  78 2.36  31 2.53  45 2.53
  24  0.355  0.885  0.426-  50 2.20  78 2.26  83 2.26  84 2.36  89 2.36  32 2.53  46 2.53
  25  0.541  0.699  0.504-  84 2.00  89 2.00  86 2.04  47 2.47  41 2.47
  26  0.033  0.719  0.090-  87 2.03  88 2.12  79 2.21  27 2.36  57 2.37  37 2.53
  27  0.167  0.573  0.165-  88 2.25  79 2.26  57 2.26  26 2.36  80 2.36  58 2.36  11 2.53   6 2.53

  28  0.029  0.525  0.482-  53 2.00  96 2.04  74 2.07  44 2.39
  29  0.228  0.017  0.053-  75 2.01  81 2.04  55 2.08   3 2.51  36 2.53
  30  0.274  0.833  0.130-  75 2.05  79 2.25  81 2.26  76 2.36  82 2.36  36 2.53   4 2.53
  31  0.368  0.739  0.261-  80 2.25  82 2.26  76 2.26  83 2.36  85 2.36  23 2.53  45 2.53
  32  0.462  0.645  0.391-  54 2.25  83 2.26  85 2.26  41 2.33  84 2.36  86 2.36  24 2.53  46 2.53

  33  0.000  0.872  0.261-  82 2.25  88 2.26  68 2.26  73 2.36  90 2.36  43 2.53  38 2.53
  34  0.094  0.778  0.391-  77 2.07  83 2.25  73 2.26  90 2.26  74 2.36  35 2.42  39 2.53  44 2.53

  35  0.175  0.719  0.492-  77 2.03  74 2.03  84 2.07  34 2.42
  36  0.406  0.965  0.130-  75 2.05  93 2.10  55 2.25  76 2.36  56 2.36  29 2.53   4 2.53  30 2.53

  37  0.227  0.515  0.049-  51 2.01  79 2.02  57 2.06   5 2.47  26 2.53
  38  0.761  0.979  0.295-  61 2.25  94 2.26  68 2.26  95 2.36  90 2.36  43 2.53  33 2.53
  39  0.855  0.885  0.426-  96 2.07  77 2.13  62 2.25  90 2.26  95 2.26  44 2.53  34 2.53
  40  0.667  0.573  0.165-  91 2.07  69 2.08  76 2.25  92 2.36  70 2.36  22 2.53  16 2.53
  41  0.533  0.494  0.469-  65 2.01  86 2.15  32 2.33  84 2.35  25 2.47
  42  0.774  0.833  0.130-  87 2.05  93 2.08  91 2.11  88 2.36  94 2.36  48 2.53  14 2.53
  43  0.868  0.739  0.261-  92 2.25  94 2.26  88 2.26  95 2.36  73 2.36  38 2.53  33 2.53
  44  0.962  0.645  0.391-  96 2.24  66 2.25  95 2.26  73 2.26  74 2.36  28 2.39  39 2.53  34 2.53

  45  0.500  0.872  0.261-  94 2.25  76 2.26  56 2.26  85 2.36  78 2.36  31 2.53  23 2.53
  46  0.594  0.778  0.391-  95 2.25  85 2.26  78 2.26  47 2.33  89 2.36  86 2.36  24 2.53  32 2.53

  47  0.746  0.707  0.469-  96 2.01  86 2.15  46 2.33  89 2.35  25 2.47
  48  0.906  0.965  0.130-  87 2.05  67 2.08  81 2.25  88 2.36  68 2.36  14 2.53  42 2.53
  49  0.073  0.167  0.311-  23 2.25  10 2.26  18 2.26   9 2.36  17 2.36  50 2.62
  50  0.170  0.070  0.416-  10 2.17  18 2.17  24 2.20  49 2.62
  51  0.373  0.328  0.054-  37 2.01   6 2.03   5 2.20  11 2.45
  52  0.479  0.261  0.181-  14 2.25   7 2.26  19 2.26  11 2.36   6 2.36
  53  0.026  0.349  0.474-  28 2.00  10 2.04  13 2.09  72 2.60
  54  0.436  0.472  0.355-  32 2.25   2 2.26  20 2.26   1 2.36  19 2.36
  55  0.245  0.164  0.103-  29 2.08   5 2.10   4 2.15   6 2.16   3 2.22  36 2.25
  56  0.342  0.066  0.225-   7 2.25  23 2.26  45 2.26   4 2.36  36 2.36
  57  0.080  0.491  0.094-  37 2.06   5 2.14  22 2.25   6 2.26  27 2.26  26 2.37
  58  0.174  0.397  0.225-   9 2.25   1 2.26   7 2.26   6 2.36  27 2.36
  59  0.268  0.303  0.355-  10 2.25   8 2.26   2 2.26   7 2.36   1 2.36  60 2.68
  60  0.346  0.218  0.466-  15 2.03   8 2.07   2 2.13  59 2.68  65 2.70
  61  0.573  0.167  0.311-  38 2.25  20 2.26   8 2.26  19 2.36   7 2.36
  62  0.667  0.073  0.442-  15 2.03  21 2.07  39 2.25  20 2.36   8 2.36  65 2.76
  63  0.862  0.378  0.060-   3 2.04  16 2.05  22 2.05
  64  0.979  0.261  0.181-   3 2.13   4 2.25  17 2.26   9 2.26  22 2.36  16 2.36
  65  0.514  0.327  0.484-  41 2.01  21 2.04   2 2.07  20 2.24  60 2.70  62 2.76
  66  0.936  0.472  0.355-  44 2.25  13 2.26  10 2.26  12 2.36   9 2.36
  67  0.760  0.157  0.112-  14 2.07  48 2.08  16 2.11  68 2.74
  68  0.842  0.066  0.225-  17 2.25  38 2.26  33 2.26  14 2.36  48 2.36  67 2.74
  69  0.581  0.479  0.114-  11 2.07  40 2.08  16 2.09  70 2.71
  70  0.674  0.397  0.225-  19 2.25  12 2.26  17 2.26  16 2.36  40 2.36  69 2.71
  71  0.768  0.303  0.355-  20 2.25  18 2.26  13 2.26  17 2.36  12 2.36
  72  0.890  0.214  0.474-  21 2.00  18 2.04  13 2.09  53 2.60
  73  0.073  0.667  0.311-   1 2.25  34 2.26  44 2.26  33 2.36  43 2.36
  74  0.167  0.573  0.442-  35 2.03  28 2.07   2 2.25  34 2.36  44 2.36  96 2.76
  75  0.394  0.845  0.064-  29 2.01  30 2.05  36 2.05
  76  0.479  0.761  0.181-  40 2.25  31 2.26  45 2.26  36 2.36  30 2.36
  77  0.022  0.893  0.466-  35 2.03  34 2.07  39 2.13  90 2.68  96 2.70
  78  0.436  0.972  0.355-   8 2.25  24 2.26  46 2.26  23 2.36  45 2.36
  79  0.248  0.660  0.094-  37 2.02  26 2.21  30 2.25  27 2.26  11 2.26
  80  0.342  0.566  0.225-  31 2.25   1 2.26  19 2.26  27 2.36  11 2.36
  81  0.080  0.991  0.094-  29 2.04  48 2.25  30 2.26   4 2.26   3 2.39
  82  0.174  0.897  0.225-  33 2.25  23 2.26  31 2.26  30 2.36   4 2.36
  83  0.268  0.803  0.355-  34 2.25  32 2.26  24 2.26  31 2.36  23 2.36
  84  0.362  0.709  0.486-  25 2.00  35 2.07  41 2.35  32 2.36  24 2.36
  85  0.573  0.667  0.311-  12 2.25  46 2.26  32 2.26  45 2.36  31 2.36
  86  0.667  0.573  0.442-  25 2.04  41 2.15  47 2.15  13 2.25  46 2.36  32 2.36
  87  0.866  0.874  0.060-  26 2.03  48 2.05  42 2.05
  88  0.979  0.761  0.181-  26 2.12  27 2.25  43 2.26  33 2.26  48 2.36  42 2.36
  89  0.530  0.878  0.486-  25 2.00  15 2.07  47 2.35  46 2.36  24 2.36
  90  0.936  0.972  0.355-  18 2.25  39 2.26  34 2.26  38 2.36  33 2.36  77 2.68
  91  0.759  0.657  0.112-  40 2.07  22 2.09  42 2.11  92 2.74
  92  0.842  0.566  0.225-  43 2.25  12 2.26   9 2.26  40 2.36  22 2.36  91 2.74
  93  0.583  0.980  0.113-  14 2.07  42 2.08  36 2.10  94 2.73
  94  0.674  0.897  0.225-  45 2.25  38 2.26  43 2.26  42 2.36  14 2.36  93 2.73
  95  0.768  0.803  0.355-  46 2.25  44 2.26  39 2.26  43 2.36  38 2.36
  96  0.913  0.725  0.484-  47 2.01  28 2.04  39 2.07  44 2.24  77 2.70  74 2.76
 
  LATTYP: Found a base centered orthorhombic cell.
 ALAT       =    11.8257374459
 B/A-ratio  =     1.6199260857
 C/A-ratio  =     1.9043172636
  
  Lattice vectors:
  
 A1 = (  11.2564630382,   0.0000000000,   0.0000000000)
 A2 = (  -5.0445621212, -10.0628203371,   0.0000000000)
 A3 = (   0.0000000000,   0.0000000000, -22.5199559732)


Analysis of symmetry for initial positions (statically):
=====================================================================
 Subroutine PRICEL returns:
 Original cell was already a primitive cell.
 

 Routine SETGRP: Setting up the symmetry group for a 
 base centered orthorhombic supercell.


 Subroutine GETGRP returns: Found  1 space group operations
 (whereof  1 operations were pure point group operations)
 out of a pool of  8 trial point group operations.


The static configuration has the point symmetry C_1 .


Analysis of symmetry for dynamics (positions and initial velocities):
=====================================================================
 Subroutine PRICEL returns:
 Original cell was already a primitive cell.
 

 Routine SETGRP: Setting up the symmetry group for a 
 base centered orthorhombic supercell.


 Subroutine GETGRP returns: Found  1 space group operations
 (whereof  1 operations were pure point group operations)
 out of a pool of  8 trial point group operations.


The dynamic configuration has the point symmetry C_1 .


 Subroutine INISYM returns: Found  1 space group operations
 (whereof  1 operations are pure point group operations),
 and found     1 'primitive' translations

 
 
 KPOINTS: gamma-point-only calculation. no periodi

Automatic generation of k-mesh.
Space group operators:
 irot       det(A)        alpha          n_x          n_y          n_z        tau_x        tau_y        tau_z
    1     1.000000     0.000000     1.000000     0.000000     0.000000     0.000000     0.000000     0.000000
 
 Subroutine IBZKPT returns following result:
 ===========================================
 
 Found      1 irreducible k-points:
 
 Following reciprocal coordinates:
            Coordinates               Weight
  0.000000  0.000000  0.000000      1.000000
 
 Following cartesian coordinates:
            Coordinates               Weight
  0.000000  0.000000  0.000000      1.000000
 


--------------------------------------------------------------------------------------------------------




 Dimension of arrays:
   k-points           NKPTS =      1   k-points in BZ     NKDIM =      1   number of bands    NBANDS=    634
   number of dos      NEDOS =    301   number of ions     NIONS =     96
   non local maximal  LDIM  =      6   non local SUM 2l+1 LMDIM =     18
   total plane-waves  NPLWV = 432000
   max r-space proj   IRMAX =   1917   max aug-charges    IRDMAX=   5534
   dimension x,y,z NGX =    60 NGY =   60 NGZ =  120
   dimension x,y,z NGXF=   120 NGYF=  120 NGZF=  240
   support grid    NGXF=   120 NGYF=  120 NGZF=  240
   ions per type =              48  48
   NGX,Y,Z   is equivalent  to a cutoff of   8.86,  8.86,  8.86 a.u.
   NGXF,Y,Z  is equivalent  to a cutoff of  17.72, 17.72, 17.72 a.u.

 SYSTEM =  "Millerite NiS"                         
 POSCAR =  Type_048 Type_148                       

 Startparameter for this run:
   NWRITE =      2    write-flag & timer
   PREC   = normal    normal or accurate (medium, high low for compatibility)
   ISTART =      0    job   : 0-new  1-cont  2-samecut
   ICHARG =      2    charge: 1-file 2-atom 10-const
   ISPIN  =      1    spin polarized calculation?
   LNONCOLLINEAR =      F non collinear calculations
   LSORBIT =      F    spin-orbit coupling
   INIWAV =      1    electr: 0-lowe 1-rand  2-diag
   LASPH  =      F    aspherical Exc in radial PAW
   METAGGA=      F    non-selfconsistent MetaGGA calc.

 Electronic Relaxation 1
   ENCUT  =  450.0 eV  33.07 Ry    5.75 a.u.  19.47 19.47 38.95*2*pi/ulx,y,z
   ENINI  =  450.0     initial cutoff
   ENAUG  =  703.4 eV  augmentation charge cutoff
   NELM   =    100;   NELMIN=  2; NELMDL= -5     # of ELM steps 
   EDIFF  = 0.1E-03   stopping-criterion for ELM
   LREAL  =      T    real-space projection
   NLSPLINE    = F    spline interpolate recip. space projectors
   LCOMPAT=      F    compatible to vasp.4.4
   GGA_COMPAT  = T    GGA compatible to vasp.4.4-vasp.4.6
   LMAXPAW     = -100 max onsite density
   LMAXMIX     =    2 max onsite mixed and CHGCAR
   VOSKOWN=      0    Vosko Wilk Nusair interpolation
   ROPT   =   -0.00050  -0.00050
 Ionic relaxation
   EDIFFG = 0.1E-02   stopping-criterion for IOM
   NSW    =      0    number of steps for IOM
   NBLOCK =      1;   KBLOCK =      1    inner block; outer block 
   IBRION =     -1    ionic relax: 0-MD 1-quasi-New 2-CG
   NFREE  =      0    steps in history (QN), initial steepest desc. (CG)
   ISIF   =      2    stress and relaxation
   IWAVPR =     10    prediction:  0-non 1-charg 2-wave 3-comb
   ISYM   =      2    0-nonsym 1-usesym 2-fastsym
   LCORR  =      T    Harris-Foulkes like correction to forces

   POTIM  = 0.5000    time-step for ionic-motion
   TEIN   =    0.0    initial temperature
   TEBEG  =    0.0;   TEEND  =   0.0 temperature during run
   SMASS  =  -3.00    Nose mass-parameter (am)
   estimated Nose-frequenzy (Omega)   =  0.10E-29 period in steps =****** mass=  -0.290E-26a.u.
   SCALEE = 1.0000    scale energy and forces
   NPACO  =    256;   APACO  = 16.0  distance and # of slots for P.C.
   PSTRESS=    0.0 pullay stress

  Mass of Ions in am
   POMASS =  58.69 32.07
  Ionic Valenz
   ZVAL   =  16.00  6.00
  Atomic Wigner-Seitz radii
   RWIGS  =  -1.00 -1.00
  virtual crystal weights 
   VCA    =   1.00  1.00
   NELECT =    1056.0000    total number of electrons
   NUPDOWN=      -1.0000    fix difference up-down

 DOS related values:
   EMIN   =  10.00;   EMAX   =-10.00  energy-range for DOS
   EFERMI =   0.00
   ISMEAR =     0;   SIGMA  =   0.20  broadening in eV -4-tet -1-fermi 0-gaus

 Electronic relaxation 2 (details)
   IALGO  =     38    algorithm
   LDIAG  =      T    sub-space diagonalisation (order eigenvalues)
   LSUBROT=      F    optimize rotation matrix (better conditioning)
   TURBO    =      0    0=normal 1=particle mesh
   IRESTART =      0    0=no restart 2=restart with 2 vectors
   NREBOOT  =      0    no. of reboots
   NMIN     =      0    reboot dimension
   EREF     =   0.00    reference energy to select bands
   IMIX   =      4    mixing-type and parameters
     AMIX     =   0.40;   BMIX     =  1.00
     AMIX_MAG =   1.60;   BMIX_MAG =  1.00
     AMIN     =   0.10
     WC   =   100.;   INIMIX=   1;  MIXPRE=   1;  MAXMIX= -45

 Intra band minimization:
   WEIMIN = 0.0000     energy-eigenvalue tresh-hold
   EBREAK =  0.39E-07  absolut break condition
   DEPER  =   0.30     relativ break condition  

   TIME   =   0.40     timestep for ELM

  volume/ion in A,a.u.               =      26.57       179.31
  Fermi-wavevector in a.u.,A,eV,Ry     =   1.220112  2.305678 20.254633  1.488674
  Thomas-Fermi vector in A             =   2.355341
 
 Write flags
   LWAVE        =      F    write WAVECAR
   LDOWNSAMPLE  =      F    k-point downsampling of WAVECAR
   LCHARG       =      F    write CHGCAR
   LVTOT        =      F    write LOCPOT, total local potential
   LVHAR        =      F    write LOCPOT, Hartree potential only
   LELF         =      F    write electronic localiz. function (ELF)
   LORBIT       =      0    0 simple, 1 ext, 2 COOP (PROOUT), +10 PAW based schemes


 Dipole corrections
   LMONO  =      F    monopole corrections only (constant potential shift)
   LDIPOL =      F    correct potential (dipole corrections)
   IDIPOL =      0    1-x, 2-y, 3-z, 4-all directions 
   EPSILON=  1.0000000 bulk dielectric constant

 Exchange correlation treatment:
   GGA     =    --    GGA type
   LEXCH   =     8    internal setting for exchange type
   VOSKOWN=      0    Vosko Wilk Nusair interpolation
   LHFCALC =     F    Hartree Fock is set to
   LHFONE  =     F    Hartree Fock one center treatment
   AEXX    =    0.0000 exact exchange contribution

 Linear response parameters
   LEPSILON=     F    determine dielectric tensor
   LRPA    =     F    only Hartree local field effects (RPA)
   LNABLA  =     F    use nabla operator in PAW spheres
   LVEL    =     F    velocity operator in full k-point grid
   LINTERFAST=   F  fast interpolation
   KINTER  =     0    interpolate to denser k-point grid
   CSHIFT  =0.1000    complex shift for real part using Kramers Kronig
   OMEGAMAX=  -1.0    maximum frequency
   DEG_THRESHOLD= 0.2000000E-02 threshold for treating states as degnerate
   RTIME   =   -0.100 relaxation time in fs
  (WPLASMAI=    0.000 imaginary part of plasma frequency in eV, 0.658/RTIME)
   DFIELD  = 0.0000000 0.0000000 0.0000000 field for delta impulse in time
 
 Orbital magnetization related:
   ORBITALMAG=     F  switch on orbital magnetization
   LCHIMAG   =     F  perturbation theory with respect to B field
   DQ        =  0.001000  dq finite difference perturbation B field
   LLRAUG    =     F  two centre corrections for induced B field



--------------------------------------------------------------------------------------------------------


 Static calculation
 charge density and potential will be updated during run
 non-spin polarized calculation
 Variant of blocked Davidson
 Davidson routine will perform the subspace rotation
 perform sub-space diagonalisation
    after iterative eigenvector-optimisation
 modified Broyden-mixing scheme, WC =      100.0
 initial mixing is a Kerker type mixing with AMIX =  0.4000 and BMIX =      1.0000
 Hartree-type preconditioning will be used
 using additional bands          106
 real space projection scheme for non local part
 use partial core corrections
 calculate Harris-corrections to forces 
   (improved forces if not selfconsistent)
 use gradient corrections 
 use of overlap-Matrix (Vanderbilt PP)
 Gauss-broadening in eV      SIGMA  =   0.20


--------------------------------------------------------------------------------------------------------


  energy-cutoff  :      450.00
  volume of cell :     2550.88
      direct lattice vectors                 reciprocal lattice vectors
    11.256463038  0.000000000  0.000000000     0.088837852 -0.044535036  0.000000000
     5.044562121 10.062820337  0.000000000     0.000000000  0.099375718  0.000000000
     0.000000000  0.000000000 22.519955973     0.000000000  0.000000000  0.044405060

  length of vectors
    11.256463038 11.256463038 22.519955973     0.099375718  0.099375718  0.044405060


 
 k-points in units of 2pi/SCALE and weight: gamma-point-only calculation. no periodi
   0.00000000  0.00000000  0.00000000       1.000
 
 k-points in reciprocal lattice and weights: gamma-point-only calculation. no periodi
   0.00000000  0.00000000  0.00000000       1.000
 
 position of ions in fractional coordinates (direct lattice) 
   0.26092069  0.47878037  0.29519774
   0.35488056  0.38482050  0.42557357
   0.03093865  0.22127911  0.08948917
   0.16696082  0.07274025  0.16482191
   0.18331370  0.31922481  0.04003714
   0.27423906  0.33335901  0.13037583
   0.36819893  0.23939914  0.26075166
   0.46215879  0.14543927  0.39112749
   0.00030194  0.37150214  0.26075166
   0.09426180  0.27754227  0.39112749
   0.40634206  0.46546200  0.13037583
   0.76092069  0.47878037  0.29519774
   0.85488056  0.38482050  0.42557357
   0.66696082  0.07274025  0.16482191
   0.52027377  0.06497294  0.49184061
   0.77423906  0.33335901  0.13037583
   0.86819893  0.23939914  0.26075166
   0.96215879  0.14543927  0.39112749
   0.50030194  0.37150214  0.26075166
   0.59426180  0.27754227  0.39112749
   0.71488211  0.21047130  0.48247009
   0.90634206  0.46546200  0.13037583
   0.26092069  0.97878037  0.29519774
   0.35488056  0.88482051  0.42557357
   0.54065945  0.69904046  0.50372710
   0.03321010  0.71889771  0.09025427
   0.16696083  0.57274025  0.16482191
   0.02923167  0.52482306  0.48247341
   0.22801841  0.01741270  0.05273381
   0.27423906  0.83335901  0.13037583
   0.36819893  0.73939914  0.26075166
   0.46215879  0.64543927  0.39112749
   0.00030194  0.87150214  0.26075166
   0.09426180  0.77754227  0.39112749
   0.17472873  0.71942645  0.49184123
   0.40634206  0.96546200  0.13037583
   0.22739260  0.51499793  0.04916168
   0.76092069  0.97878037  0.29519774
   0.85488056  0.88482051  0.42557357
   0.66696083  0.57274025  0.16482191
   0.53295342  0.49393701  0.46917736
   0.77423906  0.83335901  0.13037583
   0.86819893  0.73939914  0.26075166
   0.96215879  0.64543927  0.39112749
   0.50030194  0.87150214  0.26075166
   0.59426180  0.77754227  0.39112749
   0.74575557  0.70675523  0.46918087
   0.90634206  0.96546200  0.13037583
   0.07287763  0.16682345  0.31134757
   0.16951992  0.07018134  0.41579466
   0.37284637  0.32790739  0.05402006
   0.47891775  0.26078331  0.18097174
   0.02615111  0.34932525  0.47392584
   0.43627354  0.47164252  0.35520991
   0.24529631  0.16429103  0.10267756
   0.34231367  0.06560240  0.22483408
   0.08013881  0.49134726  0.09445824
   0.17409868  0.39738739  0.22483408
   0.26805854  0.30342752  0.35520991
   0.34639595  0.21756003  0.46621950
   0.57287763  0.16682345  0.31134757
   0.66683750  0.07286358  0.44172340
   0.86178220  0.37754507  0.05952737
   0.97891775  0.26078331  0.18097174
   0.51441060  0.32652977  0.48355639
   0.93627354  0.47164252  0.35520991
   0.75989434  0.15665560  0.11215938
   0.84231367  0.06560240  0.22483408
   0.58053433  0.47876952  0.11362562
   0.67409868  0.39738739  0.22483408
   0.76805854  0.30342752  0.35520991
   0.89038181  0.21354935  0.47392665
   0.07287763  0.66682345  0.31134757
   0.16683750  0.57286358  0.44172340
   0.39371785  0.84543053  0.06447122
   0.47891775  0.76078331  0.18097174
   0.02214148  0.89330377  0.46621978
   0.43627354  0.97164252  0.35520991
   0.24835381  0.65956227  0.09445824
   0.34231367  0.56560240  0.22483408
   0.08013881  0.99134726  0.09445824
   0.17409868  0.89738739  0.22483408
   0.26805854  0.80342752  0.35520991
   0.36201841  0.70946766  0.48558574
   0.57287763  0.66682345  0.31134757
   0.66683750  0.57286358  0.44172340
   0.86557906  0.87414646  0.06022397
   0.97891775  0.76078331  0.18097174
   0.53023342  0.87768265  0.48558574
   0.93627354  0.97164252  0.35520991
   0.75919502  0.65709336  0.11224602
   0.84231367  0.56560240  0.22483408
   0.58268188  0.97950541  0.11264794
   0.67409868  0.89738739  0.22483408
   0.76805854  0.80342752  0.35520991
   0.91316723  0.72529217  0.48355634
 
 position of ions in cartesian coordinates  (Angst):
   5.35228144  4.81788086  6.64784004
   5.93595083  3.87237960  9.58389801
   1.46451597  2.22669194  2.01529213
   2.24633108  0.73197210  3.71178209
   3.67381321  3.21230188  0.90163468
   4.76861206  3.35453179  2.93605795
   5.35228145  2.40903053  5.87211593
   5.93595082  1.46352927  8.80817388
   1.87746436  3.73835925  5.87211593
   2.46113373  2.79285799  8.80817388
   6.92202632  4.68386050  2.93605795
  10.98051296  4.81788086  6.64784004
  11.56418235  3.87237960  9.58389801
   7.87456260  0.73197210  3.71178209
   6.18420249  0.65381100 11.07622896
  10.39684358  3.35453179  2.93605795
  10.98051297  2.40903053  5.87211593
  11.56418234  1.46352927  8.80817388
   7.50569588  3.73835925  5.87211593
   8.08936525  2.79285799  8.80817388
   9.10877953  2.11793485 10.86520521
  12.55025784  4.68386050  2.93605795
   7.87456250  9.84929103  6.64784004
   8.45823189  8.90378977  9.58389801
   9.61226613  7.03431853 11.34391208
   4.00035243  7.23413847  2.03252210
   4.76861214  5.76338227  3.71178209
   2.97654769  5.28120014 10.86528000
   2.65452022  0.17522091  1.18756298
   7.29089312  8.38594195  2.93605795
   7.87456251  7.44044070  5.87211593
   8.45823188  6.49493944  8.80817388
   4.39974542  8.76976942  5.87211593
   4.98341479  7.82426816  8.80817388
   5.59601885  7.23945908 11.07624283
   9.44430738  9.71527067  2.93605795
   5.15757548  5.18233168  1.10711892
  13.50279402  9.84929103  6.64784004
  14.08646341  8.90378977  9.58389801
  10.39684366  5.76338227  3.71178209
   8.49086637  4.97039937 10.56585338
  12.91912464  8.38594195  2.93605795
  13.50279403  7.44044070  5.87211593
  14.08646340  6.49493944  8.80817388
  10.02797694  8.76976942  5.87211593
  10.61164631  7.82426816  8.80817388
  11.95984063  7.11195086 10.56593264
  15.07253890  9.71527067  2.93605795
   1.66189560  1.67871438  7.01153346
   2.26222892  0.70622226  9.36367739
   5.85108061  3.29967315  1.21652935
   6.70645757  2.62421563  4.07547550
   2.05656194  3.51519725 10.67278894
   7.29012695  4.74605393  7.99931144
   3.58994519  1.65323115  2.31229414
   4.18417659  0.66014516  5.06325349
   3.38071133  4.94433917  2.12719552
   3.96438071  3.99883791  5.06325349
   4.54805009  3.05333666  7.99931144
   4.99668836  2.18926754 10.49924271
   7.29012712  1.67871438  7.01153346
   7.87379650  0.73321311  9.94759143
  11.60516905  3.79916824  1.34055364
  12.33468909  2.62421563  4.07547550
   7.43764365  3.28581042 10.88966870
  12.91835847  4.74605393  7.99931144
   9.34398145  1.57639713  2.52582439
   9.81240811  0.66014516  5.06325349
   8.94994586  4.81777165  2.55884390
   9.59261223  3.99883791  5.06325349
  10.17628161  3.05333666  7.99931144
  11.09981288  2.14890873 10.67280721
   4.18417666  6.71012454  7.01153346
   4.76784605  5.76462328  9.94759143
   8.69669730  8.50741557  1.45188914
   9.22873863  7.65562579  4.07547550
   4.75556105  8.98915532 10.49924893
   9.81240801  9.77746410  7.99931144
   6.12278826  6.63705658  2.12719552
   6.70645765  5.69155533  5.06325349
   5.90299239  9.97574934  2.12719552
   6.48666177  9.03024808  5.06325349
   7.07033115  8.08474683  7.99931144
   7.65400053  7.13924557 10.93536940
   9.81240818  6.71012454  7.01153346
  10.39607756  5.76462328  9.94759143
  14.15304484  8.79637878  1.35624110
  14.85697015  7.65562579  4.07547550
  10.39607755  8.83196284 10.93536940
  15.44063953  9.77746410  7.99931144
  11.86059890  6.61221242  2.52777541
  12.33468917  5.69155533  5.06325349
  11.50011297  9.85658692  2.53682660
  12.11489329  9.03024808  5.06325349
  12.69856267  8.08474683  7.99931144
  13.93781465  7.29848484 10.88966740
 


--------------------------------------------------------------------------------------------------------


 use parallel FFT for orbitals z direction half grid
 k-point  1 :   0.0000 0.0000 0.0000  plane waves:   27671

 maximum and minimum number of plane-waves per node :      4613     4610

 maximum number of plane-waves:     27671
 maximum index in each direction: 
   IXMAX=   19   IYMAX=   19   IZMAX=   38
   IXMIN=  -19   IYMIN=  -19   IZMIN=    0


 real space projection operators:
  total allocation   :      15706.47 KBytes
  max/ min on nodes  :       2637.12       2599.20


 parallel 3D FFT for wavefunctions:
    minimum data exchange during FFTs selected (reduces bandwidth)
 parallel 3D FFT for charge:
    minimum data exchange during FFTs selected (reduces bandwidth)


 total amount of memory used by VASP MPI-rank0    87631. kBytes
=======================================================================

   base      :      30000. kBytes
   nonlr-proj:       3201. kBytes
   fftplans  :      11274. kBytes
   grid      :      19113. kBytes
   one-center:        124. kBytes
   wavefun   :      23919. kBytes
 
     INWAV:  cpu time    0.0000: real time    0.0000
 Broyden mixing: mesh for mixing (old mesh)
   NGX = 39   NGY = 39   NGZ = 77
  (NGX  =120   NGY  =120   NGZ  =240)
  gives a total of 117117 points

 initial charge density was supplied:
 charge density of overlapping atoms calculated
 number of electron    1056.0000000 magnetization 
 keeping initial charge density in first step


--------------------------------------------------------------------------------------------------------


 Maximum index for non-local projection operator          321
 Maximum index for augmentation-charges          493 (set IRDMAX)


--------------------------------------------------------------------------------------------------------


 First call to EWALD:  gamma=   0.130
 Maximum number of real-space cells 4x 4x 2
 Maximum number of reciprocal cells 2x 2x 4

    FEWALD:  cpu time    0.0120: real time    0.0120


--------------------------------------- Iteration      1(   1)  ---------------------------------------


    POTLOK:  cpu time    0.3714: real time    0.3715
    SETDIJ:  cpu time    0.0243: real time    0.0243
     EDDAV:  cpu time   13.4679: real time   13.4716
       DOS:  cpu time    0.0015: real time    0.0015
    --------------------------------------------
      LOOP:  cpu time   13.8652: real time   13.8689

 eigenvalue-minimisations  :  1540
 total energy-change (2. order) : 0.1339563E+05  (-0.6851584E+05)
 number of electron    1056.0000000 magnetization 
 augmentation part     1056.0000000 magnetization 

 Free energy of the ion-electron system (eV)
  ---------------------------------------------------
  alpha Z        PSCENC =      2592.50432107
  Ewald energy   TEWEN  =    337827.18255569
  -Hartree energ DENC   =   -501064.66688743
  -exchange      EXHF   =         0.00000000
  -V(xc)+E(xc)   XCENC  =      4904.56915952
  PAW double counting   =    150306.04444553  -156855.34918313
  entropy T*S    EENTRO =        -0.45363412
  eigenvalues    EBANDS =     -5651.01193457
  atomic energy  EATOM  =    181336.80673834
  Solvation  Ediel_sol  =         0.00000000
  ---------------------------------------------------
  free energy    TOTEN  =     13395.62558091 eV

  energy without entropy =    13396.07921503  energy(sigma->0) =    13395.85239797


--------------------------------------------------------------------------------------------------------




--------------------------------------- Iteration      1(   2)  ---------------------------------------


     EDDAV:  cpu time   12.1650: real time   12.1668
       DOS:  cpu time    0.0017: real time    0.0017
    --------------------------------------------
      LOOP:  cpu time   12.1667: real time   12.1685

 eigenvalue-minimisations  :  1342
 total energy-change (2. order) :-0.1255249E+05  (-0.1211383E+05)
 number of electron    1056.0000000 magnetization 
 augmentation part     1056.0000000 magnetization 

 Free energy of the ion-electron system (eV)
  ---------------------------------------------------
  alpha Z        PSCENC =      2592.50432107
  Ewald energy   TEWEN  =    337827.18255569
  -Hartree energ DENC   =   -501064.66688743
  -exchange      EXHF   =         0.00000000
  -V(xc)+E(xc)   XCENC  =      4904.56915952
  PAW double counting   =    150306.04444553  -156855.34918313
  entropy T*S    EENTRO =        -0.89558696
  eigenvalues    EBANDS =    -18203.05878020
  atomic energy  EATOM  =    181336.80673834
  Solvation  Ediel_sol  =         0.00000000
  ---------------------------------------------------
  free energy    TOTEN  =       843.13678244 eV

  energy without entropy =      844.03236940  energy(sigma->0) =      843.58457592


--------------------------------------------------------------------------------------------------------




--------------------------------------- Iteration      1(   3)  ---------------------------------------


     EDDAV:  cpu time   13.1371: real time   13.1422
       DOS:  cpu time    0.0016: real time    0.0016
    --------------------------------------------
      LOOP:  cpu time   13.1387: real time   13.1438

 eigenvalue-minimisations  :  1456
 total energy-change (2. order) :-0.1297168E+04  (-0.1229402E+04)
 number of electron    1056.0000000 magnetization 
 augmentation part     1056.0000000 magnetization 

 Free energy of the ion-electron system (eV)
  ---------------------------------------------------
  alpha Z        PSCENC =      2592.50432107
  Ewald energy   TEWEN  =    337827.18255569
  -Hartree energ DENC   =   -501064.66688743
  -exchange      EXHF   =         0.00000000
  -V(xc)+E(xc)   XCENC  =      4904.56915952
  PAW double counting   =    150306.04444553  -156855.34918313
  entropy T*S    EENTRO =        -1.31533640
  eigenvalues    EBANDS =    -19499.80668311
  atomic energy  EATOM  =    181336.80673834
  Solvation  Ediel_sol  =         0.00000000
  ---------------------------------------------------
  free energy    TOTEN  =      -454.03086991 eV

  energy without entropy =     -452.71553351  energy(sigma->0) =     -453.37320171


--------------------------------------------------------------------------------------------------------




--------------------------------------- Iteration      1(   4)  ---------------------------------------


     EDDAV:  cpu time   12.9386: real time   12.9456
       DOS:  cpu time    0.0016: real time    0.0016
    --------------------------------------------
      LOOP:  cpu time   12.9401: real time   12.9471

 eigenvalue-minimisations  :  1456
 total energy-change (2. order) :-0.8059587E+02  (-0.7970837E+02)
 number of electron    1056.0000000 magnetization 
 augmentation part     1056.0000000 magnetization 

 Free energy of the ion-electron system (eV)
  ---------------------------------------------------
  alpha Z        PSCENC =      2592.50432107
  Ewald energy   TEWEN  =    337827.18255569
  -Hartree energ DENC   =   -501064.66688743
  -exchange      EXHF   =         0.00000000
  -V(xc)+E(xc)   XCENC  =      4904.56915952
  PAW double counting   =    150306.04444553  -156855.34918313
  entropy T*S    EENTRO =        -1.35083688
  eigenvalues    EBANDS =    -19580.36705431
  atomic energy  EATOM  =    181336.80673834
  Solvation  Ediel_sol  =         0.00000000
  ---------------------------------------------------
  free energy    TOTEN  =      -534.62674159 eV

  energy without entropy =     -533.27590471  energy(sigma->0) =     -533.95132315


--------------------------------------------------------------------------------------------------------




--------------------------------------- Iteration      1(   5)  ---------------------------------------


     EDDAV:  cpu time   14.6637: real time   14.6731
       DOS:  cpu time    0.0018: real time    0.0018
    CHARGE:  cpu time    0.4080: real time    0.4080
    MIXING:  cpu time    0.0120: real time    0.0120
    --------------------------------------------
      LOOP:  cpu time   15.0855: real time   15.0949

 eigenvalue-minimisations  :  1680
 total energy-change (2. order) :-0.3145945E+01  (-0.3141771E+01)
 number of electron    1056.0000003 magnetization 
 augmentation part      382.0141627 magnetization 

 Broyden mixing:
  rms(total) = 0.10957E+02    rms(broyden)= 0.10944E+02
  rms(prec ) = 0.11308E+02
  weight for this iteration     100.00

 Free energy of the ion-electron system (eV)
  ---------------------------------------------------
  alpha Z        PSCENC =      2592.50432107
  Ewald energy   TEWEN  =    337827.18255569
  -Hartree energ DENC   =   -501064.66688743
  -exchange      EXHF   =         0.00000000
  -V(xc)+E(xc)   XCENC  =      4904.56915952
  PAW double counting   =    150306.04444553  -156855.34918313
  entropy T*S    EENTRO =        -1.35138901
  eigenvalues    EBANDS =    -19583.51244670
  atomic energy  EATOM  =    181336.80673834
  Solvation  Ediel_sol  =         0.00000000
  ---------------------------------------------------
  free energy    TOTEN  =      -537.77268611 eV

  energy without entropy =     -536.42129710  energy(sigma->0) =     -537.09699161


--------------------------------------------------------------------------------------------------------




--------------------------------------- Iteration      1(   6)  ---------------------------------------


    POTLOK:  cpu time    0.3571: real time    0.3574
    SETDIJ:  cpu time    0.0238: real time    0.0238
     EDDAV:  cpu time   14.1236: real time   14.1302
       DOS:  cpu time    0.0016: real time    0.0015
    CHARGE:  cpu time    0.3989: real time    0.3989
    MIXING:  cpu time    0.0116: real time    0.0117
    --------------------------------------------
      LOOP:  cpu time   14.9165: real time   14.9235

 eigenvalue-minimisations  :  1592
 total energy-change (2. order) :-0.1050289E+03  (-0.1245919E+03)
 number of electron    1055.9999927 magnetization 
 augmentation part      456.6621138 magnetization 

 Broyden mixing:
  rms(total) = 0.19212E+02    rms(broyden)= 0.19208E+02
  rms(prec ) = 0.20058E+02
  weight for this iteration     100.00

 eigenvalues of (default mixing * dielectric matrix)
  average eigenvalue GAMMA=   0.2189
  0.2189

 Free energy of the ion-electron system (eV)
  ---------------------------------------------------
  alpha Z        PSCENC =      2592.50432107
  Ewald energy   TEWEN  =    337827.18255569
  -Hartree energ DENC   =   -497351.29477018
  -exchange      EXHF   =         0.00000000
  -V(xc)+E(xc)   XCENC  =      4804.86940163
  PAW double counting   =    156161.09999337  -162400.23456410
  entropy T*S    EENTRO =        -1.18288530
  eigenvalues    EBANDS =    -23612.55240220
  atomic energy  EATOM  =    181336.80673834
  Solvation  Ediel_sol  =         0.00000000
  ---------------------------------------------------
  free energy    TOTEN  =      -642.80161167 eV

  energy without entropy =     -641.61872637  energy(sigma->0) =     -642.21016902


--------------------------------------------------------------------------------------------------------




--------------------------------------- Iteration      1(   7)  ---------------------------------------


    POTLOK:  cpu time    0.3548: real time    0.3548
    SETDIJ:  cpu time    0.0232: real time    0.0232
     EDDAV:  cpu time   12.9424: real time   12.9496
       DOS:  cpu time    0.0014: real time    0.0014
    CHARGE:  cpu time    0.3928: real time    0.3928
    MIXING:  cpu time    0.0129: real time    0.0129
    --------------------------------------------
      LOOP:  cpu time   13.7275: real time   13.7347

 eigenvalue-minimisations  :  1456
 total energy-change (2. order) : 0.1238635E+03  (-0.2735393E+02)
 number of electron    1056.0000072 magnetization 
 augmentation part      446.3856950 magnetization 

 Broyden mixing:
  rms(total) = 0.95581E+01    rms(broyden)= 0.95561E+01
  rms(prec ) = 0.10109E+02
  weight for this iteration     100.00

 eigenvalues of (default mixing * dielectric matrix)
  average eigenvalue GAMMA=   0.3953
  0.3953  0.3953

 Free energy of the ion-electron system (eV)
  ---------------------------------------------------
  alpha Z        PSCENC =      2592.50432107
  Ewald energy   TEWEN  =    337827.18255569
  -Hartree energ DENC   =   -498743.03955005
  -exchange      EXHF   =         0.00000000
  -V(xc)+E(xc)   XCENC  =      4832.88258142
  PAW double counting   =    161210.08735300  -167603.13489006
  entropy T*S    EENTRO =        -0.89087364
  eigenvalues    EBANDS =    -21971.33636148
  atomic energy  EATOM  =    181336.80673834
  Solvation  Ediel_sol  =         0.00000000
  ---------------------------------------------------
  free energy    TOTEN  =      -518.93812570 eV

  energy without entropy =     -518.04725206  energy(sigma->0) =     -518.49268888


--------------------------------------------------------------------------------------------------------




--------------------------------------- Iteration      1(   8)  ---------------------------------------


    POTLOK:  cpu time    0.3628: real time    0.3628
    SETDIJ:  cpu time    0.0232: real time    0.0232
     EDDAV:  cpu time   15.0573: real time   15.0630
       DOS:  cpu time    0.0016: real time    0.0016
    CHARGE:  cpu time    0.3837: real time    0.3837
    MIXING:  cpu time    0.0120: real time    0.0120
    --------------------------------------------
      LOOP:  cpu time   15.8405: real time   15.8462

 eigenvalue-minimisations  :  1728
 total energy-change (2. order) :-0.1591124E+03  (-0.2423139E+02)
 number of electron    1055.9999846 magnetization 
 augmentation part      408.8873768 magnetization 

 Broyden mixing:
  rms(total) = 0.20020E+02    rms(broyden)= 0.20018E+02
  rms(prec ) = 0.24695E+02
  weight for this iteration     100.00

 eigenvalues of (default mixing * dielectric matrix)
  average eigenvalue GAMMA=   0.3897
  0.5214  0.5214  0.1262

 Free energy of the ion-electron system (eV)
  ---------------------------------------------------
  alpha Z        PSCENC =      2592.50432107
  Ewald energy   TEWEN  =    337827.18255569
  -Hartree energ DENC   =   -499747.23688610
  -exchange      EXHF   =         0.00000000
  -V(xc)+E(xc)   XCENC  =      4866.71045629
  PAW double counting   =    168109.04473077  -174677.22511384
  entropy T*S    EENTRO =        -0.83899237
  eigenvalues    EBANDS =    -20984.99828682
  atomic energy  EATOM  =    181336.80673834
  Solvation  Ediel_sol  =         0.00000000
  ---------------------------------------------------
  free energy    TOTEN  =      -678.05047698 eV

  energy without entropy =     -677.21148461  energy(sigma->0) =     -677.63098079


--------------------------------------------------------------------------------------------------------




--------------------------------------- Iteration      1(   9)  ---------------------------------------


    POTLOK:  cpu time    0.3577: real time    0.3577
    SETDIJ:  cpu time    0.0235: real time    0.0235
     EDDAV:  cpu time   14.6513: real time   14.6611
       DOS:  cpu time    0.0014: real time    0.0014
    CHARGE:  cpu time    0.4022: real time    0.4022
    MIXING:  cpu time    0.0131: real time    0.0131
    --------------------------------------------
      LOOP:  cpu time   15.4492: real time   15.4590

 eigenvalue-minimisations  :  1672
 total energy-change (2. order) : 0.1461597E+03  (-0.2351517E+02)
 number of electron    1056.0000068 magnetization 
 augmentation part      410.9370029 magnetization 

 Broyden mixing:
  rms(total) = 0.10955E+02    rms(broyden)= 0.10948E+02
  rms(prec ) = 0.12163E+02
  weight for this iteration     100.00

 eigenvalues of (default mixing * dielectric matrix)
  average eigenvalue GAMMA=   0.4128
  0.8676  0.3955  0.2875  0.1006

 Free energy of the ion-electron system (eV)
  ---------------------------------------------------
  alpha Z        PSCENC =      2592.50432107
  Ewald energy   TEWEN  =    337827.18255569
  -Hartree energ DENC   =   -500037.03564618
  -exchange      EXHF   =         0.00000000
  -V(xc)+E(xc)   XCENC  =      4869.24078045
  PAW double counting   =    172167.79229533  -178781.50296090
  entropy T*S    EENTRO =        -1.08272425
  eigenvalues    EBANDS =    -20505.79611620
  atomic energy  EATOM  =    181336.80673834
  Solvation  Ediel_sol  =         0.00000000
  ---------------------------------------------------
  free energy    TOTEN  =      -531.89075665 eV

  energy without entropy =     -530.80803240  energy(sigma->0) =     -531.34939452


--------------------------------------------------------------------------------------------------------




--------------------------------------- Iteration      1(  10)  ---------------------------------------


    POTLOK:  cpu time    0.3542: real time    0.3544
    SETDIJ:  cpu time    0.0231: real time    0.0231
     EDDAV:  cpu time   15.1655: real time   15.1701
       DOS:  cpu time    0.0015: real time    0.0015
    CHARGE:  cpu time    0.3970: real time    0.3971
    MIXING:  cpu time    0.0154: real time    0.0154
    --------------------------------------------
      LOOP:  cpu time   15.9568: real time   15.9617

 eigenvalue-minimisations  :  1752
 total energy-change (2. order) : 0.6759138E+01  (-0.1466866E+02)
 number of electron    1056.0000051 magnetization 
 augmentation part      408.4632175 magnetization 

 Broyden mixing:
  rms(total) = 0.84449E+01    rms(broyden)= 0.84425E+01
  rms(prec ) = 0.90250E+01
  weight for this iteration     100.00

 eigenvalues of (default mixing * dielectric matrix)
  average eigenvalue GAMMA=   0.5253
  1.5795  0.3901  0.3901  0.1552  0.1117

 Free energy of the ion-electron system (eV)
  ---------------------------------------------------
  alpha Z        PSCENC =      2592.50432107
  Ewald energy   TEWEN  =    337827.18255569
  -Hartree energ DENC   =   -500158.16866271
  -exchange      EXHF   =         0.00000000
  -V(xc)+E(xc)   XCENC  =      4867.52832168
  PAW double counting   =    176584.91324201  -183230.65012591
  entropy T*S    EENTRO =        -1.08539364
  eigenvalues    EBANDS =    -20344.16261550
  atomic energy  EATOM  =    181336.80673834
  Solvation  Ediel_sol  =         0.00000000
  ---------------------------------------------------
  free energy    TOTEN  =      -525.13161897 eV

  energy without entropy =     -524.04622533  energy(sigma->0) =     -524.58892215


--------------------------------------------------------------------------------------------------------




--------------------------------------- Iteration      1(  11)  ---------------------------------------


    POTLOK:  cpu time    0.3559: real time    0.3562
    SETDIJ:  cpu time    0.0231: real time    0.0231
     EDDAV:  cpu time   14.6727: real time   14.6808
       DOS:  cpu time    0.0016: real time    0.0016
    CHARGE:  cpu time    0.3966: real time    0.3968
    MIXING:  cpu time    0.0136: real time    0.0136
    --------------------------------------------
      LOOP:  cpu time   15.4635: real time   15.4721

 eigenvalue-minimisations  :  1680
 total energy-change (2. order) : 0.1098007E+02  (-0.6924012E+01)
 number of electron    1056.0000141 magnetization 
 augmentation part      410.3207357 magnetization 

 Broyden mixing:
  rms(total) = 0.74928E+01    rms(broyden)= 0.74901E+01
  rms(prec ) = 0.88722E+01
  weight for this iteration     100.00

 eigenvalues of (default mixing * dielectric matrix)
  average eigenvalue GAMMA=   0.5554
  1.9710  0.3858  0.3858  0.2423  0.2423  0.1051

 Free energy of the ion-electron system (eV)
  ---------------------------------------------------
  alpha Z        PSCENC =      2592.50432107
  Ewald energy   TEWEN  =    337827.18255569
  -Hartree energ DENC   =   -500050.75366496
  -exchange      EXHF   =         0.00000000
  -V(xc)+E(xc)   XCENC  =      4865.13725424
  PAW double counting   =    183320.72921184  -190016.69537406
  entropy T*S    EENTRO =        -1.28869072
  eigenvalues    EBANDS =    -20387.77390018
  atomic energy  EATOM  =    181336.80673834
  Solvation  Ediel_sol  =         0.00000000
  ---------------------------------------------------
  free energy    TOTEN  =      -514.15154873 eV

  energy without entropy =     -512.86285801  energy(sigma->0) =     -513.50720337


--------------------------------------------------------------------------------------------------------




--------------------------------------- Iteration      1(  12)  ---------------------------------------


    POTLOK:  cpu time    0.3526: real time    0.3526
    SETDIJ:  cpu time    0.0231: real time    0.0231
     EDDAV:  cpu time   14.8177: real time   14.8225
       DOS:  cpu time    0.0014: real time    0.0014
    CHARGE:  cpu time    0.5330: real time    0.5330
    MIXING:  cpu time    0.0143: real time    0.0143
    --------------------------------------------
      LOOP:  cpu time   15.7422: real time   15.7470

 eigenvalue-minimisations  :  1704
 total energy-change (2. order) :-0.2694409E+02  (-0.1323434E+02)
 number of electron    1055.9999989 magnetization 
 augmentation part      410.3602918 magnetization 

 Broyden mixing:
  rms(total) = 0.10749E+02    rms(broyden)= 0.10745E+02
  rms(prec ) = 0.11954E+02
  weight for this iteration     100.00

 eigenvalues of (default mixing * dielectric matrix)
  average eigenvalue GAMMA=   0.5775
  2.3344  0.4326  0.4326  0.4150  0.2012  0.1043  0.1227

 Free energy of the ion-electron system (eV)
  ---------------------------------------------------
  alpha Z        PSCENC =      2592.50432107
  Ewald energy   TEWEN  =    337827.18255569
  -Hartree energ DENC   =   -500040.20748560
  -exchange      EXHF   =         0.00000000
  -V(xc)+E(xc)   XCENC  =      4861.48751287
  PAW double counting   =    186858.28593575  -193569.50881288
  entropy T*S    EENTRO =        -1.10317184
  eigenvalues    EBANDS =    -20406.54323536
  atomic energy  EATOM  =    181336.80673834
  Solvation  Ediel_sol  =         0.00000000
  ---------------------------------------------------
  free energy    TOTEN  =      -541.09564196 eV

  energy without entropy =     -539.99247012  energy(sigma->0) =     -540.54405604


--------------------------------------------------------------------------------------------------------




--------------------------------------- Iteration      1(  13)  ---------------------------------------


    POTLOK:  cpu time    0.3533: real time    0.3533
    SETDIJ:  cpu time    0.0232: real time    0.0232
     EDDAV:  cpu time   14.7478: real time   14.7522
       DOS:  cpu time    0.0015: real time    0.0015
    CHARGE:  cpu time    0.5442: real time    0.5442
    MIXING:  cpu time    0.0265: real time    0.0265
    --------------------------------------------
      LOOP:  cpu time   15.6965: real time   15.7010

 eigenvalue-minimisations  :  1728
 total energy-change (2. order) : 0.2136864E+02  (-0.7032913E+01)
 number of electron    1056.0000024 magnetization 
 augmentation part      415.9853114 magnetization 

 Broyden mixing:
  rms(total) = 0.81152E+01    rms(broyden)= 0.81131E+01
  rms(prec ) = 0.90139E+01
  weight for this iteration     100.00

 eigenvalues of (default mixing * dielectric matrix)
  average eigenvalue GAMMA=   0.5271
  2.3690  0.4382  0.4382  0.4106  0.2107  0.1036  0.1233  0.1233

 Free energy of the ion-electron system (eV)
  ---------------------------------------------------
  alpha Z        PSCENC =      2592.50432107
  Ewald energy   TEWEN  =    337827.18255569
  -Hartree energ DENC   =   -499846.53155849
  -exchange      EXHF   =         0.00000000
  -V(xc)+E(xc)   XCENC  =      4859.02490130
  PAW double counting   =    189636.86445089  -196362.38459057
  entropy T*S    EENTRO =        -1.24325351
  eigenvalues    EBANDS =    -20561.95056885
  atomic energy  EATOM  =    181336.80673834
  Solvation  Ediel_sol  =         0.00000000
  ---------------------------------------------------
  free energy    TOTEN  =      -519.72700413 eV

  energy without entropy =     -518.48375063  energy(sigma->0) =     -519.10537738


--------------------------------------------------------------------------------------------------------




--------------------------------------- Iteration      1(  14)  ---------------------------------------


    POTLOK:  cpu time    0.4071: real time    0.4072
    SETDIJ:  cpu time    0.0232: real time    0.0233
     EDDAV:  cpu time   14.6410: real time   14.6438
       DOS:  cpu time    0.0015: real time    0.0015
    CHARGE:  cpu time    0.3993: real time    0.3994
    MIXING:  cpu time    0.0163: real time    0.0163
    --------------------------------------------
      LOOP:  cpu time   15.4885: real time   15.4915

 eigenvalue-minimisations  :  1704
 total energy-change (2. order) : 0.2862570E+02  (-0.3210460E+01)
 number of electron    1056.0000041 magnetization 
 augmentation part      419.6050100 magnetization 

 Broyden mixing:
  rms(total) = 0.46020E+01    rms(broyden)= 0.46002E+01
  rms(prec ) = 0.50985E+01
  weight for this iteration     100.00

 eigenvalues of (default mixing * dielectric matrix)
  average eigenvalue GAMMA=   0.4856
  2.2313  0.4210  0.4210  0.4117  0.2287  0.2287  0.1989  0.1036  0.1256

 Free energy of the ion-electron system (eV)
  ---------------------------------------------------
  alpha Z        PSCENC =      2592.50432107
  Ewald energy   TEWEN  =    337827.18255569
  -Hartree energ DENC   =   -499839.22150896
  -exchange      EXHF   =         0.00000000
  -V(xc)+E(xc)   XCENC  =      4859.26009288
  PAW double counting   =    190100.31678960  -196829.78905134
  entropy T*S    EENTRO =        -1.04755987
  eigenvalues    EBANDS =    -20537.11367685
  atomic energy  EATOM  =    181336.80673834
  Solvation  Ediel_sol  =         0.00000000
  ---------------------------------------------------
  free energy    TOTEN  =      -491.10129944 eV

  energy without entropy =     -490.05373957  energy(sigma->0) =     -490.57751950


--------------------------------------------------------------------------------------------------------




--------------------------------------- Iteration      1(  15)  ---------------------------------------


    POTLOK:  cpu time    0.3579: real time    0.3579
    SETDIJ:  cpu time    0.0232: real time    0.0232
     EDDAV:  cpu time   15.2360: real time   15.2424
       DOS:  cpu time    0.0015: real time    0.0015
    CHARGE:  cpu time    0.3962: real time    0.3962
    MIXING:  cpu time    0.0172: real time    0.0172
    --------------------------------------------
      LOOP:  cpu time   16.0320: real time   16.0384

 eigenvalue-minimisations  :  1768
 total energy-change (2. order) : 0.5158491E+01  (-0.2342585E+01)
 number of electron    1056.0000005 magnetization 
 augmentation part      418.3906114 magnetization 

 Broyden mixing:
  rms(total) = 0.49612E+01    rms(broyden)= 0.49598E+01
  rms(prec ) = 0.56580E+01
  weight for this iteration     100.00

 eigenvalues of (default mixing * dielectric matrix)
  average eigenvalue GAMMA=   0.4620
  2.0906  0.4467  0.4467  0.4374  0.3245  0.3245  0.1994  0.1032  0.1233  0.1233

 Free energy of the ion-electron system (eV)
  ---------------------------------------------------
  alpha Z        PSCENC =      2592.50432107
  Ewald energy   TEWEN  =    337827.18255569
  -Hartree energ DENC   =   -499855.43703477
  -exchange      EXHF   =         0.00000000
  -V(xc)+E(xc)   XCENC  =      4861.03968528
  PAW double counting   =    189234.26872073  -195959.07555568
  entropy T*S    EENTRO =        -1.19310486
  eigenvalues    EBANDS =    -20522.03913421
  atomic energy  EATOM  =    181336.80673834
  Solvation  Ediel_sol  =         0.00000000
  ---------------------------------------------------
  free energy    TOTEN  =      -485.94280842 eV

  energy without entropy =     -484.74970356  energy(sigma->0) =     -485.34625599


--------------------------------------------------------------------------------------------------------




--------------------------------------- Iteration      1(  16)  ---------------------------------------


    POTLOK:  cpu time    0.3554: real time    0.3556
    SETDIJ:  cpu time    0.0230: real time    0.0230
     EDDAV:  cpu time   15.1950: real time   15.1976
       DOS:  cpu time    0.0015: real time    0.0015
    CHARGE:  cpu time    0.3955: real time    0.3955
    MIXING:  cpu time    0.0171: real time    0.0171
    --------------------------------------------
      LOOP:  cpu time   15.9875: real time   15.9903

 eigenvalue-minimisations  :  1752
 total energy-change (2. order) : 0.5287577E+01  (-0.1978405E+01)
 number of electron    1056.0000035 magnetization 
 augmentation part      416.6839603 magnetization 

 Broyden mixing:
  rms(total) = 0.34145E+01    rms(broyden)= 0.34134E+01
  rms(prec ) = 0.37905E+01
  weight for this iteration     100.00

 eigenvalues of (default mixing * dielectric matrix)
  average eigenvalue GAMMA=   0.4377
  2.0705  0.4653  0.4653  0.3648  0.3648  0.3856  0.2131  0.1383  0.1383  0.1015
  0.1068

 Free energy of the ion-electron system (eV)
  ---------------------------------------------------
  alpha Z        PSCENC =      2592.50432107
  Ewald energy   TEWEN  =    337827.18255569
  -Hartree energ DENC   =   -499947.19211174
  -exchange      EXHF   =         0.00000000
  -V(xc)+E(xc)   XCENC  =      4862.52210464
  PAW double counting   =    188249.02104155  -194964.60685351
  entropy T*S    EENTRO =        -1.16431465
  eigenvalues    EBANDS =    -20435.72871260
  atomic energy  EATOM  =    181336.80673834
  Solvation  Ediel_sol  =         0.00000000
  ---------------------------------------------------
  free energy    TOTEN  =      -480.65523121 eV

  energy without entropy =     -479.49091656  energy(sigma->0) =     -480.07307389


--------------------------------------------------------------------------------------------------------




--------------------------------------- Iteration      1(  17)  ---------------------------------------


    POTLOK:  cpu time    0.3588: real time    0.3588
    SETDIJ:  cpu time    0.0231: real time    0.0231
     EDDAV:  cpu time   14.9862: real time   14.9925
       DOS:  cpu time    0.0014: real time    0.0014
    CHARGE:  cpu time    0.3980: real time    0.3980
    MIXING:  cpu time    0.0174: real time    0.0174
    --------------------------------------------
      LOOP:  cpu time   15.7849: real time   15.7912

 eigenvalue-minimisations  :  1728
 total energy-change (2. order) : 0.2418454E+01  (-0.4818975E+00)
 number of electron    1056.0000034 magnetization 
 augmentation part      416.3721236 magnetization 

 Broyden mixing:
  rms(total) = 0.27868E+01    rms(broyden)= 0.27863E+01
  rms(prec ) = 0.31117E+01
  weight for this iteration     100.00

 eigenvalues of (default mixing * dielectric matrix)
  average eigenvalue GAMMA=   0.4514
  2.0559  0.6232  0.6232  0.4164  0.4164  0.2957  0.2957  0.1690  0.1690  0.1029
  0.1246  0.1246

 Free energy of the ion-electron system (eV)
  ---------------------------------------------------
  alpha Z        PSCENC =      2592.50432107
  Ewald energy   TEWEN  =    337827.18255569
  -Hartree energ DENC   =   -499952.75882360
  -exchange      EXHF   =         0.00000000
  -V(xc)+E(xc)   XCENC  =      4862.84131642
  PAW double counting   =    188001.56045449  -194714.82696930
  entropy T*S    EENTRO =        -1.16941420
  eigenvalues    EBANDS =    -20430.37695629
  atomic energy  EATOM  =    181336.80673834
  Solvation  Ediel_sol  =         0.00000000
  ---------------------------------------------------
  free energy    TOTEN  =      -478.23677738 eV

  energy without entropy =     -477.06736318  energy(sigma->0) =     -477.65207028


--------------------------------------------------------------------------------------------------------




--------------------------------------- Iteration      1(  18)  ---------------------------------------


    POTLOK:  cpu time    0.3577: real time    0.3577
    SETDIJ:  cpu time    0.0243: real time    0.0243
     EDDAV:  cpu time   15.1287: real time   15.1323
       DOS:  cpu time    0.0018: real time    0.0018
    CHARGE:  cpu time    0.3950: real time    0.3951
    MIXING:  cpu time    0.0207: real time    0.0206
    --------------------------------------------
      LOOP:  cpu time   15.9282: real time   15.9319

 eigenvalue-minimisations  :  1752
 total energy-change (2. order) : 0.9594512E+00  (-0.2157290E+00)
 number of electron    1056.0000047 magnetization 
 augmentation part      416.1552372 magnetization 

 Broyden mixing:
  rms(total) = 0.26266E+01    rms(broyden)= 0.26262E+01
  rms(prec ) = 0.29368E+01
  weight for this iteration     100.00

 eigenvalues of (default mixing * dielectric matrix)
  average eigenvalue GAMMA=   0.4468
  2.0389  0.7445  0.7445  0.4203  0.4203  0.2926  0.2926  0.1929  0.1929  0.1284
  0.1284  0.1028  0.1097

 Free energy of the ion-electron system (eV)
  ---------------------------------------------------
  alpha Z        PSCENC =      2592.50432107
  Ewald energy   TEWEN  =    337827.18255569
  -Hartree energ DENC   =   -499965.20537610
  -exchange      EXHF   =         0.00000000
  -V(xc)+E(xc)   XCENC  =      4862.92458914
  PAW double counting   =    187467.96330449  -194174.19196879
  entropy T*S    EENTRO =        -1.20675935
  eigenvalues    EBANDS =    -20424.05473070
  atomic energy  EATOM  =    181336.80673834
  Solvation  Ediel_sol  =         0.00000000
  ---------------------------------------------------
  free energy    TOTEN  =      -477.27732621 eV

  energy without entropy =     -476.07056686  energy(sigma->0) =     -476.67394653


--------------------------------------------------------------------------------------------------------




--------------------------------------- Iteration      1(  19)  ---------------------------------------


    POTLOK:  cpu time    0.3570: real time    0.3570
    SETDIJ:  cpu time    0.0231: real time    0.0231
     EDDAV:  cpu time   14.6203: real time   14.6262
       DOS:  cpu time    0.0019: real time    0.0019
    CHARGE:  cpu time    0.3933: real time    0.3933
    MIXING:  cpu time    0.0197: real time    0.0197
    --------------------------------------------
      LOOP:  cpu time   15.4153: real time   15.4212

 eigenvalue-minimisations  :  1680
 total energy-change (2. order) : 0.1433559E+01  (-0.1290239E+00)
 number of electron    1056.0000039 magnetization 
 augmentation part      416.2114311 magnetization 

 Broyden mixing:
  rms(total) = 0.21607E+01    rms(broyden)= 0.21605E+01
  rms(prec ) = 0.24398E+01
  weight for this iteration     100.00

 eigenvalues of (default mixing * dielectric matrix)
  average eigenvalue GAMMA=   0.4661
  2.0102  0.9189  0.9189  0.4331  0.4331  0.3336  0.3174  0.3174  0.2057  0.1027
  0.1399  0.1399  0.1272  0.1272

 Free energy of the ion-electron system (eV)
  ---------------------------------------------------
  alpha Z        PSCENC =      2592.50432107
  Ewald energy   TEWEN  =    337827.18255569
  -Hartree energ DENC   =   -499963.52682649
  -exchange      EXHF   =         0.00000000
  -V(xc)+E(xc)   XCENC  =      4863.06755429
  PAW double counting   =    187037.25716208  -193738.22641963
  entropy T*S    EENTRO =        -1.20404855
  eigenvalues    EBANDS =    -20429.70480364
  atomic energy  EATOM  =    181336.80673834
  Solvation  Ediel_sol  =         0.00000000
  ---------------------------------------------------
  free energy    TOTEN  =      -475.84376685 eV

  energy without entropy =     -474.63971830  energy(sigma->0) =     -475.24174257


--------------------------------------------------------------------------------------------------------




--------------------------------------- Iteration      1(  20)  ---------------------------------------


    POTLOK:  cpu time    0.3615: real time    0.3615
    SETDIJ:  cpu time    0.0231: real time    0.0231
     EDDAV:  cpu time   15.1922: real time   15.1943
       DOS:  cpu time    0.0014: real time    0.0014
    CHARGE:  cpu time    0.3968: real time    0.3968
    MIXING:  cpu time    0.0214: real time    0.0214
    --------------------------------------------
      LOOP:  cpu time   15.9963: real time   15.9984

 eigenvalue-minimisations  :  1752
 total energy-change (2. order) : 0.6432237E+00  (-0.7454108E-01)
 number of electron    1056.0000039 magnetization 
 augmentation part      415.9312257 magnetization 

 Broyden mixing:
  rms(total) = 0.20358E+01    rms(broyden)= 0.20356E+01
  rms(prec ) = 0.22938E+01
  weight for this iteration     100.00

 eigenvalues of (default mixing * dielectric matrix)
  average eigenvalue GAMMA=   0.4864
  1.9626  1.1626  1.1626  0.4526  0.4526  0.4136  0.3408  0.3408  0.2154  0.1596
  0.1596  0.1027  0.1283  0.1283  0.1145

 Free energy of the ion-electron system (eV)
  ---------------------------------------------------
  alpha Z        PSCENC =      2592.50432107
  Ewald energy   TEWEN  =    337827.18255569
  -Hartree energ DENC   =   -499980.61982471
  -exchange      EXHF   =         0.00000000
  -V(xc)+E(xc)   XCENC  =      4863.24108214
  PAW double counting   =    186466.32277979  -193159.93102326
  entropy T*S    EENTRO =        -1.22098170
  eigenvalues    EBANDS =    -20419.48619055
  atomic energy  EATOM  =    181336.80673834
  Solvation  Ediel_sol  =         0.00000000
  ---------------------------------------------------
  free energy    TOTEN  =      -475.20054318 eV

  energy without entropy =     -473.97956149  energy(sigma->0) =     -474.59005234


--------------------------------------------------------------------------------------------------------




--------------------------------------- Iteration      1(  21)  ---------------------------------------


    POTLOK:  cpu time    0.3637: real time    0.3637
    SETDIJ:  cpu time    0.0232: real time    0.0232
     EDDAV:  cpu time   15.0375: real time   15.0417
       DOS:  cpu time    0.0047: real time    0.0048
    CHARGE:  cpu time    0.4044: real time    0.4045
    MIXING:  cpu time    0.0219: real time    0.0219
    --------------------------------------------
      LOOP:  cpu time   15.8554: real time   15.8597

 eigenvalue-minimisations  :  1752
 total energy-change (2. order) : 0.1150189E+01  (-0.6135788E-01)
 number of electron    1056.0000040 magnetization 
 augmentation part      415.6949687 magnetization 

 Broyden mixing:
  rms(total) = 0.16489E+01    rms(broyden)= 0.16487E+01
  rms(prec ) = 0.18757E+01
  weight for this iteration     100.00

 eigenvalues of (default mixing * dielectric matrix)
  average eigenvalue GAMMA=   0.5003
  1.9218  1.3377  1.3377  0.4757  0.4757  0.4337  0.4337  0.2962  0.2962  0.1847
  0.1847  0.1027  0.1451  0.1306  0.1306  0.1174

 Free energy of the ion-electron system (eV)
  ---------------------------------------------------
  alpha Z        PSCENC =      2592.50432107
  Ewald energy   TEWEN  =    337827.18255569
  -Hartree energ DENC   =   -500001.85947016
  -exchange      EXHF   =         0.00000000
  -V(xc)+E(xc)   XCENC  =      4863.53556972
  PAW double counting   =    185690.30935974  -192373.68321637
  entropy T*S    EENTRO =        -1.23076237
  eigenvalues    EBANDS =    -20407.61544999
  atomic energy  EATOM  =    181336.80673834
  Solvation  Ediel_sol  =         0.00000000
  ---------------------------------------------------
  free energy    TOTEN  =      -474.05035433 eV

  energy without entropy =     -472.81959196  energy(sigma->0) =     -473.43497315


--------------------------------------------------------------------------------------------------------




--------------------------------------- Iteration      1(  22)  ---------------------------------------


    POTLOK:  cpu time    0.3664: real time    0.3664
    SETDIJ:  cpu time    0.0231: real time    0.0231
     EDDAV:  cpu time   14.7703: real time   14.7751
       DOS:  cpu time    0.0064: real time    0.0064
    CHARGE:  cpu time    0.5795: real time    0.5795
    MIXING:  cpu time    0.0220: real time    0.0220
    --------------------------------------------
      LOOP:  cpu time   15.7678: real time   15.7725

 eigenvalue-minimisations  :  1744
 total energy-change (2. order) : 0.7421248E+00  (-0.5851251E-01)
 number of electron    1056.0000027 magnetization 
 augmentation part      415.5313337 magnetization 

 Broyden mixing:
  rms(total) = 0.13823E+01    rms(broyden)= 0.13821E+01
  rms(prec ) = 0.15554E+01
  weight for this iteration     100.00

 eigenvalues of (default mixing * dielectric matrix)
  average eigenvalue GAMMA=   0.5273
  1.8704  1.5511  1.5511  0.6560  0.6560  0.4454  0.4454  0.3080  0.3080  0.1963
  0.1963  0.1579  0.1027  0.1437  0.1298  0.1298  0.1163

 Free energy of the ion-electron system (eV)
  ---------------------------------------------------
  alpha Z        PSCENC =      2592.50432107
  Ewald energy   TEWEN  =    337827.18255569
  -Hartree energ DENC   =   -500014.49978330
  -exchange      EXHF   =         0.00000000
  -V(xc)+E(xc)   XCENC  =      4863.75529702
  PAW double counting   =    185094.01830585  -191768.57973430
  entropy T*S    EENTRO =        -1.22989380
  eigenvalues    EBANDS =    -20403.26603614
  atomic energy  EATOM  =    181336.80673834
  Solvation  Ediel_sol  =         0.00000000
  ---------------------------------------------------
  free energy    TOTEN  =      -473.30822956 eV

  energy without entropy =     -472.07833577  energy(sigma->0) =     -472.69328266


--------------------------------------------------------------------------------------------------------




--------------------------------------- Iteration      1(  23)  ---------------------------------------


    POTLOK:  cpu time    0.3623: real time    0.3627
    SETDIJ:  cpu time    0.0231: real time    0.0231
     EDDAV:  cpu time   15.0294: real time   15.0313
       DOS:  cpu time    0.0067: real time    0.0066
    CHARGE:  cpu time    0.5618: real time    0.5630
    MIXING:  cpu time    0.0430: real time    0.0430
    --------------------------------------------
      LOOP:  cpu time   16.0262: real time   16.0297

 eigenvalue-minimisations  :  1784
 total energy-change (2. order) : 0.7608250E+00  (-0.8258458E-01)
 number of electron    1056.0000034 magnetization 
 augmentation part      415.4096228 magnetization 

 Broyden mixing:
  rms(total) = 0.92010E+00    rms(broyden)= 0.91968E+00
  rms(prec ) = 0.10203E+01
  weight for this iteration     100.00

 eigenvalues of (default mixing * dielectric matrix)
  average eigenvalue GAMMA=   0.5342
  1.8625  1.6351  1.6351  0.7555  0.7555  0.4413  0.4413  0.3255  0.3255  0.3015
  0.1976  0.1645  0.1645  0.1027  0.1305  0.1305  0.1169  0.1305

 Free energy of the ion-electron system (eV)
  ---------------------------------------------------
  alpha Z        PSCENC =      2592.50432107
  Ewald energy   TEWEN  =    337827.18255569
  -Hartree energ DENC   =   -500036.48352302
  -exchange      EXHF   =         0.00000000
  -V(xc)+E(xc)   XCENC  =      4863.89224665
  PAW double counting   =    184413.32524136  -191076.25635749
  entropy T*S    EENTRO =        -1.25036505
  eigenvalues    EBANDS =    -20392.26826214
  atomic energy  EATOM  =    181336.80673834
  Solvation  Ediel_sol  =         0.00000000
  ---------------------------------------------------
  free energy    TOTEN  =      -472.54740460 eV

  energy without entropy =     -471.29703954  energy(sigma->0) =     -471.92222207


[...]
   0.238E+03 -.396E+03 -.640E+03   -.238E+03 0.397E+03 0.639E+03   0.501E+00 -.845E+00 0.118E+01   -.125E-01 0.883E-01 0.930E-01
   0.513E+03 -.838E+03 -.417E+04   -.514E+03 0.838E+03 0.417E+04   0.516E+00 -.738E+00 0.115E+01   -.303E-01 0.183E+00 0.124E+00
   0.726E+02 -.119E+03 -.626E+04   -.725E+02 0.118E+03 0.627E+04   0.125E+00 -.225E+00 -.601E+01   0.117E+00 -.391E-01 0.181E+00
   0.211E+03 -.387E+03 0.530E+04   -.212E+03 0.389E+03 -.531E+04   0.800E+00 -.226E+01 0.684E+01   -.880E-01 -.157E+00 0.887E-02
   0.387E+02 -.301E+03 0.229E+04   -.375E+02 0.301E+03 -.228E+04   -.820E+00 0.499E-01 -.320E+01   -.700E-01 -.105E+00 0.354E-01
   -.130E+03 0.566E+03 -.571E+04   0.129E+03 -.574E+03 0.571E+04   0.838E+00 0.758E+01 0.189E+01   -.388E-01 -.567E-01 -.101E+00
   -.590E+02 0.358E+03 0.632E+04   0.600E+02 -.361E+03 -.632E+04   -.115E+01 0.408E+01 0.566E+01   0.180E-01 -.754E-01 -.271E+00
   0.970E+02 0.790E+03 0.390E+04   -.991E+02 -.792E+03 -.390E+04   0.103E+01 0.166E+01 0.430E+00   -.572E-01 -.163E+00 -.854E-01
   0.195E+03 0.453E+03 0.643E+03   -.196E+03 -.454E+03 -.644E+03   0.941E+00 0.698E+00 0.106E+01   -.623E-02 -.403E+00 -.109E-01
   0.366E+03 0.170E+03 -.237E+04   -.368E+03 -.170E+03 0.237E+04   0.214E+01 0.876E+00 0.253E+01   -.439E-01 -.197E+00 -.122E+00
   -.500E+03 -.826E+02 0.512E+03   0.501E+03 0.834E+02 -.512E+03   -.138E+01 -.661E+00 -.107E+00   -.217E+00 -.893E-01 0.922E-01
   -.515E+03 -.169E+03 -.263E+04   0.518E+03 0.169E+03 0.263E+04   -.332E+01 0.292E+00 0.142E+01   -.252E+00 0.262E-01 -.116E+00
   -.136E+03 -.155E+03 -.586E+04   0.138E+03 0.155E+03 0.586E+04   -.101E+01 -.124E+01 0.136E+01   -.158E+00 0.759E-02 -.629E-01
   -.989E+03 0.261E+03 0.396E+04   0.995E+03 -.262E+03 -.396E+04   -.530E+01 0.114E+01 0.543E+00   0.335E+00 0.329E-01 -.345E-01
   -.523E+03 -.392E+03 0.625E+04   0.526E+03 0.391E+03 -.626E+04   -.300E+01 0.141E+01 0.645E+01   0.143E+00 0.828E-01 -.186E-01
   0.246E+03 -.438E+03 -.509E+03   -.246E+03 0.439E+03 0.508E+03   0.501E+00 -.104E+01 -.254E-02   0.419E-01 -.490E-01 0.401E-01
   0.663E+02 -.636E+03 -.410E+04   -.686E+02 0.641E+03 0.410E+04   0.169E+01 -.366E+01 -.547E+00   0.542E-01 -.267E-01 -.111E+00
   0.382E+03 -.515E+03 0.320E+04   -.384E+03 0.519E+03 -.320E+04   0.187E+01 -.328E+01 0.212E+01   0.153E+00 -.174E+00 -.378E-02
   0.993E+02 0.310E+03 -.527E+04   -.998E+02 -.309E+03 0.527E+04   0.724E+00 -.184E+00 -.311E+01   -.190E-02 -.206E+00 0.613E-01
   0.656E+03 0.182E+03 0.425E+04   -.660E+03 -.185E+03 -.425E+04   0.343E+01 0.236E+01 0.331E+01   0.106E-01 -.726E-01 0.902E-01
   0.304E+03 0.388E+03 0.598E+03   -.305E+03 -.388E+03 -.598E+03   0.128E+01 0.660E+00 -.179E+00   0.321E-01 -.309E-01 0.599E-02
   0.709E+02 0.383E+03 -.248E+04   -.725E+02 -.384E+03 0.247E+04   0.142E+01 0.206E+01 0.268E+01   0.292E-01 0.511E-01 -.991E-01
   -.530E+03 -.989E+01 0.670E+03   0.530E+03 0.106E+02 -.671E+03   -.828E+00 -.617E+00 0.984E+00   0.396E+00 -.132E+00 -.437E-01
   -.316E+03 -.260E+03 -.237E+04   0.317E+03 0.262E+03 0.236E+04   -.180E+01 -.151E+01 0.251E+01   0.293E+00 0.584E-03 -.859E-01
   -.318E+03 0.455E+02 -.527E+04   0.318E+03 -.449E+02 0.527E+04   -.133E+00 -.732E+00 -.314E+01   0.181E+00 -.639E-01 0.193E-01
   -.223E+03 -.389E+03 0.412E+04   0.226E+03 0.392E+03 -.413E+04   -.124E+01 -.285E+01 0.338E+01   -.224E+00 0.712E-02 0.676E-01
   -.703E+02 0.128E+03 -.243E+03   0.712E+02 -.129E+03 0.242E+03   -.110E+01 0.181E+01 0.667E+00   -.887E-01 0.133E+00 0.825E-01
   -.408E+02 0.668E+02 -.160E+04   0.411E+02 -.673E+02 0.160E+04   0.489E-01 -.110E+00 -.236E+00   -.575E-01 0.117E+00 0.467E-01
   -.572E+03 0.399E+03 0.225E+04   0.576E+03 -.403E+03 -.226E+04   -.197E+01 0.242E+01 0.811E+00   0.826E-01 0.113E+00 -.191E-02
   -.162E+03 0.171E+03 0.113E+04   0.163E+03 -.172E+03 -.113E+04   -.688E+00 0.139E+01 0.127E+01   0.200E-01 0.221E-01 0.521E-01
   -.847E+02 0.275E+03 -.224E+04   0.873E+02 -.277E+03 0.224E+04   -.170E+01 0.170E+01 -.125E+01   -.153E-01 -.175E-01 -.387E-01
   -.222E+02 -.139E+03 -.610E+03   0.229E+02 0.141E+03 0.609E+03   -.491E+00 -.195E+01 0.400E+00   -.663E-01 -.110E+00 -.368E-01
   -.310E+03 0.431E+02 0.163E+04   0.313E+03 -.427E+02 -.163E+04   -.206E+01 0.441E-01 -.164E+01   0.731E-01 -.786E-02 0.534E-01
   -.123E+03 -.117E+03 0.511E+03   0.124E+03 0.120E+03 -.512E+03   -.976E+00 -.259E+01 0.914E+00   0.140E+00 0.114E+00 0.464E-02
   0.372E+03 -.180E+03 0.176E+04   -.377E+03 0.180E+03 -.176E+04   0.283E+01 0.795E-02 0.759E+00   0.295E-01 0.109E+00 0.587E-01
   0.146E+03 0.329E+01 0.468E+03   -.149E+03 -.320E+01 -.468E+03   0.277E+01 -.157E+00 0.406E+00   0.350E-01 0.379E-01 0.154E-01
   0.196E+03 0.231E+02 -.729E+03   -.199E+03 -.229E+02 0.728E+03   0.294E+01 -.120E-01 0.106E+00   0.437E-01 0.182E-01 0.339E-01
   0.434E+03 -.569E+02 -.208E+04   -.439E+03 0.566E+02 0.209E+04   0.310E+01 0.756E+00 -.815E+00   0.174E-03 0.710E-01 -.663E-01
   -.711E+02 0.130E+03 -.154E+03   0.725E+02 -.132E+03 0.152E+03   -.136E+01 0.188E+01 0.123E+01   -.172E-01 0.387E-01 0.189E-01
   -.122E+03 0.190E+03 -.156E+04   0.123E+03 -.193E+03 0.156E+04   0.388E+00 0.125E+01 -.159E+01   0.224E-01 -.125E-01 -.794E-01
   0.293E+03 -.193E+03 0.247E+04   -.294E+03 0.194E+03 -.247E+04   0.111E+01 -.111E+01 0.188E+01   -.105E+00 0.133E+00 0.585E-01
   0.442E+02 0.693E+02 0.838E+03   -.434E+02 -.708E+02 -.836E+03   -.659E+00 0.130E+01 -.150E+00   -.935E-01 0.120E+00 0.612E-01
   0.184E+03 0.266E+02 -.231E+04   -.184E+03 -.251E+02 0.232E+04   -.783E+00 -.665E+00 -.370E+01   -.696E-01 -.129E-01 -.416E-01
   -.788E+02 -.878E+02 -.666E+03   0.797E+02 0.904E+02 0.666E+03   -.885E+00 -.239E+01 -.622E+00   0.120E-01 -.183E-02 0.263E-01
   0.138E+03 -.163E+03 0.195E+04   -.139E+03 0.164E+03 -.195E+04   0.102E+01 -.479E+00 0.381E+01   -.137E-01 0.484E-01 0.225E-01
   -.326E+02 -.166E+03 0.556E+03   0.338E+02 0.168E+03 -.557E+03   -.891E+00 -.240E+01 0.785E+00   -.293E-01 0.588E-02 0.230E-01
   0.695E+02 -.805E+02 0.193E+04   -.712E+02 0.832E+02 -.194E+04   0.585E+00 -.201E+01 0.383E+01   0.833E-01 -.425E-01 0.357E-01
   0.189E+03 -.969E+01 0.596E+03   -.192E+03 0.946E+01 -.595E+03   0.256E+01 0.713E-01 0.170E+00   0.133E-01 0.362E-02 -.362E-01
   0.121E+03 0.378E+02 -.654E+03   -.124E+03 -.374E+02 0.655E+03   0.253E+01 -.336E+00 -.890E+00   0.139E-01 -.200E-01 -.197E-02
   -.206E+03 0.200E+03 -.224E+04   0.207E+03 -.203E+03 0.224E+04   -.733E+00 0.228E+01 -.124E+01   0.499E-01 0.123E-01 -.399E-01
   -.842E+02 0.110E+03 -.188E+03   0.855E+02 -.112E+03 0.187E+03   -.980E+00 0.203E+01 0.130E+01   -.505E-01 0.184E-01 0.716E-02
   -.116E+03 0.195E+03 -.157E+04   0.118E+03 -.197E+03 0.157E+04   -.133E+01 0.284E+00 -.152E+01   -.383E-01 -.585E-01 -.764E-01
   -.331E+03 0.475E+03 0.230E+04   0.333E+03 -.479E+03 -.230E+04   -.516E+00 0.132E+01 0.829E+00   0.876E-01 -.410E-01 -.180E+00
   -.124E+03 0.175E+03 0.115E+04   0.125E+03 -.176E+03 -.115E+04   -.751E+00 0.126E+01 0.178E+01   0.149E+00 -.155E+00 0.515E-01
   -.143E+03 -.416E+03 -.209E+04   0.145E+03 0.421E+03 0.209E+04   -.202E+01 -.249E+01 -.794E+00   -.756E-01 0.419E-01 -.577E-01
   -.357E+02 -.188E+03 -.692E+03   0.367E+02 0.190E+03 0.692E+03   -.901E+00 -.251E+01 -.728E+00   0.145E+00 0.105E+00 0.260E-01
   -.379E+03 -.226E+03 0.190E+04   0.381E+03 0.228E+03 -.190E+04   -.123E+01 -.124E+00 0.288E+01   -.999E-01 -.199E+00 -.905E-01
   -.128E+03 -.146E+03 0.551E+03   0.129E+03 0.148E+03 -.551E+03   -.867E+00 -.234E+01 0.268E+00   -.163E-01 -.710E-01 0.226E-01
   0.370E+03 0.906E+02 0.192E+04   -.373E+03 -.923E+02 -.192E+04   0.178E+01 0.184E+01 0.284E+01   -.108E+00 0.248E-01 -.628E-01
   0.158E+03 0.128E+02 0.510E+03   -.160E+03 -.125E+02 -.511E+03   0.280E+01 -.435E+00 0.889E+00   -.171E+00 -.445E-01 0.502E-01
   0.179E+03 -.571E+02 -.697E+03   -.182E+03 0.571E+02 0.697E+03   0.271E+01 -.243E+00 -.630E+00   -.151E+00 -.591E-01 0.110E-01
   0.243E+03 -.151E+03 -.213E+04   -.246E+03 0.152E+03 0.213E+04   0.174E+01 -.146E+01 -.281E+01   -.122E-02 -.847E-02 0.766E-01
   -.665E+02 0.108E+03 -.115E+03   0.676E+02 -.109E+03 0.114E+03   -.115E+01 0.190E+01 0.130E+01   0.692E-01 -.694E-01 -.990E-01
   -.165E+03 0.269E+03 -.150E+04   0.167E+03 -.273E+03 0.150E+04   -.107E+01 0.163E+01 0.230E+00   0.965E-01 -.812E-01 0.174E-01
   0.191E+03 -.188E+03 0.248E+04   -.192E+03 0.188E+03 -.248E+04   0.437E+00 -.646E+00 0.179E+01   -.517E-01 0.816E-02 0.144E-02
   0.992E+00 0.338E+02 0.875E+03   -.195E+00 -.354E+02 -.873E+03   -.697E+00 0.136E+01 -.537E+00   -.699E-01 -.180E-01 0.717E-01
   0.252E+02 -.286E+03 -.213E+04   -.248E+02 0.289E+03 0.213E+04   0.561E+00 -.222E+01 -.275E+01   0.358E-01 0.406E-03 0.555E-01
   -.102E+03 -.177E+03 -.723E+03   0.104E+03 0.180E+03 0.722E+03   -.145E+01 -.271E+01 -.649E-01   -.422E-01 -.192E-01 0.238E-01
   0.157E+03 -.191E+03 0.194E+04   -.158E+03 0.193E+03 -.195E+04   0.113E+01 -.458E+00 0.372E+01   0.736E-02 -.655E-01 0.588E-01
   -.217E+02 -.176E+03 0.557E+03   0.229E+02 0.178E+03 -.558E+03   -.903E+00 -.253E+01 0.806E+00   -.714E-02 0.254E-01 -.470E-01
   0.563E+02 -.527E+02 0.194E+04   -.571E+02 0.553E+02 -.194E+04   -.569E+00 -.183E+01 0.409E+01   0.112E+00 -.265E-01 0.593E-02
   0.183E+03 -.181E+02 0.593E+03   -.186E+03 0.181E+02 -.593E+03   0.251E+01 -.132E+00 0.529E+00   0.580E-01 -.434E-01 0.343E-02
   0.139E+03 -.550E+02 -.610E+03   -.142E+03 0.553E+02 0.609E+03   0.196E+01 -.290E+00 0.556E+00   0.938E-01 -.505E-02 -.273E-01
   -.105E+03 -.155E+03 -.231E+04   0.104E+03 0.155E+03 0.232E+04   0.971E+00 0.438E+00 -.371E+01   -.838E-03 0.288E-01 -.439E-01
 -----------------------------------------------------------------------------------------------
   -.489E+01 0.712E+01 -.558E+02   -.107E-11 0.625E-12 -.682E-11   0.431E+01 -.739E+01 0.561E+02   0.370E+00 0.307E+00 0.997E-01
 
 
 POSITION                                       TOTAL-FORCE (eV/Angst)
 -----------------------------------------------------------------------------------
      5.35228      4.81788      6.64784         0.150323     -0.050207     -0.041123
      5.93595      3.87238      9.58390        -0.548301      0.885418     -1.283874
      1.46452      2.22669      2.01529         0.447417     -0.586012     -0.945319
      2.24633      0.73197      3.71178        -0.537425     -0.434830      1.625464
      3.67381      3.21230      0.90163        -0.709214     -0.425400     -1.196203
      4.76861      3.35453      2.93606         0.084241     -0.161397      3.804252
      5.35228      2.40903      5.87212         0.048403     -0.097996     -0.004561
      5.93595      1.46353      8.80817         0.230525     -0.156927     -2.325963
      1.87746      3.73836      5.87212        -0.015856      0.126374     -0.100289
      2.46113      2.79286      8.80817         0.399313     -0.332804     -2.240507
      6.92203      4.68386      2.93606        -0.259081     -0.394543      0.580626
     10.98051      4.81788      6.64784         0.047048     -0.144222     -0.175515
     11.56418      3.87238      9.58390        -0.614824      1.033322     -1.381662
      7.87456      0.73197      3.71178        -0.364479      0.553769      2.019937
      6.18420      0.65381     11.07623        -0.002756     -0.884028      1.510781
     10.39684      3.35453      2.93606        -0.494616     -0.744679      1.940724
     10.98051      2.40903      5.87212        -0.132392      0.096346      0.044842
     11.56418      1.46353      8.80817         0.103185     -0.496427     -2.216525
      7.50570      3.73836      5.87212        -0.040586      0.039832     -0.013826
      8.08937      2.79286      8.80817        -0.078785      0.266046     -1.189084
      9.10878      2.11793     10.86521        -0.173713      0.350424      1.107856
     12.55026      4.68386      2.93606         1.074506      0.015659      1.633441
      7.87456      9.84929      6.64784         0.166557     -0.255321      0.048923
      8.45823      8.90379      9.58390         0.144942     -0.253212     -0.125908
      9.61227      7.03432     11.34391         0.403538     -0.682214      1.899658
      4.00035      7.23414      2.03252         0.533892     -0.675185     -0.699797
      4.76861      5.76338      3.71178         0.296031     -0.283292      1.218591
      2.97655      5.28120     10.86528        -0.256891      0.326730      1.101256
      2.65452      0.17522      1.18756        -0.105732      0.990422     -1.875098
      7.29089      8.38594      2.93606        -1.066577     -0.764381      1.569563
      7.87456      7.44044      5.87212        -0.033188     -0.084902     -0.031440
      8.45823      6.49494      8.80817        -0.289929      0.686872     -1.103689
      4.39975      8.76977      5.87212         0.047869      0.057189     -0.061193
      4.98341      7.82427      8.80817         0.037716     -0.311962     -2.357032
      5.59602      7.23946     11.07624         0.768671     -0.414873      1.506375
      9.44431      9.71527      2.93606         0.902348      0.118345      1.941687
      5.15758      5.18233      1.10712        -0.078566      0.785738     -1.817442
     13.50279      9.84929      6.64784        -0.000393     -0.188499     -0.170519
     14.08646      8.90379      9.58390        -0.557773      0.907424     -1.228020
     10.39684      5.76338      3.71178        -0.485911      0.405938      1.955033
      8.49087      4.97040     10.56585         0.283699      0.245260      0.356472
     12.91912      8.38594      2.93606        -0.473586     -0.905074      2.112949
     13.50279      7.44044      5.87212        -0.197143      0.063260      0.048998
     14.08646      6.49494      8.80817        -0.203541      0.182945     -1.205249
     10.02798      8.76977      5.87212        -0.072542     -0.053033      0.093838
     10.61165      7.82427      8.80817        -0.521891      0.592238     -1.088479
     11.95984      7.11195     10.56593        -0.341636     -0.133509      0.373554
     15.07254      9.71527      2.93606         1.309238      0.023631      1.564281
      1.66190      1.67871      7.01153        -0.248999      0.427633     -0.977692
      2.26223      0.70622      9.36368         0.320318     -0.494819      1.600474
      5.85108      3.29967      1.21653         2.304816     -1.601771     -2.693872
      6.70646      2.62422      4.07548        -0.054296      0.216364      0.103111
      2.05656      3.51520     10.67279         0.880075     -0.577440      3.050378
      7.29013      4.74605      7.99931         0.102235      0.248671     -0.204150
      3.58995      1.65323      2.31229         1.093694      0.476587     -0.339923
      4.18418      0.66015      5.06325         0.028619     -0.063384      0.338804
      3.38071      4.94434      2.12720        -1.956921      0.847202      0.082498
      3.96438      3.99884      5.06325        -0.018581     -0.033596      0.093418
      4.54805      3.05334      7.99931        -0.151322      0.265570     -0.914375
      4.99669      2.18927     10.49924        -2.196595      0.493011      2.026948
      7.29013      1.67871      7.01153        -0.000905     -0.173752     -0.191532
      7.87380      0.73321      9.94759         1.335610     -1.534861     -0.530181
     11.60517      3.79917      1.34055        -0.276587      0.160258     -3.887952
     12.33469      2.62422      4.07548         0.053914     -0.031292      1.384470
      7.43764      3.28581     10.88967        -0.526507      0.767507      2.897462
     12.91836      4.74605      7.99931         0.041691      0.155219     -0.467973
      9.34398      1.57640      2.52582        -0.162876      1.125428     -2.186658
      9.81241      0.66015      5.06325         0.293571      0.000682      0.670966
      8.94995      4.81777      2.55884        -0.982257      0.604044     -2.179873
      9.59261      3.99884      5.06325        -0.146246     -0.159837      0.720617
     10.17628      3.05334      7.99931        -0.101097      0.023580     -0.497186
     11.09981      2.14891     10.67281         0.110431     -1.044700      3.041286
      4.18418      6.71012      7.01153         0.225395     -0.135401     -0.094065
      4.76785      5.76462      9.94759         0.791181     -1.853133     -0.474177
      8.69670      8.50742      1.45189         1.508835     -2.183953     -3.333861
      9.22874      7.65563      4.07548        -0.172654     -0.116901      0.536872
      4.75556      8.98916     10.49925         0.541364      2.179030      2.000546
      9.81241      9.77746      7.99931         0.263181     -0.293272     -0.278356
      6.12279      6.63706      2.12720         1.458152      1.642149      0.525262
      6.70646      5.69156      5.06325        -0.101063     -0.105420      0.267186
      5.90299      9.97575      2.12720        -1.469153      0.215372     -0.039629
      6.48666      9.03025      5.06325        -0.056036     -0.162342      0.075542
      7.07033      8.08475      7.99931         0.126167     -0.349662     -0.250326
      7.65400      7.13925     10.93537        -1.514869     -0.242391      0.138902
      9.81241      6.71012      7.01153        -0.007009      0.053785     -0.138868
     10.39608      5.76462      9.94759         1.046757     -1.674715     -0.842974
     14.15304      8.79638      1.35624        -0.258783      0.258944     -4.066843
     14.85697      7.65563      4.07548         0.031955     -0.199538      1.030839
     10.39608      8.83196     10.93537         0.932689      1.231411      0.096730
     15.44064      9.77746      7.99931        -0.132071      0.228283     -0.865269
     11.86060      6.61221      2.52778        -0.096035      1.113846     -2.196441
     12.33469      5.69156      5.06325         0.268870      0.036682      0.555308
     11.50011      9.85659      2.53683        -1.167955      0.743953     -2.290828
     12.11489      9.03025      5.06325        -0.062616     -0.165817      0.800155
     12.69856      8.08475      7.99931        -0.263827      0.013520     -0.138965
     13.93781      7.29848     10.88967        -0.456395      0.831014      2.863409
 -----------------------------------------------------------------------------------
    total drift:                               -0.217507      0.035793      0.338269


--------------------------------------------------------------------------------------------------------



  FREE ENERGIE OF THE ION-ELECTRON SYSTEM (eV)
  ---------------------------------------------------
  free  energy   TOTEN  =      -472.02577157 eV

  energy  without entropy=     -470.75409274  energy(sigma->0) =     -471.38993216
 


--------------------------------------------------------------------------------------------------------


    POTLOK:  cpu time    0.3927: real time    0.3927


--------------------------------------------------------------------------------------------------------


     LOOP+:  cpu time  597.2526: real time  597.4498
    4ORBIT:  cpu time    0.0000: real time    0.0000

 total amount of memory used by VASP MPI-rank0    87631. kBytes
=======================================================================

   base      :      30000. kBytes
   nonlr-proj:       3201. kBytes
   fftplans  :      11274. kBytes
   grid      :      19113. kBytes
   one-center:        124. kBytes
   wavefun   :      23919. kBytes
 
  
  
 General timing and accounting informations for this job:
 ========================================================
  
                  Total CPU time used (sec):      601.672
                            User time (sec):      601.294
                          System time (sec):        0.378
                         Elapsed time (sec):      602.111
  
                   Maximum memory used (kb):      246352.
                   Average memory used (kb):           0.
  
                          Minor page faults:       125569
                          Major page faults:            0
                 Voluntary context switches:          136
