"Millerite NiS"                         
           1
    11.256463    0.000000    0.000000
     5.044562   10.062820    0.000000
     0.000000    0.000000   22.519956
   Ty   Ty
  48  48
Direct configuration=     1
   0.26092069  0.47878037  0.29519774
   0.35488056  0.38482050  0.42557357
   0.03093865  0.22127911  0.08948917
   0.16696082  0.07274025  0.16482191
   0.18331370  0.31922481  0.04003714
   0.27423906  0.33335901  0.13037583
   0.36819893  0.23939914  0.26075166
   0.46215879  0.14543927  0.39112749
   0.00030194  0.37150214  0.26075166
   0.09426180  0.27754227  0.39112749
   0.40634206  0.46546200  0.13037583
   0.76092069  0.47878037  0.29519774
   0.85488056  0.38482050  0.42557357
   0.66696082  0.07274025  0.16482191
   0.52027377  0.06497294  0.49184061
   0.77423906  0.33335901  0.13037583
   0.86819893  0.23939914  0.26075166
   0.96215879  0.14543927  0.39112749
   0.50030194  0.37150214  0.26075166
   0.59426180  0.27754227  0.39112749
   0.71488211  0.21047130  0.48247009
   0.90634206  0.46546200  0.13037583
   0.26092069  0.97878037  0.29519774
   0.35488056  0.88482051  0.42557357
   0.54065945  0.69904046  0.50372710
   0.03321010  0.71889771  0.09025427
   0.16696083  0.57274025  0.16482191
   0.02923167  0.52482306  0.48247341
   0.22801841  0.01741270  0.05273381
   0.27423906  0.83335901  0.13037583
   0.36819893  0.73939914  0.26075166
   0.46215879  0.64543927  0.39112749
   0.00030194  0.87150214  0.26075166
   0.09426180  0.77754227  0.39112749
   0.17472873  0.71942645  0.49184123
   0.40634206  0.96546200  0.13037583
   0.22739260  0.51499793  0.04916168
   0.76092069  0.97878037  0.29519774
   0.85488056  0.88482051  0.42557357
   0.66696083  0.57274025  0.16482191
   0.53295342  0.49393701  0.46917736
   0.77423906  0.83335901  0.13037583
   0.86819893  0.73939914  0.26075166
   0.96215879  0.64543927  0.39112749
   0.50030194  0.87150214  0.26075166
   0.59426180  0.77754227  0.39112749
   0.74575557  0.70675523  0.46918087
   0.90634206  0.96546200  0.13037583
   0.07287763  0.16682345  0.31134757
   0.16951992  0.07018134  0.41579466
   0.37284637  0.32790739  0.05402006
   0.47891775  0.26078331  0.18097174
   0.02615111  0.34932525  0.47392584
   0.43627354  0.47164252  0.35520991
   0.24529631  0.16429103  0.10267756
   0.34231367  0.06560240  0.22483408
   0.08013881  0.49134726  0.09445824
   0.17409868  0.39738739  0.22483408
   0.26805854  0.30342752  0.35520991
   0.34639595  0.21756003  0.46621950
   0.57287763  0.16682345  0.31134757
   0.66683750  0.07286358  0.44172340
   0.86178220  0.37754507  0.05952737
   0.97891775  0.26078331  0.18097174
   0.51441060  0.32652977  0.48355639
   0.93627354  0.47164252  0.35520991
   0.75989434  0.15665560  0.11215938
   0.84231367  0.06560240  0.22483408
   0.58053433  0.47876952  0.11362562
   0.67409868  0.39738739  0.22483408
   0.76805854  0.30342752  0.35520991
   0.89038181  0.21354935  0.47392665
   0.07287763  0.66682345  0.31134757
   0.16683750  0.57286358  0.44172340
   0.39371785  0.84543053  0.06447122
   0.47891775  0.76078331  0.18097174
   0.02214148  0.89330377  0.46621978
   0.43627354  0.97164252  0.35520991
   0.24835381  0.65956227  0.09445824
   0.34231367  0.56560240  0.22483408
   0.08013881  0.99134726  0.09445824
   0.17409868  0.89738739  0.22483408
   0.26805854  0.80342752  0.35520991
   0.36201841  0.70946766  0.48558574
   0.57287763  0.66682345  0.31134757
   0.66683750  0.57286358  0.44172340
   0.86557906  0.87414646  0.06022397
   0.97891775  0.76078331  0.18097174
   0.53023342  0.87768265  0.48558574
   0.93627354  0.97164252  0.35520991
   0.75919502  0.65709336  0.11224602
   0.84231367  0.56560240  0.22483408
   0.58268188  0.97950541  0.11264794
   0.67409868  0.89738739  0.22483408
   0.76805854  0.80342752  0.35520991
   0.91316723  0.72529217  0.48355634
