       N       E                     dE             d eps       ncg     rms          rms(c)
DAV:   1     0.970971061629E+04    0.97097E+04   -0.50794E+05  1168   0.163E+03
DAV:   2     0.597331833229E+03   -0.91124E+04   -0.87941E+04  1016   0.523E+02
DAV:   3    -0.342922246024E+03   -0.94025E+03   -0.88655E+03  1104   0.179E+02
DAV:   4    -0.402533456110E+03   -0.59611E+02   -0.58909E+02  1088   0.403E+01
DAV:   5    -0.405079556338E+03   -0.25461E+01   -0.25429E+01  1272   0.887E+00    0.821E+01
DAV:   6    -0.487165741330E+03   -0.82086E+02   -0.96980E+02  1144   0.116E+02    0.155E+02
DAV:   7    -0.373757377078E+03    0.11341E+03   -0.17638E+02  1136   0.646E+01    0.611E+01
DAV:   8    -0.492688149685E+03   -0.11893E+03   -0.15017E+02  1352   0.887E+01    0.168E+02
DAV:   9    -0.375559256906E+03    0.11713E+03   -0.12784E+02  1216   0.542E+01    0.806E+01
DAV:  10    -0.375463112134E+03    0.96145E-01   -0.75873E+01  1312   0.361E+01    0.513E+01
DAV:  11    -0.376344962099E+03   -0.88185E+00   -0.36710E+01  1328   0.440E+01    0.755E+01
DAV:  12    -0.366016562258E+03    0.10328E+02   -0.40617E+01  1288   0.306E+01    0.354E+01
DAV:  13    -0.362474290437E+03    0.35423E+01   -0.17197E+01  1280   0.275E+01    0.321E+01
DAV:  14    -0.359137915968E+03    0.33364E+01   -0.91288E+00  1248   0.198E+01    0.237E+01
DAV:  15    -0.357019726206E+03    0.21182E+01   -0.29418E+00  1280   0.114E+01    0.174E+01
DAV:  16    -0.356422366191E+03    0.59736E+00   -0.13381E+00  1240   0.798E+00    0.148E+01
DAV:  17    -0.355995449690E+03    0.42692E+00   -0.71799E-01  1312   0.440E+00    0.127E+01
DAV:  18    -0.355638835939E+03    0.35661E+00   -0.46275E-01  1312   0.385E+00    0.106E+01
DAV:  19    -0.355408651971E+03    0.23018E+00   -0.53434E-01  1328   0.439E+00    0.903E+00
DAV:  20    -0.355221523158E+03    0.18713E+00   -0.39580E-01  1336   0.393E+00    0.710E+00
DAV:  21    -0.355071461249E+03    0.15006E+00   -0.36245E-01  1352   0.355E+00    0.433E+00
DAV:  22    -0.355041358484E+03    0.30103E-01   -0.15595E-01  1312   0.204E+00    0.320E+00
DAV:  23    -0.355028575138E+03    0.12783E-01   -0.93148E-02  1280   0.189E+00    0.260E+00
DAV:  24    -0.355071999455E+03   -0.43424E-01   -0.15633E-01  1264   0.252E+00    0.440E+00
DAV:  25    -0.355010363830E+03    0.61636E-01   -0.92850E-02  1160   0.204E+00    0.210E+00
DAV:  26    -0.355016966068E+03   -0.66022E-02   -0.62763E-02  1320   0.169E+00    0.234E+00
DAV:  27    -0.355002789830E+03    0.14176E-01   -0.44003E-02  1336   0.126E+00    0.112E+00
DAV:  28    -0.355007189167E+03   -0.43993E-02   -0.23668E-02  1272   0.103E+00    0.135E+00
DAV:  29    -0.355001361455E+03    0.58277E-02   -0.11823E-02  1152   0.706E-01    0.623E-01
DAV:  30    -0.355001983852E+03   -0.62240E-03   -0.49483E-03  1272   0.467E-01    0.749E-01
DAV:  31    -0.355000647378E+03    0.13365E-02   -0.33357E-03  1176   0.323E-01    0.269E-01
DAV:  32    -0.355001109105E+03   -0.46173E-03   -0.11104E-03  1008   0.225E-01    0.269E-01
DAV:  33    -0.355001360588E+03   -0.25148E-03   -0.66066E-04   928   0.175E-01    0.158E-01
DAV:  34    -0.355001620853E+03   -0.26027E-03   -0.37972E-04   800   0.148E-01    0.174E-01
DAV:  35    -0.355001947722E+03   -0.32687E-03   -0.22234E-04   608   0.117E-01    0.107E-01
DAV:  36    -0.355002160272E+03   -0.21255E-03   -0.12604E-04   608   0.849E-02    0.105E-01
DAV:  37    -0.355002931959E+03   -0.77169E-03   -0.15813E-04   696   0.704E-02    0.647E-02
DAV:  38    -0.355003181730E+03   -0.24977E-03   -0.12420E-04   632   0.648E-02    0.491E-02
DAV:  39    -0.355003826499E+03   -0.64477E-03   -0.77316E-05   616   0.451E-02    0.667E-02
DAV:  40    -0.355004042660E+03   -0.21616E-03   -0.64429E-05   608   0.476E-02    0.531E-02
DAV:  41    -0.355004770387E+03   -0.72773E-03   -0.13830E-04   720   0.385E-02    0.685E-02
DAV:  42    -0.355004873981E+03   -0.10359E-03   -0.39190E-05   608   0.344E-02    0.543E-02
DAV:  43    -0.355005017261E+03   -0.14328E-03   -0.20487E-05   584   0.180E-02    0.344E-02
DAV:  44    -0.355005061368E+03   -0.44107E-04   -0.12556E-05   600   0.171E-02
   1 F= -.35500506E+03 E0= -.35448592E+03  d E =-.103829E+01
