 vasp.6.1.0 28Jan20 (build Mar 31 2020 17:42:31) gamma-only                     
  
 executed on             LinuxIFC date 2020.04.11  20:33:15
 running on   48 total cores
 distrk:  each k-point on   48 cores,    1 groups
 distr:  one band on NCORE=   6 cores,    8 groups


--------------------------------------------------------------------------------------------------------


 INCAR:
 POTCAR:    PAW_PBE Ni_pv 06Sep2000               
 POTCAR:    PAW_PBE S 06Sep2000                   
 POTCAR:    PAW_PBE Ni_pv 06Sep2000               
   VRHFIN =Ni:                                                                                      
   LEXCH  = PE                                                                                      
   EATOM  =  3501.1230 eV,  257.3253 Ry                                                             
                                                                                                    
   TITEL  = PAW_PBE Ni_pv 06Sep2000                                                                 
   LULTRA =        F    use ultrasoft PP ?                                                          
   IUNSCR =        1    unscreen: 0-lin 1-nonlin 2-no                                               
   RPACOR =    1.500    partial core radius                                                         
   POMASS =   58.690; ZVAL   =   16.000    mass and valenz                                          
   RCORE  =    2.000    outmost cutoff radius                                                       
   RWIGS  =    2.000; RWIGS  =    1.058    wigner-seitz radius (au A)                               
   ENMAX  =  367.986; ENMIN  =  275.989 eV                                                          
   RCLOC  =    1.301    cutoff for local pot                                                        
   LCOR   =        T    correct aug charges                                                         
   LPAW   =        T    paw PP                                                                      
   EAUG   =  703.443                                                                                
   DEXC   =    0.000                                                                                
   RMAX   =    2.041    core radius for proj-oper                                                   
   RAUG   =    1.300    factor for augmentation sphere                                              
   RDEP   =    2.103    radius for radial grids                                                     
   RDEPT  =    1.618    core radius for aug-charge                                                  
                                                                                                    
   Atomic configuration                                                                             
    8 entries                                                                                       
     n  l   j            E        occ.                                                              
     1  0  0.50     -8206.4253   2.0000                                                             
     2  0  0.50      -976.1748   2.0000                                                             
     2  1  1.50      -839.0571   6.0000                                                             
     3  0  0.50      -105.9991   2.0000                                                             
     3  1  1.50       -66.4603   6.0000                                                             
     3  2  2.50        -4.6458   9.0000                                                             
     4  0  0.50        -4.4926   1.0000                                                             
     4  3  2.50        -1.3606   0.0000                                                             
   Description                                                                                      
     l       E           TYP  RCUT    TYP  RCUT                                                     
     1    -66.4602962     23  1.700                                                                 
     1     -1.3605826     23  1.700                                                                 
     2     -4.6457867     23  2.000                                                                 
     2     -6.0063693     23  2.000                                                                 
     0     -4.4925576     23  1.900                                                                 
     0     16.3626226     23  1.900                                                                 
  local pseudopotential read in
  partial core-charges read in
  partial kinetic energy density read in
  atomic valenz-charges read in
  non local Contribution for L=           1  read in
    real space projection operators read in
  non local Contribution for L=           1  read in
    real space projection operators read in
  non local Contribution for L=           2  read in
    real space projection operators read in
  non local Contribution for L=           2  read in
    real space projection operators read in
  non local Contribution for L=           0  read in
    real space projection operators read in
  non local Contribution for L=           0  read in
    real space projection operators read in
    PAW grid and wavefunctions read in
 
   number of l-projection  operators is LMAX  =           6
   number of lm-projection operators is LMMAX =          18
 
 POTCAR:    PAW_PBE S 06Sep2000                   
   VRHFIN =S : s2p4                                                                                 
   LEXCH  = PE                                                                                      
   EATOM  =   276.8230 eV,   20.3459 Ry                                                             
                                                                                                    
   TITEL  = PAW_PBE S 06Sep2000                                                                     
   LULTRA =        F    use ultrasoft PP ?                                                          
   IUNSCR =        1    unscreen: 0-lin 1-nonlin 2-no                                               
   RPACOR =    1.500    partial core radius                                                         
   POMASS =   32.066; ZVAL   =    6.000    mass and valenz                                          
   RCORE  =    1.900    outmost cutoff radius                                                       
   RWIGS  =    2.200; RWIGS  =    1.164    wigner-seitz radius (au A)                               
   ENMAX  =  258.689; ENMIN  =  194.016 eV                                                          
   ICORE  =        2    local potential                                                             
   LCOR   =        T    correct aug charges                                                         
   LPAW   =        T    paw PP                                                                      
   EAUG   =  335.092                                                                                
   DEXC   =    0.000                                                                                
   RMAX   =    1.942    core radius for proj-oper                                                   
   RAUG   =    1.300    factor for augmentation sphere                                              
   RDEP   =    1.954    radius for radial grids                                                     
   RDEPT  =    1.744    core radius for aug-charge                                                  
                                                                                                    
   Atomic configuration                                                                             
    6 entries                                                                                       
     n  l   j            E        occ.                                                              
     1  0  0.50     -2405.8406   2.0000                                                             
     2  0  0.50      -211.7007   2.0000                                                             
     2  1  1.50      -156.4958   6.0000                                                             
     3  0  0.50       -17.2562   2.0000                                                             
     3  1  0.50        -7.0085   4.0000                                                             
     3  2  1.50        -6.8029   0.0000                                                             
   Description                                                                                      
     l       E           TYP  RCUT    TYP  RCUT                                                     
     0    -17.2561641     23  1.900                                                                 
     0    -15.8743224     23  1.900                                                                 
     1     -7.0085400     23  1.900                                                                 
     1     -2.7779785     23  1.900                                                                 
     2     -6.8029130     23  1.900                                                                 
  local pseudopotential read in
  partial core-charges read in
  partial kinetic energy density read in
  atomic valenz-charges read in
  non local Contribution for L=           0  read in
    real space projection operators read in
  non local Contribution for L=           0  read in
    real space projection operators read in
  non local Contribution for L=           1  read in
    real space projection operators read in
  non local Contribution for L=           1  read in
    real space projection operators read in
    PAW grid and wavefunctions read in
 
   number of l-projection  operators is LMAX  =           4
   number of lm-projection operators is LMMAX =           8
 
 Optimization of the real space projectors (new method)

 maximal supplied QI-value         = 18.90
 optimisation between [QCUT,QGAM] = [ 10.77, 21.73] = [ 32.49,132.25] Ry 
 Optimized for a Real-space Cutoff    1.38 Angstroem

   l    n(q)    QCUT    max X(q) W(low)/X(q) W(high)/X(q)  e(spline) 
   1      8    10.771     2.836    0.40E-04    0.29E-04    0.12E-06
   1      8    10.771     4.023    0.10E-03    0.48E-04    0.29E-06
   2      8    10.771    73.368    0.42E-03    0.97E-04    0.44E-06
   2      8    10.771    69.010    0.42E-03    0.99E-04    0.45E-06
   0      9    10.771    54.797    0.10E-03    0.56E-04    0.74E-07
   0      9    10.771    24.266    0.89E-04    0.49E-04    0.67E-07
 Optimization of the real space projectors (new method)

 maximal supplied QI-value         = 19.84
 optimisation between [QCUT,QGAM] = [ 10.71, 21.63] = [ 32.15,130.99] Ry 
 Optimized for a Real-space Cutoff    1.19 Angstroem

   l    n(q)    QCUT    max X(q) W(low)/X(q) W(high)/X(q)  e(spline) 
   0      8    10.715   187.594    0.41E-03    0.53E-04    0.66E-07
   0      8    10.715   164.243    0.41E-03    0.53E-04    0.65E-07
   1      7    10.715    67.533    0.19E-03    0.59E-03    0.68E-07
   1      7    10.715    50.729    0.19E-03    0.58E-03    0.67E-07
  PAW_PBE Ni_pv 06Sep2000               :
 energy of atom  1       EATOM=-3501.1230
 kinetic energy error for atom=    0.0925 (will be added to EATOM!!)
  PAW_PBE S 06Sep2000                   :
 energy of atom  2       EATOM= -276.8230
 kinetic energy error for atom=    0.0033 (will be added to EATOM!!)
 
 
 POSCAR: Structure 36 made from -102-8.xsd file
  positions in direct lattice
  No initial velocities read in
 exchange correlation table for  LEXCH =        8
   RHO(1)=    0.500       N(1)  =     2000
   RHO(2)=  100.500       N(2)  =     4000
 


--------------------------------------------------------------------------------------------------------


 ion  position               nearest neighbor table
   1  0.439  0.464  0.163-  30 2.25  36 2.26  45 2.26  37 2.36  46 2.36   5 2.53  22 2.53
   2  0.491  0.464  0.342-  31 2.25  37 2.26  46 2.26  47 2.36   6 2.53  23 2.53
   3  0.163  0.964  0.073-  27 2.25  38 2.26  39 2.36  34 2.36  11 2.53   7 2.53
   4  0.215  0.964  0.253-  28 2.25  39 2.26  34 2.26  35 2.36  12 2.53   8 2.53
   5  0.439  0.200  0.163-  34 2.25  36 2.26  40 2.26  37 2.36  41 2.36   1 2.53  22 2.53
   6  0.491  0.200  0.342-  35 2.25  37 2.26  41 2.26  42 2.36   2 2.53  23 2.53
   7  0.163  0.700  0.073-  32 2.25  38 2.26  39 2.36  30 2.36  11 2.53   3 2.53
   8  0.215  0.700  0.253-  33 2.25  39 2.26  30 2.26  31 2.36  12 2.53   4 2.53
   9  0.131  0.332  0.139-  36 2.25  27 2.26  32 2.26  28 2.36  33 2.36  18 2.53  14 2.53
  10  0.182  0.332  0.319-  37 2.25  28 2.26  33 2.26  29 2.36  15 2.53  19 2.53
  11  0.355  0.832  0.049-  51 2.25  30 2.36  34 2.36   7 2.53   3 2.53
  12  0.407  0.832  0.229-  52 2.25  30 2.26  34 2.26  31 2.36  35 2.36   8 2.53   4 2.53
  13  0.458  0.832  0.408-  31 2.26  35 2.26
  14  0.939  0.464  0.163-  43 2.25  49 2.26  32 2.26  50 2.36  33 2.36  18 2.53   9 2.53
  15  0.991  0.464  0.342-  44 2.25  50 2.26  33 2.26  19 2.53  10 2.53
  16  0.663  0.964  0.073-  40 2.25  51 2.26  52 2.36  48 2.36  24 2.53  20 2.53
  17  0.715  0.964  0.253-  41 2.25  52 2.26  48 2.26  25 2.53  21 2.53
  18  0.939  0.200  0.163-  48 2.25  49 2.26  27 2.26  50 2.36  28 2.36  14 2.53   9 2.53
  19  0.991  0.200  0.342-  50 2.26  28 2.26  29 2.36  15 2.53  10 2.53
  20  0.663  0.700  0.073-  45 2.25  51 2.26  52 2.36  43 2.36  24 2.53  16 2.53
  21  0.715  0.700  0.253-  46 2.25  52 2.26  43 2.26  44 2.36  25 2.53  17 2.53
  22  0.631  0.332  0.139-  49 2.25  40 2.26  45 2.26  41 2.36  46 2.36   5 2.53   1 2.53
  23  0.682  0.332  0.319-  50 2.25  41 2.26  46 2.26  42 2.36  47 2.36   6 2.53   2 2.53
  24  0.855  0.832  0.049-  38 2.25  43 2.36  48 2.36  20 2.53  16 2.53
  25  0.907  0.832  0.229-  39 2.25  43 2.26  48 2.26  44 2.36  17 2.53  21 2.53
  26  0.958  0.832  0.408-  44 2.26
  27  0.060  0.164  0.060-   3 2.25   9 2.26  18 2.26
  28  0.111  0.164  0.239-   4 2.25  10 2.26  19 2.26   9 2.36  18 2.36
  29  0.163  0.164  0.418-  10 2.36  19 2.36
  30  0.336  0.664  0.149-   1 2.25  12 2.26   8 2.26  11 2.36   7 2.36
  31  0.387  0.664  0.329-   2 2.25  13 2.26   8 2.36  12 2.36
  32  0.060  0.500  0.060-   7 2.25   9 2.26  14 2.26
  33  0.111  0.500  0.239-   8 2.25  10 2.26  15 2.26   9 2.36  14 2.36
  34  0.336  1.000  0.149-   5 2.25  12 2.26   4 2.26  11 2.36   3 2.36
  35  0.387  1.000  0.329-   6 2.25  13 2.26   4 2.36  12 2.36
  36  0.316  0.332  0.090-   9 2.25   5 2.26   1 2.26
  37  0.368  0.332  0.269-  10 2.25   6 2.26   2 2.26   1 2.36   5 2.36
  38  0.040  0.832  0.000-  24 2.25   7 2.26   3 2.26
  39  0.092  0.832  0.179-  25 2.25   8 2.26   4 2.26   3 2.36   7 2.36
  40  0.560  0.164  0.060-  16 2.25  22 2.26   5 2.26
  41  0.611  0.164  0.239-  17 2.25  23 2.26   6 2.26  22 2.36   5 2.36
  42  0.663  0.164  0.418-  23 2.36   6 2.36
  43  0.836  0.664  0.149-  14 2.25  25 2.26  21 2.26  24 2.36  20 2.36
  44  0.887  0.664  0.329-  15 2.25  26 2.26  21 2.36  25 2.36
  45  0.560  0.500  0.060-  20 2.25  22 2.26   1 2.26
  46  0.611  0.500  0.239-  21 2.25  23 2.26   2 2.26  22 2.36   1 2.36
  47  0.663  0.500  0.418-  23 2.36   2 2.36
  48  0.836  1.000  0.149-  18 2.25  25 2.26  17 2.26  24 2.36  16 2.36
  49  0.816  0.332  0.090-  22 2.25  18 2.26  14 2.26
  50  0.868  0.332  0.269-  23 2.25  19 2.26  15 2.26  14 2.36  18 2.36
  51  0.540  0.832  0.000-  11 2.25  16 2.26  20 2.26
  52  0.592  0.832  0.179-  12 2.25  17 2.26  21 2.26  20 2.36  16 2.36
 
  LATTYP: Found a simple orthorhombic cell.
 ALAT       =     9.5784100000
 B/A-ratio  =     1.1751911892
 C/A-ratio  =     1.7949213288
  
  Lattice vectors:
  
 A1 = (   0.0000000000,  -9.5784100000,   0.0000000000)
 A2 = ( -11.2564630382,   0.0000000000,   0.0000000000)
 A3 = (   0.0000000000,   0.0000000000, -17.1924924047)


Analysis of symmetry for initial positions (statically):
=====================================================================
 Subroutine PRICEL returns:
 Original cell was already a primitive cell.
 

 Routine SETGRP: Setting up the symmetry group for a 
 simple orthorhombic supercell.


 Subroutine GETGRP returns: Found  1 space group operations
 (whereof  1 operations were pure point group operations)
 out of a pool of  8 trial point group operations.


The static configuration has the point symmetry C_1 .


Analysis of symmetry for dynamics (positions and initial velocities):
=====================================================================
 Subroutine PRICEL returns:
 Original cell was already a primitive cell.
 

 Routine SETGRP: Setting up the symmetry group for a 
 simple orthorhombic supercell.


 Subroutine GETGRP returns: Found  1 space group operations
 (whereof  1 operations were pure point group operations)
 out of a pool of  8 trial point group operations.


The dynamic configuration has the point symmetry C_1 .


 Subroutine INISYM returns: Found  1 space group operations
 (whereof  1 operations are pure point group operations),
 and found     1 'primitive' translations


----------------------------------------------------------------------------------------

                                     Primitive cell                                     

  volume of cell :    1853.6777

  direct lattice vectors                    reciprocal lattice vectors
    11.256463038  0.000000000  0.000000000     0.088837852  0.000000000  0.000000000
     0.000000000  9.578410000  0.000000000     0.000000000  0.104401461  0.000000000
     0.000000000  0.000000000 17.192492405     0.000000000  0.000000000  0.058164923

  length of vectors
    11.256463038  9.578410000 17.192492405     0.088837852  0.104401461  0.058164923

  position of ions in fractional coordinates (direct lattice)
     0.439334990  0.463887997  0.162833771
     0.491186924  0.463887997  0.342246010
     0.163409030  0.963887997  0.073127651
     0.215260964  0.963887997  0.252539890
     0.439334990  0.199681997  0.162833771
     0.491186924  0.199681997  0.342246010
     0.163409030  0.699681997  0.073127651
     0.215260964  0.699681997  0.252539890
     0.130639703  0.331784997  0.139132876
     0.182491637  0.331784997  0.318545115
     0.354713728  0.831784997  0.049426756
     0.406565662  0.831784997  0.228838995
     0.458417597  0.831784997  0.408251235
     0.939334990  0.463887997  0.162833771
     0.991186924  0.463887997  0.342246010
     0.663409030  0.963887997  0.073127651
     0.715260964  0.963887997  0.252539890
     0.939334990  0.199681997  0.162833771
     0.991186924  0.199681997  0.342246010
     0.663409030  0.699681997  0.073127651
     0.715260964  0.699681997  0.252539890
     0.630639703  0.331784997  0.139132876
     0.682491637  0.331784997  0.318545115
     0.854713728  0.831784997  0.049426756
     0.906565662  0.831784997  0.228838995
     0.958417597  0.831784997  0.408251235
     0.059637103  0.163569997  0.059526290
     0.111489038  0.163569997  0.238938529
     0.163340972  0.163569997  0.418350768
     0.335563063  0.663569997  0.149232409
     0.387414997  0.663569997  0.328644649
     0.059637103  0.499999997  0.059526290
     0.111489038  0.499999997  0.238938529
     0.335563063  0.999999997  0.149232409
     0.387414997  0.999999997  0.328644649
     0.316036869  0.331784997  0.089706120
     0.367888803  0.331784997  0.269118359
     0.040110910  0.831784997  0.000000000
     0.091962844  0.831784997  0.179412239
     0.559637103  0.163569997  0.059526290
     0.611489038  0.163569997  0.238938529
     0.663340972  0.163569997  0.418350768
     0.835563063  0.663569997  0.149232409
     0.887414997  0.663569997  0.328644649
     0.559637103  0.499999997  0.059526290
     0.611489038  0.499999997  0.238938529
     0.663340972  0.499999997  0.418350768
     0.835563063  0.999999997  0.149232409
     0.816036869  0.331784997  0.089706120
     0.867888803  0.331784997  0.269118359
     0.540110910  0.831784997  0.000000000
     0.591962844  0.831784997  0.179412239

  ion indices of the primitive-cell ions
   primitive index   ion index
                 1           1
                 2           2
                 3           3
                 4           4
                 5           5
                 6           6
                 7           7
                 8           8
                 9           9
                10          10
                11          11
                12          12
                13          13
                14          14
                15          15
                16          16
                17          17
                18          18
                19          19
                20          20
                21          21
                22          22
                23          23
                24          24
                25          25
                26          26
                27          27
                28          28
                29          29
                30          30
                31          31
                32          32
                33          33
                34          34
                35          35
                36          36
                37          37
                38          38
                39          39
                40          40
                41          41
                42          42
                43          43
                44          44
                45          45
                46          46
                47          47
                48          48
                49          49
                50          50
                51          51
                52          52

----------------------------------------------------------------------------------------

 
 
 KPOINTS: gamma-point-only calculation. no periodi

Automatic generation of k-mesh.
Space group operators:
 irot       det(A)        alpha          n_x          n_y          n_z        tau_x        tau_y        tau_z
    1     1.000000     0.000000     1.000000     0.000000     0.000000     0.000000     0.000000     0.000000
 
 Subroutine IBZKPT returns following result:
 ===========================================
 
 Found      1 irreducible k-points:
 
 Following reciprocal coordinates:
            Coordinates               Weight
  0.000000  0.000000  0.000000      1.000000
 
 Following cartesian coordinates:
            Coordinates               Weight
  0.000000  0.000000  0.000000      1.000000
 


--------------------------------------------------------------------------------------------------------




 Dimension of arrays:
   k-points           NKPTS =      1   k-points in BZ     NKDIM =      1   number of bands    NBANDS=    344
   number of dos      NEDOS =    301   number of ions     NIONS =     52
   non local maximal  LDIM  =      6   non local SUM 2l+1 LMDIM =     18
   total plane-waves  NPLWV = 270000
   max r-space proj   IRMAX =   1656   max aug-charges    IRDMAX=   4788
   dimension x,y,z NGX =    60 NGY =   50 NGZ =   90
   dimension x,y,z NGXF=   120 NGYF=  100 NGZF=  180
   support grid    NGXF=   120 NGYF=  100 NGZF=  180
   ions per type =              26  26
   NGX,Y,Z   is equivalent  to a cutoff of   8.86,  8.68,  8.70 a.u.
   NGXF,Y,Z  is equivalent  to a cutoff of  17.72, 17.36, 17.41 a.u.

 SYSTEM =  "Millerite NiS"                         
 POSCAR =  Structure 36 made from -102-8.xsd file  

 Startparameter for this run:
   NWRITE =      2    write-flag & timer
   PREC   = normal    normal or accurate (medium, high low for compatibility)
   ISTART =      0    job   : 0-new  1-cont  2-samecut
   ICHARG =      2    charge: 1-file 2-atom 10-const
   ISPIN  =      1    spin polarized calculation?
   LNONCOLLINEAR =      F non collinear calculations
   LSORBIT =      F    spin-orbit coupling
   INIWAV =      1    electr: 0-lowe 1-rand  2-diag
   LASPH  =      F    aspherical Exc in radial PAW
   METAGGA=      F    non-selfconsistent MetaGGA calc.

 Electronic Relaxation 1
   ENCUT  =  450.0 eV  33.07 Ry    5.75 a.u.  19.47 16.57 29.74*2*pi/ulx,y,z
   ENINI  =  450.0     initial cutoff
   ENAUG  =  703.4 eV  augmentation charge cutoff
   NELM   =    100;   NELMIN=  2; NELMDL= -5     # of ELM steps 
   EDIFF  = 0.1E-03   stopping-criterion for ELM
   LREAL  =      T    real-space projection
   NLSPLINE    = F    spline interpolate recip. space projectors
   LCOMPAT=      F    compatible to vasp.4.4
   GGA_COMPAT  = T    GGA compatible to vasp.4.4-vasp.4.6
   LMAXPAW     = -100 max onsite density
   LMAXMIX     =    2 max onsite mixed and CHGCAR
   VOSKOWN=      0    Vosko Wilk Nusair interpolation
   ROPT   =   -0.00050  -0.00050
 Ionic relaxation
   EDIFFG = 0.1E-02   stopping-criterion for IOM
   NSW    =      0    number of steps for IOM
   NBLOCK =      1;   KBLOCK =      1    inner block; outer block 
   IBRION =     -1    ionic relax: 0-MD 1-quasi-New 2-CG
   NFREE  =      0    steps in history (QN), initial steepest desc. (CG)
   ISIF   =      2    stress and relaxation
   IWAVPR =     10    prediction:  0-non 1-charg 2-wave 3-comb
   ISYM   =      2    0-nonsym 1-usesym 2-fastsym
   LCORR  =      T    Harris-Foulkes like correction to forces

   POTIM  = 0.5000    time-step for ionic-motion
   TEIN   =    0.0    initial temperature
   TEBEG  =    0.0;   TEEND  =   0.0 temperature during run
   SMASS  =  -3.00    Nose mass-parameter (am)
   estimated Nose-frequenzy (Omega)   =  0.10E-29 period in steps = 0.13E+47 mass=  -0.290E-26a.u.
   SCALEE = 1.0000    scale energy and forces
   NPACO  =    256;   APACO  = 16.0  distance and # of slots for P.C.
   PSTRESS=    0.0 pullay stress

  Mass of Ions in am
   POMASS =  58.69 32.07
  Ionic Valenz
   ZVAL   =  16.00  6.00
  Atomic Wigner-Seitz radii
   RWIGS  =  -1.00 -1.00
  virtual crystal weights 
   VCA    =   1.00  1.00
   NELECT =     572.0000    total number of electrons
   NUPDOWN=      -1.0000    fix difference up-down

 DOS related values:
   EMIN   =  10.00;   EMAX   =-10.00  energy-range for DOS
   EFERMI =   0.00
   ISMEAR =     0;   SIGMA  =   0.20  broadening in eV -4-tet -1-fermi 0-gaus

 Electronic relaxation 2 (details)
   IALGO  =     38    algorithm
   LDIAG  =      T    sub-space diagonalisation (order eigenvalues)
   LSUBROT=      F    optimize rotation matrix (better conditioning)
   TURBO    =      0    0=normal 1=particle mesh
   IRESTART =      0    0=no restart 2=restart with 2 vectors
   NREBOOT  =      0    no. of reboots
   NMIN     =      0    reboot dimension
   EREF     =   0.00    reference energy to select bands
   IMIX   =      4    mixing-type and parameters
     AMIX     =   0.40;   BMIX     =  1.00
     AMIX_MAG =   1.60;   BMIX_MAG =  1.00
     AMIN     =   0.10
     WC   =   100.;   INIMIX=   1;  MIXPRE=   1;  MAXMIX= -45

 Intra band minimization:
   WEIMIN = 0.0000     energy-eigenvalue tresh-hold
   EBREAK =  0.73E-07  absolut break condition
   DEPER  =   0.30     relativ break condition  

   TIME   =   0.40     timestep for ELM

  volume/ion in A,a.u.               =      35.65       240.56
  Fermi-wavevector in a.u.,A,eV,Ry     =   1.106272  2.090552 16.651337  1.223839
  Thomas-Fermi vector in A             =   2.242771
 
 Write flags
   LWAVE        =      F    write WAVECAR
   LDOWNSAMPLE  =      F    k-point downsampling of WAVECAR
   LCHARG       =      F    write CHGCAR
   LVTOT        =      F    write LOCPOT, total local potential
   LVHAR        =      F    write LOCPOT, Hartree potential only
   LELF         =      F    write electronic localiz. function (ELF)
   LORBIT       =      0    0 simple, 1 ext, 2 COOP (PROOUT), +10 PAW based schemes


 Dipole corrections
   LMONO  =      F    monopole corrections only (constant potential shift)
   LDIPOL =      F    correct potential (dipole corrections)
   IDIPOL =      0    1-x, 2-y, 3-z, 4-all directions 
   EPSILON=  1.0000000 bulk dielectric constant

 Exchange correlation treatment:
   GGA     =    --    GGA type
   LEXCH   =     8    internal setting for exchange type
   VOSKOWN=      0    Vosko Wilk Nusair interpolation
   LHFCALC =     F    Hartree Fock is set to
   LHFONE  =     F    Hartree Fock one center treatment
   AEXX    =    0.0000 exact exchange contribution

 Linear response parameters
   LEPSILON=     F    determine dielectric tensor
   LRPA    =     F    only Hartree local field effects (RPA)
   LNABLA  =     F    use nabla operator in PAW spheres
   LVEL    =     F    velocity operator in full k-point grid
   LINTERFAST=   F  fast interpolation
   KINTER  =     0    interpolate to denser k-point grid
   CSHIFT  =0.1000    complex shift for real part using Kramers Kronig
   OMEGAMAX=  -1.0    maximum frequency
   DEG_THRESHOLD= 0.2000000E-02 threshold for treating states as degnerate
   RTIME   =   -0.100 relaxation time in fs
  (WPLASMAI=    0.000 imaginary part of plasma frequency in eV, 0.658/RTIME)
   DFIELD  = 0.0000000 0.0000000 0.0000000 field for delta impulse in time
 
 Orbital magnetization related:
   ORBITALMAG=     F  switch on orbital magnetization
   LCHIMAG   =     F  perturbation theory with respect to B field
   DQ        =  0.001000  dq finite difference perturbation B field
   LLRAUG    =     F  two centre corrections for induced B field



--------------------------------------------------------------------------------------------------------


 Static calculation
 charge density and potential will be updated during run
 non-spin polarized calculation
 Variant of blocked Davidson
 Davidson routine will perform the subspace rotation
 perform sub-space diagonalisation
    after iterative eigenvector-optimisation
 modified Broyden-mixing scheme, WC =      100.0
 initial mixing is a Kerker type mixing with AMIX =  0.4000 and BMIX =      1.0000
 Hartree-type preconditioning will be used
 using additional bands           58
 real space projection scheme for non local part
 use partial core corrections
 calculate Harris-corrections to forces 
   (improved forces if not selfconsistent)
 use gradient corrections 
 use of overlap-Matrix (Vanderbilt PP)
 Gauss-broadening in eV      SIGMA  =   0.20


--------------------------------------------------------------------------------------------------------


  energy-cutoff  :      450.00
  volume of cell :     1853.68
      direct lattice vectors                 reciprocal lattice vectors
    11.256463038  0.000000000  0.000000000     0.088837852  0.000000000  0.000000000
     0.000000000  9.578410000  0.000000000     0.000000000  0.104401461  0.000000000
     0.000000000  0.000000000 17.192492405     0.000000000  0.000000000  0.058164923

  length of vectors
    11.256463038  9.578410000 17.192492405     0.088837852  0.104401461  0.058164923


 
 k-points in units of 2pi/SCALE and weight: gamma-point-only calculation. no periodi
   0.00000000  0.00000000  0.00000000       1.000
 
 k-points in reciprocal lattice and weights: gamma-point-only calculation. no periodi
   0.00000000  0.00000000  0.00000000       1.000
 
 position of ions in fractional coordinates (direct lattice) 
   0.43933499  0.46388800  0.16283377
   0.49118692  0.46388800  0.34224601
   0.16340903  0.96388800  0.07312765
   0.21526096  0.96388800  0.25253989
   0.43933499  0.19968200  0.16283377
   0.49118692  0.19968200  0.34224601
   0.16340903  0.69968200  0.07312765
   0.21526096  0.69968200  0.25253989
   0.13063970  0.33178500  0.13913288
   0.18249164  0.33178500  0.31854511
   0.35471373  0.83178500  0.04942676
   0.40656566  0.83178500  0.22883899
   0.45841760  0.83178500  0.40825124
   0.93933499  0.46388800  0.16283377
   0.99118692  0.46388800  0.34224601
   0.66340903  0.96388800  0.07312765
   0.71526096  0.96388800  0.25253989
   0.93933499  0.19968200  0.16283377
   0.99118692  0.19968200  0.34224601
   0.66340903  0.69968200  0.07312765
   0.71526096  0.69968200  0.25253989
   0.63063970  0.33178500  0.13913288
   0.68249164  0.33178500  0.31854511
   0.85471373  0.83178500  0.04942676
   0.90656566  0.83178500  0.22883899
   0.95841760  0.83178500  0.40825124
   0.05963710  0.16357000  0.05952629
   0.11148904  0.16357000  0.23893853
   0.16334097  0.16357000  0.41835077
   0.33556306  0.66357000  0.14923241
   0.38741500  0.66357000  0.32864465
   0.05963710  0.50000000  0.05952629
   0.11148904  0.50000000  0.23893853
   0.33556306  1.00000000  0.14923241
   0.38741500  1.00000000  0.32864465
   0.31603687  0.33178500  0.08970612
   0.36788880  0.33178500  0.26911836
   0.04011091  0.83178500  0.00000000
   0.09196284  0.83178500  0.17941224
   0.55963710  0.16357000  0.05952629
   0.61148904  0.16357000  0.23893853
   0.66334097  0.16357000  0.41835077
   0.83556306  0.66357000  0.14923241
   0.88741500  0.66357000  0.32864465
   0.55963710  0.50000000  0.05952629
   0.61148904  0.50000000  0.23893853
   0.66334097  0.50000000  0.41835077
   0.83556306  1.00000000  0.14923241
   0.81603687  0.33178500  0.08970612
   0.86788880  0.33178500  0.26911836
   0.54011091  0.83178500  0.00000000
   0.59196284  0.83178500  0.17941224
 
 position of ions in cartesian coordinates  (Angst):
   4.94535808  4.44330943  2.79951837
   5.52902745  4.44330943  5.88406193
   1.83940771  9.23251443  1.25724658
   2.42307708  9.23251443  4.34179014
   4.94535808  1.91263604  2.79951837
   5.52902745  1.91263604  5.88406193
   1.83940771  6.70184104  1.25724658
   2.42307708  6.70184104  4.34179014
   1.47054099  3.17797273  2.39204091
   2.05421037  3.17797273  5.47658447
   3.99282197  7.96717773  0.84976913
   4.57649135  7.96717773  3.93431268
   5.16016074  7.96717773  7.01885626
  10.57358960  4.44330943  2.79951837
  11.15725897  4.44330943  5.88406193
   7.46763923  9.23251443  1.25724658
   8.05130860  9.23251443  4.34179014
  10.57358960  1.91263604  2.79951837
  11.15725897  1.91263604  5.88406193
   7.46763923  6.70184104  1.25724658
   8.05130860  6.70184104  4.34179014
   7.09877251  3.17797273  2.39204091
   7.68244189  3.17797273  5.47658447
   9.62105349  7.96717773  0.84976913
  10.20472287  7.96717773  3.93431268
  10.78839226  7.96717773  7.01885626
   0.67130285  1.56674049  1.02340529
   1.25497224  1.56674049  4.10794885
   1.83864161  1.56674049  7.19249240
   3.77725322  6.35594549  2.56567706
   4.36092259  6.35594549  5.65022063
   0.67130285  4.78920497  1.02340529
   1.25497224  4.78920497  4.10794885
   3.77725322  9.57840997  2.56567706
   4.36092259  9.57840997  5.65022063
   3.55745733  3.17797273  1.54227179
   4.14112671  3.17797273  4.62681534
   0.45150698  7.96717773  0.00000000
   1.03517635  7.96717773  3.08454356
   6.29953436  1.56674049  1.02340529
   6.88320375  1.56674049  4.10794885
   7.46687313  1.56674049  7.19249240
   9.40548473  6.35594549  2.56567706
   9.98915411  6.35594549  5.65022063
   6.29953436  4.78920497  1.02340529
   6.88320375  4.78920497  4.10794885
   7.46687313  4.78920497  7.19249240
   9.40548473  9.57840997  2.56567706
   9.18568885  3.17797273  1.54227179
   9.76935823  3.17797273  4.62681534
   6.07973849  7.96717773  0.00000000
   6.66340787  7.96717773  3.08454356
 


--------------------------------------------------------------------------------------------------------


 use parallel FFT for orbitals z direction half grid
 k-point   1 :   0.0000 0.0000 0.0000  plane waves:   20117

 maximum and minimum number of plane-waves per node :      3359     3348

 maximum number of plane-waves:     20117
 maximum index in each direction: 
   IXMAX=   19   IYMAX=   16   IZMAX=   29
   IXMIN=  -19   IYMIN=  -16   IZMIN=    0


 real space projection operators:
  total allocation   :       7322.81 KBytes
  max/ min on nodes  :       1229.91       1214.47


 parallel 3D FFT for wavefunctions:
    minimum data exchange during FFTs selected (reduces bandwidth)
 parallel 3D FFT for charge:
    minimum data exchange during FFTs selected (reduces bandwidth)


 total amount of memory used by VASP MPI-rank0    41545. kBytes
=======================================================================

   base      :      30000. kBytes
   nonlr-proj:       1511. kBytes
   fftplans  :       2754. kBytes
   grid      :       4856. kBytes
   one-center:         69. kBytes
   wavefun   :       2355. kBytes
 
     INWAV:  cpu time    0.0000: real time    0.0000
 Broyden mixing: mesh for mixing (old mesh)
   NGX = 39   NGY = 33   NGZ = 59
  (NGX  =120   NGY  =100   NGZ  =180)
  gives a total of  75933 points

 initial charge density was supplied:
 charge density of overlapping atoms calculated
 number of electron     572.0000000 magnetization 
 keeping initial charge density in first step


--------------------------------------------------------------------------------------------------------


 Maximum index for non-local projection operator          267
 Maximum index for augmentation-charges          315 (set IRDMAX)


--------------------------------------------------------------------------------------------------------


 First call to EWALD:  gamma=   0.144
 Maximum number of real-space cells 3x 3x 2
 Maximum number of reciprocal cells 3x 2x 4

    FEWALD:  cpu time    0.0077: real time    0.0078


--------------------------------------- Iteration      1(   1)  ---------------------------------------


    POTLOK:  cpu time    0.0503: real time    0.0508
    SETDIJ:  cpu time    0.0050: real time    0.0052
     EDDAV:  cpu time    1.6767: real time    1.6833
       DOS:  cpu time    0.0010: real time    0.0010
    --------------------------------------------
      LOOP:  cpu time    1.7330: real time    1.7404

 eigenvalue-minimisations  :   848
 total energy-change (2. order) : 0.6260650E+04  (-0.3619362E+05)
 number of electron     572.0000000 magnetization 
 augmentation part      572.0000000 magnetization 

 Free energy of the ion-electron system (eV)
  ---------------------------------------------------
  alpha Z        PSCENC =      1046.73971423
  Ewald energy   TEWEN  =     88493.53611136
  -Hartree energ DENC   =   -175851.80685776
  -exchange      EXHF   =         0.00000000
  -V(xc)+E(xc)   XCENC  =      2628.57601056
  PAW double counting   =     81415.77407466   -84963.31414086
  entropy T*S    EENTRO =        -0.29690337
  eigenvalues    EBANDS =     -4732.66209627
  atomic energy  EATOM  =     98224.10364994
  Solvation  Ediel_sol  =         0.00000000
  ---------------------------------------------------
  free energy    TOTEN  =      6260.64956249 eV

  energy without entropy =     6260.94646585  energy(sigma->0) =     6260.79801417


--------------------------------------------------------------------------------------------------------




--------------------------------------- Iteration      1(   2)  ---------------------------------------


     EDDAV:  cpu time    1.4823: real time    1.4886
       DOS:  cpu time    0.0005: real time    0.0005
    --------------------------------------------
      LOOP:  cpu time    1.4828: real time    1.4891

 eigenvalue-minimisations  :   728
 total energy-change (2. order) :-0.5909632E+04  (-0.5705384E+04)
 number of electron     572.0000000 magnetization 
 augmentation part      572.0000000 magnetization 

 Free energy of the ion-electron system (eV)
  ---------------------------------------------------
  alpha Z        PSCENC =      1046.73971423
  Ewald energy   TEWEN  =     88493.53611136
  -Hartree energ DENC   =   -175851.80685776
  -exchange      EXHF   =         0.00000000
  -V(xc)+E(xc)   XCENC  =      2628.57601056
  PAW double counting   =     81415.77407466   -84963.31414086
  entropy T*S    EENTRO =        -0.66228367
  eigenvalues    EBANDS =    -10641.92893209
  atomic energy  EATOM  =     98224.10364994
  Solvation  Ediel_sol  =         0.00000000
  ---------------------------------------------------
  free energy    TOTEN  =       351.01734636 eV

  energy without entropy =      351.67963003  energy(sigma->0) =      351.34848820


--------------------------------------------------------------------------------------------------------




--------------------------------------- Iteration      1(   3)  ---------------------------------------


     EDDAV:  cpu time    1.5632: real time    1.5693
       DOS:  cpu time    0.0005: real time    0.0005
    --------------------------------------------
      LOOP:  cpu time    1.5638: real time    1.5698

 eigenvalue-minimisations  :   800
 total energy-change (2. order) :-0.6025380E+03  (-0.5699158E+03)
 number of electron     572.0000000 magnetization 
 augmentation part      572.0000000 magnetization 

 Free energy of the ion-electron system (eV)
  ---------------------------------------------------
  alpha Z        PSCENC =      1046.73971423
  Ewald energy   TEWEN  =     88493.53611136
  -Hartree energ DENC   =   -175851.80685776
  -exchange      EXHF   =         0.00000000
  -V(xc)+E(xc)   XCENC  =      2628.57601056
  PAW double counting   =     81415.77407466   -84963.31414086
  entropy T*S    EENTRO =        -0.96723797
  eigenvalues    EBANDS =    -11244.16199339
  atomic energy  EATOM  =     98224.10364994
  Solvation  Ediel_sol  =         0.00000000
  ---------------------------------------------------
  free energy    TOTEN  =      -251.52066923 eV

  energy without entropy =     -250.55343126  energy(sigma->0) =     -251.03705025


--------------------------------------------------------------------------------------------------------




--------------------------------------- Iteration      1(   4)  ---------------------------------------


     EDDAV:  cpu time    1.6131: real time    1.6169
       DOS:  cpu time    0.0005: real time    0.0005
    --------------------------------------------
      LOOP:  cpu time    1.6136: real time    1.6174

 eigenvalue-minimisations  :   832
 total energy-change (2. order) :-0.3724526E+02  (-0.3674057E+02)
 number of electron     572.0000000 magnetization 
 augmentation part      572.0000000 magnetization 

 Free energy of the ion-electron system (eV)
  ---------------------------------------------------
  alpha Z        PSCENC =      1046.73971423
  Ewald energy   TEWEN  =     88493.53611136
  -Hartree energ DENC   =   -175851.80685776
  -exchange      EXHF   =         0.00000000
  -V(xc)+E(xc)   XCENC  =      2628.57601056
  PAW double counting   =     81415.77407466   -84963.31414086
  entropy T*S    EENTRO =        -0.97414800
  eigenvalues    EBANDS =    -11281.40034354
  atomic energy  EATOM  =     98224.10364994
  Solvation  Ediel_sol  =         0.00000000
  ---------------------------------------------------
  free energy    TOTEN  =      -288.76592941 eV

  energy without entropy =     -287.79178141  energy(sigma->0) =     -288.27885541


--------------------------------------------------------------------------------------------------------




--------------------------------------- Iteration      1(   5)  ---------------------------------------


     EDDAV:  cpu time    1.6526: real time    1.6579
       DOS:  cpu time    0.0006: real time    0.0006
    CHARGE:  cpu time    0.0329: real time    0.0330
    MIXING:  cpu time    0.0027: real time    0.0030
    --------------------------------------------
      LOOP:  cpu time    1.6889: real time    1.6945

 eigenvalue-minimisations  :   840
 total energy-change (2. order) :-0.1051692E+01  (-0.1049905E+01)
 number of electron     572.0000621 magnetization 
 augmentation part      205.8801119 magnetization 

 Broyden mixing:
  rms(total) = 0.69447E+01    rms(broyden)= 0.69312E+01
  rms(prec ) = 0.75204E+01
  weight for this iteration     100.00

 Free energy of the ion-electron system (eV)
  ---------------------------------------------------
  alpha Z        PSCENC =      1046.73971423
  Ewald energy   TEWEN  =     88493.53611136
  -Hartree energ DENC   =   -175851.80685776
  -exchange      EXHF   =         0.00000000
  -V(xc)+E(xc)   XCENC  =      2628.57601056
  PAW double counting   =     81415.77407466   -84963.31414086
  entropy T*S    EENTRO =        -0.97063255
  eigenvalues    EBANDS =    -11282.45555122
  atomic energy  EATOM  =     98224.10364994
  Solvation  Ediel_sol  =         0.00000000
  ---------------------------------------------------
  free energy    TOTEN  =      -289.81762164 eV

  energy without entropy =     -288.84698909  energy(sigma->0) =     -289.33230537


--------------------------------------------------------------------------------------------------------




--------------------------------------- Iteration      1(   6)  ---------------------------------------


    POTLOK:  cpu time    0.0510: real time    0.0523
    SETDIJ:  cpu time    0.0042: real time    0.0060
     EDDAV:  cpu time    1.5897: real time    1.5936
       DOS:  cpu time    0.0005: real time    0.0005
    CHARGE:  cpu time    0.0280: real time    0.0281
    MIXING:  cpu time    0.0025: real time    0.0025
    --------------------------------------------
      LOOP:  cpu time    1.6759: real time    1.6829

 eigenvalue-minimisations  :   816
 total energy-change (2. order) :-0.7704721E+02  (-0.7629697E+02)
 number of electron     572.0000723 magnetization 
 augmentation part      257.1656914 magnetization 

 Broyden mixing:
  rms(total) = 0.14753E+02    rms(broyden)= 0.14749E+02
  rms(prec ) = 0.15546E+02
  weight for this iteration     100.00

 eigenvalues of (default mixing * dielectric matrix)
  average eigenvalue GAMMA=   0.2070
  0.2070

 Free energy of the ion-electron system (eV)
  ---------------------------------------------------
  alpha Z        PSCENC =      1046.73971423
  Ewald energy   TEWEN  =     88493.53611136
  -Hartree energ DENC   =   -173740.07813538
  -exchange      EXHF   =         0.00000000
  -V(xc)+E(xc)   XCENC  =      2571.50506593
  PAW double counting   =     82132.05589557   -85500.44335323
  entropy T*S    EENTRO =        -0.71475004
  eigenvalues    EBANDS =    -13593.56902520
  atomic energy  EATOM  =     98224.10364994
  Solvation  Ediel_sol  =         0.00000000
  ---------------------------------------------------
  free energy    TOTEN  =      -366.86482685 eV

  energy without entropy =     -366.15007680  energy(sigma->0) =     -366.50745182


--------------------------------------------------------------------------------------------------------




--------------------------------------- Iteration      1(   7)  ---------------------------------------


    POTLOK:  cpu time    0.0503: real time    0.0504
    SETDIJ:  cpu time    0.0047: real time    0.0047
     EDDAV:  cpu time    1.5323: real time    1.5360
       DOS:  cpu time    0.0005: real time    0.0005
    CHARGE:  cpu time    0.0286: real time    0.0287
    MIXING:  cpu time    0.0019: real time    0.0019
    --------------------------------------------
      LOOP:  cpu time    1.6183: real time    1.6221

 eigenvalue-minimisations  :   784
 total energy-change (2. order) : 0.9581665E+02  (-0.1436135E+02)
 number of electron     572.0000643 magnetization 
 augmentation part      240.4671800 magnetization 

 Broyden mixing:
  rms(total) = 0.65271E+01    rms(broyden)= 0.65261E+01
  rms(prec ) = 0.71598E+01
  weight for this iteration     100.00

 eigenvalues of (default mixing * dielectric matrix)
  average eigenvalue GAMMA=   0.4456
  0.4456  0.4456

 Free energy of the ion-electron system (eV)
  ---------------------------------------------------
  alpha Z        PSCENC =      1046.73971423
  Ewald energy   TEWEN  =     88493.53611136
  -Hartree energ DENC   =   -174628.66725981
  -exchange      EXHF   =         0.00000000
  -V(xc)+E(xc)   XCENC  =      2593.03797319
  PAW double counting   =     85094.34161821   -88569.62957371
  entropy T*S    EENTRO =        -1.01852904
  eigenvalues    EBANDS =    -12523.49187779
  atomic energy  EATOM  =     98224.10364994
  Solvation  Ediel_sol  =         0.00000000
  ---------------------------------------------------
  free energy    TOTEN  =      -271.04817343 eV

  energy without entropy =     -270.02964439  energy(sigma->0) =     -270.53890891


--------------------------------------------------------------------------------------------------------




--------------------------------------- Iteration      1(   8)  ---------------------------------------


    POTLOK:  cpu time    0.0495: real time    0.0496
    SETDIJ:  cpu time    0.0046: real time    0.0046
     EDDAV:  cpu time    1.8357: real time    1.8400
       DOS:  cpu time    0.0005: real time    0.0005
    CHARGE:  cpu time    0.0287: real time    0.0288
    MIXING:  cpu time    0.0021: real time    0.0021
    --------------------------------------------
      LOOP:  cpu time    1.9211: real time    1.9256

 eigenvalue-minimisations  :   976
 total energy-change (2. order) :-0.1402418E+02  (-0.3359997E+02)
 number of electron     572.0000751 magnetization 
 augmentation part      227.3856929 magnetization 

 Broyden mixing:
  rms(total) = 0.82341E+01    rms(broyden)= 0.82314E+01
  rms(prec ) = 0.87844E+01
  weight for this iteration     100.00

 eigenvalues of (default mixing * dielectric matrix)
  average eigenvalue GAMMA=   0.3702
  0.4793  0.4793  0.1519

 Free energy of the ion-electron system (eV)
  ---------------------------------------------------
  alpha Z        PSCENC =      1046.73971423
  Ewald energy   TEWEN  =     88493.53611136
  -Hartree energ DENC   =   -175037.82765469
  -exchange      EXHF   =         0.00000000
  -V(xc)+E(xc)   XCENC  =      2602.60775459
  PAW double counting   =     87748.20928916   -91275.94607442
  entropy T*S    EENTRO =        -0.91546251
  eigenvalues    EBANDS =    -12085.57967659
  atomic energy  EATOM  =     98224.10364994
  Solvation  Ediel_sol  =         0.00000000
  ---------------------------------------------------
  free energy    TOTEN  =      -285.07234894 eV

  energy without entropy =     -284.15688643  energy(sigma->0) =     -284.61461768


--------------------------------------------------------------------------------------------------------




--------------------------------------- Iteration      1(   9)  ---------------------------------------


    POTLOK:  cpu time    0.0502: real time    0.0503
    SETDIJ:  cpu time    0.0046: real time    0.0046
     EDDAV:  cpu time    1.7810: real time    1.7861
       DOS:  cpu time    0.0005: real time    0.0005
    CHARGE:  cpu time    0.0290: real time    0.0291
    MIXING:  cpu time    0.0021: real time    0.0021
    --------------------------------------------
      LOOP:  cpu time    1.8674: real time    1.8727

 eigenvalue-minimisations  :   920
 total energy-change (2. order) : 0.7752498E+01  (-0.5465061E+01)
 number of electron     572.0000605 magnetization 
 augmentation part      225.2741197 magnetization 

 Broyden mixing:
  rms(total) = 0.54016E+01    rms(broyden)= 0.53985E+01
  rms(prec ) = 0.59508E+01
  weight for this iteration     100.00

 eigenvalues of (default mixing * dielectric matrix)
  average eigenvalue GAMMA=   0.3707
  0.5086  0.5086  0.2327  0.2327

 Free energy of the ion-electron system (eV)
  ---------------------------------------------------
  alpha Z        PSCENC =      1046.73971423
  Ewald energy   TEWEN  =     88493.53611136
  -Hartree energ DENC   =   -175110.14206811
  -exchange      EXHF   =         0.00000000
  -V(xc)+E(xc)   XCENC  =      2604.95077185
  PAW double counting   =     89057.05875268   -92605.74909382
  entropy T*S    EENTRO =        -0.88934018
  eigenvalues    EBANDS =    -11986.92834864
  atomic energy  EATOM  =     98224.10364994
  Solvation  Ediel_sol  =         0.00000000
  ---------------------------------------------------
  free energy    TOTEN  =      -277.31985069 eV

  energy without entropy =     -276.43051051  energy(sigma->0) =     -276.87518060


--------------------------------------------------------------------------------------------------------




--------------------------------------- Iteration      1(  10)  ---------------------------------------


    POTLOK:  cpu time    0.0508: real time    0.0530
    SETDIJ:  cpu time    0.0042: real time    0.0059
     EDDAV:  cpu time    1.7292: real time    1.7333
       DOS:  cpu time    0.0005: real time    0.0005
    CHARGE:  cpu time    0.0286: real time    0.0286
    MIXING:  cpu time    0.0022: real time    0.0022
    --------------------------------------------
      LOOP:  cpu time    1.8154: real time    1.8234

 eigenvalue-minimisations  :   912
 total energy-change (2. order) :-0.1003005E+02  (-0.3987276E+01)
 number of electron     572.0000779 magnetization 
 augmentation part      220.6902042 magnetization 

 Broyden mixing:
  rms(total) = 0.89391E+01    rms(broyden)= 0.89356E+01
  rms(prec ) = 0.11047E+02
  weight for this iteration     100.00

 eigenvalues of (default mixing * dielectric matrix)
  average eigenvalue GAMMA=   0.4243
  0.9907  0.3868  0.3254  0.3254  0.0933

 Free energy of the ion-electron system (eV)
  ---------------------------------------------------
  alpha Z        PSCENC =      1046.73971423
  Ewald energy   TEWEN  =     88493.53611136
  -Hartree energ DENC   =   -175139.34846589
  -exchange      EXHF   =         0.00000000
  -V(xc)+E(xc)   XCENC  =      2606.24190447
  PAW double counting   =     89849.82852897   -93411.12775370
  entropy T*S    EENTRO =        -0.75931677
  eigenvalues    EBANDS =    -11956.56427578
  atomic energy  EATOM  =     98224.10364994
  Solvation  Ediel_sol  =         0.00000000
  ---------------------------------------------------
  free energy    TOTEN  =      -287.34990318 eV

  energy without entropy =     -286.59058641  energy(sigma->0) =     -286.97024479


--------------------------------------------------------------------------------------------------------




--------------------------------------- Iteration      1(  11)  ---------------------------------------


    POTLOK:  cpu time    0.0499: real time    0.0500
    SETDIJ:  cpu time    0.0047: real time    0.0047
     EDDAV:  cpu time    1.7763: real time    1.7807
       DOS:  cpu time    0.0005: real time    0.0005
    CHARGE:  cpu time    0.0284: real time    0.0285
    MIXING:  cpu time    0.0022: real time    0.0022
    --------------------------------------------
      LOOP:  cpu time    1.8622: real time    1.8667

 eigenvalue-minimisations  :   952
 total energy-change (2. order) :-0.9430757E+01  (-0.9107578E+01)
 number of electron     572.0000557 magnetization 
 augmentation part      220.8107282 magnetization 

 Broyden mixing:
  rms(total) = 0.10606E+02    rms(broyden)= 0.10603E+02
  rms(prec ) = 0.12441E+02
  weight for this iteration     100.00

 eigenvalues of (default mixing * dielectric matrix)
  average eigenvalue GAMMA=   0.4007
  1.1895  0.3419  0.3419  0.3572  0.0868  0.0868

 Free energy of the ion-electron system (eV)
  ---------------------------------------------------
  alpha Z        PSCENC =      1046.73971423
  Ewald energy   TEWEN  =     88493.53611136
  -Hartree energ DENC   =   -175103.35745741
  -exchange      EXHF   =         0.00000000
  -V(xc)+E(xc)   XCENC  =      2605.24142205
  PAW double counting   =     90967.80191473   -94539.64086275
  entropy T*S    EENTRO =        -0.73019932
  eigenvalues    EBANDS =    -11990.47495327
  atomic energy  EATOM  =     98224.10364994
  Solvation  Ediel_sol  =         0.00000000
  ---------------------------------------------------
  free energy    TOTEN  =      -296.78066046 eV

  energy without entropy =     -296.05046114  energy(sigma->0) =     -296.41556080


--------------------------------------------------------------------------------------------------------




--------------------------------------- Iteration      1(  12)  ---------------------------------------


    POTLOK:  cpu time    0.0495: real time    0.0496
    SETDIJ:  cpu time    0.0046: real time    0.0046
     EDDAV:  cpu time    1.7398: real time    1.7440
       DOS:  cpu time    0.0005: real time    0.0005
    CHARGE:  cpu time    0.0284: real time    0.0284
    MIXING:  cpu time    0.0024: real time    0.0024
    --------------------------------------------
      LOOP:  cpu time    1.8252: real time    1.8296

 eigenvalue-minimisations  :   928
 total energy-change (2. order) : 0.2314142E+02  (-0.3358801E+01)
 number of electron     572.0000677 magnetization 
 augmentation part      224.5077469 magnetization 

 Broyden mixing:
  rms(total) = 0.52865E+01    rms(broyden)= 0.52833E+01
  rms(prec ) = 0.60788E+01
  weight for this iteration     100.00

 eigenvalues of (default mixing * dielectric matrix)
  average eigenvalue GAMMA=   0.3777
  1.2819  0.3497  0.3497  0.3445  0.1282  0.0951  0.0951

 Free energy of the ion-electron system (eV)
  ---------------------------------------------------
  alpha Z        PSCENC =      1046.73971423
  Ewald energy   TEWEN  =     88493.53611136
  -Hartree energ DENC   =   -175115.67590217
  -exchange      EXHF   =         0.00000000
  -V(xc)+E(xc)   XCENC  =      2605.45842349
  PAW double counting   =     91685.14165389   -95266.96692140
  entropy T*S    EENTRO =        -0.91241738
  eigenvalues    EBANDS =    -11945.06355724
  atomic energy  EATOM  =     98224.10364994
  Solvation  Ediel_sol  =         0.00000000
  ---------------------------------------------------
  free energy    TOTEN  =      -273.63924529 eV

  energy without entropy =     -272.72682791  energy(sigma->0) =     -273.18303660


--------------------------------------------------------------------------------------------------------




--------------------------------------- Iteration      1(  13)  ---------------------------------------


    POTLOK:  cpu time    0.0498: real time    0.0500
    SETDIJ:  cpu time    0.0046: real time    0.0046
     EDDAV:  cpu time    1.7259: real time    1.7300
       DOS:  cpu time    0.0005: real time    0.0005
    CHARGE:  cpu time    0.0281: real time    0.0282
    MIXING:  cpu time    0.0028: real time    0.0028
    --------------------------------------------
      LOOP:  cpu time    1.8118: real time    1.8161

 eigenvalue-minimisations  :   920
 total energy-change (2. order) : 0.1571801E+02  (-0.1831467E+01)
 number of electron     572.0000640 magnetization 
 augmentation part      226.6281570 magnetization 

 Broyden mixing:
  rms(total) = 0.27316E+01    rms(broyden)= 0.27272E+01
  rms(prec ) = 0.31660E+01
  weight for this iteration     100.00

 eigenvalues of (default mixing * dielectric matrix)
  average eigenvalue GAMMA=   0.3804
  1.2329  0.3883  0.3883  0.4184  0.2499  0.1606  0.1222  0.0830

 Free energy of the ion-electron system (eV)
  ---------------------------------------------------
  alpha Z        PSCENC =      1046.73971423
  Ewald energy   TEWEN  =     88493.53611136
  -Hartree energ DENC   =   -175123.23230628
  -exchange      EXHF   =         0.00000000
  -V(xc)+E(xc)   XCENC  =      2606.28900593
  PAW double counting   =     92116.76982820   -95706.05598382
  entropy T*S    EENTRO =        -0.96997909
  eigenvalues    EBANDS =    -11915.10127442
  atomic energy  EATOM  =     98224.10364994
  Solvation  Ediel_sol  =         0.00000000
  ---------------------------------------------------
  free energy    TOTEN  =      -257.92123395 eV

  energy without entropy =     -256.95125486  energy(sigma->0) =     -257.43624441


--------------------------------------------------------------------------------------------------------




--------------------------------------- Iteration      1(  14)  ---------------------------------------


    POTLOK:  cpu time    0.0502: real time    0.0504
    SETDIJ:  cpu time    0.0047: real time    0.0047
     EDDAV:  cpu time    1.7511: real time    1.7553
       DOS:  cpu time    0.0034: real time    0.0034
    CHARGE:  cpu time    0.0310: real time    0.0311
    MIXING:  cpu time    0.0040: real time    0.0040
    --------------------------------------------
      LOOP:  cpu time    1.8444: real time    1.8488

 eigenvalue-minimisations  :   936
 total energy-change (2. order) :-0.4392896E+01  (-0.1769934E+01)
 number of electron     572.0000519 magnetization 
 augmentation part      223.2248275 magnetization 

 Broyden mixing:
  rms(total) = 0.70228E+01    rms(broyden)= 0.70211E+01
  rms(prec ) = 0.83639E+01
  weight for this iteration     100.00

 eigenvalues of (default mixing * dielectric matrix)
  average eigenvalue GAMMA=   0.3786
  1.1513  0.6885  0.4147  0.4147  0.3069  0.1427  0.1182  0.0854  0.0854

 Free energy of the ion-electron system (eV)
  ---------------------------------------------------
  alpha Z        PSCENC =      1046.73971423
  Ewald energy   TEWEN  =     88493.53611136
  -Hartree energ DENC   =   -175175.77357606
  -exchange      EXHF   =         0.00000000
  -V(xc)+E(xc)   XCENC  =      2607.74093276
  PAW double counting   =     92343.03896724   -95935.70005230
  entropy T*S    EENTRO =        -0.80313652
  eigenvalues    EBANDS =    -11865.19674044
  atomic energy  EATOM  =     98224.10364994
  Solvation  Ediel_sol  =         0.00000000
  ---------------------------------------------------
  free energy    TOTEN  =      -262.31412980 eV

  energy without entropy =     -261.51099328  energy(sigma->0) =     -261.91256154


--------------------------------------------------------------------------------------------------------




--------------------------------------- Iteration      1(  15)  ---------------------------------------


    POTLOK:  cpu time    0.0516: real time    0.0563
    SETDIJ:  cpu time    0.0050: real time    0.0068
     EDDAV:  cpu time    1.7365: real time    1.7422
       DOS:  cpu time    0.0006: real time    0.0006
    CHARGE:  cpu time    0.0283: real time    0.0284
    MIXING:  cpu time    0.0028: real time    0.0028
    --------------------------------------------
      LOOP:  cpu time    1.8248: real time    1.8371

 eigenvalue-minimisations  :   920
 total energy-change (2. order) : 0.7159934E+01  (-0.1975514E+01)
 number of electron     572.0000660 magnetization 
 augmentation part      224.0284695 magnetization 

 Broyden mixing:
  rms(total) = 0.28879E+01    rms(broyden)= 0.28849E+01
  rms(prec ) = 0.33665E+01
  weight for this iteration     100.00

 eigenvalues of (default mixing * dielectric matrix)
  average eigenvalue GAMMA=   0.3675
  1.3176  0.4712  0.4712  0.3894  0.3894  0.2314  0.1206  0.1206  0.0817  0.0817

 Free energy of the ion-electron system (eV)
  ---------------------------------------------------
  alpha Z        PSCENC =      1046.73971423
  Ewald energy   TEWEN  =     88493.53611136
  -Hartree energ DENC   =   -175240.63315412
  -exchange      EXHF   =         0.00000000
  -V(xc)+E(xc)   XCENC  =      2608.76031842
  PAW double counting   =     92634.73043902   -96230.04740023
  entropy T*S    EENTRO =        -1.04131151
  eigenvalues    EBANDS =    -11791.30256264
  atomic energy  EATOM  =     98224.10364994
  Solvation  Ediel_sol  =         0.00000000
  ---------------------------------------------------
  free energy    TOTEN  =      -255.15419553 eV

  energy without entropy =     -254.11288402  energy(sigma->0) =     -254.63353977


--------------------------------------------------------------------------------------------------------




--------------------------------------- Iteration      1(  16)  ---------------------------------------


    POTLOK:  cpu time    0.0501: real time    0.0506
    SETDIJ:  cpu time    0.0037: real time    0.0050
     EDDAV:  cpu time    1.7308: real time    1.7350
       DOS:  cpu time    0.0005: real time    0.0005
    CHARGE:  cpu time    0.0307: real time    0.0308
    MIXING:  cpu time    0.0028: real time    0.0028
    --------------------------------------------
      LOOP:  cpu time    1.8186: real time    1.8248

 eigenvalue-minimisations  :   912
 total energy-change (2. order) : 0.2677263E+01  (-0.7031132E+00)
 number of electron     572.0000640 magnetization 
 augmentation part      224.1262700 magnetization 

 Broyden mixing:
  rms(total) = 0.16282E+01    rms(broyden)= 0.16236E+01
  rms(prec ) = 0.18633E+01
  weight for this iteration     100.00

 eigenvalues of (default mixing * dielectric matrix)
  average eigenvalue GAMMA=   0.4452
  1.7704  0.7670  0.7670  0.3692  0.3692  0.2822  0.1730  0.1180  0.1180  0.0819
  0.0819

 Free energy of the ion-electron system (eV)
  ---------------------------------------------------
  alpha Z        PSCENC =      1046.73971423
  Ewald energy   TEWEN  =     88493.53611136
  -Hartree energ DENC   =   -175244.47148385
  -exchange      EXHF   =         0.00000000
  -V(xc)+E(xc)   XCENC  =      2608.95545060
  PAW double counting   =     92843.80382233   -96440.91981095
  entropy T*S    EENTRO =        -0.92381486
  eigenvalues    EBANDS =    -11783.30057111
  atomic energy  EATOM  =     98224.10364994
  Solvation  Ediel_sol  =         0.00000000
  ---------------------------------------------------
  free energy    TOTEN  =      -252.47693232 eV

  energy without entropy =     -251.55311747  energy(sigma->0) =     -252.01502489


--------------------------------------------------------------------------------------------------------




--------------------------------------- Iteration      1(  17)  ---------------------------------------


    POTLOK:  cpu time    0.0500: real time    0.0501
    SETDIJ:  cpu time    0.0045: real time    0.0046
     EDDAV:  cpu time    1.7584: real time    1.7625
       DOS:  cpu time    0.0005: real time    0.0005
    CHARGE:  cpu time    0.0307: real time    0.0308
    MIXING:  cpu time    0.0029: real time    0.0029
    --------------------------------------------
      LOOP:  cpu time    1.8471: real time    1.8514

 eigenvalue-minimisations  :   928
 total energy-change (2. order) :-0.9757947E-01  (-0.4345454E+00)
 number of electron     572.0000662 magnetization 
 augmentation part      225.1301760 magnetization 

 Broyden mixing:
  rms(total) = 0.17670E+01    rms(broyden)= 0.17647E+01
  rms(prec ) = 0.20173E+01
  weight for this iteration     100.00

 eigenvalues of (default mixing * dielectric matrix)
  average eigenvalue GAMMA=   0.4525
  1.9072  0.8718  0.8718  0.3690  0.3690  0.2942  0.2004  0.1464  0.1183  0.1183
  0.0819  0.0819

 Free energy of the ion-electron system (eV)
  ---------------------------------------------------
  alpha Z        PSCENC =      1046.73971423
  Ewald energy   TEWEN  =     88493.53611136
  -Hartree energ DENC   =   -175209.47614015
  -exchange      EXHF   =         0.00000000
  -V(xc)+E(xc)   XCENC  =      2607.97602363
  PAW double counting   =     93263.20490400   -96859.51785168
  entropy T*S    EENTRO =        -0.94627764
  eigenvalues    EBANDS =    -11818.19464548
  atomic energy  EATOM  =     98224.10364994
  Solvation  Ediel_sol  =         0.00000000
  ---------------------------------------------------
  free energy    TOTEN  =      -252.57451180 eV

  energy without entropy =     -251.62823416  energy(sigma->0) =     -252.10137298


--------------------------------------------------------------------------------------------------------




--------------------------------------- Iteration      1(  18)  ---------------------------------------


    POTLOK:  cpu time    0.0498: real time    0.0499
    SETDIJ:  cpu time    0.0045: real time    0.0046
     EDDAV:  cpu time    1.7675: real time    1.7718
       DOS:  cpu time    0.0005: real time    0.0005
    CHARGE:  cpu time    0.0307: real time    0.0308
    MIXING:  cpu time    0.0030: real time    0.0030
    --------------------------------------------
      LOOP:  cpu time    1.8561: real time    1.8606

 eigenvalue-minimisations  :   936
 total energy-change (2. order) : 0.8901469E+00  (-0.2783329E+00)
 number of electron     572.0000668 magnetization 
 augmentation part      225.7811743 magnetization 

 Broyden mixing:
  rms(total) = 0.10502E+01    rms(broyden)= 0.10479E+01
  rms(prec ) = 0.12082E+01
  weight for this iteration     100.00

 eigenvalues of (default mixing * dielectric matrix)
  average eigenvalue GAMMA=   0.4531
  1.8674  0.9683  0.9683  0.3733  0.3733  0.3814  0.2672  0.1674  0.1179  0.1179
  0.1248  0.0818  0.0818

 Free energy of the ion-electron system (eV)
  ---------------------------------------------------
  alpha Z        PSCENC =      1046.73971423
  Ewald energy   TEWEN  =     88493.53611136
  -Hartree energ DENC   =   -175195.73749095
  -exchange      EXHF   =         0.00000000
  -V(xc)+E(xc)   XCENC  =      2607.50092263
  PAW double counting   =     93354.23549635   -96948.90657021
  entropy T*S    EENTRO =        -0.95766679
  eigenvalues    EBANDS =    -11832.19853148
  atomic energy  EATOM  =     98224.10364994
  Solvation  Ediel_sol  =         0.00000000
  ---------------------------------------------------
  free energy    TOTEN  =      -251.68436493 eV

  energy without entropy =     -250.72669814  energy(sigma->0) =     -251.20553154


--------------------------------------------------------------------------------------------------------




--------------------------------------- Iteration      1(  19)  ---------------------------------------


    POTLOK:  cpu time    0.0499: real time    0.0500
    SETDIJ:  cpu time    0.0045: real time    0.0045
     EDDAV:  cpu time    1.7425: real time    1.7467
       DOS:  cpu time    0.0005: real time    0.0005
    CHARGE:  cpu time    0.0305: real time    0.0305
    MIXING:  cpu time    0.0034: real time    0.0034
    --------------------------------------------
      LOOP:  cpu time    1.8313: real time    1.8357

 eigenvalue-minimisations  :   920
 total energy-change (2. order) : 0.2650100E+00  (-0.7449353E-01)
 number of electron     572.0000667 magnetization 
 augmentation part      225.5664754 magnetization 

 Broyden mixing:
  rms(total) = 0.86832E+00    rms(broyden)= 0.86787E+00
  rms(prec ) = 0.10040E+01
  weight for this iteration     100.00

 eigenvalues of (default mixing * dielectric matrix)
  average eigenvalue GAMMA=   0.4479
  1.8194  1.0469  1.0469  0.4582  0.3807  0.3807  0.2708  0.1645  0.1645  0.1385
  0.1178  0.1178  0.0818  0.0818

 Free energy of the ion-electron system (eV)
  ---------------------------------------------------
  alpha Z        PSCENC =      1046.73971423
  Ewald energy   TEWEN  =     88493.53611136
  -Hartree energ DENC   =   -175212.25794489
  -exchange      EXHF   =         0.00000000
  -V(xc)+E(xc)   XCENC  =      2607.69575955
  PAW double counting   =     93254.44328318   -96847.35611152
  entropy T*S    EENTRO =        -0.93428950
  eigenvalues    EBANDS =    -11817.38952722
  atomic energy  EATOM  =     98224.10364994
  Solvation  Ediel_sol  =         0.00000000
  ---------------------------------------------------
  free energy    TOTEN  =      -251.41935488 eV

  energy without entropy =     -250.48506538  energy(sigma->0) =     -250.95221013


--------------------------------------------------------------------------------------------------------




--------------------------------------- Iteration      1(  20)  ---------------------------------------


    POTLOK:  cpu time    0.0495: real time    0.0496
    SETDIJ:  cpu time    0.0046: real time    0.0046
     EDDAV:  cpu time    1.7308: real time    1.7349
       DOS:  cpu time    0.0005: real time    0.0005
    CHARGE:  cpu time    0.0307: real time    0.0308
    MIXING:  cpu time    0.0032: real time    0.0033
    --------------------------------------------
      LOOP:  cpu time    1.8194: real time    1.8237

 eigenvalue-minimisations  :   912
 total energy-change (2. order) : 0.1965379E+00  (-0.5258537E-01)
 number of electron     572.0000664 magnetization 
 augmentation part      225.3160931 magnetization 

 Broyden mixing:
  rms(total) = 0.66092E+00    rms(broyden)= 0.66029E+00
  rms(prec ) = 0.75676E+00
  weight for this iteration     100.00

 eigenvalues of (default mixing * dielectric matrix)
  average eigenvalue GAMMA=   0.4824
  1.9110  1.1618  1.1618  0.5636  0.5636  0.3823  0.3823  0.2769  0.1816  0.0818
  0.0818  0.1185  0.1185  0.1250  0.1250

 Free energy of the ion-electron system (eV)
  ---------------------------------------------------
  alpha Z        PSCENC =      1046.73971423
  Ewald energy   TEWEN  =     88493.53611136
  -Hartree energ DENC   =   -175225.87381967
  -exchange      EXHF   =         0.00000000
  -V(xc)+E(xc)   XCENC  =      2607.92930123
  PAW double counting   =     93178.15844377   -96769.81885310
  entropy T*S    EENTRO =        -0.94915007
  eigenvalues    EBANDS =    -11805.04821469
  atomic energy  EATOM  =     98224.10364994
  Solvation  Ediel_sol  =         0.00000000
  ---------------------------------------------------
  free energy    TOTEN  =      -251.22281701 eV

  energy without entropy =     -250.27366694  energy(sigma->0) =     -250.74824197


--------------------------------------------------------------------------------------------------------




--------------------------------------- Iteration      1(  21)  ---------------------------------------


    POTLOK:  cpu time    0.0503: real time    0.0506
    SETDIJ:  cpu time    0.0046: real time    0.0046
     EDDAV:  cpu time    1.7476: real time    1.7517
       DOS:  cpu time    0.0014: real time    0.0014
    CHARGE:  cpu time    0.0285: real time    0.0285
    MIXING:  cpu time    0.0034: real time    0.0034
    --------------------------------------------
      LOOP:  cpu time    1.8357: real time    1.8402

 eigenvalue-minimisations  :   928
 total energy-change (2. order) :-0.5760801E-01  (-0.5529159E-01)
 number of electron     572.0000657 magnetization 
 augmentation part      225.3846913 magnetization 

 Broyden mixing:
  rms(total) = 0.69286E+00    rms(broyden)= 0.69216E+00
  rms(prec ) = 0.79843E+00
  weight for this iteration     100.00

 eigenvalues of (default mixing * dielectric matrix)
  average eigenvalue GAMMA=   0.4905
  2.0368  1.2374  1.2374  0.6564  0.6564  0.3805  0.3805  0.2754  0.1905  0.1569
  0.0818  0.0818  0.1318  0.1182  0.1182  0.1076

 Free energy of the ion-electron system (eV)
  ---------------------------------------------------
  alpha Z        PSCENC =      1046.73971423
  Ewald energy   TEWEN  =     88493.53611136
  -Hartree energ DENC   =   -175231.79060059
  -exchange      EXHF   =         0.00000000
  -V(xc)+E(xc)   XCENC  =      2607.98723690
  PAW double counting   =     93186.89892323   -96777.40414404
  entropy T*S    EENTRO =        -0.96286539
  eigenvalues    EBANDS =    -11800.38845064
  atomic energy  EATOM  =     98224.10364994
  Solvation  Ediel_sol  =         0.00000000
  ---------------------------------------------------
  free energy    TOTEN  =      -251.28042502 eV

  energy without entropy =     -250.31755963  energy(sigma->0) =     -250.79899232


--------------------------------------------------------------------------------------------------------




--------------------------------------- Iteration      1(  22)  ---------------------------------------


    POTLOK:  cpu time    0.0505: real time    0.0507
    SETDIJ:  cpu time    0.0047: real time    0.0047
     EDDAV:  cpu time    1.6939: real time    1.6979
       DOS:  cpu time    0.0006: real time    0.0006
    CHARGE:  cpu time    0.0282: real time    0.0283
    MIXING:  cpu time    0.0037: real time    0.0037
    --------------------------------------------
      LOOP:  cpu time    1.7817: real time    1.7859

 eigenvalue-minimisations  :   896
 total energy-change (2. order) : 0.1490680E+00  (-0.4217590E-01)
 number of electron     572.0000656 magnetization 
 augmentation part      225.5466991 magnetization 

 Broyden mixing:
  rms(total) = 0.39550E+00    rms(broyden)= 0.39466E+00
  rms(prec ) = 0.44989E+00
  weight for this iteration     100.00

 eigenvalues of (default mixing * dielectric matrix)
  average eigenvalue GAMMA=   0.4939
  2.1111  1.2682  1.2682  0.6989  0.6989  0.3788  0.3788  0.3506  0.2800  0.1748
  0.1531  0.0818  0.0818  0.1195  0.1195  0.1164  0.1164

 Free energy of the ion-electron system (eV)
  ---------------------------------------------------
  alpha Z        PSCENC =      1046.73971423
  Ewald energy   TEWEN  =     88493.53611136
  -Hartree energ DENC   =   -175236.58029570
  -exchange      EXHF   =         0.00000000
  -V(xc)+E(xc)   XCENC  =      2607.91422328
  PAW double counting   =     93218.13118399   -96808.09241377
  entropy T*S    EENTRO =        -0.95915530
  eigenvalues    EBANDS =    -11795.92437506
  atomic energy  EATOM  =     98224.10364994
  Solvation  Ediel_sol  =         0.00000000
  ---------------------------------------------------
  free energy    TOTEN  =      -251.13135704 eV

  energy without entropy =     -250.17220173  energy(sigma->0) =     -250.65177939


--------------------------------------------------------------------------------------------------------




--------------------------------------- Iteration      1(  23)  ---------------------------------------


    POTLOK:  cpu time    0.0507: real time    0.0508
    SETDIJ:  cpu time    0.0046: real time    0.0046
     EDDAV:  cpu time    1.7312: real time    1.7353
       DOS:  cpu time    0.0005: real time    0.0005
    CHARGE:  cpu time    0.0287: real time    0.0288
    MIXING:  cpu time    0.0036: real time    0.0036
    --------------------------------------------
      LOOP:  cpu time    1.8193: real time    1.8236

 eigenvalue-minimisations  :   920
 total energy-change (2. order) : 0.5183254E-02  (-0.2116943E-01)
 number of electron     572.0000657 magnetization 
 augmentation part      225.5255593 magnetization 

 Broyden mixing:
  rms(total) = 0.41709E+00    rms(broyden)= 0.41675E+00
  rms(prec ) = 0.48165E+00
  weight for this iteration     100.00

 eigenvalues of (default mixing * dielectric matrix)
  average eigenvalue GAMMA=   0.4941
  2.1544  1.2463  1.2463  0.7649  0.7649  0.5554  0.3796  0.3796  0.2759  0.1855
  0.1713  0.0818  0.0818  0.1190  0.1190  0.1367  0.1215  0.1090

 Free energy of the ion-electron system (eV)
  ---------------------------------------------------
  alpha Z        PSCENC =      1046.73971423
  Ewald energy   TEWEN  =     88493.53611136
  -Hartree energ DENC   =   -175244.38366601
  -exchange      EXHF   =         0.00000000
  -V(xc)+E(xc)   XCENC  =      2607.89626575
  PAW double counting   =     93231.13830270   -96820.94297357
  entropy T*S    EENTRO =        -0.96470915
  eigenvalues    EBANDS =    -11788.24886903
  atomic energy  EATOM  =     98224.10364994
  Solvation  Ediel_sol  =         0.00000000
  ---------------------------------------------------
  free energy    TOTEN  =      -251.12617378 eV

  energy without entropy =     -250.16146464  energy(sigma->0) =     -250.64381921


--------------------------------------------------------------------------------------------------------




--------------------------------------- Iteration      1(  24)  ---------------------------------------


    POTLOK:  cpu time    0.0507: real time    0.0509
    SETDIJ:  cpu time    0.0045: real time    0.0045
     EDDAV:  cpu time    1.7674: real time    1.7739
       DOS:  cpu time    0.0010: real time    0.0010
    CHARGE:  cpu time    0.0286: real time    0.0287
    MIXING:  cpu time    0.0043: real time    0.0043
    --------------------------------------------
      LOOP:  cpu time    1.8565: real time    1.8632

 eigenvalue-minimisations  :   928
 total energy-change (2. order) : 0.3858517E-01  (-0.1428606E-01)
 number of electron     572.0000655 magnetization 
 augmentation part      225.4280619 magnetization 

 Broyden mixing:
  rms(total) = 0.25171E+00    rms(broyden)= 0.25139E+00
  rms(prec ) = 0.28679E+00
  weight for this iteration     100.00

 eigenvalues of (default mixing * dielectric matrix)
  average eigenvalue GAMMA=   0.4967
[...]
    344       5.4538      0.00000


--------------------------------------------------------------------------------------------------------


 soft charge-density along one line, spin component           1
         0         1         2         3         4         5         6         7         8         9
 total charge-density along one line
 
 pseudopotential strength for first ion, spin component:           1
-65.972   0.015  -0.027  12.329  -0.007   0.012  -0.007  -0.038
  0.015 -66.074  -0.017  -0.007  12.371   0.007   0.005  -0.009
 -0.027  -0.017 -66.017   0.012   0.007  12.349  -0.005   0.005
 12.329  -0.007   0.012   4.848   0.001  -0.003   0.002   0.010
 -0.007  12.371   0.007   0.001   4.834  -0.002  -0.001   0.004
  0.012   0.007  12.349  -0.003  -0.002   4.842   0.002  -0.001
 -0.007   0.005  -0.005   0.002  -0.001   0.002 -11.163  -0.022
 -0.038  -0.009   0.005   0.010   0.004  -0.001  -0.022 -11.175
  0.004  -0.041   0.001  -0.001   0.011  -0.000  -0.021   0.023
  0.005  -0.000  -0.034  -0.001  -0.001   0.009  -0.008  -0.064
  0.011   0.002   0.005  -0.004  -0.001  -0.002  -0.024  -0.019
 -0.007   0.005  -0.005   0.002  -0.001   0.002 -11.705  -0.022
 -0.038  -0.009   0.005   0.010   0.003  -0.001  -0.022 -11.717
  0.004  -0.040   0.001  -0.001   0.011  -0.000  -0.020   0.023
  0.005  -0.000  -0.034  -0.001  -0.000   0.009  -0.008  -0.064
  0.011   0.002   0.005  -0.004  -0.001  -0.002  -0.023  -0.019
  0.002   0.011   0.001  -0.002  -0.000   0.001   0.006  -0.004
  0.004   0.024   0.002  -0.004  -0.000   0.002   0.013  -0.008
 total augmentation occupancy for first ion, spin component:           1
  1.995   0.000  -0.000  -0.020   0.000  -0.000   0.007   0.003  -0.001   0.001  -0.005  -0.006  -0.002   0.001  -0.001   0.005
  0.000   1.994  -0.000   0.000  -0.021  -0.000   0.001   0.008   0.002  -0.006   0.001  -0.000  -0.008  -0.001   0.005  -0.001
 -0.000  -0.000   1.995  -0.000  -0.000  -0.021   0.005   0.001  -0.001   0.006  -0.010  -0.005  -0.001   0.001  -0.004   0.009
 -0.020   0.000  -0.000   0.129  -0.004   0.002   0.245   0.079   0.035  -0.023  -0.022  -0.221  -0.075  -0.035   0.007   0.017
  0.000  -0.021  -0.000  -0.004   0.120   0.001   0.021   0.134   0.011  -0.109   0.021  -0.029  -0.125  -0.018   0.101  -0.024
 -0.000  -0.000  -0.021   0.002   0.001   0.133  -0.001  -0.013  -0.056   0.088  -0.213  -0.006  -0.001   0.056  -0.095   0.191
  0.007   0.001   0.005   0.245   0.021  -0.001   3.674  -0.112  -0.345  -0.272  -0.324  -1.935  -0.027  -0.058   0.094   0.049
  0.003   0.008   0.001   0.079   0.134  -0.013  -0.112   3.625   0.172  -0.360   0.036  -0.032  -1.667   0.022  -0.158  -0.134
 -0.001   0.002  -0.001   0.035   0.011  -0.056  -0.345   0.172   3.869   0.182  -0.206  -0.063   0.025  -1.847   0.127  -0.005
  0.001  -0.006   0.006  -0.023  -0.109   0.088  -0.272  -0.360   0.182   3.333   0.018   0.090  -0.158   0.127  -1.921  -0.079
 -0.005   0.001  -0.010  -0.022   0.021  -0.213  -0.324   0.036  -0.206   0.018   3.978   0.050  -0.136   0.000  -0.084  -1.927
 -0.006  -0.000  -0.005  -0.221  -0.029  -0.006  -1.935  -0.032  -0.063   0.090   0.050   1.925   0.121   0.323   0.025   0.130
 -0.002  -0.008  -0.001  -0.075  -0.125  -0.001  -0.027  -1.667   0.025  -0.158  -0.136   0.121   1.503  -0.147   0.478   0.192
  0.001  -0.001   0.001  -0.035  -0.018   0.056  -0.058   0.022  -1.847   0.127   0.000   0.323  -0.147   1.628  -0.323   0.143
 -0.001   0.005  -0.004   0.007   0.101  -0.095   0.094  -0.158   0.127  -1.921  -0.084   0.025   0.478  -0.323   2.096   0.113
  0.005  -0.001   0.009   0.017  -0.024   0.191   0.049  -0.134  -0.005  -0.079  -1.927   0.130   0.192   0.143   0.113   1.705
 -0.002  -0.032  -0.004  -0.018  -0.055   0.002  -0.085   0.195   0.075  -0.042  -0.083   0.033  -0.134  -0.109   0.021   0.039
  0.001   0.015   0.002   0.001   0.001  -0.001   0.009  -0.019   0.019   0.013   0.013   0.001   0.009   0.001  -0.005  -0.002


------------------------ aborting loop because EDIFF is reached ----------------------------------------


    CHARGE:  cpu time    0.0315: real time    0.0316
    FORLOC:  cpu time    0.0110: real time    0.0110
    FORNL :  cpu time    0.2767: real time    0.2776
    STRESS:  cpu time    0.7952: real time    0.7974
    FORCOR:  cpu time    0.0571: real time    0.0575
    FORHAR:  cpu time    0.0207: real time    0.0207
    MIXING:  cpu time    0.0054: real time    0.0054
    OFIELD:  cpu time    0.0001: real time    0.0001

  FORCE on cell =-STRESS in cart. coord.  units (eV):
  Direction    XX          YY          ZZ          XY          YZ          ZX
  --------------------------------------------------------------------------------------
  Alpha Z  1046.73971  1046.73971  1046.73971
  Ewald  124270.60733123134.10842************  -201.65519  -341.07581   841.28462
  Hartree150035.21800148945.00413************  -146.23418  -246.82653   434.44402
  E(xc)   -3624.22169 -3623.76063 -3628.10979    -0.26849    -0.34341     1.56870
  Local  ************************273553.62756   353.17062   589.97740 -1247.61945
  n-local  -494.82254  -503.29567  -506.73004    -2.51509    -3.45855     7.98857
  augment  4181.54488  4183.33767  4186.76822    -1.36382     0.49646   -15.79018
  Kinetic  7904.44065  7884.96575  7921.73103    -1.22185     3.19156   -36.78511
  Fock        0.00000     0.00000     0.00000     0.00000     0.00000     0.00000
  -------------------------------------------------------------------------------------
  Total     -37.78215   -36.99367   -41.29233    -0.08800     1.96112   -14.90884
  in kB     -32.65601   -31.97450   -35.68994    -0.07606     1.69504   -12.88606
  external pressure =      -33.44 kB  Pullay stress =        0.00 kB


 VOLUME and BASIS-vectors are now :
 -----------------------------------------------------------------------------
  energy-cutoff  :      450.00
  volume of cell :     1853.68
      direct lattice vectors                 reciprocal lattice vectors
    11.256463038  0.000000000  0.000000000     0.088837852  0.000000000  0.000000000
     0.000000000  9.578410000  0.000000000     0.000000000  0.104401461  0.000000000
     0.000000000  0.000000000 17.192492405     0.000000000  0.000000000  0.058164923

  length of vectors
    11.256463038  9.578410000 17.192492405     0.088837852  0.104401461  0.058164923


 FORCES acting on ions
    electron-ion (+dipol)            ewald-force                    non-local-force                 convergence-correction
 -----------------------------------------------------------------------------------------------
   0.294E+03 -.347E+03 0.119E+04   -.295E+03 0.347E+03 -.119E+04   0.797E+00 -.502E+00 0.459E+01   -.188E-01 0.114E-01 -.256E-01
   0.337E+03 -.462E+03 -.293E+04   -.333E+03 0.464E+03 0.293E+04   -.308E+01 -.871E+00 -.751E+00   -.132E+00 0.627E-01 0.146E-01
   0.139E+03 -.635E+03 0.278E+04   -.142E+03 0.636E+03 -.279E+04   0.234E+01 -.817E+00 0.225E+01   -.312E+00 0.196E-01 0.757E-01
   0.325E+03 -.298E+03 -.141E+04   -.324E+03 0.298E+03 0.141E+04   -.838E+00 0.553E+00 0.158E+01   -.408E+00 -.808E-01 0.105E+00
   0.285E+03 0.347E+03 0.119E+04   -.286E+03 -.348E+03 -.120E+04   0.775E+00 0.445E+00 0.484E+01   -.361E-01 0.191E+00 -.882E-01
   0.288E+03 0.455E+03 -.292E+04   -.284E+03 -.457E+03 0.292E+04   -.333E+01 0.125E+01 -.635E+00   -.616E-01 0.169E+00 0.617E-01
   0.133E+03 0.632E+03 0.279E+04   -.136E+03 -.633E+03 -.279E+04   0.247E+01 0.118E+01 0.214E+01   -.244E+00 -.166E+00 0.510E-01
   0.303E+03 0.329E+03 -.145E+04   -.302E+03 -.329E+03 0.145E+04   -.748E+00 -.507E+00 0.174E+01   -.261E+00 0.544E-01 0.451E-01
   -.458E+03 0.378E+01 0.183E+04   0.462E+03 -.351E+01 -.184E+04   -.297E+01 -.188E+00 0.511E+01   -.101E+00 -.300E-01 0.157E-01
   -.487E+03 -.135E+03 -.245E+04   0.486E+03 0.131E+03 0.245E+04   0.107E+01 0.302E+01 -.158E+01   -.205E+00 -.734E-01 -.474E-01
   -.341E+03 -.275E+00 0.329E+04   0.345E+03 0.422E+00 -.329E+04   -.267E+01 0.851E-02 -.241E+01   -.230E-01 -.113E+00 -.168E-01
   -.451E+03 0.493E+01 -.577E+03   0.452E+03 -.478E+01 0.577E+03   -.117E+01 -.338E-01 0.146E+00   -.162E+00 -.124E+00 -.338E-02
   -.133E+03 0.152E+02 -.349E+04   0.122E+03 -.150E+02 0.347E+04   0.104E+02 -.863E-01 0.133E+02   -.542E-01 -.892E-01 0.129E+00
   0.269E+03 -.342E+03 0.116E+04   -.270E+03 0.342E+03 -.117E+04   0.905E+00 -.518E+00 0.441E+01   0.120E+00 -.418E-01 -.911E-01
   0.107E+03 -.480E+03 -.304E+04   -.108E+03 0.479E+03 0.304E+04   0.478E+00 0.145E+01 0.664E+01   0.637E-01 -.488E-01 0.203E-01
   0.101E+03 -.636E+03 0.279E+04   -.105E+03 0.637E+03 -.279E+04   0.266E+01 -.922E+00 0.237E+01   0.413E+00 -.120E+00 -.680E-01
   0.520E+02 -.333E+03 -.150E+04   -.529E+02 0.331E+03 0.149E+04   -.838E-01 0.207E+01 0.485E+01   0.511E+00 -.155E+00 -.630E-01
   0.286E+03 0.389E+03 0.112E+04   -.288E+03 -.389E+03 -.112E+04   0.105E+01 0.462E+00 0.420E+01   0.128E+00 -.104E+00 0.511E-01
   0.380E+03 0.625E+03 -.291E+04   -.372E+03 -.620E+03 0.291E+04   -.670E+01 -.476E+01 -.903E-01   -.280E-01 -.259E+00 -.156E-01
   0.108E+03 0.628E+03 0.280E+04   -.112E+03 -.628E+03 -.280E+04   0.234E+01 0.994E+00 0.198E+01   0.368E+00 0.260E-01 -.435E-01
   0.196E+03 0.249E+03 -.140E+04   -.196E+03 -.249E+03 0.140E+04   -.532E+00 -.786E+00 0.149E+01   0.353E+00 0.115E+00 -.923E-01
   -.492E+03 0.990E+01 0.186E+04   0.495E+03 -.992E+01 -.186E+04   -.325E+01 -.523E-01 0.457E+01   0.102E+00 0.984E-01 -.947E-01
   -.597E+03 0.399E+02 -.229E+04   0.598E+03 -.398E+02 0.229E+04   -.135E+01 0.911E-02 -.421E+01   0.977E-01 0.518E-01 -.526E-01
   -.355E+03 -.846E+01 0.327E+04   0.358E+03 0.834E+01 -.327E+04   -.274E+01 0.605E-01 -.239E+01   0.757E-01 -.237E-01 0.952E-01
   -.465E+03 -.146E+03 -.739E+03   0.464E+03 0.144E+03 0.738E+03   0.515E+00 0.710E+00 0.482E+00   0.120E+00 0.823E-01 0.468E-01
   -.103E+03 -.143E+03 -.334E+04   0.958E+02 0.132E+03 0.333E+04   0.661E+01 0.979E+01 0.125E+02   -.312E-02 0.161E-01 -.104E+00
   0.418E+02 -.526E+02 0.135E+04   -.427E+02 0.531E+02 -.135E+04   0.168E+01 -.766E+00 0.571E+01   -.631E-01 0.759E-01 0.652E-01
   -.529E+02 0.167E+03 -.206E+03   0.547E+02 -.169E+03 0.203E+03   -.186E+01 0.267E+01 0.256E+01   -.118E+00 0.288E-02 0.122E-01
   -.987E+02 0.143E+03 -.142E+04   0.101E+03 -.144E+03 0.142E+04   -.319E+01 0.218E+01 -.407E+01   -.127E+00 -.199E-01 -.147E-01
   -.655E+02 0.195E+03 0.544E+03   0.665E+02 -.197E+03 -.545E+03   -.109E+01 0.202E+01 -.153E+00   -.549E-01 -.742E-01 0.348E-01
   0.845E+02 0.697E+02 -.102E+04   -.846E+02 -.710E+02 0.102E+04   0.174E+00 0.236E+01 0.755E-01   -.582E-01 -.936E-01 -.273E-01
   0.392E+02 0.548E+02 0.135E+04   -.402E+02 -.551E+02 -.136E+04   0.158E+01 0.603E+00 0.560E+01   0.938E-02 -.266E-01 0.158E-01
   -.817E+02 -.160E+03 -.222E+03   0.830E+02 0.162E+03 0.221E+03   -.102E+01 -.196E+01 0.132E+01   0.183E-01 0.268E-03 -.525E-01
   -.661E+02 -.194E+03 0.547E+03   0.673E+02 0.196E+03 -.548E+03   -.118E+01 -.192E+01 -.347E+00   -.611E-01 0.193E-01 0.476E-01
   0.622E+02 -.552E+02 -.100E+04   -.623E+02 0.564E+02 0.100E+04   0.330E+00 -.220E+01 0.341E-01   -.107E+00 0.376E-02 -.217E-01
   0.672E+02 -.691E-01 0.122E+04   -.671E+02 0.117E+00 -.122E+04   -.205E+00 -.720E-01 0.631E+01   -.887E-01 0.462E-01 0.140E-01
   0.194E+03 -.839E+01 -.473E+03   -.197E+03 0.831E+01 0.474E+03   0.291E+01 0.118E+00 0.681E-01   -.444E-01 0.837E-01 -.827E-02
   0.800E+02 -.908E+00 0.149E+04   -.802E+02 0.104E+01 -.149E+04   0.499E+00 -.140E+00 0.502E+01   -.165E+00 -.347E-01 0.113E-01
   0.175E+03 -.655E+01 0.157E+03   -.177E+03 0.657E+01 -.157E+03   0.257E+01 -.553E-01 0.908E+00   -.158E+00 -.159E-01 0.106E+00
   0.346E+02 -.535E+02 0.136E+04   -.356E+02 0.539E+02 -.136E+04   0.147E+01 -.773E+00 0.550E+01   0.532E-01 0.517E-01 -.326E-01
   -.104E+03 0.169E+03 -.187E+03   0.105E+03 -.171E+03 0.185E+03   -.120E+01 0.250E+01 0.146E+01   0.693E-01 0.158E-01 -.672E-01
   -.155E+03 0.184E+03 -.141E+04   0.156E+03 -.186E+03 0.142E+04   -.226E+01 0.184E+01 -.484E+01   0.830E-01 -.337E-01 0.674E-01
   -.799E+02 0.185E+03 0.538E+03   0.810E+02 -.187E+03 -.538E+03   -.136E+01 0.202E+01 -.196E+00   0.616E-01 0.166E+00 -.262E-01
   0.285E+02 0.275E+02 -.101E+04   -.288E+02 -.294E+02 0.101E+04   0.618E+00 0.338E+01 0.902E+00   0.805E-01 0.216E+00 0.748E-02
   0.365E+02 0.546E+02 0.136E+04   -.375E+02 -.551E+02 -.136E+04   0.153E+01 0.781E+00 0.552E+01   0.306E-01 -.184E-01 0.932E-02
   -.863E+02 -.159E+03 -.181E+03   0.880E+02 0.162E+03 0.179E+03   -.146E+01 -.252E+01 0.125E+01   -.200E-01 0.188E-01 -.450E-01
   -.132E+03 -.169E+03 -.143E+04   0.134E+03 0.171E+03 0.143E+04   -.273E+01 -.262E+01 -.396E+01   -.127E-02 0.318E-01 0.314E-01
   -.851E+02 -.194E+03 0.508E+03   0.855E+02 0.196E+03 -.509E+03   -.604E+00 -.142E+01 0.332E+00   0.130E+00 -.106E+00 -.429E-02
   0.579E+02 0.422E+01 0.122E+04   -.579E+02 -.434E+01 -.122E+04   -.231E+00 0.204E+00 0.620E+01   0.227E-01 -.297E-01 -.190E-02
   0.157E+03 0.272E+02 -.476E+03   -.159E+03 -.270E+02 0.476E+03   0.286E+01 -.388E+00 0.392E+00   0.110E+00 -.109E+00 -.178E-01
   0.765E+02 -.573E+00 0.149E+04   -.770E+02 0.550E+00 -.150E+04   0.535E+00 0.284E-01 0.491E+01   0.904E-01 -.248E-01 -.608E-01
   0.146E+03 -.458E+01 0.173E+03   -.148E+03 0.491E+01 -.173E+03   0.230E+01 -.258E+00 0.120E+01   0.963E-01 -.473E-01 -.247E-01
 -----------------------------------------------------------------------------------------------
   -.338E+01 -.170E+02 -.109E+03   0.881E-12 -.799E-13 -.756E-11   0.362E+01 0.176E+02 0.109E+03   0.922E-01 -.435E+00 -.762E-01
 
 
 POSITION                                       TOTAL-FORCE (eV/Angst)
 -----------------------------------------------------------------------------------
      4.94536      4.44331      2.79952        -0.212922     -0.058629     -0.343000
      5.52903      4.44331      5.88406         0.629280      0.545956     -0.180749
      1.83941      9.23251      1.25725        -0.761092     -0.102057      0.338970
      2.42308      9.23251      4.34179        -0.032621      0.253178     -0.300202
      4.94536      1.91264      2.79952        -0.297213      0.025359     -0.303903
      5.52903      1.91264      5.88406         0.559655     -0.492466     -0.213810
      1.83941      6.70184      1.25725        -0.786196      0.195444      0.304439
      2.42308      6.70184      4.34179        -0.017237     -0.354942     -0.454678
      1.47054      3.17797      2.39204         0.591834      0.044177     -0.235216
      2.05421      3.17797      5.47658        -0.030445     -0.971369      0.050038
      3.99282      7.96718      0.84977         0.850748      0.040479      1.010407
      4.57649      7.96718      3.93431         0.179425     -0.010260      0.213111
      5.16016      7.96718      7.01886        -0.994540      0.030656     -1.895338
     10.57359      4.44331      2.79952        -0.209166     -0.013418     -0.305778
     11.15726      4.44331      5.88406        -0.465109      0.420451     -1.188702
      7.46764      9.23251      1.25725        -0.758713     -0.187099      0.361772
      8.05131      9.23251      4.34179        -0.504464      0.335070     -0.910430
     10.57359      1.91264      2.79952        -0.335750     -0.298336     -0.216750
     11.15726      1.91264      5.88406         1.276873      0.111983     -0.205567
      7.46764      6.70184      1.25725        -0.789255      0.144635      0.367757
      8.05131      6.70184      4.34179         0.217227     -0.161411     -0.312075
      7.09877      3.17797      2.39204         0.558125      0.024356     -0.432820
      7.68244      3.17797      5.47658        -0.306431      0.148442      1.021763
      9.62105      7.96718      0.84977         0.790997     -0.088265      1.012179
     10.20472      7.96718      3.93431         0.001266     -0.574329     -0.121515
     10.78839      7.96718      7.01886        -0.630609     -0.926172     -1.759571
      0.67130      1.56674      1.02341         0.681401     -0.251972      0.355577
      1.25497      1.56674      4.10795        -0.257600      0.050334      0.306067
      1.83864      1.56674      7.19249        -1.393735      0.943379     -1.489748
      3.77725      6.35595      2.56568        -0.186078      0.247719     -1.085601
      4.36092      6.35595      5.65022         0.080051      1.017528      0.929345
      0.67130      4.78920      1.02341         0.614182      0.241834      0.186701
      1.25497      4.78920      4.10795         0.260614     -0.072948      0.876169
      3.77725      9.57841      2.56568        -0.133232     -0.296196     -1.085010
      4.36092      9.57841      5.65022         0.103542     -0.999386      0.997359
      3.55746      3.17797      1.54227        -0.198508      0.019537      0.704126
      4.14113      3.17797      4.62682         0.197814      0.128555      0.913499
      0.45151      7.96718      0.00000         0.137263     -0.041109      0.747703
      1.03518      7.96718      3.08454         0.486404     -0.047834      1.054765
      6.29953      1.56674      1.02341         0.530417     -0.300762      0.275377
      6.88320      1.56674      4.10795         0.359074      0.133717      0.052417
      7.46687      1.56674      7.19249        -0.740127      0.371839     -1.298255
      9.40548      6.35595      2.56568        -0.193930      0.360334     -1.140214
      9.98915      6.35595      5.65022         0.407211      1.680801      1.273366
      6.29953      4.78920      1.02341         0.594078      0.305136      0.227781
      6.88320      4.78920      4.10795         0.216409     -0.260427     -0.074118
      7.46687      4.78920      7.19249        -0.916602     -0.782508     -1.205187
      9.40548      9.57841      2.56568        -0.099206     -0.293632     -0.204798
      9.18569      3.17797      1.54227        -0.287235      0.046836      0.843718
      9.76936      3.17797      4.62682         0.314350     -0.281473      0.933489
      6.07974      7.96718      0.00000         0.131859     -0.022497      0.707920
      6.66341      7.96718      3.08454         0.767919      0.021767      0.897221
 -----------------------------------------------------------------------------------
    total drift:                                0.333439      0.118199      0.072689


--------------------------------------------------------------------------------------------------------



  FREE ENERGIE OF THE ION-ELECTRON SYSTEM (eV)
  ---------------------------------------------------
  free  energy   TOTEN  =      -251.06690951 eV

  energy  without entropy=     -250.08503955  energy(sigma->0) =     -250.57597453
 


--------------------------------------------------------------------------------------------------------


    POTLOK:  cpu time    0.0540: real time    0.0550


--------------------------------------------------------------------------------------------------------


     LOOP+:  cpu time   64.3162: real time   64.5503
    4ORBIT:  cpu time    0.0000: real time    0.0000

 total amount of memory used by VASP MPI-rank0    41545. kBytes
=======================================================================

   base      :      30000. kBytes
   nonlr-proj:       1511. kBytes
   fftplans  :       2754. kBytes
   grid      :       4856. kBytes
   one-center:         69. kBytes
   wavefun   :       2355. kBytes
 
  
  
 General timing and accounting informations for this job:
 ========================================================
  
                  Total CPU time used (sec):       66.110
                            User time (sec):       65.495
                          System time (sec):        0.615
                         Elapsed time (sec):       66.821
  
                   Maximum memory used (kb):      217144.
                   Average memory used (kb):           0.
  
                          Minor page faults:        59537
                          Major page faults:            0
                 Voluntary context switches:          911
