<?xml version="1.0" encoding="ISO-8859-1"?>
<modeling>
 <generator>
  <i name="program" type="string">vasp </i>
  <i name="version" type="string">5.4.4.18Apr17-6-g9f103f2a35  </i>
  <i name="subversion" type="string">(build Aug 13 2019 17:33:20) gamma-only         parallel </i>
  <i name="platform" type="string">LinuxIFC </i>
  <i name="date" type="string">2020 05 12 </i>
  <i name="time" type="string">14:18:57 </i>
 </generator>
 <incar>
  <i type="string" name="SYSTEM">"Millerite NiS"</i>
  <i type="string" name="PREC">normal</i>
  <i type="int" name="NSIM">     4</i>
  <i type="int" name="NELM">   100</i>
  <i name="ENCUT">    450.00000000</i>
  <i type="string" name="LREAL">A</i>
  <i type="int" name="ISMEAR">     0</i>
  <i type="int" name="NWRITE">     2</i>
  <i type="logical" name="LWAVE"> F  </i>
  <i type="logical" name="LCHARG"> F  </i>
  <v type="int" name="KPOINT_BSE">    -1     0     0     0</v>
  <i type="int" name="NELM">   100</i>
 </incar>
 <structure name="primitive_cell" >
  <crystal>
   <varray name="basis" >
    <v>      10.07973298       0.00000000       0.00000000 </v>
    <v>       3.57329804       9.42510255       0.00000000 </v>
    <v>       0.00000000       0.00000000      20.51013988 </v>
   </varray>
   <i name="volume">   1948.51491473 </i>
   <varray name="rec_basis" >
    <v>       0.09920898      -0.03761267       0.00000000 </v>
    <v>       0.00000000       0.10609964       0.00000000 </v>
    <v>       0.00000000       0.00000000       0.04875637 </v>
   </varray>
  </crystal>
  <varray name="positions" >
   <v>       0.37433215      -0.24863780       0.09511235 </v>
   <v>       0.36723598      -0.36501648       0.01422423 </v>
   <v>       0.41227851      -0.06608101       0.06543555 </v>
   <v>       0.14670739      -0.15413438       0.12800997 </v>
   <v>       0.47740939      -0.48793304       0.12840637 </v>
   <v>      -0.47203578      -0.20205788       0.17147277 </v>
   <v>      -0.42760516      -0.43558542       0.04963191 </v>
   <v>      -0.37739486      -0.20952611       0.08267570 </v>
   <v>      -0.47539934      -0.39890632       0.22312232 </v>
   <v>       0.24378215      -0.47929023       0.04353400 </v>
   <v>       0.29697590      -0.30440289       0.25601994 </v>
   <v>      -0.23671545      -0.43737821       0.08533998 </v>
   <v>       0.09282582      -0.30046480       0.19815030 </v>
   <v>       0.32598014       0.13304754       0.11281032 </v>
   <v>       0.13252766      -0.07596064       0.23197130 </v>
   <v>       0.24425506       0.07855462       0.21374635 </v>
   <v>       0.14454139      -0.48530171       0.12880278 </v>
   <v>      -0.29059702       0.41629137       0.15548031 </v>
   <v>      -0.25089518      -0.35920447       0.18930132 </v>
   <v>       0.47624865      -0.01722097       0.24082029 </v>
   <v>       0.36568198       0.35755170       0.14663132 </v>
   <v>      -0.01774085       0.07430787       0.10396133 </v>
   <v>      -0.05744270      -0.15019629       0.07014033 </v>
   <v>      -0.02654829      -0.00084716       0.01579204 </v>
   <v>       0.02255755      -0.36108808       0.03179519 </v>
   <v>      -0.28977082      -0.05349419       0.05472251 </v>
   <v>       0.09120699       0.23178369       0.09717624 </v>
   <v>       0.35451322       0.29285737       0.05185606 </v>
   <v>      -0.46986977       0.12910945       0.17067996 </v>
   <v>      -0.32176726      -0.35232639       0.29948274 </v>
   <v>      -0.37232210       0.36179845       0.25641634 </v>
   <v>      -0.43766013       0.16573589       0.07303636 </v>
   <v>       0.22969517      -0.43761424       0.30989543 </v>
   <v>      -0.13916777      -0.20468921       0.17107636 </v>
   <v>      -0.08861294       0.08118595       0.21414276 </v>
   <v>      -0.24810827       0.22541390       0.09872753 </v>
   <v>       0.39452358      -0.07171389       0.34175632 </v>
   <v>       0.29480990       0.36442978       0.25681275 </v>
   <v>       0.28279617      -0.22622916       0.35998128 </v>
   <v>      -0.01220304       0.46616418       0.08462027 </v>
   <v>       0.14117783       0.31784985       0.18045233 </v>
   <v>      -0.09197650      -0.11566249       0.26579231 </v>
   <v>      -0.24224501       0.03460603       0.13778234 </v>
   <v>      -0.08644694       0.41235328       0.21334995 </v>
   <v>       0.06165557      -0.06908256       0.34215273 </v>
   <v>       0.01110074      -0.35495773       0.29908634 </v>
   <v>       0.29144634       0.16758134       0.30846230 </v>
   <v>      -0.31960126      -0.02115906       0.29868993 </v>
   <v>       0.44724441      -0.45467140       0.38402991 </v>
   <v>      -0.32513082       0.45082517       0.35113229 </v>
   <v>      -0.37348283      -0.16748948       0.36883026 </v>
   <v>      -0.48404950       0.20728318       0.27464130 </v>
   <v>      -0.10062667       0.49052701       0.31731128 </v>
   <v>      -0.14032851       0.26602286       0.28349028 </v>
   <v>       0.03470821      -0.24441675       0.38193096 </v>
   <v>       0.06382158       0.26208477       0.34135992 </v>
   <v>       0.44000719       0.02468313       0.42122970 </v>
   <v>       0.21134782      -0.27892968       0.44437899 </v>
   <v>      -0.00395436       0.12260378       0.39439758 </v>
   <v>       0.43411484      -0.33596908       0.46376651 </v>
   <v>      -0.46869340      -0.18253222       0.46021781 </v>
   <v>       0.44507841       0.21416127       0.38482272 </v>
   <v>      -0.44334086       0.33698592       0.42101588 </v>
   <v>      -0.33961152       0.06854945       0.38968707 </v>
   <v>      -0.17149875       0.49740510       0.42749271 </v>
   <v>      -0.22205359       0.21152993       0.38442632 </v>
   <v>      -0.18984008      -0.15046087       0.41433398 </v>
   <v>      -0.25499882      -0.29778084       0.46144000 </v>
   <v>      -0.41742944       0.46646661       0.49457000 </v>
   <v>      -0.21426032       0.32917299       0.46736321 </v>
   <v>       0.02310831       0.34238748       0.43359763 </v>
   <v>      -0.01228876       0.19207886       0.48922493 </v>
  </varray>
 </structure>
 <varray name="primitive_index" >
  <v type="int" >        1 </v>
  <v type="int" >       61 </v>
  <v type="int" >       49 </v>
  <v type="int" >       40 </v>
  <v type="int" >       62 </v>
  <v type="int" >       50 </v>
  <v type="int" >       14 </v>
  <v type="int" >       26 </v>
  <v type="int" >        2 </v>
  <v type="int" >       33 </v>
  <v type="int" >       41 </v>
  <v type="int" >       38 </v>
  <v type="int" >       17 </v>
  <v type="int" >       21 </v>
  <v type="int" >       30 </v>
  <v type="int" >       70 </v>
  <v type="int" >       57 </v>
  <v type="int" >       15 </v>
  <v type="int" >       27 </v>
  <v type="int" >       22 </v>
  <v type="int" >       34 </v>
  <v type="int" >       29 </v>
  <v type="int" >       20 </v>
  <v type="int" >       44 </v>
  <v type="int" >       60 </v>
  <v type="int" >       67 </v>
  <v type="int" >       69 </v>
  <v type="int" >       45 </v>
  <v type="int" >       46 </v>
  <v type="int" >       51 </v>
  <v type="int" >       63 </v>
  <v type="int" >        5 </v>
  <v type="int" >       18 </v>
  <v type="int" >       68 </v>
  <v type="int" >       54 </v>
  <v type="int" >       53 </v>
  <v type="int" >       71 </v>
  <v type="int" >       58 </v>
  <v type="int" >       31 </v>
  <v type="int" >       12 </v>
  <v type="int" >        9 </v>
  <v type="int" >        8 </v>
  <v type="int" >        6 </v>
  <v type="int" >       39 </v>
  <v type="int" >       55 </v>
  <v type="int" >       66 </v>
  <v type="int" >       10 </v>
  <v type="int" >       47 </v>
  <v type="int" >       42 </v>
  <v type="int" >        3 </v>
  <v type="int" >       23 </v>
  <v type="int" >       35 </v>
  <v type="int" >       28 </v>
  <v type="int" >       16 </v>
  <v type="int" >        7 </v>
  <v type="int" >       37 </v>
  <v type="int" >       11 </v>
  <v type="int" >       56 </v>
  <v type="int" >       13 </v>
  <v type="int" >       32 </v>
  <v type="int" >       72 </v>
  <v type="int" >       59 </v>
  <v type="int" >       19 </v>
  <v type="int" >       36 </v>
  <v type="int" >       52 </v>
  <v type="int" >       64 </v>
  <v type="int" >       48 </v>
  <v type="int" >       24 </v>
  <v type="int" >       43 </v>
  <v type="int" >        4 </v>
  <v type="int" >       25 </v>
  <v type="int" >       65 </v>
 </varray>
 <kpoints>
  <generation param="Gamma">
   <v type="int" name="divisions">       1        1        1 </v>
   <v name="usershift">      0.00000000       0.00000000       0.00000000 </v>
   <v name="genvec1">      1.00000000       0.00000000       0.00000000 </v>
   <v name="genvec2">      0.00000000       1.00000000       0.00000000 </v>
   <v name="genvec3">      0.00000000       0.00000000       1.00000000 </v>
   <v name="shift">      0.00000000       0.00000000       0.00000000 </v>
  </generation>
  <varray name="kpointlist" >
   <v>       0.00000000       0.00000000       0.00000000 </v>
  </varray>
  <varray name="weights" >
   <v>       1.00000000 </v>
  </varray>
 </kpoints>
 <parameters>
  <separator name="general" >
   <i type="string" name="SYSTEM">"Millerite NiS"</i>
   <i type="logical" name="LCOMPAT"> F  </i>
  </separator>
  <separator name="electronic" >
   <i type="string" name="PREC">normal</i>
   <i name="ENMAX">    450.00000000</i>
   <i name="ENAUG">    703.44300000</i>
   <i name="EDIFF">      0.00010000</i>
   <i type="int" name="IALGO">    38</i>
   <i type="int" name="IWAVPR">    10</i>
   <i type="int" name="NBANDS">   476</i>
   <i name="NELECT">    792.00000000</i>
   <i type="int" name="TURBO">     0</i>
   <i type="int" name="IRESTART">     0</i>
   <i type="int" name="NREBOOT">     0</i>
   <i type="int" name="NMIN">     0</i>
   <i name="EREF">      0.00000000</i>
   <separator name="electronic smearing" >
    <i type="int" name="ISMEAR">     0</i>
    <i name="SIGMA">      0.20000000</i>
    <i name="KSPACING">      0.50000000</i>
    <i type="logical" name="KGAMMA"> T  </i>
   </separator>
   <separator name="electronic projectors" >
    <i type="logical" name="LREAL"> T  </i>
    <v name="ROPT">     -0.00050000     -0.00050000</v>
    <i type="int" name="LMAXPAW">  -100</i>
    <i type="int" name="LMAXMIX">     2</i>
    <i type="logical" name="NLSPLINE"> F  </i>
   </separator>
   <separator name="electronic startup" >
    <i type="int" name="ISTART">     0</i>
    <i type="int" name="ICHARG">     2</i>
    <i type="int" name="INIWAV">     1</i>
   </separator>
   <separator name="electronic spin" >
    <i type="int" name="ISPIN">     1</i>
    <i type="logical" name="LNONCOLLINEAR"> F  </i>
    <v name="MAGMOM">      1.00000000      1.00000000      1.00000000      1.00000000      1.00000000      1.00000000      1.00000000      1.00000000      1.00000000      1.00000000      1.00000000      1.00000000      1.00000000      1.00000000      1.00000000      1.00000000      1.00000000      1.00000000      1.00000000      1.00000000
      1.00000000      1.00000000      1.00000000      1.00000000      1.00000000      1.00000000      1.00000000      1.00000000      1.00000000      1.00000000      1.00000000      1.00000000      1.00000000      1.00000000      1.00000000      1.00000000      1.00000000      1.00000000      1.00000000      1.00000000
      1.00000000      1.00000000      1.00000000      1.00000000      1.00000000      1.00000000      1.00000000      1.00000000      1.00000000      1.00000000      1.00000000      1.00000000      1.00000000      1.00000000      1.00000000      1.00000000      1.00000000      1.00000000      1.00000000      1.00000000
      1.00000000      1.00000000      1.00000000      1.00000000      1.00000000      1.00000000      1.00000000      1.00000000      1.00000000      1.00000000      1.00000000      1.00000000</v>
    <i name="NUPDOWN">     -1.00000000</i>
    <i type="logical" name="LSORBIT"> F  </i>
    <v name="SAXIS">      0.00000000      0.00000000      1.00000000</v>
    <i type="logical" name="LSPIRAL"> F  </i>
    <v name="QSPIRAL">      0.00000000      0.00000000      0.00000000</v>
    <i type="logical" name="LZEROZ"> F  </i>
   </separator>
   <separator name="electronic exchange-correlation" >
    <i type="logical" name="LASPH"> F  </i>
    <i type="logical" name="LMETAGGA"> F  </i>
   </separator>
   <separator name="electronic convergence" >
    <i type="int" name="NELM">   100</i>
    <i type="int" name="NELMDL">    -5</i>
    <i type="int" name="NELMIN">     2</i>
    <i name="ENINI">    450.00000000</i>
    <separator name="electronic convergence detail" >
     <i type="logical" name="LDIAG"> T  </i>
     <i type="logical" name="LSUBROT"> F  </i>
     <i name="WEIMIN">      0.00000000</i>
     <i name="EBREAK">      0.00000005</i>
     <i name="DEPER">      0.30000000</i>
     <i type="int" name="NRMM">     4</i>
     <i name="TIME">      0.40000000</i>
    </separator>
   </separator>
   <separator name="electronic mixer" >
    <i name="AMIX">      0.40000000</i>
    <i name="BMIX">      1.00000000</i>
    <i name="AMIN">      0.10000000</i>
    <i name="AMIX_MAG">      1.60000000</i>
    <i name="BMIX_MAG">      1.00000000</i>
    <separator name="electronic mixer details" >
     <i type="int" name="IMIX">     4</i>
     <i type="logical" name="MIXFIRST"> F  </i>
     <i type="int" name="MAXMIX">   -45</i>
     <i name="WC">    100.00000000</i>
     <i type="int" name="INIMIX">     1</i>
     <i type="int" name="MIXPRE">     1</i>
     <i type="int" name="MREMOVE">     5</i>
    </separator>
   </separator>
   <separator name="electronic dipolcorrection" >
    <i type="logical" name="LDIPOL"> F  </i>
    <i type="logical" name="LMONO"> F  </i>
    <i type="int" name="IDIPOL">     0</i>
    <i name="EPSILON">      1.00000000</i>
    <v name="DIPOL">   -100.00000000   -100.00000000   -100.00000000</v>
    <i name="EFIELD">      0.00000000</i>
   </separator>
  </separator>
  <separator name="grids" >
   <i type="int" name="NGX">    54</i>
   <i type="int" name="NGY">    54</i>
   <i type="int" name="NGZ">   108</i>
   <i type="int" name="NGXF">   108</i>
   <i type="int" name="NGYF">   108</i>
   <i type="int" name="NGZF">   216</i>
   <i type="logical" name="ADDGRID"> F  </i>
  </separator>
  <separator name="ionic" >
   <i type="int" name="NSW">     0</i>
   <i type="int" name="IBRION">    -1</i>
   <i type="int" name="MDALGO">     0</i>
   <i type="int" name="ISIF">     2</i>
   <i name="PSTRESS">      0.00000000</i>
   <i name="EDIFFG">      0.00100000</i>
   <i type="int" name="NFREE">     0</i>
   <i name="POTIM">      0.50000000</i>
   <i name="SMASS">     -3.00000000</i>
   <i name="SCALEE">      1.00000000</i>
  </separator>
  <separator name="ionic md" >
   <i name="TEBEG">      0.00010000</i>
   <i name="TEEND">      0.00010000</i>
   <i type="int" name="NBLOCK">     1</i>
   <i type="int" name="KBLOCK">     1</i>
   <i type="int" name="NPACO">   256</i>
   <i name="APACO">     16.00000000</i>
  </separator>
  <separator name="symmetry" >
   <i type="int" name="ISYM">     2</i>
   <i name="SYMPREC">      0.00001000</i>
  </separator>
  <separator name="dos" >
   <i type="int" name="LORBIT">     0</i>
   <v name="RWIGS">     -1.00000000     -1.00000000</v>
   <i type="int" name="NEDOS">   301</i>
   <i name="EMIN">     10.00000000</i>
   <i name="EMAX">    -10.00000000</i>
   <i name="EFERMI">      0.00000000</i>
  </separator>
  <separator name="writing" >
   <i type="int" name="NWRITE">     2</i>
   <i type="logical" name="LWAVE"> F  </i>
   <i type="logical" name="LDOWNSAMPLE"> F  </i>
   <i type="logical" name="LCHARG"> F  </i>
   <i type="logical" name="LPARD"> F  </i>
   <i type="logical" name="LVTOT"> F  </i>
   <i type="logical" name="LVHAR"> F  </i>
   <i type="logical" name="LELF"> F  </i>
   <i type="logical" name="LOPTICS"> F  </i>
   <v name="STM">      0.00000000      0.00000000      0.00000000      0.00000000      0.00000000      0.00000000      0.00000000</v>
  </separator>
  <separator name="performance" >
   <i type="int" name="NPAR">     2</i>
   <i type="int" name="NSIM">     4</i>
   <i type="int" name="NBLK">    -1</i>
   <i type="logical" name="LPLANE"> T  </i>
   <i type="logical" name="LSCALAPACK"> T  </i>
   <i type="logical" name="LSCAAWARE"> F  </i>
   <i type="logical" name="LSCALU"> F  </i>
   <i type="logical" name="LASYNC"> F  </i>
   <i type="logical" name="LORBITALREAL"> F  </i>
  </separator>
  <separator name="miscellaneous" >
   <i type="int" name="IDIOT">     3</i>
   <i type="int" name="ISPECIAL">     0</i>
   <i type="logical" name="LMUSIC"> F  </i>
   <v name="POMASS">     58.69000000     32.06600000</v>
   <v name="DARWINR">      0.00000000      0.00000000</v>
   <v name="DARWINV">      1.00000000      1.00000000</v>
   <i type="logical" name="LCORR"> T  </i>
  </separator>
  <i type="logical" name="GGA_COMPAT"> T  </i>
  <i type="logical" name="LBERRY"> F  </i>
  <i type="int" name="ICORELEVEL">     0</i>
  <i type="logical" name="LDAU"> F  </i>
  <i type="int" name="I_CONSTRAINED_M">     0</i>
  <separator name="electronic exchange-correlation" >
   <i type="string" name="GGA">--</i>
   <i type="int" name="VOSKOWN">     0</i>
   <i type="logical" name="LHFCALC"> F  </i>
   <i type="string" name="PRECFOCK"></i>
   <i type="logical" name="LSYMGRAD"> F  </i>
   <i type="logical" name="LHFONE"> F  </i>
   <i type="logical" name="LRHFCALC"> F  </i>
   <i type="logical" name="LTHOMAS"> F  </i>
   <i type="logical" name="LMODELHF"> F  </i>
   <i name="ENCUT4O">     -1.00000000</i>
   <i type="int" name="EXXOEP">     0</i>
   <i type="int" name="FOURORBIT">     0</i>
   <i name="AEXX">      0.00000000</i>
   <i name="HFALPHA">      0.00000000</i>
   <i name="MCALPHA">      0.00000000</i>
   <i name="ALDAX">      1.00000000</i>
   <i name="AGGAX">      1.00000000</i>
   <i name="ALDAC">      1.00000000</i>
   <i name="AGGAC">      1.00000000</i>
   <i type="int" name="NKREDX">     1</i>
   <i type="int" name="NKREDY">     1</i>
   <i type="int" name="NKREDZ">     1</i>
   <i type="logical" name="SHIFTRED"> F  </i>
   <i type="logical" name="ODDONLY"> F  </i>
   <i type="logical" name="EVENONLY"> F  </i>
   <i type="int" name="LMAXFOCK">     0</i>
   <i type="int" name="NMAXFOCKAE">     0</i>
   <i type="logical" name="LFOCKAEDFT"> F  </i>
   <i name="HFSCREEN">      0.00000000</i>
   <i name="HFSCREENC">      0.00000000</i>
   <i type="int" name="NBANDSGWLOW">     0</i>
  </separator>
  <separator name="vdW DFT" >
   <i type="logical" name="LUSE_VDW"> F  </i>
   <i name="Zab_VDW">     -0.84910000</i>
   <i name="PARAM1">      0.12340000</i>
   <i name="PARAM2">      1.00000000</i>
   <i name="PARAM3">      0.00000000</i>
  </separator>
  <separator name="model GW" >
   <i type="int" name="MODEL_GW">     0</i>
   <i name="MODEL_EPS0">     16.23762429</i>
   <i name="MODEL_ALPHA">      1.00000000</i>
  </separator>
  <separator name="linear response parameters" >
   <i type="logical" name="LEPSILON"> F  </i>
   <i type="logical" name="LRPA"> F  </i>
   <i type="logical" name="LNABLA"> F  </i>
   <i type="logical" name="LVEL"> F  </i>
   <i type="int" name="KINTER">     0</i>
   <i name="CSHIFT">      0.10000000</i>
   <i name="OMEGAMAX">     -1.00000000</i>
   <i name="DEG_THRESHOLD">      0.00200000</i>
   <i name="RTIME">     -0.10000000</i>
   <i name="WPLASMAI">      0.00000000</i>
   <v name="DFIELD">      0.00000000      0.00000000      0.00000000</v>
   <v name="WPLASMA">      0.00000000      0.00000000      0.00000000      0.00000000      0.00000000      0.00000000      0.00000000      0.00000000      0.00000000</v>
  </separator>
  <separator name="orbital magnetization" >
   <i type="logical" name="NUCIND"> F  </i>
   <v name="MAGPOS">      0.00000000      0.00000000      0.00000000</v>
   <i type="logical" name="LNICSALL"> T  </i>
   <i type="logical" name="ORBITALMAG"> F  </i>
   <i type="logical" name="LMAGBLOCH"> F  </i>
   <i type="logical" name="LCHIMAG"> F  </i>
   <i type="logical" name="LGAUGE"> T  </i>
   <i type="int" name="MAGATOM">     0</i>
   <v name="MAGDIPOL">      0.00000000      0.00000000      0.00000000</v>
   <v name="AVECCONST">      0.00000000      0.00000000      0.00000000</v>
  </separator>
  <separator name="response functions" >
   <i type="logical" name="LADDER"> F  </i>
   <i type="logical" name="LRPAFORCE"> F  </i>
   <i type="logical" name="LFXC"> F  </i>
   <i type="logical" name="LHARTREE"> T  </i>
   <i type="int" name="IBSE">     0</i>
   <v type="int" name="KPOINT">    -1     0     0     0</v>
   <i type="logical" name="LTCTE"> F  </i>
   <i type="logical" name="LTETE"> F  </i>
   <i type="logical" name="LTRIPLET"> F  </i>
   <i type="logical" name="LFXCEPS"> F  </i>
   <i type="logical" name="LFXHEG"> F  </i>
   <i type="int" name="NATURALO">     2</i>
   <i type="logical" name="L2ORDER"> F  </i>
   <i type="logical" name="LMP2LT"> F  </i>
   <i type="logical" name="LUSEW"> F  </i>
   <i name="ENCUTGW">     -2.00000000</i>
   <i name="ENCUTGWSOFT">     -2.00000000</i>
   <i name="ENCUTLF">     -1.00000000</i>
   <i type="int" name="LMAXMP2">    -1</i>
   <i name="SCISSOR">      0.00000000</i>
   <i type="int" name="NOMEGA">     0</i>
   <i type="int" name="NOMEGAR">     0</i>
   <i type="int" name="NBANDSGW">    -1</i>
   <i type="int" name="NBANDSO">    -1</i>
   <i type="int" name="NBANDSV">    -1</i>
   <i type="int" name="NELM">   100</i>
   <i type="int" name="NELMHF">     1</i>
   <i type="int" name="DIM">     3</i>
   <i type="int" name="ANTIRES">     0</i>
   <i name="OMEGAMAX">    -30.00000000</i>
   <i name="OMEGAMIN">    -30.00000000</i>
   <i name="OMEGATL">   -200.00000000</i>
   <i type="int" name="OMEGAGRID">   140</i>
   <i name="CSHIFT">     -0.10000000</i>
   <i type="logical" name="SELFENERGY"> F  </i>
   <i type="logical" name="LSPECTRAL"> F  </i>
   <i type="logical" name="LSPECTRALGW"> F  </i>
   <i type="logical" name="LSINGLES"> F  </i>
   <i type="logical" name="LFERMIGW"> F  </i>
   <i type="logical" name="ODDONLYGW"> F  </i>
   <i type="logical" name="EVENONLYGW"> F  </i>
   <i type="int" name="NKREDLFX">     1</i>
   <i type="int" name="NKREDLFY">     1</i>
   <i type="int" name="NKREDLFZ">     1</i>
   <i type="int" name="MAXMEM">  2800</i>
   <i type="int" name="TELESCOPE">     0</i>
   <i type="int" name="TAUPAR">     1</i>
   <i type="int" name="OMEGAPAR">    -1</i>
   <i name="LAMBDA">      1.00000000</i>
  </separator>
  <separator name="External order field" >
   <i name="OFIELD_KAPPA">      0.00000000</i>
   <v name="OFIELD_K">      0.00000000      0.00000000      0.00000000</v>
   <i name="OFIELD_Q6_NEAR">      0.00000000</i>
   <i name="OFIELD_Q6_FAR">      0.00000000</i>
   <i name="OFIELD_A">      0.00000000</i>
  </separator>
 </parameters>
 <atominfo>
  <atoms>      72 </atoms>
  <types>       2 </types>
  <array name="atoms" >
   <dimension dim="1">ion</dimension>
   <field type="string">element</field>
   <field type="int">atomtype</field>
   <set>
    <rc><c>Ni</c><c>   1</c></rc>
    <rc><c>Ni</c><c>   1</c></rc>
    <rc><c>Ni</c><c>   1</c></rc>
    <rc><c>Ni</c><c>   1</c></rc>
    <rc><c>Ni</c><c>   1</c></rc>
    <rc><c>Ni</c><c>   1</c></rc>
    <rc><c>Ni</c><c>   1</c></rc>
    <rc><c>Ni</c><c>   1</c></rc>
    <rc><c>Ni</c><c>   1</c></rc>
    <rc><c>Ni</c><c>   1</c></rc>
    <rc><c>Ni</c><c>   1</c></rc>
    <rc><c>Ni</c><c>   1</c></rc>
    <rc><c>Ni</c><c>   1</c></rc>
    <rc><c>Ni</c><c>   1</c></rc>
    <rc><c>Ni</c><c>   1</c></rc>
    <rc><c>Ni</c><c>   1</c></rc>
    <rc><c>Ni</c><c>   1</c></rc>
    <rc><c>Ni</c><c>   1</c></rc>
    <rc><c>Ni</c><c>   1</c></rc>
    <rc><c>Ni</c><c>   1</c></rc>
    <rc><c>Ni</c><c>   1</c></rc>
    <rc><c>Ni</c><c>   1</c></rc>
    <rc><c>Ni</c><c>   1</c></rc>
    <rc><c>Ni</c><c>   1</c></rc>
    <rc><c>Ni</c><c>   1</c></rc>
    <rc><c>Ni</c><c>   1</c></rc>
    <rc><c>Ni</c><c>   1</c></rc>
    <rc><c>Ni</c><c>   1</c></rc>
    <rc><c>Ni</c><c>   1</c></rc>
    <rc><c>Ni</c><c>   1</c></rc>
    <rc><c>Ni</c><c>   1</c></rc>
    <rc><c>Ni</c><c>   1</c></rc>
    <rc><c>Ni</c><c>   1</c></rc>
    <rc><c>Ni</c><c>   1</c></rc>
    <rc><c>Ni</c><c>   1</c></rc>
    <rc><c>Ni</c><c>   1</c></rc>
    <rc><c>S </c><c>   2</c></rc>
    <rc><c>S </c><c>   2</c></rc>
    <rc><c>S </c><c>   2</c></rc>
    <rc><c>S </c><c>   2</c></rc>
    <rc><c>S </c><c>   2</c></rc>
    <rc><c>S </c><c>   2</c></rc>
    <rc><c>S </c><c>   2</c></rc>
    <rc><c>S </c><c>   2</c></rc>
    <rc><c>S </c><c>   2</c></rc>
    <rc><c>S </c><c>   2</c></rc>
    <rc><c>S </c><c>   2</c></rc>
    <rc><c>S </c><c>   2</c></rc>
    <rc><c>S </c><c>   2</c></rc>
    <rc><c>S </c><c>   2</c></rc>
    <rc><c>S </c><c>   2</c></rc>
    <rc><c>S </c><c>   2</c></rc>
    <rc><c>S </c><c>   2</c></rc>
    <rc><c>S </c><c>   2</c></rc>
    <rc><c>S </c><c>   2</c></rc>
    <rc><c>S </c><c>   2</c></rc>
    <rc><c>S </c><c>   2</c></rc>
    <rc><c>S </c><c>   2</c></rc>
    <rc><c>S </c><c>   2</c></rc>
    <rc><c>S </c><c>   2</c></rc>
    <rc><c>S </c><c>   2</c></rc>
    <rc><c>S </c><c>   2</c></rc>
    <rc><c>S </c><c>   2</c></rc>
    <rc><c>S </c><c>   2</c></rc>
    <rc><c>S </c><c>   2</c></rc>
    <rc><c>S </c><c>   2</c></rc>
    <rc><c>S </c><c>   2</c></rc>
    <rc><c>S </c><c>   2</c></rc>
    <rc><c>S </c><c>   2</c></rc>
    <rc><c>S </c><c>   2</c></rc>
    <rc><c>S </c><c>   2</c></rc>
    <rc><c>S </c><c>   2</c></rc>
   </set>
  </array>
  <array name="atomtypes" >
   <dimension dim="1">type</dimension>
   <field type="int">atomspertype</field>
   <field type="string">element</field>
   <field>mass</field>
   <field>valence</field>
   <field type="string">pseudopotential</field>
   <set>
    <rc><c>  36</c><c>Ni</c><c>     58.69000000</c><c>     16.00000000</c><c>  PAW_PBE Ni_pv 06Sep2000               </c></rc>
    <rc><c>  36</c><c>S </c><c>     32.06600000</c><c>      6.00000000</c><c>  PAW_PBE S 06Sep2000                   </c></rc>
   </set>
  </array>
 </atominfo>
 <structure name="initialpos" >
  <crystal>
   <varray name="basis" >
    <v>      10.07973298       0.00000000       0.00000000 </v>
    <v>       3.57329804       9.42510255       0.00000000 </v>
    <v>       0.00000000       0.00000000      20.51013988 </v>
   </varray>
   <i name="volume">   1948.51491473 </i>
   <varray name="rec_basis" >
    <v>       0.09920898      -0.03761267       0.00000000 </v>
    <v>       0.00000000       0.10609964       0.00000000 </v>
    <v>       0.00000000       0.00000000       0.04875637 </v>
   </varray>
  </crystal>
  <varray name="positions" >
   <v>       0.37433215       0.75136220       0.09511235 </v>
   <v>       0.52460066       0.60109368       0.22312232 </v>
   <v>       0.67486918       0.45082517       0.35113229 </v>
   <v>       0.78573968       0.32917299       0.46736321 </v>
   <v>       0.56233987       0.16573589       0.07303636 </v>
   <v>       0.75775499       0.03460603       0.13778234 </v>
   <v>       0.03470821       0.75558325       0.38193096 </v>
   <v>       0.90802350       0.88433751       0.26579231 </v>
   <v>       0.14117783       0.31784985       0.18045233 </v>
   <v>       0.29144634       0.16758134       0.30846230 </v>
   <v>       0.44000719       0.02468313       0.42122970 </v>
   <v>       0.98779696       0.46616418       0.08462027 </v>
   <v>       0.99604564       0.12260378       0.39439758 </v>
   <v>       0.57239484       0.56441458       0.04963191 </v>
   <v>       0.70940298       0.41629137       0.15548031 </v>
   <v>       0.85967149       0.26602286       0.28349028 </v>
   <v>       0.09282582       0.69953520       0.19815030 </v>
   <v>       0.22969517       0.56238576       0.30989543 </v>
   <v>       0.55665914       0.33698592       0.42101588 </v>
   <v>       0.94255730       0.84980371       0.07014033 </v>
   <v>       0.32598014       0.13304754       0.11281032 </v>
   <v>       0.47624865       0.98277903       0.24082029 </v>
   <v>       0.62651717       0.83251052       0.36883026 </v>
   <v>       0.74500118       0.70221916       0.46144000 </v>
   <v>       0.02310831       0.34238748       0.43359763 </v>
   <v>       0.62260514       0.79047389       0.08267570 </v>
   <v>       0.74910482       0.64079553       0.18930132 </v>
   <v>       0.89937333       0.49052701       0.31731128 </v>
   <v>       0.98225915       0.07430787       0.10396133 </v>
   <v>       0.13252766       0.92403936       0.23197130 </v>
   <v>       0.28279617       0.77377084       0.35998128 </v>
   <v>       0.43411484       0.66403092       0.46376651 </v>
   <v>       0.24378215       0.52070977       0.04353400 </v>
   <v>       0.36568198       0.35755170       0.14663132 </v>
   <v>       0.51595050       0.20728318       0.27464130 </v>
   <v>       0.66038848       0.06854945       0.38968707 </v>
   <v>       0.06382158       0.26208477       0.34135992 </v>
   <v>       0.76328455       0.56262179       0.08533998 </v>
   <v>       0.91355306       0.41235328       0.21334995 </v>
   <v>       0.14670739       0.84586562       0.12800997 </v>
   <v>       0.29697590       0.69559711       0.25601994 </v>
   <v>       0.44724441       0.54532860       0.38402991 </v>
   <v>       0.58257056       0.46646661       0.49457000 </v>
   <v>       0.97345171       0.99915284       0.01579204 </v>
   <v>       0.35451322       0.29285737       0.05185606 </v>
   <v>       0.53013023       0.12910945       0.17067996 </v>
   <v>       0.68039874       0.97884094       0.29868993 </v>
   <v>       0.81015992       0.84953913       0.41433398 </v>
   <v>       0.41227851       0.93391899       0.06543555 </v>
   <v>       0.52796422       0.79794212       0.17147277 </v>
   <v>       0.67823274       0.64767361       0.29948274 </v>
   <v>       0.82850125       0.49740510       0.42749271 </v>
   <v>       0.75189173       0.22541390       0.09872753 </v>
   <v>       0.91138706       0.08118595       0.21414276 </v>
   <v>       0.06165557       0.93091744       0.34215273 </v>
   <v>       0.21134782       0.72107032       0.44437899 </v>
   <v>       0.14454139       0.51469829       0.12880278 </v>
   <v>       0.29480990       0.36442978       0.25681275 </v>
   <v>       0.44507841       0.21416127       0.38482272 </v>
   <v>       0.02255755       0.63891192       0.03179519 </v>
   <v>       0.36723598       0.63498352       0.01422423 </v>
   <v>       0.47740939       0.51206696       0.12840637 </v>
   <v>       0.62767790       0.36179845       0.25641634 </v>
   <v>       0.77794641       0.21152993       0.38442632 </v>
   <v>       0.98771124       0.19207886       0.48922493 </v>
   <v>       0.01110074       0.64504227       0.29908634 </v>
   <v>       0.71022918       0.94650581       0.05472251 </v>
   <v>       0.86083223       0.79531079       0.17107636 </v>
   <v>       0.09120699       0.23178369       0.09717624 </v>
   <v>       0.24425506       0.07855462       0.21374635 </v>
   <v>       0.39452358       0.92828611       0.34175632 </v>
   <v>       0.53130660       0.81746778       0.46021781 </v>
  </varray>
 </structure>
 <calculation>
  <scstep>
   <time name="dav">    6.77    6.78</time>
   <time name="total">    7.05    7.06</time>
   <energy>
    <i name="alphaZ">   1909.09476555 </i>
    <i name="ewald"> 205126.03020427 </i>
    <i name="hartreedc">-327417.82684522 </i>
    <i name="XCdc">   3677.87919581 </i>
    <i name="pawpsdc"> 112729.53333415 </i>
    <i name="pawaedc">-117641.51188735 </i>
    <i name="eentropy">     -0.39798066 </i>
    <i name="bandstr">  -4398.80395411 </i>
    <i name="atom"> 136002.60505376 </i>
    <i name="e_fr_energy">   9986.60188621 </i>
    <i name="e_wo_entrp">   9986.99986687 </i>
    <i name="e_0_energy">   9986.80087654 </i>
   </energy>
  </scstep>
  <scstep>
   <time name="dav">    6.14    6.14</time>
   <time name="total">    6.14    6.14</time>
   <energy>
    <i name="e_fr_energy">    635.93331726 </i>
    <i name="e_wo_entrp">    636.62307073 </i>
    <i name="e_0_energy">    636.27819400 </i>
   </energy>
  </scstep>
  <scstep>
   <time name="dav">    6.79    6.79</time>
   <time name="total">    6.79    6.79</time>
   <energy>
    <i name="e_fr_energy">   -340.62468453 </i>
    <i name="e_wo_entrp">   -339.59696221 </i>
    <i name="e_0_energy">   -340.11082337 </i>
   </energy>
  </scstep>
  <scstep>
   <time name="dav">    6.61    6.61</time>
   <time name="total">    6.61    6.61</time>
   <energy>
    <i name="e_fr_energy">   -401.02762822 </i>
    <i name="e_wo_entrp">   -399.99635034 </i>
    <i name="e_0_energy">   -400.51198928 </i>
   </energy>
  </scstep>
  <scstep>
   <time name="dav">    7.05    7.05</time>
   <time name="total">    7.27    7.28</time>
   <energy>
    <i name="e_fr_energy">   -403.25235886 </i>
    <i name="e_wo_entrp">   -402.22025040 </i>
    <i name="e_0_energy">   -402.73630463 </i>
   </energy>
  </scstep>
  <scstep>
   <time name="dav">    6.83    6.83</time>
   <time name="total">    7.53    7.53</time>
   <energy>
    <i name="e_fr_energy">   -463.59337782 </i>
    <i name="e_wo_entrp">   -462.74559430 </i>
    <i name="e_0_energy">   -463.16948606 </i>
   </energy>
  </scstep>
  <scstep>
   <time name="dav">    6.49    6.49</time>
   <time name="total">    6.97    6.98</time>
   <energy>
    <i name="e_fr_energy">   -365.63993257 </i>
    <i name="e_wo_entrp">   -364.81924273 </i>
    <i name="e_0_energy">   -365.22958765 </i>
   </energy>
  </scstep>
  <scstep>
   <time name="dav">    7.21    7.21</time>
   <time name="total">    7.70    7.70</time>
   <energy>
    <i name="e_fr_energy">   -423.42199382 </i>
    <i name="e_wo_entrp">   -422.29905149 </i>
    <i name="e_0_energy">   -422.86052265 </i>
   </energy>
  </scstep>
  <scstep>
   <time name="dav">    7.59    7.59</time>
   <time name="total">    8.07    8.07</time>
   <energy>
    <i name="e_fr_energy">   -390.25197251 </i>
    <i name="e_wo_entrp">   -389.24091560 </i>
    <i name="e_0_energy">   -389.74644406 </i>
   </energy>
  </scstep>
  <scstep>
   <time name="dav">    7.68    7.68</time>
   <time name="total">    8.16    8.17</time>
   <energy>
    <i name="e_fr_energy">   -401.48952701 </i>
    <i name="e_wo_entrp">   -400.31065808 </i>
    <i name="e_0_energy">   -400.90009255 </i>
   </energy>
  </scstep>
  <scstep>
   <time name="dav">    7.91    7.91</time>
   <time name="total">    8.39    8.39</time>
   <energy>
    <i name="e_fr_energy">   -379.80390544 </i>
    <i name="e_wo_entrp">   -378.78283972 </i>
    <i name="e_0_energy">   -379.29337258 </i>
   </energy>
  </scstep>
  <scstep>
   <time name="dav">    7.55    7.55</time>
   <time name="total">    8.03    8.04</time>
   <energy>
    <i name="e_fr_energy">   -368.37845905 </i>
    <i name="e_wo_entrp">   -367.44102626 </i>
    <i name="e_0_energy">   -367.90974265 </i>
   </energy>
  </scstep>
  <scstep>
   <time name="dav">    7.38    7.38</time>
   <time name="total">    7.88    7.88</time>
   <energy>
    <i name="e_fr_energy">   -360.99888721 </i>
    <i name="e_wo_entrp">   -360.11916743 </i>
    <i name="e_0_energy">   -360.55902732 </i>
   </energy>
  </scstep>
  <scstep>
   <time name="dav">    7.62    7.63</time>
   <time name="total">    8.11    8.12</time>
   <energy>
    <i name="e_fr_energy">   -358.99449522 </i>
    <i name="e_wo_entrp">   -358.04202810 </i>
    <i name="e_0_energy">   -358.51826166 </i>
   </energy>
  </scstep>
  <scstep>
   <time name="dav">    7.71    7.71</time>
   <time name="total">    8.20    8.20</time>
   <energy>
    <i name="e_fr_energy">   -356.41960990 </i>
    <i name="e_wo_entrp">   -355.48553165 </i>
    <i name="e_0_energy">   -355.95257077 </i>
   </energy>
  </scstep>
  <scstep>
   <time name="dav">    7.43    7.43</time>
   <time name="total">    7.92    7.92</time>
   <energy>
    <i name="e_fr_energy">   -355.83893257 </i>
    <i name="e_wo_entrp">   -354.88988935 </i>
    <i name="e_0_energy">   -355.36441096 </i>
   </energy>
  </scstep>
  <scstep>
   <time name="dav">    7.72    7.72</time>
   <time name="total">    8.21    8.21</time>
   <energy>
    <i name="e_fr_energy">   -355.42046189 </i>
    <i name="e_wo_entrp">   -354.47050189 </i>
    <i name="e_0_energy">   -354.94548189 </i>
   </energy>
  </scstep>
  <scstep>
   <time name="dav">    7.20    7.20</time>
   <time name="total">    7.71    7.71</time>
   <energy>
    <i name="e_fr_energy">   -355.10999881 </i>
    <i name="e_wo_entrp">   -354.15222079 </i>
    <i name="e_0_energy">   -354.63110980 </i>
   </energy>
  </scstep>
  <scstep>
   <time name="dav">    8.13    8.13</time>
   <time name="total">    8.62    8.62</time>
   <energy>
    <i name="e_fr_energy">   -354.56232139 </i>
    <i name="e_wo_entrp">   -353.58752684 </i>
    <i name="e_0_energy">   -354.07492412 </i>
   </energy>
  </scstep>
  <scstep>
   <time name="dav">    7.73    7.73</time>
   <time name="total">    8.22    8.22</time>
   <energy>
    <i name="e_fr_energy">   -353.96043250 </i>
    <i name="e_wo_entrp">   -352.97261882 </i>
    <i name="e_0_energy">   -353.46652566 </i>
   </energy>
  </scstep>
  <scstep>
   <time name="dav">    7.40    7.41</time>
   <time name="total">    7.90    7.91</time>
   <energy>
    <i name="e_fr_energy">   -353.91032405 </i>
    <i name="e_wo_entrp">   -352.92644747 </i>
    <i name="e_0_energy">   -353.41838576 </i>
   </energy>
  </scstep>
  <scstep>
   <time name="dav">    6.61    6.62</time>
   <time name="total">    7.11    7.12</time>
   <energy>
    <i name="e_fr_energy">   -353.91095140 </i>
    <i name="e_wo_entrp">   -352.92677098 </i>
    <i name="e_0_energy">   -353.41886119 </i>
   </energy>
  </scstep>
  <scstep>
   <time name="dav">    6.89    6.89</time>
   <time name="total">    7.39    7.40</time>
   <energy>
    <i name="e_fr_energy">   -353.92401921 </i>
    <i name="e_wo_entrp">   -352.94951275 </i>
    <i name="e_0_energy">   -353.43676598 </i>
   </energy>
  </scstep>
  <scstep>
   <time name="dav">    7.50    7.50</time>
   <time name="total">    8.00    8.00</time>
   <energy>
    <i name="e_fr_energy">   -353.89245530 </i>
    <i name="e_wo_entrp">   -352.91001074 </i>
    <i name="e_0_energy">   -353.40123302 </i>
   </energy>
  </scstep>
  <scstep>
   <time name="dav">    7.41    7.41</time>
   <time name="total">    7.92    7.92</time>
   <energy>
    <i name="e_fr_energy">   -353.88075795 </i>
    <i name="e_wo_entrp">   -352.89367402 </i>
    <i name="e_0_energy">   -353.38721598 </i>
   </energy>
  </scstep>
  <scstep>
   <time name="dav">    7.65    7.65</time>
   <time name="total">    8.16    8.16</time>
   <energy>
    <i name="e_fr_energy">   -353.87523817 </i>
    <i name="e_wo_entrp">   -352.89280682 </i>
    <i name="e_0_energy">   -353.38402250 </i>
   </energy>
  </scstep>
  <scstep>
   <time name="dav">    6.93    6.93</time>
   <time name="total">    7.43    7.43</time>
   <energy>
    <i name="e_fr_energy">   -353.86415914 </i>
    <i name="e_wo_entrp">   -352.88823370 </i>
    <i name="e_0_energy">   -353.37619642 </i>
   </energy>
  </scstep>
  <scstep>
   <time name="dav">    7.33    7.33</time>
   <time name="total">    8.08    8.08</time>
   <energy>
    <i name="e_fr_energy">   -353.85883640 </i>
    <i name="e_wo_entrp">   -352.88176139 </i>
    <i name="e_0_energy">   -353.37029889 </i>
   </energy>
  </scstep>
  <scstep>
   <time name="dav">    7.16    7.16</time>
   <time name="total">    7.66    7.66</time>
   <energy>
    <i name="e_fr_energy">   -353.85693858 </i>
    <i name="e_wo_entrp">   -352.87999375 </i>
    <i name="e_0_energy">   -353.36846616 </i>
   </energy>
  </scstep>
  <scstep>
   <time name="dav">    6.76    6.76</time>
   <time name="total">    7.27    7.27</time>
   <energy>
    <i name="e_fr_energy">   -353.85743871 </i>
    <i name="e_wo_entrp">   -352.87966624 </i>
    <i name="e_0_energy">   -353.36855248 </i>
   </energy>
  </scstep>
  <scstep>
   <time name="dav">    6.61    6.61</time>
   <time name="total">    7.11    7.12</time>
   <energy>
    <i name="e_fr_energy">   -353.85707709 </i>
    <i name="e_wo_entrp">   -352.87954611 </i>
    <i name="e_0_energy">   -353.36831160 </i>
   </energy>
  </scstep>
  <scstep>
   <time name="dav">    6.80    6.80</time>
   <time name="total">    7.31    7.31</time>
   <energy>
    <i name="e_fr_energy">   -353.85650708 </i>
    <i name="e_wo_entrp">   -352.87901118 </i>
    <i name="e_0_energy">   -353.36775913 </i>
   </energy>
  </scstep>
  <scstep>
   <time name="dav">    7.06    7.06</time>
   <time name="total">    7.57    7.57</time>
   <energy>
    <i name="e_fr_energy">   -353.85682694 </i>
    <i name="e_wo_entrp">   -352.88014862 </i>
    <i name="e_0_energy">   -353.36848778 </i>
   </energy>
  </scstep>
  <scstep>
   <time name="dav">    6.36    6.37</time>
   <time name="total">    6.64    6.64</time>
   <energy>
    <i name="alphaZ">   1909.09476555 </i>
    <i name="ewald"> 205126.03020427 </i>
    <i name="hartreedc">-326628.73040885 </i>
    <i name="XCdc">   3647.80763099 </i>
    <i name="pawpsdc"> 138145.57524161 </i>
    <i name="pawaedc">-143132.41772163 </i>
    <i name="eentropy">     -0.97717828 </i>
    <i name="bandstr"> -15422.84450128 </i>
    <i name="atom"> 136002.60505376 </i>
    <i name="e_fr_energy">   -353.85691386 </i>
    <i name="e_wo_entrp">   -352.87973558 </i>
    <i name="e_0_energy">   -353.36832472 </i>
   </energy>
  </scstep>
  <structure>
   <crystal>
    <varray name="basis" >
     <v>      10.07973298       0.00000000       0.00000000 </v>
     <v>       3.57329804       9.42510255       0.00000000 </v>
     <v>       0.00000000       0.00000000      20.51013988 </v>
    </varray>
    <i name="volume">   1948.51491473 </i>
    <varray name="rec_basis" >
     <v>       0.09920898      -0.03761267       0.00000000 </v>
     <v>       0.00000000       0.10609964       0.00000000 </v>
     <v>       0.00000000       0.00000000       0.04875637 </v>
    </varray>
   </crystal>
   <varray name="positions" >
    <v>       0.37433215       0.75136220       0.09511235 </v>
    <v>       0.52460066       0.60109368       0.22312232 </v>
    <v>       0.67486918       0.45082517       0.35113229 </v>
    <v>       0.78573968       0.32917299       0.46736321 </v>
    <v>       0.56233987       0.16573589       0.07303636 </v>
    <v>       0.75775499       0.03460603       0.13778234 </v>
    <v>       0.03470821       0.75558325       0.38193096 </v>
    <v>       0.90802350       0.88433751       0.26579231 </v>
    <v>       0.14117783       0.31784985       0.18045233 </v>
    <v>       0.29144634       0.16758134       0.30846230 </v>
    <v>       0.44000719       0.02468313       0.42122970 </v>
    <v>       0.98779696       0.46616418       0.08462027 </v>
    <v>       0.99604564       0.12260378       0.39439758 </v>
    <v>       0.57239484       0.56441458       0.04963191 </v>
    <v>       0.70940298       0.41629137       0.15548031 </v>
    <v>       0.85967149       0.26602286       0.28349028 </v>
    <v>       0.09282582       0.69953520       0.19815030 </v>
    <v>       0.22969517       0.56238576       0.30989543 </v>
    <v>       0.55665914       0.33698592       0.42101588 </v>
    <v>       0.94255730       0.84980371       0.07014033 </v>
    <v>       0.32598014       0.13304754       0.11281032 </v>
    <v>       0.47624865       0.98277903       0.24082029 </v>
    <v>       0.62651717       0.83251052       0.36883026 </v>
    <v>       0.74500118       0.70221916       0.46144000 </v>
    <v>       0.02310831       0.34238748       0.43359763 </v>
    <v>       0.62260514       0.79047389       0.08267570 </v>
    <v>       0.74910482       0.64079553       0.18930132 </v>
    <v>       0.89937333       0.49052701       0.31731128 </v>
    <v>       0.98225915       0.07430787       0.10396133 </v>
    <v>       0.13252766       0.92403936       0.23197130 </v>
    <v>       0.28279617       0.77377084       0.35998128 </v>
    <v>       0.43411484       0.66403092       0.46376651 </v>
    <v>       0.24378215       0.52070977       0.04353400 </v>
    <v>       0.36568198       0.35755170       0.14663132 </v>
    <v>       0.51595050       0.20728318       0.27464130 </v>
    <v>       0.66038848       0.06854945       0.38968707 </v>
    <v>       0.06382158       0.26208477       0.34135992 </v>
    <v>       0.76328455       0.56262179       0.08533998 </v>
    <v>       0.91355306       0.41235328       0.21334995 </v>
    <v>       0.14670739       0.84586562       0.12800997 </v>
    <v>       0.29697590       0.69559711       0.25601994 </v>
    <v>       0.44724441       0.54532860       0.38402991 </v>
    <v>       0.58257056       0.46646661       0.49457000 </v>
    <v>       0.97345171       0.99915284       0.01579204 </v>
    <v>       0.35451322       0.29285737       0.05185606 </v>
    <v>       0.53013023       0.12910945       0.17067996 </v>
    <v>       0.68039874       0.97884094       0.29868993 </v>
    <v>       0.81015992       0.84953913       0.41433398 </v>
    <v>       0.41227851       0.93391899       0.06543555 </v>
    <v>       0.52796422       0.79794212       0.17147277 </v>
    <v>       0.67823274       0.64767361       0.29948274 </v>
    <v>       0.82850125       0.49740510       0.42749271 </v>
    <v>       0.75189173       0.22541390       0.09872753 </v>
    <v>       0.91138706       0.08118595       0.21414276 </v>
    <v>       0.06165557       0.93091744       0.34215273 </v>
    <v>       0.21134782       0.72107032       0.44437899 </v>
    <v>       0.14454139       0.51469829       0.12880278 </v>
    <v>       0.29480990       0.36442978       0.25681275 </v>
    <v>       0.44507841       0.21416127       0.38482272 </v>
    <v>       0.02255755       0.63891192       0.03179519 </v>
    <v>       0.36723598       0.63498352       0.01422423 </v>
    <v>       0.47740939       0.51206696       0.12840637 </v>
    <v>       0.62767790       0.36179845       0.25641634 </v>
    <v>       0.77794641       0.21152993       0.38442632 </v>
    <v>       0.98771124       0.19207886       0.48922493 </v>
    <v>       0.01110074       0.64504227       0.29908634 </v>
    <v>       0.71022918       0.94650581       0.05472251 </v>
    <v>       0.86083223       0.79531079       0.17107636 </v>
    <v>       0.09120699       0.23178369       0.09717624 </v>
    <v>       0.24425506       0.07855462       0.21374635 </v>
    <v>       0.39452358       0.92828611       0.34175632 </v>
    <v>       0.53130660       0.81746778       0.46021781 </v>
   </varray>
  </structure>
  <varray name="forces" >
   <v>      -0.38361544       0.93082912       2.03991533 </v>
   <v>       0.07607846      -0.00094303       0.19702714 </v>
   <v>       0.62244332       0.54271945      -0.87027035 </v>
   <v>      -0.98384310       0.19290799       1.04720753 </v>
   <v>       0.73922229       0.16031632      -1.03787767 </v>
   <v>       0.81604451      -0.98216403       2.91694977 </v>
   <v>      -0.72535208      -0.70237090       0.94062094 </v>
   <v>       0.36835708      -0.10395661      -0.07504918 </v>
   <v>       0.47210105       0.04190396       1.59825523 </v>
   <v>      -0.23017245       0.04445152       0.22755973 </v>
   <v>      -0.20338385       0.38060149       1.23061271 </v>
   <v>      -0.41823755      -0.31235429      -1.24748910 </v>
   <v>       0.22759790      -1.40396878      -0.74680937 </v>
   <v>       0.44179105      -0.70878790      -1.22756879 </v>
   <v>      -0.17746635      -0.00306210       0.46678008 </v>
   <v>       0.08208544      -0.03111141      -0.07483109 </v>
   <v>      -0.01664095       0.02409874       0.28986920 </v>
   <v>       0.37844439      -1.02152149       0.80170895 </v>
   <v>      -0.73362486      -1.12045566       0.19225514 </v>
   <v>      -0.75808707      -1.40607272       1.66785419 </v>
   <v>      -0.58688055      -0.07967340       0.43857950 </v>
   <v>      -0.25377470      -0.13905988      -0.06006982 </v>
   <v>      -0.37343946       0.13404996      -2.54579537 </v>
   <v>       0.77105470      -0.47911087       0.92151026 </v>
   <v>       1.71070858       0.84617525       0.32954794 </v>
   <v>       0.38632320      -0.32458386      -1.00010248 </v>
   <v>      -0.23013950       0.00454817       0.02528671 </v>
   <v>       0.48247892      -0.09870299       0.21024643 </v>
   <v>       0.39562239       0.93734737       2.51554230 </v>
   <v>       0.00823251       0.07647977       0.03224673 </v>
   <v>       0.77027063       0.39026810      -1.82162980 </v>
   <v>      -0.63144154       0.82885857       0.84599627 </v>
   <v>      -0.20499433      -0.76510716      -0.97023339 </v>
   <v>       0.13211092       0.23592967       1.42831952 </v>
   <v>       0.17724685      -0.10864746      -0.07081606 </v>
   <v>       0.72729098       0.26922222       1.03031726 </v>
   <v>       1.07140724       0.27519018      -2.11967283 </v>
   <v>       0.75827016       0.01409081      -0.35881548 </v>
   <v>      -0.22550668       0.33858778       0.36527864 </v>
   <v>       0.12764314       0.02841501       0.10466069 </v>
   <v>       1.43170614       1.12661819      -1.23694485 </v>
   <v>      -0.39938553      -0.98697172      -2.70195429 </v>
   <v>      -0.56872143       0.42793057       3.30030422 </v>
   <v>       0.82123839       0.81428643      -4.33102742 </v>
   <v>       0.18884744       0.19261624      -3.30096822 </v>
   <v>      -0.40963188      -0.17055273       1.79399597 </v>
   <v>      -0.35170173      -0.45150294      -2.32715422 </v>
   <v>       1.68243580       0.18671150       1.86012054 </v>
   <v>      -0.31944609       0.82202607      -1.84864120 </v>
   <v>      -0.93249574      -0.34205899       2.53286956 </v>
   <v>      -0.00901476      -0.09352443      -0.33134149 </v>
   <v>       0.44908660       2.30565997      -0.74627308 </v>
   <v>       0.67333724       1.68345840      -1.62825200 </v>
   <v>       0.06061942      -0.17930774       0.28278898 </v>
   <v>       0.64920982       1.07965173      -1.46180629 </v>
   <v>      -1.32866106      -0.04469294       3.62613908 </v>
   <v>       0.64361541       0.66116738       3.20867459 </v>
   <v>      -0.13856292       0.01442363      -0.26159413 </v>
   <v>      -0.99804291       0.83030759      -0.17451619 </v>
   <v>      -0.37764659       0.17223366      -1.50099217 </v>
   <v>      -0.16134670       0.14211932      -3.35932451 </v>
   <v>      -0.35271889      -0.19503467       2.05152472 </v>
   <v>      -0.03942062       0.08810531       0.04512413 </v>
   <v>      -1.70303054      -0.57931716      -1.26644180 </v>
   <v>       0.97881780      -1.74393271       3.54731972 </v>
   <v>      -1.59042315      -0.59311979      -0.84081873 </v>
   <v>      -0.57236475      -0.91945948      -2.73904473 </v>
   <v>       0.37527248      -0.22190772       0.52475835 </v>
   <v>      -1.33069032      -0.63141166      -1.92978918 </v>
   <v>       0.14448565      -0.44574808       0.60352879 </v>
   <v>      -0.66948396      -0.25849621      -1.64256460 </v>
   <v>      -0.45210787       0.40438608       2.61518303 </v>
  </varray>
  <varray name="stress" >
   <v>      56.63065100       5.99104370      -2.38671424 </v>
   <v>       5.99104384      56.48280230       2.03667070 </v>
   <v>      -2.38671405       2.03667078      80.44432015 </v>
  </varray>
  <energy>
   <i name="e_fr_energy">   -353.85691386 </i>
   <i name="e_wo_entrp">   -353.36832472 </i>
   <i name="e_0_energy">     -0.97717828 </i>
  </energy>
  <time name="totalsc">  265.46  265.54</time>
  <eigenvalues>
   <array>
    <dimension dim="1">band</dimension>
    <dimension dim="2">kpoint</dimension>
    <dimension dim="3">spin</dimension>
    <field>eigene</field>
    <field>occ</field>
    <set>
     <set comment="spin 1">
      <set comment="kpoint 1">
       <r>  -63.3494    1.0000 </r>
       <r>  -63.3343    1.0000 </r>
       <r>  -63.2871    1.0000 </r>
       <r>  -63.1966    1.0000 </r>
       <r>  -63.1344    1.0000 </r>
       <r>  -63.1271    1.0000 </r>
       <r>  -63.1119    1.0000 </r>
       <r>  -63.1042    1.0000 </r>
       <r>  -63.0546    1.0000 </r>
       <r>  -63.0419    1.0000 </r>
       <r>  -63.0303    1.0000 </r>
       <r>  -63.0182    1.0000 </r>
       <r>  -63.0056    1.0000 </r>
       <r>  -63.0002    1.0000 </r>
       <r>  -62.9888    1.0000 </r>
       <r>  -62.9841    1.0000 </r>
       <r>  -62.9823    1.0000 </r>
       <r>  -62.9550    1.0000 </r>
       <r>  -62.9525    1.0000 </r>
       <r>  -62.9453    1.0000 </r>
       <r>  -62.9397    1.0000 </r>
       <r>  -62.9360    1.0000 </r>
       <r>  -62.9307    1.0000 </r>
       <r>  -62.9191    1.0000 </r>
       <r>  -62.9180    1.0000 </r>
       <r>  -62.8989    1.0000 </r>
       <r>  -62.8982    1.0000 </r>
       <r>  -62.8923    1.0000 </r>
       <r>  -62.8888    1.0000 </r>
       <r>  -62.8638    1.0000 </r>
       <r>  -62.8628    1.0000 </r>
       <r>  -62.8568    1.0000 </r>
       <r>  -62.8481    1.0000 </r>
       <r>  -62.8477    1.0000 </r>
       <r>  -62.8468    1.0000 </r>
       <r>  -62.8430    1.0000 </r>
       <r>  -62.8266    1.0000 </r>
       <r>  -62.8126    1.0000 </r>
       <r>  -62.8095    1.0000 </r>
       <r>  -62.7952    1.0000 </r>
       <r>  -62.7938    1.0000 </r>
       <r>  -62.7934    1.0000 </r>
       <r>  -62.7907    1.0000 </r>
       <r>  -62.7812    1.0000 </r>
       <r>  -62.7712    1.0000 </r>
       <r>  -62.7652    1.0000 </r>
       <r>  -62.7633    1.0000 </r>
       <r>  -62.7564    1.0000 </r>
       <r>  -62.7560    1.0000 </r>
       <r>  -62.7494    1.0000 </r>
       <r>  -62.7378    1.0000 </r>
       <r>  -62.7342    1.0000 </r>
       <r>  -62.7221    1.0000 </r>
       <r>  -62.7207    1.0000 </r>
       <r>  -62.6947    1.0000 </r>
       <r>  -62.6942    1.0000 </r>
       <r>  -62.6937    1.0000 </r>
       <r>  -62.6819    1.0000 </r>
       <r>  -62.6751    1.0000 </r>
       <r>  -62.6694    1.0000 </r>
       <r>  -62.6605    1.0000 </r>
       <r>  -62.6588    1.0000 </r>
       <r>  -62.6558    1.0000 </r>
       <r>  -62.6536    1.0000 </r>
       <r>  -62.6414    1.0000 </r>
       <r>  -62.6384    1.0000 </r>
       <r>  -62.6366    1.0000 </r>
       <r>  -62.6284    1.0000 </r>
       <r>  -62.6267    1.0000 </r>
       <r>  -62.6138    1.0000 </r>
       <r>  -62.6065    1.0000 </r>
       <r>  -62.6056    1.0000 </r>
       <r>  -62.6040    1.0000 </r>
       <r>  -62.6038    1.0000 </r>
       <r>  -62.5982    1.0000 </r>
       <r>  -62.5972    1.0000 </r>
       <r>  -62.5950    1.0000 </r>
       <r>  -62.5791    1.0000 </r>
       <r>  -62.5711    1.0000 </r>
       <r>  -62.5671    1.0000 </r>
       <r>  -62.5644    1.0000 </r>
       <r>  -62.5639    1.0000 </r>
       <r>  -62.5567    1.0000 </r>
       <r>  -62.5446    1.0000 </r>
       <r>  -62.5432    1.0000 </r>
       <r>  -62.5304    1.0000 </r>
       <r>  -62.5294    1.0000 </r>
       <r>  -62.5126    1.0000 </r>
       <r>  -62.5044    1.0000 </r>
       <r>  -62.4979    1.0000 </r>
       <r>  -62.4875    1.0000 </r>
       <r>  -62.4846    1.0000 </r>
       <r>  -62.4515    1.0000 </r>
       <r>  -62.4412    1.0000 </r>
       <r>  -62.4385    1.0000 </r>
       <r>  -62.4364    1.0000 </r>
       <r>  -62.4329    1.0000 </r>
       <r>  -62.4169    1.0000 </r>
       <r>  -62.4126    1.0000 </r>
       <r>  -62.4071    1.0000 </r>
       <r>  -62.3977    1.0000 </r>
       <r>  -62.3863    1.0000 </r>
       <r>  -62.3258    1.0000 </r>
       <r>  -62.1907    1.0000 </r>
       <r>  -62.1415    1.0000 </r>
       <r>  -62.0911    1.0000 </r>
       <r>  -62.0484    1.0000 </r>
       <r>  -61.9073    1.0000 </r>
       <r>  -14.8012    1.0000 </r>
       <r>  -14.5338    1.0000 </r>
       <r>  -14.1669    1.0000 </r>
       <r>  -13.9300    1.0000 </r>
       <r>  -13.8388    1.0000 </r>
       <r>  -13.6836    1.0000 </r>
       <r>  -13.6438    1.0000 </r>
       <r>  -13.4922    1.0000 </r>
       <r>  -13.4393    1.0000 </r>
       <r>  -13.3695    1.0000 </r>
       <r>  -13.2869    1.0000 </r>
       <r>  -13.1805    1.0000 </r>
       <r>  -13.0908    1.0000 </r>
       <r>  -13.0055    1.0000 </r>
       <r>  -12.9033    1.0000 </r>
       <r>  -12.8593    1.0000 </r>
       <r>  -12.8103    1.0000 </r>
       <r>  -12.7135    1.0000 </r>
       <r>  -12.5954    1.0000 </r>
       <r>  -12.5467    1.0000 </r>
       <r>  -12.5000    1.0000 </r>
       <r>  -12.4396    1.0000 </r>
       <r>  -12.4160    1.0000 </r>
       <r>  -12.2872    1.0000 </r>
       <r>  -12.2460    1.0000 </r>
       <r>  -12.1863    1.0000 </r>
       <r>  -12.1790    1.0000 </r>
       <r>  -12.1547    1.0000 </r>
       <r>  -12.0305    1.0000 </r>
       <r>  -12.0066    1.0000 </r>
       <r>  -11.8775    1.0000 </r>
       <r>  -11.8137    1.0000 </r>
       <r>  -11.7336    1.0000 </r>
       <r>  -11.6198    1.0000 </r>
       <r>  -11.5588    1.0000 </r>
       <r>  -11.3979    1.0000 </r>
       <r>   -6.4399    1.0000 </r>
       <r>   -6.3345    1.0000 </r>
       <r>   -6.2018    1.0000 </r>
       <r>   -6.1347    1.0000 </r>
       <r>   -6.1224    1.0000 </r>
       <r>   -5.9778    1.0000 </r>
       <r>   -5.8874    1.0000 </r>
       <r>   -5.8752    1.0000 </r>
       <r>   -5.7913    1.0000 </r>
       <r>   -5.7633    1.0000 </r>
       <r>   -5.7180    1.0000 </r>
       <r>   -5.6815    1.0000 </r>
       <r>   -5.6048    1.0000 </r>
       <r>   -5.5842    1.0000 </r>
       <r>   -5.5134    1.0000 </r>
       <r>   -5.4897    1.0000 </r>
       <r>   -5.4556    1.0000 </r>
       <r>   -5.4508    1.0000 </r>
       <r>   -5.3579    1.0000 </r>
       <r>   -5.3052    1.0000 </r>
       <r>   -5.2867    1.0000 </r>
       <r>   -5.2143    1.0000 </r>
       <r>   -5.2012    1.0000 </r>
       <r>   -5.1775    1.0000 </r>
       <r>   -5.1240    1.0000 </r>
       <r>   -5.0474    1.0000 </r>
       <r>   -5.0223    1.0000 </r>
       <r>   -4.9811    1.0000 </r>
       <r>   -4.9463    1.0000 </r>
       <r>   -4.8359    1.0000 </r>
       <r>   -4.8221    1.0000 </r>
       <r>   -4.7563    1.0000 </r>
       <r>   -4.7142    1.0000 </r>
       <r>   -4.6309    1.0000 </r>
       <r>   -4.6125    1.0000 </r>
       <r>   -4.5736    1.0000 </r>
       <r>   -4.5001    1.0000 </r>
       <r>   -4.4760    1.0000 </r>
       <r>   -4.4582    1.0000 </r>
       <r>   -4.4254    1.0000 </r>
       <r>   -4.2526    1.0000 </r>
       <r>   -4.2331    1.0000 </r>
       <r>   -4.1482    1.0000 </r>
       <r>   -4.1073    1.0000 </r>
       <r>   -4.0927    1.0000 </r>
       <r>   -4.0614    1.0000 </r>
       <r>   -4.0061    1.0000 </r>
       <r>   -3.9786    1.0000 </r>
       <r>   -3.9671    1.0000 </r>
       <r>   -3.9136    1.0000 </r>
       <r>   -3.8593    1.0000 </r>
       <r>   -3.8287    1.0000 </r>
       <r>   -3.7787    1.0000 </r>
       <r>   -3.7755    1.0000 </r>
       <r>   -3.7391    1.0000 </r>
       <r>   -3.7046    1.0000 </r>
       <r>   -3.6924    1.0000 </r>
       <r>   -3.6611    1.0000 </r>
       <r>   -3.6295    1.0000 </r>
       <r>   -3.6267    1.0000 </r>
       <r>   -3.5566    1.0000 </r>
       <r>   -3.5226    1.0000 </r>
       <r>   -3.5020    1.0000 </r>
       <r>   -3.4589    1.0000 </r>
       <r>   -3.4508    1.0000 </r>
       <r>   -3.4359    1.0000 </r>
       <r>   -3.3814    1.0000 </r>
       <r>   -3.3703    1.0000 </r>
       <r>   -3.3342    1.0000 </r>
       <r>   -3.3169    1.0000 </r>
       <r>   -3.2639    1.0000 </r>
       <r>   -3.2554    1.0000 </r>
       <r>   -3.2463    1.0000 </r>
       <r>   -3.2072    1.0000 </r>
       <r>   -3.1815    1.0000 </r>
       <r>   -3.1343    1.0000 </r>
       <r>   -3.1114    1.0000 </r>
       <r>   -3.0953    1.0000 </r>
       <r>   -3.0623    1.0000 </r>
       <r>   -3.0246    1.0000 </r>
       <r>   -3.0126    1.0000 </r>
       <r>   -2.9871    1.0000 </r>
       <r>   -2.9663    1.0000 </r>
       <r>   -2.9181    1.0000 </r>
       <r>   -2.9070    1.0000 </r>
       <r>   -2.8547    1.0000 </r>
       <r>   -2.8258    1.0000 </r>
       <r>   -2.7992    1.0000 </r>
       <r>   -2.7800    1.0000 </r>
       <r>   -2.7452    1.0000 </r>
       <r>   -2.7046    1.0000 </r>
       <r>   -2.6584    1.0000 </r>
       <r>   -2.6312    1.0000 </r>
       <r>   -2.5976    1.0000 </r>
       <r>   -2.5612    1.0000 </r>
       <r>   -2.5012    1.0000 </r>
       <r>   -2.4349    1.0000 </r>
       <r>   -2.3684    1.0000 </r>
       <r>   -2.3471    1.0000 </r>
       <r>   -2.3126    1.0000 </r>
       <r>   -2.2190    1.0000 </r>
       <r>   -2.1793    1.0000 </r>
       <r>   -2.1438    1.0000 </r>
       <r>   -2.0177    1.0000 </r>
       <r>   -1.9914    1.0000 </r>
       <r>   -1.9576    1.0000 </r>
       <r>   -1.9300    1.0000 </r>
       <r>   -1.8934    1.0000 </r>
       <r>   -1.8531    1.0000 </r>
       <r>   -1.7768    1.0000 </r>
       <r>   -1.7742    1.0000 </r>
       <r>   -1.6887    1.0000 </r>
       <r>   -1.6759    1.0000 </r>
       <r>   -1.6639    1.0000 </r>
       <r>   -1.6347    1.0000 </r>
       <r>   -1.6038    1.0000 </r>
       <r>   -1.5475    1.0000 </r>
       <r>   -1.5404    1.0000 </r>
       <r>   -1.5236    1.0000 </r>
       <r>   -1.4725    1.0000 </r>
       <r>   -1.4537    1.0000 </r>
       <r>   -1.4140    1.0000 </r>
       <r>   -1.3847    1.0000 </r>
       <r>   -1.3375    1.0000 </r>
       <r>   -1.3272    1.0000 </r>
       <r>   -1.3191    1.0000 </r>
       <r>   -1.2913    1.0000 </r>
       <r>   -1.2778    1.0000 </r>
       <r>   -1.2691    1.0000 </r>
       <r>   -1.2418    1.0000 </r>
       <r>   -1.2227    1.0000 </r>
       <r>   -1.2033    1.0000 </r>
       <r>   -1.1739    1.0000 </r>
       <r>   -1.1558    1.0000 </r>
       <r>   -1.1446    1.0000 </r>
       <r>   -1.1365    1.0000 </r>
       <r>   -1.0999    1.0000 </r>
       <r>   -1.0755    1.0000 </r>
       <r>   -1.0530    1.0000 </r>
       <r>   -1.0489    1.0000 </r>
       <r>   -1.0404    1.0000 </r>
       <r>   -1.0127    1.0000 </r>
       <r>   -0.9970    1.0000 </r>
       <r>   -0.9676    1.0000 </r>
       <r>   -0.9470    1.0000 </r>
       <r>   -0.9330    1.0000 </r>
       <r>   -0.9151    1.0000 </r>
       <r>   -0.9037    1.0000 </r>
       <r>   -0.8925    1.0000 </r>
       <r>   -0.8521    1.0000 </r>
       <r>   -0.8379    1.0000 </r>
       <r>   -0.8187    1.0000 </r>
       <r>   -0.8165    1.0000 </r>
       <r>   -0.8028    1.0000 </r>
       <r>   -0.7828    1.0000 </r>
       <r>   -0.7682    1.0000 </r>
       <r>   -0.7230    1.0000 </r>
       <r>   -0.7040    1.0000 </r>
       <r>   -0.6948    1.0000 </r>
       <r>   -0.6887    1.0000 </r>
       <r>   -0.6658    1.0000 </r>
       <r>   -0.6510    1.0000 </r>
       <r>   -0.6449    1.0000 </r>
       <r>   -0.6325    1.0000 </r>
       <r>   -0.6149    1.0000 </r>
       <r>   -0.6023    1.0000 </r>
       <r>   -0.5871    1.0000 </r>
       <r>   -0.5696    1.0000 </r>
       <r>   -0.5480    1.0000 </r>
       <r>   -0.5344    1.0000 </r>
       <r>   -0.5200    1.0000 </r>
       <r>   -0.5113    1.0000 </r>
       <r>   -0.4863    1.0000 </r>
       <r>   -0.4768    1.0000 </r>
       <r>   -0.4612    1.0000 </r>
       <r>   -0.4595    1.0000 </r>
       <r>   -0.4480    1.0000 </r>
       <r>   -0.4338    1.0000 </r>
       <r>   -0.4247    1.0000 </r>
       <r>   -0.4147    1.0000 </r>
       <r>   -0.3770    1.0000 </r>
       <r>   -0.3747    1.0000 </r>
       <r>   -0.3692    1.0000 </r>
       <r>   -0.3606    1.0000 </r>
       <r>   -0.3494    1.0000 </r>
       <r>   -0.3237    1.0000 </r>
       <r>   -0.3057    1.0000 </r>
       <r>   -0.2904    1.0000 </r>
       <r>   -0.2851    1.0000 </r>
       <r>   -0.2678    1.0000 </r>
       <r>   -0.2547    1.0000 </r>
       <r>   -0.2489    1.0000 </r>
       <r>   -0.2415    1.0000 </r>
       <r>   -0.2255    1.0000 </r>
       <r>   -0.2181    1.0000 </r>
       <r>   -0.2091    1.0000 </r>
       <r>   -0.1833    1.0000 </r>
       <r>   -0.1700    1.0000 </r>
       <r>   -0.1600    1.0000 </r>
       <r>   -0.1417    1.0000 </r>
       <r>   -0.1260    1.0000 </r>
       <r>   -0.1243    1.0000 </r>
       <r>   -0.1085    1.0000 </r>
       <r>   -0.0905    1.0000 </r>
       <r>   -0.0854    1.0000 </r>
       <r>   -0.0543    1.0000 </r>
       <r>   -0.0486    1.0000 </r>
       <r>   -0.0261    1.0000 </r>
       <r>   -0.0217    1.0000 </r>
       <r>   -0.0027    1.0000 </r>
       <r>    0.0121    1.0000 </r>
       <r>    0.0241    1.0000 </r>
       <r>    0.0515    1.0000 </r>
       <r>    0.0880    1.0000 </r>
       <r>    0.0888    1.0000 </r>
       <r>    0.1070    1.0000 </r>
       <r>    0.1469    1.0000 </r>
       <r>    0.1623    1.0000 </r>
       <r>    0.1798    1.0000 </r>
       <r>    0.2193    1.0000 </r>
       <r>    0.2390    1.0000 </r>
       <r>    0.2767    1.0000 </r>
       <r>    0.2953    1.0000 </r>
       <r>    0.3562    1.0000 </r>
       <r>    0.3909    1.0000 </r>
       <r>    0.4425    1.0000 </r>
       <r>    0.4538    1.0000 </r>
       <r>    0.4830    1.0000 </r>
       <r>    0.5103    1.0000 </r>
       <r>    0.5600    1.0000 </r>
       <r>    0.6044    1.0000 </r>
       <r>    0.6394    1.0000 </r>
       <r>    0.6753    1.0000 </r>
       <r>    0.6785    1.0000 </r>
       <r>    0.7172    1.0000 </r>
       <r>    0.7716    1.0000 </r>
       <r>    0.7840    1.0000 </r>
       <r>    0.8401    1.0000 </r>
       <r>    0.8943    1.0000 </r>
       <r>    0.9170    0.9999 </r>
       <r>    0.9443    0.9998 </r>
       <r>    0.9686    0.9997 </r>
       <r>    1.0395    0.9983 </r>
       <r>    1.0775    0.9961 </r>
       <r>    1.1308    0.9888 </r>
       <r>    1.2159    0.9536 </r>
       <r>    1.2390    0.9354 </r>
       <r>    1.2765    0.8947 </r>
       <r>    1.2830    0.8862 </r>
       <r>    1.3426    0.7836 </r>
       <r>    1.4048    0.6349 </r>
       <r>    1.4235    0.5841 </r>
       <r>    1.5039    0.3611 </r>
       <r>    1.5281    0.2992 </r>
       <r>    1.5331    0.2869 </r>
       <r>    1.5772    0.1911 </r>
       <r>    1.6261    0.1112 </r>
       <r>    1.6977    0.0422 </r>
       <r>    1.7247    0.0276 </r>
       <r>    1.7644    0.0140 </r>
       <r>    1.8072    0.0062 </r>
       <r>    1.8367    0.0034 </r>
       <r>    1.8783    0.0013 </r>
       <r>    1.9352    0.0003 </r>
       <r>    1.9399    0.0003 </r>
       <r>    1.9592    0.0002 </r>
       <r>    2.0043    0.0000 </r>
       <r>    2.0530    0.0000 </r>
       <r>    2.0876    0.0000 </r>
       <r>    2.1309    0.0000 </r>
       <r>    2.1443    0.0000 </r>
       <r>    2.2042    0.0000 </r>
       <r>    2.2500    0.0000 </r>
       <r>    2.2684    0.0000 </r>
       <r>    2.3072    0.0000 </r>
       <r>    2.3610    0.0000 </r>
       <r>    2.3791    0.0000 </r>
       <r>    2.4056    0.0000 </r>
       <r>    2.4549    0.0000 </r>
       <r>    2.5331    0.0000 </r>
       <r>    2.5949    0.0000 </r>
       <r>    2.6082    0.0000 </r>
       <r>    2.6858    0.0000 </r>
       <r>    2.7475    0.0000 </r>
       <r>    2.7626    0.0000 </r>
       <r>    2.7889    0.0000 </r>
       <r>    2.9236    0.0000 </r>
       <r>    2.9316    0.0000 </r>
       <r>    4.2676    0.0000 </r>
       <r>    4.4995    0.0000 </r>
       <r>    4.6032    0.0000 </r>
       <r>    4.8137    0.0000 </r>
       <r>    5.0565    0.0000 </r>
       <r>    5.1140    0.0000 </r>
       <r>    5.2423    0.0000 </r>
       <r>    5.3311    0.0000 </r>
       <r>    5.3617    0.0000 </r>
       <r>    5.5497    0.0000 </r>
       <r>    5.6920    0.0000 </r>
       <r>    5.7510    0.0000 </r>
       <r>    5.7730    0.0000 </r>
       <r>    5.8492    0.0000 </r>
       <r>    5.9233    0.0000 </r>
       <r>    5.9831    0.0000 </r>
       <r>    6.0817    0.0000 </r>
       <r>    6.1107    0.0000 </r>
       <r>    6.2028    0.0000 </r>
       <r>    6.2944    0.0000 </r>
       <r>    6.3625    0.0000 </r>
       <r>    6.4936    0.0000 </r>
       <r>    6.5311    0.0000 </r>
       <r>    6.5819    0.0000 </r>
       <r>    6.6344    0.0000 </r>
       <r>    6.6949    0.0000 </r>
       <r>    6.8005    0.0000 </r>
       <r>    6.9022    0.0000 </r>
       <r>    6.9193    0.0000 </r>
       <r>    6.9489    0.0000 </r>
       <r>    7.0288    0.0000 </r>
       <r>    7.0330    0.0000 </r>
       <r>    7.0836    0.0000 </r>
       <r>    7.1198    0.0000 </r>
       <r>    7.1771    0.0000 </r>
       <r>    7.2099    0.0000 </r>
       <r>    7.2716    0.0000 </r>
       <r>    7.2996    0.0000 </r>
       <r>    7.3701    0.0000 </r>
       <r>    7.3878    0.0000 </r>
       <r>    7.4439    0.0000 </r>
       <r>    7.4600    0.0000 </r>
       <r>    7.5043    0.0000 </r>
       <r>    7.5811    0.0000 </r>
      </set>
     </set>
    </set>
   </array>
  </eigenvalues>
  <separator name="orbital magnetization" >
   <v name="MAGDIPOLOUT">      0.00000000      0.00000000      0.00000000</v>
  </separator>
  <dos>
   <i name="efermi">      1.45358104 </i>
   <total>
    <array>
     <dimension dim="1">gridpoints</dimension>
     <dimension dim="2">spin</dimension>
     <field>energy</field>
     <field>total</field>
     <field>integrated</field>
     <set>
      <set comment="spin 1">
       <r>   -66.8959     0.0000     0.0000 </r>
       <r>   -66.6358     0.0000     0.0000 </r>
       <r>   -66.3758     0.0000     0.0000 </r>
       <r>   -66.1157     0.0000     0.0000 </r>
       <r>   -65.8556     0.0000     0.0000 </r>
       <r>   -65.5955     0.0000     0.0000 </r>
       <r>   -65.3355     0.0000     0.0000 </r>
       <r>   -65.0754     0.0000     0.0000 </r>
       <r>   -64.8153     0.0000     0.0000 </r>
       <r>   -64.5552     0.0000     0.0000 </r>
       <r>   -64.2951     0.0000     0.0000 </r>
       <r>   -64.0351     0.0000     0.0000 </r>
       <r>   -63.7750     0.0195     0.0051 </r>
       <r>   -63.5149     2.2914     0.6010 </r>
       <r>   -63.2548    25.5664     7.2503 </r>
       <r>   -62.9947   111.5872    36.2717 </r>
       <r>   -62.7347   255.3921   102.6938 </r>
       <r>   -62.4746   277.2041   174.7886 </r>
       <r>   -62.2145   119.0694   205.7560 </r>
       <r>   -61.9544    30.1531   213.5982 </r>
       <r>   -61.6944     8.6526   215.8486 </r>
       <r>   -61.4343     0.5790   215.9992 </r>
       <r>   -61.1742     0.0032   216.0000 </r>
       <r>   -60.9141     0.0000   216.0000 </r>
       <r>   -60.6540     0.0000   216.0000 </r>
       <r>   -60.3940     0.0000   216.0000 </r>
       <r>   -60.1339     0.0000   216.0000 </r>
       <r>   -59.8738     0.0000   216.0000 </r>
       <r>   -59.6137     0.0000   216.0000 </r>
       <r>   -59.3536     0.0000   216.0000 </r>
       <r>   -59.0936     0.0000   216.0000 </r>
       <r>   -58.8335     0.0000   216.0000 </r>
       <r>   -58.5734     0.0000   216.0000 </r>
       <r>   -58.3133     0.0000   216.0000 </r>
       <r>   -58.0533     0.0000   216.0000 </r>
       <r>   -57.7932     0.0000   216.0000 </r>
       <r>   -57.5331     0.0000   216.0000 </r>
       <r>   -57.2730     0.0000   216.0000 </r>
       <r>   -57.0129     0.0000   216.0000 </r>
       <r>   -56.7529     0.0000   216.0000 </r>
       <r>   -56.4928     0.0000   216.0000 </r>
       <r>   -56.2327     0.0000   216.0000 </r>
       <r>   -55.9726     0.0000   216.0000 </r>
       <r>   -55.7125     0.0000   216.0000 </r>
       <r>   -55.4525     0.0000   216.0000 </r>
       <r>   -55.1924     0.0000   216.0000 </r>
       <r>   -54.9323     0.0000   216.0000 </r>
       <r>   -54.6722     0.0000   216.0000 </r>
       <r>   -54.4122     0.0000   216.0000 </r>
       <r>   -54.1521     0.0000   216.0000 </r>
       <r>   -53.8920     0.0000   216.0000 </r>
       <r>   -53.6319     0.0000   216.0000 </r>
       <r>   -53.3718     0.0000   216.0000 </r>
       <r>   -53.1118     0.0000   216.0000 </r>
       <r>   -52.8517     0.0000   216.0000 </r>
       <r>   -52.5916     0.0000   216.0000 </r>
       <r>   -52.3315     0.0000   216.0000 </r>
       <r>   -52.0714     0.0000   216.0000 </r>
       <r>   -51.8114     0.0000   216.0000 </r>
       <r>   -51.5513     0.0000   216.0000 </r>
       <r>   -51.2912     0.0000   216.0000 </r>
       <r>   -51.0311     0.0000   216.0000 </r>
       <r>   -50.7711     0.0000   216.0000 </r>
       <r>   -50.5110     0.0000   216.0000 </r>
       <r>   -50.2509     0.0000   216.0000 </r>
       <r>   -49.9908     0.0000   216.0000 </r>
       <r>   -49.7307     0.0000   216.0000 </r>
       <r>   -49.4707     0.0000   216.0000 </r>
       <r>   -49.2106     0.0000   216.0000 </r>
       <r>   -48.9505     0.0000   216.0000 </r>
       <r>   -48.6904     0.0000   216.0000 </r>
       <r>   -48.4303     0.0000   216.0000 </r>
       <r>   -48.1703     0.0000   216.0000 </r>
       <r>   -47.9102     0.0000   216.0000 </r>
       <r>   -47.6501     0.0000   216.0000 </r>
       <r>   -47.3900     0.0000   216.0000 </r>
       <r>   -47.1299     0.0000   216.0000 </r>
       <r>   -46.8699     0.0000   216.0000 </r>
       <r>   -46.6098     0.0000   216.0000 </r>
       <r>   -46.3497     0.0000   216.0000 </r>
       <r>   -46.0896     0.0000   216.0000 </r>
       <r>   -45.8296     0.0000   216.0000 </r>
       <r>   -45.5695     0.0000   216.0000 </r>
       <r>   -45.3094     0.0000   216.0000 </r>
       <r>   -45.0493     0.0000   216.0000 </r>
       <r>   -44.7892     0.0000   216.0000 </r>
       <r>   -44.5292     0.0000   216.0000 </r>
       <r>   -44.2691     0.0000   216.0000 </r>
       <r>   -44.0090     0.0000   216.0000 </r>
       <r>   -43.7489     0.0000   216.0000 </r>
       <r>   -43.4888     0.0000   216.0000 </r>
       <r>   -43.2288     0.0000   216.0000 </r>
       <r>   -42.9687     0.0000   216.0000 </r>
       <r>   -42.7086     0.0000   216.0000 </r>
       <r>   -42.4485     0.0000   216.0000 </r>
       <r>   -42.1885     0.0000   216.0000 </r>
       <r>   -41.9284     0.0000   216.0000 </r>
       <r>   -41.6683     0.0000   216.0000 </r>
       <r>   -41.4082     0.0000   216.0000 </r>
       <r>   -41.1481     0.0000   216.0000 </r>
       <r>   -40.8881     0.0000   216.0000 </r>
       <r>   -40.6280     0.0000   216.0000 </r>
       <r>   -40.3679     0.0000   216.0000 </r>
       <r>   -40.1078     0.0000   216.0000 </r>
       <r>   -39.8477     0.0000   216.0000 </r>
       <r>   -39.5877     0.0000   216.0000 </r>
       <r>   -39.3276     0.0000   216.0000 </r>
       <r>   -39.0675     0.0000   216.0000 </r>
       <r>   -38.8074     0.0000   216.0000 </r>
       <r>   -38.5474     0.0000   216.0000 </r>
       <r>   -38.2873     0.0000   216.0000 </r>
       <r>   -38.0272     0.0000   216.0000 </r>
       <r>   -37.7671     0.0000   216.0000 </r>
       <r>   -37.5070     0.0000   216.0000 </r>
       <r>   -37.2470     0.0000   216.0000 </r>
       <r>   -36.9869     0.0000   216.0000 </r>
       <r>   -36.7268     0.0000   216.0000 </r>
       <r>   -36.4667     0.0000   216.0000 </r>
       <r>   -36.2066     0.0000   216.0000 </r>
       <r>   -35.9466     0.0000   216.0000 </r>
       <r>   -35.6865     0.0000   216.0000 </r>
       <r>   -35.4264     0.0000   216.0000 </r>
       <r>   -35.1663     0.0000   216.0000 </r>
       <r>   -34.9063     0.0000   216.0000 </r>
       <r>   -34.6462     0.0000   216.0000 </r>
       <r>   -34.3861     0.0000   216.0000 </r>
       <r>   -34.1260     0.0000   216.0000 </r>
       <r>   -33.8659     0.0000   216.0000 </r>
       <r>   -33.6059     0.0000   216.0000 </r>
       <r>   -33.3458     0.0000   216.0000 </r>
       <r>   -33.0857     0.0000   216.0000 </r>
       <r>   -32.8256     0.0000   216.0000 </r>
       <r>   -32.5655     0.0000   216.0000 </r>
       <r>   -32.3055     0.0000   216.0000 </r>
       <r>   -32.0454     0.0000   216.0000 </r>
       <r>   -31.7853     0.0000   216.0000 </r>
       <r>   -31.5252     0.0000   216.0000 </r>
       <r>   -31.2652     0.0000   216.0000 </r>
       <r>   -31.0051     0.0000   216.0000 </r>
       <r>   -30.7450     0.0000   216.0000 </r>
       <r>   -30.4849     0.0000   216.0000 </r>
       <r>   -30.2248     0.0000   216.0000 </r>
       <r>   -29.9648     0.0000   216.0000 </r>
       <r>   -29.7047     0.0000   216.0000 </r>
       <r>   -29.4446     0.0000   216.0000 </r>
       <r>   -29.1845     0.0000   216.0000 </r>
       <r>   -28.9244     0.0000   216.0000 </r>
       <r>   -28.6644     0.0000   216.0000 </r>
       <r>   -28.4043     0.0000   216.0000 </r>
       <r>   -28.1442     0.0000   216.0000 </r>
       <r>   -27.8841     0.0000   216.0000 </r>
       <r>   -27.6240     0.0000   216.0000 </r>
       <r>   -27.3640     0.0000   216.0000 </r>
       <r>   -27.1039     0.0000   216.0000 </r>
       <r>   -26.8438     0.0000   216.0000 </r>
       <r>   -26.5837     0.0000   216.0000 </r>
       <r>   -26.3237     0.0000   216.0000 </r>
       <r>   -26.0636     0.0000   216.0000 </r>
       <r>   -25.8035     0.0000   216.0000 </r>
       <r>   -25.5434     0.0000   216.0000 </r>
       <r>   -25.2833     0.0000   216.0000 </r>
       <r>   -25.0233     0.0000   216.0000 </r>
       <r>   -24.7632     0.0000   216.0000 </r>
       <r>   -24.5031     0.0000   216.0000 </r>
       <r>   -24.2430     0.0000   216.0000 </r>
       <r>   -23.9829     0.0000   216.0000 </r>
       <r>   -23.7229     0.0000   216.0000 </r>
       <r>   -23.4628     0.0000   216.0000 </r>
       <r>   -23.2027     0.0000   216.0000 </r>
       <r>   -22.9426     0.0000   216.0000 </r>
       <r>   -22.6826     0.0000   216.0000 </r>
       <r>   -22.4225     0.0000   216.0000 </r>
       <r>   -22.1624     0.0000   216.0000 </r>
       <r>   -21.9023     0.0000   216.0000 </r>
       <r>   -21.6422     0.0000   216.0000 </r>
       <r>   -21.3822     0.0000   216.0000 </r>
       <r>   -21.1221     0.0000   216.0000 </r>
       <r>   -20.8620     0.0000   216.0000 </r>
       <r>   -20.6019     0.0000   216.0000 </r>
       <r>   -20.3418     0.0000   216.0000 </r>
       <r>   -20.0818     0.0000   216.0000 </r>
       <r>   -19.8217     0.0000   216.0000 </r>
       <r>   -19.5616     0.0000   216.0000 </r>
       <r>   -19.3015     0.0000   216.0000 </r>
       <r>   -19.0415     0.0000   216.0000 </r>
       <r>   -18.7814     0.0000   216.0000 </r>
       <r>   -18.5213     0.0000   216.0000 </r>
       <r>   -18.2612     0.0000   216.0000 </r>
       <r>   -18.0011     0.0000   216.0000 </r>
       <r>   -17.7411     0.0000   216.0000 </r>
       <r>   -17.4810     0.0000   216.0000 </r>
       <r>   -17.2209     0.0000   216.0000 </r>
       <r>   -16.9608     0.0000   216.0000 </r>
       <r>   -16.7007     0.0000   216.0000 </r>
       <r>   -16.4407     0.0000   216.0000 </r>
       <r>   -16.1806     0.0000   216.0000 </r>
       <r>   -15.9205     0.0000   216.0000 </r>
       <r>   -15.6604     0.0000   216.0000 </r>
       <r>   -15.4004     0.0001   216.0000 </r>
       <r>   -15.1403     0.0634   216.0165 </r>
       <r>   -14.8802     2.2081   216.5908 </r>
       <r>   -14.6201     6.7360   218.3427 </r>
       <r>   -14.3600     6.1941   219.9536 </r>
       <r>   -14.1000     6.5628   221.6605 </r>
       <r>   -13.8399    12.4688   224.9034 </r>
       <r>   -13.5798    18.9910   229.8425 </r>
       <r>   -13.3197    23.2908   235.8999 </r>
       <r>   -13.0596    22.9041   241.8568 </r>
       <r>   -12.7996    25.7366   248.5503 </r>
       <r>   -12.5395    27.9712   255.8250 </r>
       <r>   -12.2794    33.6001   264.5637 </r>
       <r>   -12.0193    34.3252   273.4910 </r>
       <r>   -11.7593    25.4001   280.0970 </r>
       <r>   -11.4992    19.9109   285.2754 </r>
       <r>   -11.2391     9.3501   287.7072 </r>
       <r>   -10.9790     1.1139   287.9969 </r>
       <r>   -10.7189     0.0119   288.0000 </r>
       <r>   -10.4589     0.0000   288.0000 </r>
       <r>   -10.1988     0.0000   288.0000 </r>
       <r>    -9.9387     0.0000   288.0000 </r>
       <r>    -9.6786     0.0000   288.0000 </r>
       <r>    -9.4185     0.0000   288.0000 </r>
       <r>    -9.1585     0.0000   288.0000 </r>
       <r>    -8.8984     0.0000   288.0000 </r>
       <r>    -8.6383     0.0000   288.0000 </r>
       <r>    -8.3782     0.0000   288.0000 </r>
       <r>    -8.1181     0.0000   288.0000 </r>
       <r>    -7.8581     0.0000   288.0000 </r>
       <r>    -7.5980     0.0000   288.0000 </r>
       <r>    -7.3379     0.0000   288.0000 </r>
       <r>    -7.0778     0.0000   288.0000 </r>
       <r>    -6.8178     0.0315   288.0082 </r>
       <r>    -6.5577     2.0302   288.5362 </r>
       <r>    -6.2976    12.8768   291.8852 </r>
       <r>    -6.0375    23.7428   298.0602 </r>
       <r>    -5.7774    32.8542   306.6048 </r>
       <r>    -5.5174    43.6957   317.9692 </r>
       <r>    -5.2573    46.6498   330.1018 </r>
       <r>    -4.9972    44.7496   341.7402 </r>
       <r>    -4.7371    39.2758   351.9550 </r>
       <r>    -4.4770    41.2810   362.6913 </r>
       <r>    -4.2170    35.8058   372.0036 </r>
       <r>    -3.9569    47.9329   384.4699 </r>
       <r>    -3.6968    60.8974   400.3081 </r>
       <r>    -3.4367    68.0572   418.0083 </r>
       <r>    -3.1767    72.0927   436.7580 </r>
       <r>    -2.9166    70.6829   455.1411 </r>
       <r>    -2.6565    60.7995   470.9538 </r>
       <r>    -2.3964    45.1058   482.6849 </r>
       <r>    -2.1363    37.4985   492.4374 </r>
       <r>    -1.8763    42.4698   503.4829 </r>
       <r>    -1.6162    55.9951   518.0460 </r>
       <r>    -1.3561    72.7253   536.9603 </r>
       <r>    -1.0960    96.5527   562.0716 </r>
       <r>    -0.8359   108.9223   590.4000 </r>
       <r>    -0.5759   124.2995   622.7277 </r>
       <r>    -0.3158   145.9158   660.6772 </r>
       <r>    -0.0557   143.4719   697.9912 </r>
       <r>     0.2044   102.3565   724.6120 </r>
       <r>     0.4644    64.8334   741.4738 </r>
       <r>     0.7245    57.8056   756.5078 </r>
       <r>     0.9846    52.6279   770.1952 </r>
       <r>     1.2447    45.4122   782.0059 </r>
       <r>     1.5048    48.0604   794.5054 </r>
       <r>     1.7648    49.4829   807.3748 </r>
       <r>     2.0249    54.3338   821.5059 </r>
       <r>     2.2850    53.7711   835.4906 </r>
       <r>     2.5451    46.7705   847.6546 </r>
       <r>     2.8052    38.3979   857.6411 </r>
       <r>     3.0652    21.4559   863.2213 </r>
       <r>     3.3253     2.9550   863.9899 </r>
       <r>     3.5854     0.0390   864.0000 </r>
       <r>     3.8455     0.0109   864.0028 </r>
       <r>     4.1055     0.9799   864.2577 </r>
       <r>     4.3656     6.5074   865.9501 </r>
       <r>     4.6257    11.4554   868.9294 </r>
       <r>     4.8858    10.5981   871.6858 </r>
       <r>     5.1459    14.4692   875.4489 </r>
       <r>     5.4059    20.2977   880.7279 </r>
       <r>     5.6660    19.0518   885.6828 </r>
       <r>     5.9261    28.2896   893.0404 </r>
       <r>     6.1862    28.0037   900.3235 </r>
       <r>     6.4463    25.4802   906.9504 </r>
       <r>     6.7063    29.6179   914.6534 </r>
       <r>     6.9664    34.5787   923.6465 </r>
       <r>     7.2265    45.0719   935.3688 </r>
       <r>     7.4866    42.7392   946.4843 </r>
       <r>     7.7466    19.5738   951.5751 </r>
       <r>     8.0067     1.6215   951.9968 </r>
       <r>     8.2668     0.0123   952.0000 </r>
       <r>     8.5269     0.0000   952.0000 </r>
       <r>     8.7870     0.0000   952.0000 </r>
       <r>     9.0470     0.0000   952.0000 </r>
       <r>     9.3071     0.0000   952.0000 </r>
       <r>     9.5672     0.0000   952.0000 </r>
       <r>     9.8273     0.0000   952.0000 </r>
       <r>    10.0874     0.0000   952.0000 </r>
       <r>    10.3474     0.0000   952.0000 </r>
       <r>    10.6075     0.0000   952.0000 </r>
       <r>    10.8676     0.0000   952.0000 </r>
       <r>    11.1277     0.0000   952.0000 </r>
      </set>
     </set>
    </array>
   </total>
  </dos>
 </calculation>
 <structure name="finalpos" >
  <crystal>
   <varray name="basis" >
    <v>      10.07973298       0.00000000       0.00000000 </v>
    <v>       3.57329804       9.42510255       0.00000000 </v>
    <v>       0.00000000       0.00000000      20.51013988 </v>
   </varray>
   <i name="volume">   1948.51491473 </i>
   <varray name="rec_basis" >
    <v>       0.09920898      -0.03761267       0.00000000 </v>
    <v>       0.00000000       0.10609964       0.00000000 </v>
    <v>       0.00000000       0.00000000       0.04875637 </v>
   </varray>
  </crystal>
  <varray name="positions" >
   <v>       0.37433215       0.75136220       0.09511235 </v>
   <v>       0.52460066       0.60109368       0.22312232 </v>
   <v>       0.67486918       0.45082517       0.35113229 </v>
   <v>       0.78573968       0.32917299       0.46736321 </v>
   <v>       0.56233987       0.16573589       0.07303636 </v>
   <v>       0.75775499       0.03460603       0.13778234 </v>
   <v>       0.03470821       0.75558325       0.38193096 </v>
   <v>       0.90802350       0.88433751       0.26579231 </v>
   <v>       0.14117783       0.31784985       0.18045233 </v>
   <v>       0.29144634       0.16758134       0.30846230 </v>
   <v>       0.44000719       0.02468313       0.42122970 </v>
   <v>       0.98779696       0.46616418       0.08462027 </v>
   <v>       0.99604564       0.12260378       0.39439758 </v>
   <v>       0.57239484       0.56441458       0.04963191 </v>
   <v>       0.70940298       0.41629137       0.15548031 </v>
   <v>       0.85967149       0.26602286       0.28349028 </v>
   <v>       0.09282582       0.69953520       0.19815030 </v>
   <v>       0.22969517       0.56238576       0.30989543 </v>
   <v>       0.55665914       0.33698592       0.42101588 </v>
   <v>       0.94255730       0.84980371       0.07014033 </v>
   <v>       0.32598014       0.13304754       0.11281032 </v>
   <v>       0.47624865       0.98277903       0.24082029 </v>
   <v>       0.62651717       0.83251052       0.36883026 </v>
   <v>       0.74500118       0.70221916       0.46144000 </v>
   <v>       0.02310831       0.34238748       0.43359763 </v>
   <v>       0.62260514       0.79047389       0.08267570 </v>
   <v>       0.74910482       0.64079553       0.18930132 </v>
   <v>       0.89937333       0.49052701       0.31731128 </v>
   <v>       0.98225915       0.07430787       0.10396133 </v>
   <v>       0.13252766       0.92403936       0.23197130 </v>
   <v>       0.28279617       0.77377084       0.35998128 </v>
   <v>       0.43411484       0.66403092       0.46376651 </v>
   <v>       0.24378215       0.52070977       0.04353400 </v>
   <v>       0.36568198       0.35755170       0.14663132 </v>
   <v>       0.51595050       0.20728318       0.27464130 </v>
   <v>       0.66038848       0.06854945       0.38968707 </v>
   <v>       0.06382158       0.26208477       0.34135992 </v>
   <v>       0.76328455       0.56262179       0.08533998 </v>
   <v>       0.91355306       0.41235328       0.21334995 </v>
   <v>       0.14670739       0.84586562       0.12800997 </v>
   <v>       0.29697590       0.69559711       0.25601994 </v>
   <v>       0.44724441       0.54532860       0.38402991 </v>
   <v>       0.58257056       0.46646661       0.49457000 </v>
   <v>       0.97345171       0.99915284       0.01579204 </v>
   <v>       0.35451322       0.29285737       0.05185606 </v>
   <v>       0.53013023       0.12910945       0.17067996 </v>
   <v>       0.68039874       0.97884094       0.29868993 </v>
   <v>       0.81015992       0.84953913       0.41433398 </v>
   <v>       0.41227851       0.93391899       0.06543555 </v>
   <v>       0.52796422       0.79794212       0.17147277 </v>
   <v>       0.67823274       0.64767361       0.29948274 </v>
   <v>       0.82850125       0.49740510       0.42749271 </v>
   <v>       0.75189173       0.22541390       0.09872753 </v>
   <v>       0.91138706       0.08118595       0.21414276 </v>
   <v>       0.06165557       0.93091744       0.34215273 </v>
   <v>       0.21134782       0.72107032       0.44437899 </v>
   <v>       0.14454139       0.51469829       0.12880278 </v>
   <v>       0.29480990       0.36442978       0.25681275 </v>
   <v>       0.44507841       0.21416127       0.38482272 </v>
   <v>       0.02255755       0.63891192       0.03179519 </v>
   <v>       0.36723598       0.63498352       0.01422423 </v>
   <v>       0.47740939       0.51206696       0.12840637 </v>
   <v>       0.62767790       0.36179845       0.25641634 </v>
   <v>       0.77794641       0.21152993       0.38442632 </v>
   <v>       0.98771124       0.19207886       0.48922493 </v>
   <v>       0.01110074       0.64504227       0.29908634 </v>
   <v>       0.71022918       0.94650581       0.05472251 </v>
   <v>       0.86083223       0.79531079       0.17107636 </v>
   <v>       0.09120699       0.23178369       0.09717624 </v>
   <v>       0.24425506       0.07855462       0.21374635 </v>
   <v>       0.39452358       0.92828611       0.34175632 </v>
   <v>       0.53130660       0.81746778       0.46021781 </v>
  </varray>
 </structure>
</modeling>
