"Millerite NiS"                         
           1
    10.079733    0.000000    0.000000
     3.573298    9.425103    0.000000
     0.000000    0.000000   20.502010
   Ty   Ty
  36  36
Direct configuration=     1
   0.37433215  0.75136220  0.09475350
   0.52460066  0.60109368  0.22281424
   0.67486918  0.45082517  0.35087497
   0.73903744  0.35367628  0.46190039
   0.58118611  0.27373771  0.09383378
   0.75264309  0.04790878  0.16293081
   0.05829201  0.73406900  0.39356188
   0.90802350  0.88433751  0.26550115
   0.14117783  0.31784985  0.18012733
   0.29144634  0.16758134  0.30818806
   0.41905647  0.03278650  0.42259481
   0.99222950  0.47418226  0.07483299
   0.00994000  0.11575434  0.41126688
   0.58039467  0.53735413  0.04632738
   0.70940298  0.41629137  0.15514541
   0.85967149  0.26602286  0.28320614
   0.09282582  0.69953520  0.19783232
   0.24309433  0.54926669  0.32589305
   0.36972483  0.41792178  0.43528519
   0.04032074  0.71454687  0.08559395
   0.32598014  0.13304754  0.11245850
   0.47624865  0.98277903  0.24051923
   0.62651717  0.83251052  0.36857997
   0.73630214  0.70042457  0.46204145
   0.03948046  0.34562185  0.43347180
   0.60680291  0.76582570  0.07912501
   0.74910482  0.64079553  0.18897982
   0.89937333  0.49052701  0.31704056
   0.06968747  0.10489719  0.14904274
   0.13252766  0.92403936  0.23166673
   0.28279617  0.77377084  0.35972747
   0.44404183  0.65157112  0.46774360
   0.29456831  0.52537073  0.05537438
   0.36568198  0.35755170  0.14629291
   0.51595050  0.20728318  0.27435364
   0.65827525  0.06871438  0.38914774
   0.06382158  0.26208477  0.34109873
   0.20153347  0.13618677  0.44270151
   0.76328455  0.56262179  0.08497726
   0.91355306  0.41235328  0.21303799
   0.14670739  0.84586562  0.12766417
   0.29697590  0.69559711  0.25572491
   0.44724441  0.54532860  0.38378564
   0.53028816  0.43844500  0.49578905
   0.38555416  0.28823031  0.05185058
   0.53013023  0.12910945  0.17035108
   0.68039874  0.97884094  0.29841182
   0.79603601  0.85663001  0.41962965
   0.41234481  0.93361239  0.06511732
   0.52796422  0.79794212  0.17114421
   0.67823274  0.64767361  0.29920494
   0.82850125  0.49740510  0.42726567
   0.79132950  0.21382515  0.10937693
   0.91138706  0.08118595  0.21383112
   0.06165557  0.93091744  0.34189185
   0.22381764  0.74003814  0.45174523
   0.14454139  0.51469829  0.12845730
   0.29480990  0.36442978  0.25651803
   0.44507841  0.21416127  0.38457876
   0.09138038  0.57215072  0.01069748
   0.38644278  0.65086363  0.00675017
   0.47740939  0.51206696  0.12806073
   0.62767790  0.36179845  0.25612147
   0.77794641  0.21152993  0.38418220
   0.94109837  0.23925760  0.49249117
   0.01110074  0.64504227  0.29880838
   0.15179665  0.50388152  0.41177144
   0.86083223  0.79531079  0.17074765
   0.11133259  0.24940032  0.08770444
   0.24425506  0.07855462  0.21343456
   0.39452358  0.92828611  0.34149529
   0.52415478  0.81965695  0.45894670
