
72 atoms
2 atom types
   0.0000000000   10.0797329849 xlo xhi
   0.0000000000    9.4251025535 ylo yhi
   0.0000000000   20.3205155969 zlo zhi
   3.5732980427    0.0000000000    0.0000000000 xy xz yz

Atoms # atomic

     1      1    6.4580091515    7.0816657993    2.4440084173
     2      1    7.4357214587    5.6653696631    5.0695107999
     3      1    8.4134337559    4.2490735269    7.6950132028
     4      1    9.3911460596    2.8327773814   10.3205156057
     5      1    6.7839132522    1.7424615273    0.6936734956
     6      1    7.7616255594    0.3261653911    3.3191758782
     7      1    3.2106152181    6.9186756629    8.5701806636
     8      1   12.3126358957    8.3349717991    5.9446782811
     9      1    2.5588070116    2.9957675271    4.1943433390
    10      1    3.5365193153    1.5794713815    6.8198457419
    11      1    4.5142316125    0.1631752454    9.4453481245
    12      1   11.6608276993    4.4120636633    1.5688409565
    13      1    0.5138173043    1.0909966103    8.9331686348
    14      1    7.6604133947    5.3398850377    1.0566614464
    15      1    8.6381256984    3.9235888921    3.6821638290
    16      1    9.6158379956    2.5072927559    6.3076662319
    17      1    3.4353071506    6.5931910281    4.5573313102
    18      1    4.4130194579    5.1768948919    7.1828336927
    19      1    5.3907317550    3.7605987558    9.8083360956
    20      1   12.5373278418    8.0094871737    1.9318289073
    21      1    2.7834989541    2.6702828923    0.1814939856
    22      1    3.7612112513    1.2539867561    2.8069963681
    23      1    8.3122216013    9.2627931735    5.4324987710
    24      1    9.2899338949    7.8464970279    8.0580011536
    25      1    1.7162215492    3.2069713232    9.6268421101
    26      1    8.8628176360    7.4558597411    1.7503349217
    27      1    9.8405299331    6.0395636050    4.3758373246
    28      1   10.8182422368    4.6232674594    7.0013397275
    29      1    9.1887217367    2.1166554692    0.0000000000
    30      1   10.1664340303    0.7003593236    2.6255024029
    31      1    4.6377113954    8.7091657409    5.2510047855
    32      1    5.6154236890    7.2928695953    7.8765071883
    33      1    3.9859031889    4.7862576051    0.8751674609
    34      1    4.9636154925    3.3699614595    3.5006698637
    35      1    5.9413277897    1.9536653234    6.1261722463
    36      1    6.9190400970    0.5373691872    8.7516746492
    37      2    1.5798114180    2.4701758821    7.4945805983
    38      2    2.5575237151    1.0538797459   10.1200830012
    39      2    9.7041198020    5.3027681639    2.2435758128
    40      2   10.6818320956    3.8864720183    4.8690782157
    41      2    4.5013012541    7.9723702998    3.1187432737
    42      2    5.4790135614    6.5560741637    5.7442456766
    43      2    6.4567258550    5.1397780181    8.3697480591
    44      2   13.6033219418    9.3886664360    0.4932408911
    45      2    4.8272053649    2.6331660279    1.3684083520
    46      2    5.8049176585    1.2168698823    3.9939107345
    47      2   10.3559279984    9.2256762997    6.6194131374
    48      2   11.3336403021    7.8093801541    9.2449155200
    49      2    7.1953110936    8.9369825338    1.3846689505
    50      2    8.1730233908    7.5206863976    4.0101713534
    51      2    9.1507356944    6.1043902520    6.6356737562
    52      2   10.1284479916    4.6880941159    9.2611761388
    53      2    8.4989274879    2.1814821162    2.2598364316
    54      2    9.4766397951    0.7651859801    4.8853388142
    55      2    3.9479171466    8.7739923880    7.5108412171
    56      2    4.9256294539    7.3576962518   10.1363435997
    57      2    3.2961089501    4.8510842522    3.1350038925
    58      2    4.2738212473    3.4347881160    5.7605062751
    59      2    5.2515335546    2.0184919799    8.3860086780
    60      2   12.3981296313    6.2673803978    0.5095014896
    61      2    5.6642146816    6.2425797956    0.5013711904
    62      2    6.6419269853    4.8262836500    3.1268735729
    63      2    7.6196392825    3.4099875138    5.7523759758
    64      2    8.5973515761    1.9936913682    8.3778783787
    65      2    2.4168207347    6.0795896498    6.6275434367
    66      2    3.3945330419    4.6632935136    9.2530458396
    67      2   10.5411291287    8.9121819316    1.3765386512
    68      2   11.5188414223    7.4958857860    4.0020410541
    69      2    1.7650125382    2.1566815140    2.2517061121
    70      2    2.7427248455    0.7403853778    4.8772085150
    71      2    7.2937351818    8.7491917858    7.5027108975
    72      2    8.2714474790    7.3328956496   10.1282133004
