       N       E                     dE             d eps       ncg     rms          rms(c)
DAV:   1     0.145695916683E+05    0.14570E+05   -0.67749E+05  1528   0.175E+03
DAV:   2     0.119550727109E+04   -0.13374E+05   -0.12927E+05  1288   0.571E+02
DAV:   3    -0.404926043530E+03   -0.16004E+04   -0.14692E+04  1456   0.208E+02
DAV:   4    -0.542386772981E+03   -0.13746E+03   -0.13423E+03  1472   0.520E+01
DAV:   5    -0.547761939905E+03   -0.53752E+01   -0.53578E+01  1568   0.115E+01    0.952E+01
DAV:   6    -0.944322017660E+03   -0.39656E+03   -0.12310E+03  1728   0.154E+02    0.259E+02
DAV:   7    -0.683285163996E+03    0.26104E+03   -0.32938E+02  1632   0.788E+01    0.194E+02
DAV:   8    -0.676320337785E+03    0.69648E+01   -0.29201E+02  1776   0.921E+01    0.148E+02
DAV:   9    -0.617577716005E+03    0.58743E+02   -0.21618E+02  1688   0.950E+01    0.178E+02
DAV:  10    -0.532399318031E+03    0.85178E+02   -0.20323E+02  1680   0.734E+01    0.123E+02
DAV:  11    -0.543031773957E+03   -0.10632E+02   -0.22528E+02  1736   0.663E+01    0.112E+02
DAV:  12    -0.546235339811E+03   -0.32036E+01   -0.14123E+02  1680   0.516E+01    0.841E+01
DAV:  13    -0.534711124546E+03    0.11524E+02   -0.68604E+01  1752   0.412E+01    0.684E+01
DAV:  14    -0.536065617347E+03   -0.13545E+01   -0.77507E+01  1784   0.497E+01    0.939E+01
DAV:  15    -0.534060154040E+03    0.20055E+01   -0.51278E+01  1728   0.388E+01    0.104E+02
DAV:  16    -0.507693164853E+03    0.26367E+02   -0.58567E+01  1720   0.287E+01    0.492E+01
DAV:  17    -0.495320440204E+03    0.12373E+02   -0.20742E+01  1744   0.247E+01    0.376E+01
DAV:  18    -0.492073386278E+03    0.32471E+01   -0.10606E+01  1728   0.176E+01    0.329E+01
DAV:  19    -0.489159646653E+03    0.29137E+01   -0.53251E+00  1760   0.110E+01    0.299E+01
DAV:  20    -0.486978213514E+03    0.21814E+01   -0.35688E+00  1752   0.783E+00    0.255E+01
DAV:  21    -0.486121420566E+03    0.85679E+00   -0.72619E-01  1624   0.328E+00    0.235E+01
DAV:  22    -0.485367993546E+03    0.75343E+00   -0.45491E-01  1784   0.285E+00    0.222E+01
DAV:  23    -0.484225594613E+03    0.11424E+01   -0.15556E+00  2024   0.572E+00    0.202E+01
DAV:  24    -0.483217136410E+03    0.10085E+01   -0.26057E+00  1792   0.879E+00    0.164E+01
DAV:  25    -0.482575642378E+03    0.64149E+00   -0.27767E+00  1792   0.806E+00    0.146E+01
DAV:  26    -0.482471099780E+03    0.10454E+00   -0.13926E+00  1704   0.495E+00    0.129E+01
DAV:  27    -0.482510028362E+03   -0.38929E-01   -0.12495E+00  1672   0.510E+00    0.150E+01
DAV:  28    -0.482049917040E+03    0.46011E+00   -0.77634E-01  1672   0.311E+00    0.961E+00
DAV:  29    -0.482282430780E+03   -0.23251E+00   -0.80306E-01  1704   0.448E+00    0.133E+01
DAV:  30    -0.482197322919E+03    0.85108E-01   -0.69051E-01  1728   0.401E+00    0.115E+01
DAV:  31    -0.481984416513E+03    0.21291E+00   -0.57530E-01  1536   0.304E+00    0.861E+00
DAV:  32    -0.481986204517E+03   -0.17880E-02   -0.42864E-01  1680   0.309E+00    0.796E+00
DAV:  33    -0.481778845047E+03    0.20736E+00   -0.45788E-01  1672   0.228E+00    0.489E+00
DAV:  34    -0.481759658193E+03    0.19187E-01   -0.94914E-02  1744   0.144E+00    0.451E+00
DAV:  35    -0.481728542414E+03    0.31116E-01   -0.63682E-02  1712   0.115E+00    0.376E+00
DAV:  36    -0.481709392963E+03    0.19149E-01   -0.37334E-02  1584   0.774E-01    0.330E+00
DAV:  37    -0.481704330565E+03    0.50624E-02   -0.26735E-02  1720   0.549E-01    0.288E+00
DAV:  38    -0.481685864407E+03    0.18466E-01   -0.40008E-02  1768   0.726E-01    0.243E+00
DAV:  39    -0.481673249633E+03    0.12615E-01   -0.16373E-02  1736   0.630E-01    0.198E+00
DAV:  40    -0.481663622901E+03    0.96267E-02   -0.10361E-02  1680   0.405E-01    0.142E+00
DAV:  41    -0.481660255028E+03    0.33679E-02   -0.61905E-03  1712   0.383E-01    0.109E+00
DAV:  42    -0.481658417268E+03    0.18378E-02   -0.27384E-03  1704   0.217E-01    0.898E-01
DAV:  43    -0.481657637496E+03    0.77977E-03   -0.20785E-03  1624   0.271E-01    0.783E-01
DAV:  44    -0.481656615658E+03    0.10218E-02   -0.19223E-03  1600   0.238E-01    0.634E-01
DAV:  45    -0.481655692510E+03    0.92315E-03   -0.15959E-03  1656   0.201E-01    0.491E-01
DAV:  46    -0.481655277759E+03    0.41475E-03   -0.13755E-03  1600   0.180E-01    0.397E-01
DAV:  47    -0.481655137110E+03    0.14065E-03   -0.62901E-04  1216   0.116E-01    0.322E-01
DAV:  48    -0.481655030469E+03    0.10664E-03   -0.40137E-04  1016   0.103E-01    0.241E-01
DAV:  49    -0.481655031987E+03   -0.15185E-05   -0.65033E-04   792   0.102E-01
   1 F= -.48165503E+03 E0= -.48092892E+03  d E =-.145222E+01
