LAMMPS (5 Jun 2019)
OMP_NUM_THREADS environment is not set. Defaulting to 1 thread. (../comm.cpp:88)
  using 1 OpenMP thread(s) per MPI task
Reading data file ...
  triclinic box = (0 0 0) to (6.27856 11.0602 29.1568) with tilt (2.09285 0 0)
  1 by 1 by 1 MPI processor grid
  reading atoms ...
  96 atoms
  read_data CPU = 0.000869017 secs
78 atoms in group bulk
WARNING: Using 'neigh_modify every 1 delay 0 check yes' setting during minimization (../min.cpp:168)
Neighbor list info ...
  update every 1 steps, delay 0 steps, check yes
  max neighbors/atom: 2000, page size: 100000
  master list distance cutoff = 8.5
  ghost atom cutoff = 8.5
  binsize = 4.25, bins = 2 3 7
  1 neighbor lists, perpetual/occasional/extra = 1 0 0
  (1) pair eam/alloy, perpetual
      attributes: half, newton on
      pair build: half/bin/newton/tri
      stencil: half/bin/3d/newton/tri
      bin: standard
Setting up cg style minimization ...
  Unit style    : metal
  Current step  : 0
Per MPI rank memory allocation (min/avg/max) = 4.109 | 4.109 | 4.109 Mbytes
Step Temp E_pair E_mol TotEng Press 
       0            0   -421.53576            0   -421.53576   -154227.93 
      14            0   -429.08075            0   -429.08075   -110450.57 
Loop time of 0.0169533 on 1 procs for 14 steps with 96 atoms

99.7% CPU use with 1 MPI tasks x 1 OpenMP threads

Minimization stats:
  Stopping criterion = energy tolerance
  Energy initial, next-to-last, final = 
        -421.535763866     -429.076787813     -429.080745365
  Force two-norm initial, final = 8.96255 0.397957
  Force max component initial, final = 2.6562 0.220391
  Final line search alpha, max atom move = 0.435589 0.0959997
  Iterations, force evaluations = 14 24

MPI task timing breakdown:
Section |  min time  |  avg time  |  max time  |%varavg| %total
---------------------------------------------------------------
Pair    | 0.016358   | 0.016358   | 0.016358   |   0.0 | 96.49
Neigh   | 0          | 0          | 0          |   0.0 |  0.00
Comm    | 0.00033682 | 0.00033682 | 0.00033682 |   0.0 |  1.99
Output  | 0          | 0          | 0          |   0.0 |  0.00
Modify  | 2.4375e-05 | 2.4375e-05 | 2.4375e-05 |   0.0 |  0.14
Other   |            | 0.0002343  |            |       |  1.38

Nlocal:    96 ave 96 max 96 min
Histogram: 1 0 0 0 0 0 0 0 0 0
Nghost:    1218 ave 1218 max 1218 min
Histogram: 1 0 0 0 0 0 0 0 0 0
Neighs:    7473 ave 7473 max 7473 min
Histogram: 1 0 0 0 0 0 0 0 0 0

Total # of neighbors = 7473
Ave neighs/atom = 77.8438
Neighbor list builds = 0
Dangerous builds = 0
System init for write_data ...
Total wall time: 0:00:00
