 vasp.5.4.4.18Apr17-6-g9f103f2a35 (build Aug 13 2019 17:33:20) gamma-only       
  
 executed on             LinuxIFC date 2020.05.12  09:43:39
 running on   12 total cores
 distrk:  each k-point on   12 cores,    1 groups
 distr:  one band on NCORES_PER_BAND=   6 cores,    2 groups


--------------------------------------------------------------------------------------------------------


 INCAR:
 POTCAR:    PAW_PBE Ni_pv 06Sep2000               
 POTCAR:    PAW_PBE S 06Sep2000                   
 POTCAR:    PAW_PBE Ni_pv 06Sep2000               
   VRHFIN =Ni:                                                                  
   LEXCH  = PE                                                                  
   EATOM  =  3501.1230 eV,  257.3253 Ry                                         
                                                                                
   TITEL  = PAW_PBE Ni_pv 06Sep2000                                             
   LULTRA =        F    use ultrasoft PP ?                                      
   IUNSCR =        1    unscreen: 0-lin 1-nonlin 2-no                           
   RPACOR =    1.500    partial core radius                                     
   POMASS =   58.690; ZVAL   =   16.000    mass and valenz                      
   RCORE  =    2.000    outmost cutoff radius                                   
   RWIGS  =    2.000; RWIGS  =    1.058    wigner-seitz radius (au A)           
   ENMAX  =  367.986; ENMIN  =  275.989 eV                                      
   RCLOC  =    1.301    cutoff for local pot                                    
   LCOR   =        T    correct aug charges                                     
   LPAW   =        T    paw PP                                                  
   EAUG   =  703.443                                                            
   DEXC   =    0.000                                                            
   RMAX   =    2.041    core radius for proj-oper                               
   RAUG   =    1.300    factor for augmentation sphere                          
   RDEP   =    2.103    radius for radial grids                                 
   RDEPT  =    1.618    core radius for aug-charge                              
                                                                                
   Atomic configuration                                                         
    8 entries                                                                   
     n  l   j            E        occ.                                          
     1  0  0.50     -8206.4253   2.0000                                         
     2  0  0.50      -976.1748   2.0000                                         
     2  1  1.50      -839.0571   6.0000                                         
     3  0  0.50      -105.9991   2.0000                                         
     3  1  1.50       -66.4603   6.0000                                         
     3  2  2.50        -4.6458   9.0000                                         
     4  0  0.50        -4.4926   1.0000                                         
     4  3  2.50        -1.3606   0.0000                                         
   Description                                                                  
     l       E           TYP  RCUT    TYP  RCUT                                 
     1    -66.4602962     23  1.700                                             
     1     -1.3605826     23  1.700                                             
     2     -4.6457867     23  2.000                                             
     2     -6.0063693     23  2.000                                             
     0     -4.4925576     23  1.900                                             
     0     16.3626226     23  1.900                                             
  local pseudopotential read in
  partial core-charges read in
  partial kinetic energy density read in
  atomic valenz-charges read in
  non local Contribution for L=           1  read in
    real space projection operators read in
  non local Contribution for L=           1  read in
    real space projection operators read in
  non local Contribution for L=           2  read in
    real space projection operators read in
  non local Contribution for L=           2  read in
    real space projection operators read in
  non local Contribution for L=           0  read in
    real space projection operators read in
  non local Contribution for L=           0  read in
    real space projection operators read in
    PAW grid and wavefunctions read in
 
   number of l-projection  operators is LMAX  =           6
   number of lm-projection operators is LMMAX =          18
 
 POTCAR:    PAW_PBE S 06Sep2000                   
   VRHFIN =S : s2p4                                                             
   LEXCH  = PE                                                                  
   EATOM  =   276.8230 eV,   20.3459 Ry                                         
                                                                                
   TITEL  = PAW_PBE S 06Sep2000                                                 
   LULTRA =        F    use ultrasoft PP ?                                      
   IUNSCR =        1    unscreen: 0-lin 1-nonlin 2-no                           
   RPACOR =    1.500    partial core radius                                     
   POMASS =   32.066; ZVAL   =    6.000    mass and valenz                      
   RCORE  =    1.900    outmost cutoff radius                                   
   RWIGS  =    2.200; RWIGS  =    1.164    wigner-seitz radius (au A)           
   ENMAX  =  258.689; ENMIN  =  194.016 eV                                      
   ICORE  =        2    local potential                                         
   LCOR   =        T    correct aug charges                                     
   LPAW   =        T    paw PP                                                  
   EAUG   =  335.092                                                            
   DEXC   =    0.000                                                            
   RMAX   =    1.942    core radius for proj-oper                               
   RAUG   =    1.300    factor for augmentation sphere                          
   RDEP   =    1.954    radius for radial grids                                 
   RDEPT  =    1.744    core radius for aug-charge                              
                                                                                
   Atomic configuration                                                         
    6 entries                                                                   
     n  l   j            E        occ.                                          
     1  0  0.50     -2405.8406   2.0000                                         
     2  0  0.50      -211.7007   2.0000                                         
     2  1  1.50      -156.4958   6.0000                                         
     3  0  0.50       -17.2562   2.0000                                         
     3  1  0.50        -7.0085   4.0000                                         
     3  2  1.50        -6.8029   0.0000                                         
   Description                                                                  
     l       E           TYP  RCUT    TYP  RCUT                                 
     0    -17.2561641     23  1.900                                             
     0    -15.8743224     23  1.900                                             
     1     -7.0085400     23  1.900                                             
     1     -2.7779785     23  1.900                                             
     2     -6.8029130     23  1.900                                             
  local pseudopotential read in
  partial core-charges read in
  partial kinetic energy density read in
  atomic valenz-charges read in
  non local Contribution for L=           0  read in
    real space projection operators read in
  non local Contribution for L=           0  read in
    real space projection operators read in
  non local Contribution for L=           1  read in
    real space projection operators read in
  non local Contribution for L=           1  read in
    real space projection operators read in
    PAW grid and wavefunctions read in
 
   number of l-projection  operators is LMAX  =           4
   number of lm-projection operators is LMMAX =           8
 
 Optimization of the real space projectors (new method)

 maximal supplied QI-value         = 18.90
 optimisation between [QCUT,QGAM] = [ 10.77, 21.73] = [ 32.49,132.25] Ry 
 Optimized for a Real-space Cutoff    1.38 Angstroem

   l    n(q)    QCUT    max X(q) W(low)/X(q) W(high)/X(q)  e(spline) 
   1      8    10.771     2.836    0.40E-04    0.29E-04    0.12E-06
   1      8    10.771     4.023    0.10E-03    0.48E-04    0.29E-06
   2      8    10.771    73.368    0.42E-03    0.97E-04    0.44E-06
   2      8    10.771    69.010    0.42E-03    0.99E-04    0.45E-06
   0      9    10.771    54.797    0.10E-03    0.56E-04    0.74E-07
   0      9    10.771    24.266    0.89E-04    0.49E-04    0.67E-07
 Optimization of the real space projectors (new method)

 maximal supplied QI-value         = 19.84
 optimisation between [QCUT,QGAM] = [ 10.71, 21.63] = [ 32.15,130.99] Ry 
 Optimized for a Real-space Cutoff    1.19 Angstroem

   l    n(q)    QCUT    max X(q) W(low)/X(q) W(high)/X(q)  e(spline) 
   0      8    10.715   187.594    0.41E-03    0.53E-04    0.66E-07
   0      8    10.715   164.243    0.41E-03    0.53E-04    0.65E-07
   1      7    10.715    67.533    0.19E-03    0.59E-03    0.68E-07
   1      7    10.715    50.729    0.19E-03    0.58E-03    0.67E-07
  PAW_PBE Ni_pv 06Sep2000               :
 energy of atom  1       EATOM=-3501.1230
 kinetic energy error for atom=    0.0925 (will be added to EATOM!!)
  PAW_PBE S 06Sep2000                   :
 energy of atom  2       EATOM= -276.8230
 kinetic energy error for atom=    0.0033 (will be added to EATOM!!)
 
 
 POSCAR: Type_048 Type_148                       
  positions in cartesian coordinates
  No initial velocities read in
 exchange correlation table for  LEXCH =        8
   RHO(1)=    0.500       N(1)  =     2000
   RHO(2)=  100.500       N(2)  =     4000
 


--------------------------------------------------------------------------------------------------------


 ion  position               nearest neighbor table
   1  0.256  0.016  0.152-  74 2.25  64 2.26  80 2.26   5 2.32  52 2.36  93 2.36   9 2.48
   2  0.256  0.016  0.481-  75 2.25  65 2.26  81 2.26  53 2.36  94 2.36  10 2.53   6 2.53
   3  0.006  0.266  0.317-  61 2.25  66 2.26  70 2.26  54 2.36  58 2.36   7 2.53  23 2.53
   4  0.015  0.262  0.638-  55 2.11  67 2.14  71 2.16  59 2.20   8 2.32  24 2.47
   5  0.240  0.014  0.073-  80 2.06  60 2.09   1 2.32  93 2.32
   6  0.256  0.016  0.394-  78 2.25  61 2.26  81 2.26  49 2.36  94 2.36   2 2.53  10 2.53
   7  0.006  0.266  0.230-  64 2.25  70 2.26  62 2.26  58 2.36  50 2.36   3 2.53  23 2.53
   8  0.006  0.266  0.558-  65 2.25  71 2.26  63 2.26   4 2.32  59 2.36  51 2.36  24 2.53
   9  0.177  0.220  0.117-  64 2.06  60 2.13  56 2.19  52 2.28   1 2.48
  10  0.190  0.215  0.438-  57 2.25  65 2.26  61 2.26  53 2.36  49 2.36   2 2.53   6 2.53
  11  0.440  0.465  0.273-  82 2.25  50 2.26  54 2.26  62 2.36  66 2.36  19 2.53  15 2.53
  12  0.440  0.465  0.602-  55 2.11  67 2.14  83 2.25  51 2.26  63 2.36  16 2.47  20 2.53
  13  0.756  0.016  0.152-  86 2.25  52 2.26  93 2.26  17 2.35  64 2.36  80 2.36  21 2.48
  14  0.756  0.016  0.481-  87 2.25  53 2.26  94 2.26  65 2.36  81 2.36  22 2.53  18 2.53
  15  0.506  0.266  0.317-  49 2.25  54 2.26  58 2.26  66 2.36  70 2.36  19 2.53  11 2.53
  16  0.515  0.262  0.638-  67 2.11  55 2.14  59 2.16  71 2.20  20 2.32  12 2.47
  17  0.783  0.010  0.072-  90 1.92  80 2.12  60 2.13  93 2.24  13 2.35
  18  0.756  0.016  0.394-  91 2.25  49 2.26  94 2.26  61 2.36  81 2.36  14 2.53  22 2.53
  19  0.506  0.266  0.230-  52 2.25  58 2.26  50 2.26  70 2.36  62 2.36  15 2.53  11 2.53
  20  0.506  0.266  0.558-  53 2.25  59 2.26  51 2.26  16 2.32  71 2.36  63 2.36  12 2.53
  21  0.713  0.222  0.119-  64 2.09  60 2.16  52 2.20  68 2.23  13 2.48
  22  0.690  0.215  0.438-  69 2.25  53 2.26  49 2.26  65 2.36  61 2.36  14 2.53  18 2.53
  23  0.940  0.465  0.273-  95 2.25  62 2.26  66 2.26  50 2.36  54 2.36   7 2.53   3 2.53
  24  0.940  0.465  0.602-  67 2.11  55 2.14  96 2.25  63 2.26  51 2.36   4 2.47   8 2.53
  25  0.256  0.516  0.152-  50 2.25  88 2.26  56 2.26  29 2.33  76 2.36  68 2.36  33 2.53
  26  0.256  0.516  0.481-  51 2.25  89 2.26  57 2.26  77 2.36  69 2.36  34 2.53  30 2.53
  27  0.006  0.766  0.317-  85 2.25  91 2.26  95 2.26  78 2.36  82 2.36  31 2.53  47 2.53
  28  0.015  0.762  0.638-  79 2.11  92 2.14  96 2.16  83 2.20  32 2.32  48 2.47
  29  0.266  0.513  0.073-  72 2.11  84 2.14  56 2.17  68 2.20  25 2.33  33 2.47
  30  0.256  0.516  0.394-  54 2.25  85 2.26  57 2.26  73 2.36  69 2.36  26 2.53  34 2.53
  31  0.006  0.766  0.230-  88 2.25  95 2.26  86 2.26  82 2.36  74 2.36  27 2.53  47 2.53
  32  0.006  0.766  0.558-  89 2.25  96 2.26  87 2.26  28 2.32  83 2.36  75 2.36  48 2.53
  33  0.190  0.715  0.109-  84 2.11  72 2.14  80 2.25  88 2.26  76 2.36  29 2.47  25 2.53
  34  0.190  0.715  0.438-  81 2.25  89 2.26  85 2.26  77 2.36  73 2.36  26 2.53  30 2.53
  35  0.440  0.965  0.273-  58 2.25  74 2.26  78 2.26  86 2.36  91 2.36  43 2.53  39 2.53
  36  0.440  0.965  0.602-  79 2.11  92 2.14  59 2.25  75 2.26  87 2.36  40 2.47  44 2.53
  37  0.756  0.516  0.152-  62 2.25  76 2.26  68 2.26  41 2.33  88 2.36  56 2.36  45 2.53
  38  0.756  0.516  0.481-  63 2.25  77 2.26  69 2.26  89 2.36  57 2.36  46 2.53  42 2.53
  39  0.506  0.766  0.317-  73 2.25  78 2.26  82 2.26  91 2.36  95 2.36  43 2.53  35 2.53
  40  0.515  0.762  0.638-  92 2.11  79 2.14  83 2.16  96 2.20  44 2.32  36 2.47
  41  0.764  0.513  0.073-  84 2.11  72 2.14  68 2.16  56 2.21  37 2.33  45 2.47
  42  0.756  0.516  0.394-  66 2.25  73 2.26  69 2.26  85 2.36  57 2.36  38 2.53  46 2.53
  43  0.506  0.766  0.230-  76 2.25  82 2.26  74 2.26  95 2.36  86 2.36  39 2.53  35 2.53
  44  0.506  0.766  0.558-  77 2.25  83 2.26  75 2.26  40 2.32  96 2.36  87 2.36  36 2.53
  45  0.690  0.715  0.109-  72 2.11  84 2.14  93 2.25  76 2.26  88 2.36  41 2.47  37 2.53
  46  0.690  0.715  0.438-  94 2.25  77 2.26  73 2.26  89 2.36  85 2.36  38 2.53  42 2.53
  47  0.940  0.965  0.273-  70 2.25  86 2.26  91 2.26  74 2.36  78 2.36  31 2.53  27 2.53
  48  0.940  0.965  0.602-  92 2.11  79 2.14  71 2.25  87 2.26  75 2.36  28 2.47  32 2.53
  49  0.468  0.167  0.382-  15 2.25  18 2.26  22 2.26   6 2.36  10 2.36
  50  0.218  0.417  0.218-  25 2.25  11 2.26  19 2.26  23 2.36   7 2.36
  51  0.218  0.417  0.547-  26 2.25  12 2.26  20 2.26  24 2.36   8 2.36
  52  0.468  0.167  0.164-  21 2.20  19 2.25  13 2.26   9 2.28   1 2.36
  53  0.468  0.167  0.493-  20 2.25  22 2.26  14 2.26  10 2.36   2 2.36
  54  0.218  0.417  0.329-  30 2.25  15 2.26  11 2.26   3 2.36  23 2.36
  55  0.218  0.392  0.642-  12 2.11   4 2.11  16 2.14  24 2.14  59 2.78
  56  0.053  0.414  0.109-  29 2.17   9 2.19  41 2.21  25 2.26  37 2.36  84 2.78
  57  0.053  0.414  0.438-  10 2.25  26 2.26  30 2.26  38 2.36  42 2.36
  58  0.303  0.164  0.273-  35 2.25  19 2.26  15 2.26   7 2.36   3 2.36
  59  0.303  0.164  0.602-  16 2.16   4 2.20  36 2.25  20 2.26   8 2.36  55 2.78
  60  0.967  0.152  0.071-   5 2.09  17 2.13   9 2.13  21 2.16  64 2.73
  61  0.968  0.167  0.382-   3 2.25   6 2.26  10 2.26  18 2.36  22 2.36
  62  0.718  0.417  0.218-  37 2.25  23 2.26   7 2.26  11 2.36  19 2.36
  63  0.718  0.417  0.547-  38 2.25  24 2.26   8 2.26  12 2.36  20 2.36
  64  0.968  0.167  0.164-   9 2.06  21 2.09   7 2.25   1 2.26  13 2.36  60 2.73
  65  0.968  0.167  0.493-   8 2.25  10 2.26   2 2.26  22 2.36  14 2.36
  66  0.718  0.417  0.329-  42 2.25   3 2.26  23 2.26  15 2.36  11 2.36
  67  0.718  0.392  0.642-  24 2.11  16 2.11   4 2.14  12 2.14  71 2.78
  68  0.553  0.414  0.109-  41 2.16  29 2.20  21 2.23  37 2.26  25 2.36  72 2.79
  69  0.553  0.414  0.438-  22 2.25  38 2.26  42 2.26  26 2.36  30 2.36
  70  0.803  0.164  0.273-  47 2.25   7 2.26   3 2.26  19 2.36  15 2.36
  71  0.803  0.164  0.602-   4 2.16  16 2.20  48 2.25   8 2.26  20 2.36  67 2.78
  72  0.468  0.642  0.068-  29 2.11  45 2.11  41 2.14  33 2.14  68 2.79
  73  0.468  0.667  0.382-  39 2.25  42 2.26  46 2.26  30 2.36  34 2.36
  74  0.218  0.917  0.218-   1 2.25  35 2.26  43 2.26  47 2.36  31 2.36
  75  0.218  0.917  0.547-   2 2.25  36 2.26  44 2.26  48 2.36  32 2.36
  76  0.468  0.667  0.164-  43 2.25  37 2.26  45 2.26  25 2.36  33 2.36
  77  0.468  0.667  0.493-  44 2.25  46 2.26  38 2.26  34 2.36  26 2.36
  78  0.218  0.917  0.329-   6 2.25  39 2.26  35 2.26  27 2.36  47 2.36
  79  0.218  0.892  0.642-  36 2.11  28 2.11  40 2.14  48 2.14  83 2.78
  80  0.053  0.914  0.109-   5 2.06  17 2.12  33 2.25   1 2.26  13 2.36
  81  0.053  0.914  0.438-  34 2.25   2 2.26   6 2.26  14 2.36  18 2.36
  82  0.303  0.664  0.273-  11 2.25  43 2.26  39 2.26  31 2.36  27 2.36
  83  0.303  0.664  0.602-  40 2.16  28 2.20  12 2.25  44 2.26  32 2.36  79 2.78
  84  0.968  0.642  0.068-  33 2.11  41 2.11  29 2.14  45 2.14  56 2.78
  85  0.968  0.667  0.382-  27 2.25  30 2.26  34 2.26  42 2.36  46 2.36
  86  0.718  0.917  0.218-  13 2.25  47 2.26  31 2.26  35 2.36  43 2.36
  87  0.718  0.917  0.547-  14 2.25  48 2.26  32 2.26  36 2.36  44 2.36
  88  0.968  0.667  0.164-  31 2.25  25 2.26  33 2.26  37 2.36  45 2.36
  89  0.968  0.667  0.493-  32 2.25  34 2.26  26 2.26  46 2.36  38 2.36
  90  0.705  0.938  0.016-  17 1.92
  91  0.718  0.917  0.329-  18 2.25  27 2.26  47 2.26  39 2.36  35 2.36
  92  0.718  0.892  0.642-  48 2.11  40 2.11  28 2.14  36 2.14  96 2.78
  93  0.553  0.914  0.109-  17 2.24  45 2.25  13 2.26   5 2.32   1 2.36
  94  0.553  0.914  0.438-  46 2.25  14 2.26  18 2.26   2 2.36   6 2.36
  95  0.803  0.664  0.273-  23 2.25  31 2.26  27 2.26  43 2.36  39 2.36
  96  0.803  0.664  0.602-  28 2.16  40 2.20  24 2.25  32 2.26  44 2.36  92 2.78
 
  LATTYP: Found a simple monoclinic cell.
 ALAT       =    13.8711386352
 B/A-ratio  =     2.1019774055
 C/A-ratio  =     1.3233367991
 COS(beta)  =    -0.9620914447
  
  Lattice vectors:
  
 A1 = (  -8.3714133957, -11.0601955134,   0.0000000000)
 A2 = (   0.0000000000,   0.0000000000, -29.1568200000)
 A3 = (  14.6499733957,  11.0601955134,   0.0000000000)


Analysis of symmetry for initial positions (statically):
=====================================================================
 Subroutine PRICEL returns:
 Original cell was already a primitive cell.
 

 Routine SETGRP: Setting up the symmetry group for a 
 simple monoclinic supercell.


 Subroutine GETGRP returns: Found  1 space group operations
 (whereof  1 operations were pure point group operations)
 out of a pool of  4 trial point group operations.


The static configuration has the point symmetry C_1 .


Analysis of symmetry for dynamics (positions and initial velocities):
=====================================================================
 Subroutine PRICEL returns:
 Original cell was already a primitive cell.
 

 Routine SETGRP: Setting up the symmetry group for a 
 simple monoclinic supercell.


 Subroutine GETGRP returns: Found  1 space group operations
 (whereof  1 operations were pure point group operations)
 out of a pool of  4 trial point group operations.


The dynamic configuration has the point symmetry C_1 .


 Subroutine INISYM returns: Found  1 space group operations
 (whereof  1 operations are pure point group operations),
 and found     1 'primitive' translations

 
 
 KPOINTS: gamma-point-only calculation. no periodi

Automatic generation of k-mesh.
Space group operators:
 irot       det(A)        alpha          n_x          n_y          n_z        tau_x        tau_y        tau_z
    1     1.000000     0.000000     1.000000     0.000000     0.000000     0.000000     0.000000     0.000000
 
 Subroutine IBZKPT returns following result:
 ===========================================
 
 Found      1 irreducible k-points:
 
 Following reciprocal coordinates:
            Coordinates               Weight
  0.000000  0.000000  0.000000      1.000000
 
 Following cartesian coordinates:
            Coordinates               Weight
  0.000000  0.000000  0.000000      1.000000
 


--------------------------------------------------------------------------------------------------------




 Dimension of arrays:
   k-points           NKPTS =      1   k-points in BZ     NKDIM =      1   number of bands    NBANDS=    634
   number of dos      NEDOS =    301   number of ions     NIONS =     96
   non local maximal  LDIM  =      6   non local SUM 2l+1 LMDIM =     18
   total plane-waves  NPLWV = 345600
   max r-space proj   IRMAX =   1932   max aug-charges    IRDMAX=   5576
   dimension x,y,z NGX =    36 NGY =   60 NGZ =  160
   dimension x,y,z NGXF=    72 NGYF=  120 NGZF=  320
   support grid    NGXF=    72 NGYF=  120 NGZF=  320
   ions per type =              48  48
   NGX,Y,Z   is equivalent  to a cutoff of   9.53,  8.86,  9.12 a.u.
   NGXF,Y,Z  is equivalent  to a cutoff of  19.06, 17.72, 18.25 a.u.

 SYSTEM =  "Millerite NiS"                         
 POSCAR =  Type_048 Type_148                       

 Startparameter for this run:
   NWRITE =      2    write-flag & timer
   PREC   = normal    normal or accurate (medium, high low for compatibility)
   ISTART =      0    job   : 0-new  1-cont  2-samecut
   ICHARG =      2    charge: 1-file 2-atom 10-const
   ISPIN  =      1    spin polarized calculation?
   LNONCOLLINEAR =      F non collinear calculations
   LSORBIT =      F    spin-orbit coupling
   INIWAV =      1    electr: 0-lowe 1-rand  2-diag
   LASPH  =      F    aspherical Exc in radial PAW
   METAGGA=      F    non-selfconsistent MetaGGA calc.

 Electronic Relaxation 1
   ENCUT  =  450.0 eV  33.07 Ry    5.75 a.u.  10.86 19.47 50.43*2*pi/ulx,y,z
   ENINI  =  450.0     initial cutoff
   ENAUG  =  703.4 eV  augmentation charge cutoff
   NELM   =    100;   NELMIN=  2; NELMDL= -5     # of ELM steps 
   EDIFF  = 0.1E-03   stopping-criterion for ELM
   LREAL  =      T    real-space projection
   NLSPLINE    = F    spline interpolate recip. space projectors
   LCOMPAT=      F    compatible to vasp.4.4
   GGA_COMPAT  = T    GGA compatible to vasp.4.4-vasp.4.6
   LMAXPAW     = -100 max onsite density
   LMAXMIX     =    2 max onsite mixed and CHGCAR
   VOSKOWN=      0    Vosko Wilk Nusair interpolation
   ROPT   =   -0.00050  -0.00050
 Ionic relaxation
   EDIFFG = 0.1E-02   stopping-criterion for IOM
   NSW    =      0    number of steps for IOM
   NBLOCK =      1;   KBLOCK =      1    inner block; outer block 
   IBRION =     -1    ionic relax: 0-MD 1-quasi-New 2-CG
   NFREE  =      0    steps in history (QN), initial steepest desc. (CG)
   ISIF   =      2    stress and relaxation
   IWAVPR =     10    prediction:  0-non 1-charg 2-wave 3-comb
   ISYM   =      2    0-nonsym 1-usesym 2-fastsym
   LCORR  =      T    Harris-Foulkes like correction to forces

   POTIM  = 0.5000    time-step for ionic-motion
   TEIN   =    0.0    initial temperature
   TEBEG  =    0.0;   TEEND  =   0.0 temperature during run
   SMASS  =  -3.00    Nose mass-parameter (am)
   estimated Nose-frequenzy (Omega)   =  0.10E-29 period in steps =****** mass=  -0.901E-27a.u.
   SCALEE = 1.0000    scale energy and forces
   NPACO  =    256;   APACO  = 16.0  distance and # of slots for P.C.
   PSTRESS=    0.0 pullay stress

  Mass of Ions in am
   POMASS =  58.69 32.07
  Ionic Valenz
   ZVAL   =  16.00  6.00
  Atomic Wigner-Seitz radii
   RWIGS  =  -1.00 -1.00
  virtual crystal weights 
   VCA    =   1.00  1.00
   NELECT =    1056.0000    total number of electrons
   NUPDOWN=      -1.0000    fix difference up-down

 DOS related values:
   EMIN   =  10.00;   EMAX   =-10.00  energy-range for DOS
   EFERMI =   0.00
   ISMEAR =     0;   SIGMA  =   0.20  broadening in eV -4-tet -1-fermi 0-gaus

 Electronic relaxation 2 (details)
   IALGO  =     38    algorithm
   LDIAG  =      T    sub-space diagonalisation (order eigenvalues)
   LSUBROT=      F    optimize rotation matrix (better conditioning)
   TURBO    =      0    0=normal 1=particle mesh
   IRESTART =      0    0=no restart 2=restart with 2 vectors
   NREBOOT  =      0    no. of reboots
   NMIN     =      0    reboot dimension
   EREF     =   0.00    reference energy to select bands
   IMIX   =      4    mixing-type and parameters
     AMIX     =   0.40;   BMIX     =  1.00
     AMIX_MAG =   1.60;   BMIX_MAG =  1.00
     AMIN     =   0.10
     WC   =   100.;   INIMIX=   1;  MIXPRE=   1;  MAXMIX= -45

 Intra band minimization:
   WEIMIN = 0.0000     energy-eigenvalue tresh-hold
   EBREAK =  0.39E-07  absolut break condition
   DEPER  =   0.30     relativ break condition  

   TIME   =   0.40     timestep for ELM

  volume/ion in A,a.u.               =      21.09       142.33
  Fermi-wavevector in a.u.,A,eV,Ry     =   1.317777  2.490237 23.626996  1.736535
  Thomas-Fermi vector in A             =   2.447794
 
 Write flags
   LWAVE        =      F    write WAVECAR
   LDOWNSAMPLE  =      F    k-point downsampling of WAVECAR
   LCHARG       =      F    write CHGCAR
   LVTOT        =      F    write LOCPOT, total local potential
   LVHAR        =      F    write LOCPOT, Hartree potential only
   LELF         =      F    write electronic localiz. function (ELF)
   LORBIT       =      0    0 simple, 1 ext, 2 COOP (PROOUT), +10 PAW based schemes


 Dipole corrections
   LMONO  =      F    monopole corrections only (constant potential shift)
   LDIPOL =      F    correct potential (dipole corrections)
   IDIPOL =      0    1-x, 2-y, 3-z, 4-all directions 
   EPSILON=  1.0000000 bulk dielectric constant

 Exchange correlation treatment:
   GGA     =    --    GGA type
   LEXCH   =     8    internal setting for exchange type
   VOSKOWN=      0    Vosko Wilk Nusair interpolation
   LHFCALC =     F    Hartree Fock is set to
   LHFONE  =     F    Hartree Fock one center treatment
   AEXX    =    0.0000 exact exchange contribution

 Linear response parameters
   LEPSILON=     F    determine dielectric tensor
   LRPA    =     F    only Hartree local field effects (RPA)
   LNABLA  =     F    use nabla operator in PAW spheres
   LVEL    =     F    velocity operator in full k-point grid
   LINTERFAST=   F  fast interpolation
   KINTER  =     0    interpolate to denser k-point grid
   CSHIFT  =0.1000    complex shift for real part using Kramers Kronig
   OMEGAMAX=  -1.0    maximum frequency
   DEG_THRESHOLD= 0.2000000E-02 threshold for treating states as degnerate
   RTIME   =   -0.100 relaxation time in fs
  (WPLASMAI=    0.000 imaginary part of plasma frequency in eV, 0.658/RTIME)
   DFIELD  = 0.0000000 0.0000000 0.0000000 field for delta impulse in time
 
 Orbital magnetization related:
   ORBITALMAG=     F  switch on orbital magnetization
   LCHIMAG   =     F  perturbation theory with respect to B field
   DQ        =  0.001000  dq finite difference perturbation B field
   LLRAUG    =     F  two centre corrections for induced B field



--------------------------------------------------------------------------------------------------------


 Static calculation
 charge density and potential will be updated during run
 non-spin polarized calculation
 Variant of blocked Davidson
 Davidson routine will perform the subspace rotation
 perform sub-space diagonalisation
    after iterative eigenvector-optimisation
 modified Broyden-mixing scheme, WC =      100.0
 initial mixing is a Kerker type mixing with AMIX =  0.4000 and BMIX =      1.0000
 Hartree-type preconditioning will be used
 using additional bands          106
 real space projection scheme for non local part
 use partial core corrections
 calculate Harris-corrections to forces 
   (improved forces if not selfconsistent)
 use gradient corrections 
 use of overlap-Matrix (Vanderbilt PP)
 Gauss-broadening in eV      SIGMA  =   0.20


--------------------------------------------------------------------------------------------------------


  energy-cutoff  :      450.00
  volume of cell :     2024.71
      direct lattice vectors                 reciprocal lattice vectors
     6.278560000  0.000000000  0.000000000     0.159272190 -0.030138106  0.000000000
     2.092853396 11.060195513  0.000000000     0.000000000  0.090414315  0.000000000
     0.000000000  0.000000000 29.156820000     0.000000000  0.000000000  0.034297293

  length of vectors
     6.278560000 11.256463038 29.156820000     0.162098538  0.090414315  0.034297293


 
 k-points in units of 2pi/SCALE and weight: gamma-point-only calculation. no periodi
   0.00000000  0.00000000  0.00000000       1.000
 
 k-points in reciprocal lattice and weights: gamma-point-only calculation. no periodi
   0.00000000  0.00000000  0.00000000       1.000
 
 position of ions in fractional coordinates (direct lattice) 
   0.25630944  0.01645859  0.15239349
   0.25630944  0.01645859  0.48090702
   0.00630944  0.26645858  0.31665025
   0.01481034  0.26236879  0.63806295
   0.24034543  0.01437872  0.07297898
   0.25630944  0.01645859  0.39411177
   0.00630944  0.26645858  0.22985501
   0.00630944  0.26645858  0.55836854
   0.17682424  0.22039702  0.11721227
   0.19025794  0.21461308  0.43750940
   0.44025794  0.46461308  0.27325263
   0.44025794  0.46461308  0.60176617
   0.75630944  0.01645859  0.15239349
   0.75630944  0.01645859  0.48090702
   0.50630944  0.26645858  0.31665025
   0.51481034  0.26236879  0.63806295
   0.78345930  0.01018459  0.07208664
   0.75630944  0.01645859  0.39411177
   0.50630944  0.26645858  0.22985501
   0.50630944  0.26645858  0.55836854
   0.71277499  0.22203469  0.11873967
   0.69025794  0.21461308  0.43750940
   0.94025794  0.46461308  0.27325263
   0.94025794  0.46461308  0.60176617
   0.25630944  0.51645859  0.15239349
   0.25630944  0.51645859  0.48090702
   0.00630944  0.76645858  0.31665025
   0.01481034  0.76236879  0.63806295
   0.26562789  0.51281460  0.07266546
   0.25630944  0.51645859  0.39411177
   0.00630944  0.76645858  0.22985501
   0.00630944  0.76645858  0.55836854
   0.19025794  0.71461308  0.10899586
   0.19025794  0.71461308  0.43750940
   0.44025794  0.96461308  0.27325263
   0.44025794  0.96461308  0.60176617
   0.75630944  0.51645859  0.15239349
   0.75630944  0.51645859  0.48090702
   0.50630944  0.76645858  0.31665025
   0.51481034  0.76236879  0.63806295
   0.76355210  0.51269333  0.07266823
   0.75630944  0.51645859  0.39411177
   0.50630944  0.76645858  0.22985501
   0.50630944  0.76645858  0.55836854
   0.69025794  0.71461308  0.10899586
   0.69025794  0.71461308  0.43750940
   0.94025794  0.96461308  0.27325263
   0.94025794  0.96461308  0.60176617
   0.46840410  0.16661759  0.38224849
   0.21840410  0.41661758  0.21799173
   0.21840410  0.41661758  0.54650526
   0.46840410  0.16661759  0.16425677
   0.46840410  0.16661759  0.49277030
   0.21840410  0.41661758  0.32851354
   0.21829308  0.39158469  0.64243914
   0.05251161  0.41429508  0.10899586
   0.05251161  0.41429508  0.43750940
   0.30251160  0.16429509  0.27325263
   0.30251160  0.16429509  0.60176617
   0.96671609  0.15156089  0.07090150
   0.96840410  0.16661759  0.38224849
   0.71840410  0.41661758  0.21799173
   0.71840410  0.41661758  0.54650526
   0.96840410  0.16661759  0.16425677
   0.96840410  0.16661759  0.49277030
   0.71840410  0.41661758  0.32851354
   0.71829308  0.39158469  0.64243914
   0.55251161  0.41429508  0.10899586
   0.55251161  0.41429508  0.43750940
   0.80251160  0.16429509  0.27325263
   0.80251160  0.16429509  0.60176617
   0.46808447  0.64227403  0.06816580
   0.46840411  0.66661759  0.38224849
   0.21840411  0.91661758  0.21799173
   0.21840411  0.91661758  0.54650526
   0.46840411  0.66661759  0.16425677
   0.46840411  0.66661759  0.49277030
   0.21840411  0.91661758  0.32851354
   0.21829308  0.89158469  0.64243914
   0.05251161  0.91429508  0.10899586
   0.05251161  0.91429508  0.43750940
   0.30251161  0.66429509  0.27325263
   0.30251161  0.66429509  0.60176617
   0.96822756  0.64152904  0.06830633
   0.96840411  0.66661759  0.38224849
   0.71840411  0.91661758  0.21799173
   0.71840411  0.91661758  0.54650526
   0.96840411  0.66661759  0.16425677
   0.96840411  0.66661759  0.49277030
   0.70489703  0.93803763  0.01637652
   0.71840411  0.91661758  0.32851354
   0.71829308  0.89158469  0.64243914
   0.55251161  0.91429508  0.10899586
   0.55251161  0.91429508  0.43750940
   0.80251161  0.66429509  0.27325263
   0.80251161  0.66429509  0.60176617
 
 position of ions in cartesian coordinates  (Angst):
   1.64369960  0.18203523  4.44330947
   1.64369960  0.18203523 14.02171945
   0.59727294  2.94708402  9.23251446
   0.64208703  2.90185008 18.60388661
   1.53911575  0.15903142  2.12783495
   1.64369960  0.18203523 11.49104605
   0.59727294  2.94708402  6.70184107
   0.59727294  2.94708402 16.28025107
   1.57146028  2.43763416  3.41753708
   1.64369960  2.37366268 12.75638277
   3.73655294  5.13871148  7.96717775
   3.73655294  5.13871148 17.54558776
   4.78297960  0.18203523  4.44330947
   4.78297960  0.18203523 14.02171945
   3.73655294  2.94708402  9.23251446
   3.78136703  2.90185008 18.60388661
   4.94031110  0.11264360  2.10181725
   4.78297960  0.18203523 11.49104605
   3.73655294  2.94708402  6.70184107
   3.73655294  2.94708402 16.28025107
   4.93988659  2.45574707  3.46207129
   4.78297960  2.37366268 12.75638277
   6.87583294  5.13871148  7.96717775
   6.87583294  5.13871148 17.54558776
   2.69012630  5.71213299  4.44330947
   2.69012630  5.71213299 14.02171945
   1.64369963  8.47718178  9.23251446
   1.68851373  8.43194784 18.60388661
   2.74100640  5.67182976  2.11869372
   2.69012630  5.71213299 11.49104605
   1.64369963  8.47718178  6.70184107
   1.64369963  8.47718178 16.28025107
   2.69012630  7.90376044  3.17797276
   2.69012630  7.90376044 12.75638277
   4.78297964 10.66880924  7.96717775
   4.78297964 10.66880924 17.54558776
   5.82940630  5.71213299  4.44330947
   5.82940630  5.71213299 14.02171945
   4.78297963  8.47718178  9.23251446
   4.82779373  8.43194784 18.60388661
   5.86699967  5.67048851  2.11877460
   5.82940630  5.71213299 11.49104605
   4.78297963  8.47718178  6.70184107
   4.78297963  8.47718178 16.28025107
   5.82940630  7.90376044  3.17797276
   5.82940630  7.90376044 12.75638277
   7.92225964 10.66880924  7.96717775
   7.92225964 10.66880924 17.54558776
   3.28960946  1.84282308 11.14515053
   2.24318279  4.60787188  6.35594552
   2.24318279  4.60787188 15.93435552
   3.28960946  1.84282308  4.78920499
   3.28960946  1.84282308 14.36761500
   2.24318279  4.60787188  9.57841001
   2.19009554  4.33100319 18.73148225
   1.19675613  4.58218457  3.17797276
   1.19675613  4.58218457 12.75638277
   2.24318279  1.81713577  7.96717775
   2.24318279  1.81713577 17.54558776
   6.38677967  1.67629302  2.06726231
   6.42888946  1.84282308 11.14515053
   5.38246279  4.60787188  6.35594552
   5.38246279  4.60787188 15.93435552
   6.42888946  1.84282308  4.78920499
   6.42888946  1.84282308 14.36761500
   5.38246279  4.60787188  9.57841001
   5.32937554  4.33100319 18.73148225
   4.33603613  4.58218457  3.17797276
   4.33603613  4.58218457 12.75638277
   5.38246279  1.81713577  7.96717775
   5.38246279  1.81713577 17.54558776
   4.28308179  7.10367630  1.98749799
   4.33603616  7.37292083 11.14515053
   3.28960949 10.13796963  6.35594552
   3.28960949 10.13796963 15.93435552
   4.33603616  7.37292083  4.78920499
   4.33603616  7.37292083 14.36761500
   3.28960949 10.13796963  9.57841001
   3.23652224  9.86110094 18.73148225
   2.24318282 10.11228233  3.17797276
   2.24318282 10.11228233 12.75638277
   3.28960949  7.34723353  7.96717775
   3.28960949  7.34723353 17.54558776
   7.42170104  7.09543662  1.99159546
   7.47531616  7.37292083 11.14515053
   6.42888949 10.13796963  6.35594552
   6.42888949 10.13796963 15.93435552
   7.47531616  7.37292083  4.78920499
   7.47531616  7.37292083 14.36761500
   6.38891352 10.37487957  0.47748719
   6.42888949 10.13796963  9.57841001
   6.37580224  9.86110094 18.73148225
   5.38246282 10.11228233  3.17797276
   5.38246282 10.11228233 12.75638277
   6.42888949  7.34723353  7.96717775
   6.42888949  7.34723353 17.54558776
 


--------------------------------------------------------------------------------------------------------


 use parallel FFT for orbitals z direction half grid
 k-point  1 :   0.0000 0.0000 0.0000  plane waves:   21935

 maximum and minimum number of plane-waves per node :      3657     3654

 maximum number of plane-waves:     21935
 maximum index in each direction: 
   IXMAX=   10   IYMAX=   19   IZMAX=   50
   IXMIN=  -10   IYMIN=  -19   IZMIN=    0


 real space projection operators:
  total allocation   :      15879.34 KBytes
  max/ min on nodes  :       2666.55       2631.80


 parallel 3D FFT for wavefunctions:
    minimum data exchange during FFTs selected (reduces bandwidth)
 parallel 3D FFT for charge:
    minimum data exchange during FFTs selected (reduces bandwidth)


 total amount of memory used by VASP MPI-rank0    76708. kBytes
=======================================================================

   base      :      30000. kBytes
   nonlr-proj:       3248. kBytes
   fftplans  :       8997. kBytes
   grid      :      15269. kBytes
   one-center:        124. kBytes
   wavefun   :      19070. kBytes
 
     INWAV:  cpu time    0.0000: real time    0.0000
 Broyden mixing: mesh for mixing (old mesh)
   NGX = 21   NGY = 39   NGZ =101
  (NGX  = 72   NGY  =120   NGZ  =320)
  gives a total of  82719 points

 initial charge density was supplied:
 charge density of overlapping atoms calculated
 number of electron    1056.0000000 magnetization 
 keeping initial charge density in first step


--------------------------------------------------------------------------------------------------------


 Maximum index for non-local projection operator          324
 Maximum index for augmentation-charges          474 (set IRDMAX)


--------------------------------------------------------------------------------------------------------


 First call to EWALD:  gamma=   0.140
 Maximum number of real-space cells 5x 3x 1
 Maximum number of reciprocal cells 2x 2x 6

    FEWALD:  cpu time    0.0117: real time    0.0117


--------------------------------------- Iteration      1(   1)  ---------------------------------------


    POTLOK:  cpu time    0.2852: real time    0.2852
    SETDIJ:  cpu time    0.0230: real time    0.0230
     EDDAV:  cpu time   10.6503: real time   10.6529
       DOS:  cpu time    0.0019: real time    0.0019
    --------------------------------------------
      LOOP:  cpu time   10.9604: real time   10.9630

 eigenvalue-minimisations  :  1500
 total energy-change (2. order) : 0.1472134E+05  (-0.6816526E+05)
 number of electron    1056.0000000 magnetization 
 augmentation part     1056.0000000 magnetization 

 Free energy of the ion-electron system (eV)
  ---------------------------------------------------
  alpha Z        PSCENC =      3266.22189490
  Ewald energy   TEWEN  =    348035.06200535
  -Hartree energ DENC   =   -514000.53863252
  -exchange      EXHF   =         0.00000000
  -V(xc)+E(xc)   XCENC  =      4898.61656638
  PAW double counting   =    150306.04444553  -156855.34918313
  entropy T*S    EENTRO =        -0.46324508
  eigenvalues    EBANDS =     -2265.06205031
  atomic energy  EATOM  =    181336.80673834
  Solvation  Ediel_sol  =         0.00000000
  ---------------------------------------------------
  free energy    TOTEN  =     14721.33853948 eV

  energy without entropy =    14721.80178455  energy(sigma->0) =    14721.57016201


--------------------------------------------------------------------------------------------------------




--------------------------------------- Iteration      1(   2)  ---------------------------------------


     EDDAV:  cpu time    9.5886: real time    9.5903
       DOS:  cpu time    0.0014: real time    0.0014
    --------------------------------------------
      LOOP:  cpu time    9.5900: real time    9.5917

 eigenvalue-minimisations  :  1284
 total energy-change (2. order) :-0.1351071E+05  (-0.1306578E+05)
 number of electron    1056.0000000 magnetization 
 augmentation part     1056.0000000 magnetization 

 Free energy of the ion-electron system (eV)
  ---------------------------------------------------
  alpha Z        PSCENC =      3266.22189490
  Ewald energy   TEWEN  =    348035.06200535
  -Hartree energ DENC   =   -514000.53863252
  -exchange      EXHF   =         0.00000000
  -V(xc)+E(xc)   XCENC  =      4898.61656638
  PAW double counting   =    150306.04444553  -156855.34918313
  entropy T*S    EENTRO =        -0.71310002
  eigenvalues    EBANDS =    -15775.52487380
  atomic energy  EATOM  =    181336.80673834
  Solvation  Ediel_sol  =         0.00000000
  ---------------------------------------------------
  free energy    TOTEN  =      1210.62586105 eV

  energy without entropy =     1211.33896106  energy(sigma->0) =     1210.98241105


--------------------------------------------------------------------------------------------------------




--------------------------------------- Iteration      1(   3)  ---------------------------------------


     EDDAV:  cpu time   10.3993: real time   10.4020
       DOS:  cpu time    0.0014: real time    0.0014
    --------------------------------------------
      LOOP:  cpu time   10.4007: real time   10.4034

 eigenvalue-minimisations  :  1448
 total energy-change (2. order) :-0.1617382E+04  (-0.1493572E+04)
 number of electron    1056.0000000 magnetization 
 augmentation part     1056.0000000 magnetization 

 Free energy of the ion-electron system (eV)
  ---------------------------------------------------
  alpha Z        PSCENC =      3266.22189490
  Ewald energy   TEWEN  =    348035.06200535
  -Hartree energ DENC   =   -514000.53863252
  -exchange      EXHF   =         0.00000000
  -V(xc)+E(xc)   XCENC  =      4898.61656638
  PAW double counting   =    150306.04444553  -156855.34918313
  entropy T*S    EENTRO =        -0.83413988
  eigenvalues    EBANDS =    -17392.78612409
  atomic energy  EATOM  =    181336.80673834
  Solvation  Ediel_sol  =         0.00000000
  ---------------------------------------------------
  free energy    TOTEN  =      -406.75642911 eV

  energy without entropy =     -405.92228922  energy(sigma->0) =     -406.33935917


--------------------------------------------------------------------------------------------------------




--------------------------------------- Iteration      1(   4)  ---------------------------------------


     EDDAV:  cpu time   10.4378: real time   10.4404
       DOS:  cpu time    0.0015: real time    0.0015
    --------------------------------------------
      LOOP:  cpu time   10.4392: real time   10.4419

 eigenvalue-minimisations  :  1464
 total energy-change (2. order) :-0.1326678E+03  (-0.1300374E+03)
 number of electron    1056.0000000 magnetization 
 augmentation part     1056.0000000 magnetization 

 Free energy of the ion-electron system (eV)
  ---------------------------------------------------
  alpha Z        PSCENC =      3266.22189490
  Ewald energy   TEWEN  =    348035.06200535
  -Hartree energ DENC   =   -514000.53863252
  -exchange      EXHF   =         0.00000000
  -V(xc)+E(xc)   XCENC  =      4898.61656638
  PAW double counting   =    150306.04444553  -156855.34918313
  entropy T*S    EENTRO =        -0.90360140
  eigenvalues    EBANDS =    -17525.38444618
  atomic energy  EATOM  =    181336.80673834
  Solvation  Ediel_sol  =         0.00000000
  ---------------------------------------------------
  free energy    TOTEN  =      -539.42421271 eV

  energy without entropy =     -538.52061132  energy(sigma->0) =     -538.97241201


--------------------------------------------------------------------------------------------------------




--------------------------------------- Iteration      1(   5)  ---------------------------------------


     EDDAV:  cpu time   11.3180: real time   11.3208
       DOS:  cpu time    0.0016: real time    0.0016
    CHARGE:  cpu time    0.2917: real time    0.2917
    MIXING:  cpu time    0.0084: real time    0.0084
    --------------------------------------------
      LOOP:  cpu time   11.6197: real time   11.6225

 eigenvalue-minimisations  :  1624
 total energy-change (2. order) :-0.5158787E+01  (-0.5146370E+01)
 number of electron    1056.0000203 magnetization 
 augmentation part      383.0701120 magnetization 

 Broyden mixing:
  rms(total) = 0.10043E+02    rms(broyden)= 0.10023E+02
  rms(prec ) = 0.10277E+02
  weight for this iteration     100.00

 Free energy of the ion-electron system (eV)
  ---------------------------------------------------
  alpha Z        PSCENC =      3266.22189490
  Ewald energy   TEWEN  =    348035.06200535
  -Hartree energ DENC   =   -514000.53863252
  -exchange      EXHF   =         0.00000000
  -V(xc)+E(xc)   XCENC  =      4898.61656638
  PAW double counting   =    150306.04444553  -156855.34918313
  entropy T*S    EENTRO =        -0.90919212
  eigenvalues    EBANDS =    -17530.53764213
  atomic energy  EATOM  =    181336.80673834
  Solvation  Ediel_sol  =         0.00000000
  ---------------------------------------------------
  free energy    TOTEN  =      -544.58299939 eV

  energy without entropy =     -543.67380727  energy(sigma->0) =     -544.12840333


--------------------------------------------------------------------------------------------------------




--------------------------------------- Iteration      1(   6)  ---------------------------------------


    POTLOK:  cpu time    0.2786: real time    0.2788
    SETDIJ:  cpu time    0.0230: real time    0.0230
     EDDAV:  cpu time   11.3683: real time   11.3705
       DOS:  cpu time    0.0014: real time    0.0014
    CHARGE:  cpu time    0.2763: real time    0.2763
    MIXING:  cpu time    0.0089: real time    0.0090
    --------------------------------------------
      LOOP:  cpu time   11.9565: real time   11.9590

 eigenvalue-minimisations  :  1632
 total energy-change (2. order) :-0.1711184E+03  (-0.1214345E+03)
 number of electron    1056.0000215 magnetization 
 augmentation part      450.4576907 magnetization 

 Broyden mixing:
  rms(total) = 0.21447E+02    rms(broyden)= 0.21440E+02
  rms(prec ) = 0.24047E+02
  weight for this iteration     100.00

 eigenvalues of (default mixing * dielectric matrix)
  average eigenvalue GAMMA=   0.1701
  0.1701

 Free energy of the ion-electron system (eV)
  ---------------------------------------------------
  alpha Z        PSCENC =      3266.22189490
  Ewald energy   TEWEN  =    348035.06200535
  -Hartree energ DENC   =   -509905.76572846
  -exchange      EXHF   =         0.00000000
  -V(xc)+E(xc)   XCENC  =      4799.22406497
  PAW double counting   =    154706.78402625  -160946.18842665
  entropy T*S    EENTRO =        -0.90446000
  eigenvalues    EBANDS =    -22006.94149817
  atomic energy  EATOM  =    181336.80673834
  Solvation  Ediel_sol  =         0.00000000
  ---------------------------------------------------
  free energy    TOTEN  =      -715.70138347 eV

  energy without entropy =     -714.79692347  energy(sigma->0) =     -715.24915347


--------------------------------------------------------------------------------------------------------




--------------------------------------- Iteration      1(   7)  ---------------------------------------


    POTLOK:  cpu time    0.2776: real time    0.2776
    SETDIJ:  cpu time    0.0233: real time    0.0233
     EDDAV:  cpu time   11.0826: real time   11.0845
       DOS:  cpu time    0.0014: real time    0.0014
    CHARGE:  cpu time    0.2789: real time    0.2789
    MIXING:  cpu time    0.0093: real time    0.0093
    --------------------------------------------
      LOOP:  cpu time   11.6730: real time   11.6750

 eigenvalue-minimisations  :  1568
 total energy-change (2. order) : 0.7777227E+02  (-0.3528036E+02)
 number of electron    1056.0000153 magnetization 
 augmentation part      452.3865164 magnetization 

 Broyden mixing:
  rms(total) = 0.14880E+02    rms(broyden)= 0.14878E+02
  rms(prec ) = 0.17081E+02
  weight for this iteration     100.00

 eigenvalues of (default mixing * dielectric matrix)
  average eigenvalue GAMMA=   0.1985
  0.1985  0.1985

 Free energy of the ion-electron system (eV)
  ---------------------------------------------------
  alpha Z        PSCENC =      3266.22189490
  Ewald energy   TEWEN  =    348035.06200535
  -Hartree energ DENC   =   -511489.79036161
  -exchange      EXHF   =         0.00000000
  -V(xc)+E(xc)   XCENC  =      4816.15165236
  PAW double counting   =    157881.50289728  -164215.89777957
  entropy T*S    EENTRO =        -0.79530090
  eigenvalues    EBANDS =    -20267.19085545
  atomic energy  EATOM  =    181336.80673834
  Solvation  Ediel_sol  =         0.00000000
  ---------------------------------------------------
  free energy    TOTEN  =      -637.92910929 eV

  energy without entropy =     -637.13380839  energy(sigma->0) =     -637.53145884


--------------------------------------------------------------------------------------------------------




--------------------------------------- Iteration      1(   8)  ---------------------------------------


    POTLOK:  cpu time    0.2737: real time    0.2739
    SETDIJ:  cpu time    0.0231: real time    0.0231
     EDDAV:  cpu time   12.0393: real time   12.0415
       DOS:  cpu time    0.0015: real time    0.0015
    CHARGE:  cpu time    0.2804: real time    0.2804
    MIXING:  cpu time    0.0096: real time    0.0096
    --------------------------------------------
      LOOP:  cpu time   12.6276: real time   12.6299

 eigenvalue-minimisations  :  1758
 total energy-change (2. order) : 0.9524750E+01  (-0.1522308E+02)
 number of electron    1056.0000162 magnetization 
 augmentation part      432.4658441 magnetization 

 Broyden mixing:
  rms(total) = 0.14149E+02    rms(broyden)= 0.14145E+02
  rms(prec ) = 0.18467E+02
  weight for this iteration     100.00

 eigenvalues of (default mixing * dielectric matrix)
  average eigenvalue GAMMA=   0.2228
  0.2870  0.2870  0.0944

 Free energy of the ion-electron system (eV)
  ---------------------------------------------------
  alpha Z        PSCENC =      3266.22189490
  Ewald energy   TEWEN  =    348035.06200535
  -Hartree energ DENC   =   -511928.45423309
  -exchange      EXHF   =         0.00000000
  -V(xc)+E(xc)   XCENC  =      4835.93154262
  PAW double counting   =    161380.01827040  -167818.93087822
  entropy T*S    EENTRO =        -1.30108438
  eigenvalues    EBANDS =    -19733.75861535
  atomic energy  EATOM  =    181336.80673834
  Solvation  Ediel_sol  =         0.00000000
  ---------------------------------------------------
  free energy    TOTEN  =      -628.40435944 eV

  energy without entropy =     -627.10327506  energy(sigma->0) =     -627.75381725


--------------------------------------------------------------------------------------------------------




--------------------------------------- Iteration      1(   9)  ---------------------------------------


    POTLOK:  cpu time    0.2760: real time    0.2760
    SETDIJ:  cpu time    0.0229: real time    0.0229
     EDDAV:  cpu time   12.3238: real time   12.3270
       DOS:  cpu time    0.0014: real time    0.0014
    CHARGE:  cpu time    0.2825: real time    0.2825
    MIXING:  cpu time    0.0097: real time    0.0097
    --------------------------------------------
      LOOP:  cpu time   12.9163: real time   12.9195

 eigenvalue-minimisations  :  1760
 total energy-change (2. order) : 0.1020808E+03  (-0.1803287E+02)
 number of electron    1056.0000168 magnetization 
 augmentation part      428.2330236 magnetization 

 Broyden mixing:
  rms(total) = 0.11147E+02    rms(broyden)= 0.11140E+02
  rms(prec ) = 0.12040E+02
  weight for this iteration     100.00

 eigenvalues of (default mixing * dielectric matrix)
  average eigenvalue GAMMA=   0.3415
  0.5643  0.5643  0.1563  0.0812

 Free energy of the ion-electron system (eV)
  ---------------------------------------------------
  alpha Z        PSCENC =      3266.22189490
  Ewald energy   TEWEN  =    348035.06200535
  -Hartree energ DENC   =   -511973.68761160
  -exchange      EXHF   =         0.00000000
  -V(xc)+E(xc)   XCENC  =      4845.32800366
  PAW double counting   =    164039.83106427  -170537.24472576
  entropy T*S    EENTRO =        -1.17963229
  eigenvalues    EBANDS =    -19537.46128330
  atomic energy  EATOM  =    181336.80673834
  Solvation  Ediel_sol  =         0.00000000
  ---------------------------------------------------
  free energy    TOTEN  =      -526.32354643 eV

  energy without entropy =     -525.14391414  energy(sigma->0) =     -525.73373028


--------------------------------------------------------------------------------------------------------




--------------------------------------- Iteration      1(  10)  ---------------------------------------


    POTLOK:  cpu time    0.2763: real time    0.2766
    SETDIJ:  cpu time    0.0229: real time    0.0229
     EDDAV:  cpu time   12.5485: real time   12.5503
       DOS:  cpu time    0.0014: real time    0.0014
    CHARGE:  cpu time    0.2835: real time    0.2835
    MIXING:  cpu time    0.0102: real time    0.0103
    --------------------------------------------
      LOOP:  cpu time   13.1429: real time   13.1450

 eigenvalue-minimisations  :  1856
 total energy-change (2. order) :-0.2737558E+02  (-0.2419050E+02)
 number of electron    1056.0000250 magnetization 
 augmentation part      412.2646647 magnetization 

 Broyden mixing:
  rms(total) = 0.10244E+02    rms(broyden)= 0.10242E+02
  rms(prec ) = 0.12568E+02
  weight for this iteration     100.00

 eigenvalues of (default mixing * dielectric matrix)
  average eigenvalue GAMMA=   0.3675
  0.8929  0.3855  0.3268  0.1433  0.0892

 Free energy of the ion-electron system (eV)
  ---------------------------------------------------
  alpha Z        PSCENC =      3266.22189490
  Ewald energy   TEWEN  =    348035.06200535
  -Hartree energ DENC   =   -512567.46391223
  -exchange      EXHF   =         0.00000000
  -V(xc)+E(xc)   XCENC  =      4857.90773687
  PAW double counting   =    171242.14776606  -177841.54979750
  entropy T*S    EENTRO =        -1.97928832
  eigenvalues    EBANDS =    -18880.85227373
  atomic energy  EATOM  =    181336.80673834
  Solvation  Ediel_sol  =         0.00000000
  ---------------------------------------------------
  free energy    TOTEN  =      -553.69913026 eV

  energy without entropy =     -551.71984194  energy(sigma->0) =     -552.70948610


--------------------------------------------------------------------------------------------------------




--------------------------------------- Iteration      1(  11)  ---------------------------------------


    POTLOK:  cpu time    0.2763: real time    0.2763
    SETDIJ:  cpu time    0.0230: real time    0.0230
     EDDAV:  cpu time   12.0986: real time   12.1004
       DOS:  cpu time    0.0014: real time    0.0014
    CHARGE:  cpu time    0.5381: real time    0.5381
    MIXING:  cpu time    0.0110: real time    0.0110
    --------------------------------------------
      LOOP:  cpu time   12.9483: real time   12.9502

 eigenvalue-minimisations  :  1768
 total energy-change (2. order) :-0.1308674E+02  (-0.1642277E+02)
 number of electron    1055.9999963 magnetization 
 augmentation part      409.8262760 magnetization 

 Broyden mixing:
  rms(total) = 0.11746E+02    rms(broyden)= 0.11740E+02
  rms(prec ) = 0.14085E+02
  weight for this iteration     100.00

 eigenvalues of (default mixing * dielectric matrix)
  average eigenvalue GAMMA=   0.3742
  1.1455  0.3770  0.3770  0.1305  0.1305  0.0849

 Free energy of the ion-electron system (eV)
  ---------------------------------------------------
  alpha Z        PSCENC =      3266.22189490
  Ewald energy   TEWEN  =    348035.06200535
  -Hartree energ DENC   =   -512947.87355969
  -exchange      EXHF   =         0.00000000
  -V(xc)+E(xc)   XCENC  =      4855.12807226
  PAW double counting   =    174850.69246071  -181471.37209355
  entropy T*S    EENTRO =        -1.69955456
  eigenvalues    EBANDS =    -18489.75183703
  atomic energy  EATOM  =    181336.80673834
  Solvation  Ediel_sol  =         0.00000000
  ---------------------------------------------------
  free energy    TOTEN  =      -566.78587326 eV

  energy without entropy =     -565.08631870  energy(sigma->0) =     -565.93609598


--------------------------------------------------------------------------------------------------------




--------------------------------------- Iteration      1(  12)  ---------------------------------------


    POTLOK:  cpu time    0.2706: real time    0.2706
    SETDIJ:  cpu time    0.0230: real time    0.0230
     EDDAV:  cpu time   11.9461: real time   11.9485
       DOS:  cpu time    0.0015: real time    0.0015
    CHARGE:  cpu time    0.2803: real time    0.2804
    MIXING:  cpu time    0.0107: real time    0.0107
    --------------------------------------------
      LOOP:  cpu time   12.5322: real time   12.5348

 eigenvalue-minimisations  :  1736
 total energy-change (2. order) : 0.5362725E+02  (-0.8491781E+01)
 number of electron    1056.0000222 magnetization 
 augmentation part      420.0608880 magnetization 

 Broyden mixing:
  rms(total) = 0.55286E+01    rms(broyden)= 0.55228E+01
  rms(prec ) = 0.66046E+01
  weight for this iteration     100.00

 eigenvalues of (default mixing * dielectric matrix)
  average eigenvalue GAMMA=   0.3980
  1.2894  0.3936  0.3936  0.3604  0.0867  0.1311  0.1311

 Free energy of the ion-electron system (eV)
  ---------------------------------------------------
  alpha Z        PSCENC =      3266.22189490
  Ewald energy   TEWEN  =    348035.06200535
  -Hartree energ DENC   =   -512578.78675322
  -exchange      EXHF   =         0.00000000
  -V(xc)+E(xc)   XCENC  =      4854.20249482
  PAW double counting   =    177259.47910020  -183900.81349101
  entropy T*S    EENTRO =        -0.73711105
  eigenvalues    EBANDS =    -18784.59349899
  atomic energy  EATOM  =    181336.80673834
  Solvation  Ediel_sol  =         0.00000000
  ---------------------------------------------------
  free energy    TOTEN  =      -513.15862066 eV

  energy without entropy =     -512.42150961  energy(sigma->0) =     -512.79006513


--------------------------------------------------------------------------------------------------------




--------------------------------------- Iteration      1(  13)  ---------------------------------------


    POTLOK:  cpu time    0.2709: real time    0.2709
    SETDIJ:  cpu time    0.0230: real time    0.0230
     EDDAV:  cpu time   11.8886: real time   11.8908
       DOS:  cpu time    0.0015: real time    0.0014
    CHARGE:  cpu time    0.2793: real time    0.2793
    MIXING:  cpu time    0.0111: real time    0.0111
    --------------------------------------------
      LOOP:  cpu time   12.4743: real time   12.4766

 eigenvalue-minimisations  :  1720
 total energy-change (2. order) : 0.1073272E+02  (-0.1411352E+02)
 number of electron    1056.0000111 magnetization 
 augmentation part      416.6981029 magnetization 

 Broyden mixing:
  rms(total) = 0.67761E+01    rms(broyden)= 0.67668E+01
  rms(prec ) = 0.71571E+01
  weight for this iteration     100.00

 eigenvalues of (default mixing * dielectric matrix)
  average eigenvalue GAMMA=   0.4303
  1.6442  0.4628  0.3769  0.3769  0.2268  0.1531  0.0870  0.1148

 Free energy of the ion-electron system (eV)
  ---------------------------------------------------
  alpha Z        PSCENC =      3266.22189490
  Ewald energy   TEWEN  =    348035.06200535
  -Hartree energ DENC   =   -512681.42274432
  -exchange      EXHF   =         0.00000000
  -V(xc)+E(xc)   XCENC  =      4858.17874319
  PAW double counting   =    179331.76180013  -185997.29084186
  entropy T*S    EENTRO =        -1.37972038
  eigenvalues    EBANDS =    -18650.36377509
  atomic energy  EATOM  =    181336.80673834
  Solvation  Ediel_sol  =         0.00000000
  ---------------------------------------------------
  free energy    TOTEN  =      -502.42589974 eV

  energy without entropy =     -501.04617936  energy(sigma->0) =     -501.73603955


--------------------------------------------------------------------------------------------------------




--------------------------------------- Iteration      1(  14)  ---------------------------------------


    POTLOK:  cpu time    0.2731: real time    0.2732
    SETDIJ:  cpu time    0.0229: real time    0.0229
     EDDAV:  cpu time   12.0519: real time   12.0540
       DOS:  cpu time    0.0016: real time    0.0016
    CHARGE:  cpu time    0.2854: real time    0.2855
    MIXING:  cpu time    0.0171: real time    0.0171
    --------------------------------------------
      LOOP:  cpu time   12.6521: real time   12.6544

 eigenvalue-minimisations  :  1744
 total energy-change (2. order) : 0.2973823E+01  (-0.6726275E+01)
 number of electron    1056.0000164 magnetization 
 augmentation part      416.0128262 magnetization 

 Broyden mixing:
  rms(total) = 0.63644E+01    rms(broyden)= 0.63594E+01
  rms(prec ) = 0.74591E+01
  weight for this iteration     100.00

 eigenvalues of (default mixing * dielectric matrix)
  average eigenvalue GAMMA=   0.3977
  1.6566  0.4152  0.3747  0.3747  0.2811  0.1621  0.0866  0.1144  0.1144

 Free energy of the ion-electron system (eV)
  ---------------------------------------------------
  alpha Z        PSCENC =      3266.22189490
  Ewald energy   TEWEN  =    348035.06200535
  -Hartree energ DENC   =   -512752.61529841
  -exchange      EXHF   =         0.00000000
  -V(xc)+E(xc)   XCENC  =      4859.49608456
  PAW double counting   =    181764.70276376  -188444.30462075
  entropy T*S    EENTRO =        -1.10660643
  eigenvalues    EBANDS =    -18563.71503799
  atomic energy  EATOM  =    181336.80673834
  Solvation  Ediel_sol  =         0.00000000
  ---------------------------------------------------
  free energy    TOTEN  =      -499.45207666 eV

  energy without entropy =     -498.34547023  energy(sigma->0) =     -498.89877344


--------------------------------------------------------------------------------------------------------




--------------------------------------- Iteration      1(  15)  ---------------------------------------


    POTLOK:  cpu time    0.3865: real time    0.3866
    SETDIJ:  cpu time    0.0318: real time    0.0318
     EDDAV:  cpu time   11.8807: real time   11.8829
       DOS:  cpu time    0.0015: real time    0.0015
    CHARGE:  cpu time    0.2858: real time    0.2859
    MIXING:  cpu time    0.0120: real time    0.0120
    --------------------------------------------
      LOOP:  cpu time   12.5983: real time   12.6006

 eigenvalue-minimisations  :  1736
 total energy-change (2. order) : 0.1345021E+02  (-0.2938245E+01)
 number of electron    1056.0000170 magnetization 
 augmentation part      416.7451136 magnetization 

 Broyden mixing:
  rms(total) = 0.30579E+01    rms(broyden)= 0.30553E+01
  rms(prec ) = 0.33945E+01
  weight for this iteration     100.00

 eigenvalues of (default mixing * dielectric matrix)
  average eigenvalue GAMMA=   0.3978
  1.6425  0.4700  0.4700  0.3628  0.3628  0.1684  0.1684  0.0867  0.1232  0.1232

 Free energy of the ion-electron system (eV)
  ---------------------------------------------------
  alpha Z        PSCENC =      3266.22189490
  Ewald energy   TEWEN  =    348035.06200535
  -Hartree energ DENC   =   -512751.06228957
  -exchange      EXHF   =         0.00000000
  -V(xc)+E(xc)   XCENC  =      4859.78663692
  PAW double counting   =    181878.96316001  -188558.08688737
  entropy T*S    EENTRO =        -1.02885494
  eigenvalues    EBANDS =    -18552.66426605
  atomic energy  EATOM  =    181336.80673834
  Solvation  Ediel_sol  =         0.00000000
  ---------------------------------------------------
  free energy    TOTEN  =      -486.00186241 eV

  energy without entropy =     -484.97300747  energy(sigma->0) =     -485.48743494


--------------------------------------------------------------------------------------------------------




--------------------------------------- Iteration      1(  16)  ---------------------------------------


    POTLOK:  cpu time    0.2750: real time    0.2750
    SETDIJ:  cpu time    0.0271: real time    0.0271
     EDDAV:  cpu time   11.7331: real time   11.7351
       DOS:  cpu time    0.0015: real time    0.0015
    CHARGE:  cpu time    0.2891: real time    0.2892
    MIXING:  cpu time    0.0138: real time    0.0138
    --------------------------------------------
      LOOP:  cpu time   12.3395: real time   12.3416

 eigenvalue-minimisations  :  1704
 total energy-change (2. order) : 0.1834163E+01  (-0.1438423E+01)
 number of electron    1056.0000172 magnetization 
 augmentation part      415.8777544 magnetization 

 Broyden mixing:
  rms(total) = 0.25143E+01    rms(broyden)= 0.25106E+01
  rms(prec ) = 0.26238E+01
  weight for this iteration     100.00

 eigenvalues of (default mixing * dielectric matrix)
  average eigenvalue GAMMA=   0.4058
  1.6246  0.6259  0.6259  0.3526  0.3526  0.1977  0.1977  0.0867  0.1581  0.1211
  0.1211

 Free energy of the ion-electron system (eV)
  ---------------------------------------------------
  alpha Z        PSCENC =      3266.22189490
  Ewald energy   TEWEN  =    348035.06200535
  -Hartree energ DENC   =   -512801.55541797
  -exchange      EXHF   =         0.00000000
  -V(xc)+E(xc)   XCENC  =      4860.28049434
  PAW double counting   =    181600.37173565  -188276.21865081
  entropy T*S    EENTRO =        -0.92277239
  eigenvalues    EBANDS =    -18504.21372701
  atomic energy  EATOM  =    181336.80673834
  Solvation  Ediel_sol  =         0.00000000
  ---------------------------------------------------
  free energy    TOTEN  =      -484.16769960 eV

  energy without entropy =     -483.24492721  energy(sigma->0) =     -483.70631340


--------------------------------------------------------------------------------------------------------




--------------------------------------- Iteration      1(  17)  ---------------------------------------


    POTLOK:  cpu time    0.2741: real time    0.2744
    SETDIJ:  cpu time    0.0237: real time    0.0237
     EDDAV:  cpu time   11.6811: real time   11.6838
       DOS:  cpu time    0.0014: real time    0.0014
    CHARGE:  cpu time    0.2869: real time    0.2870
    MIXING:  cpu time    0.0136: real time    0.0136
    --------------------------------------------
      LOOP:  cpu time   12.2809: real time   12.2839

 eigenvalue-minimisations  :  1696
 total energy-change (2. order) : 0.5946453E+00  (-0.6163833E+00)
 number of electron    1056.0000178 magnetization 
 augmentation part      415.4546470 magnetization 

 Broyden mixing:
  rms(total) = 0.20425E+01    rms(broyden)= 0.20414E+01
  rms(prec ) = 0.22521E+01
  weight for this iteration     100.00

 eigenvalues of (default mixing * dielectric matrix)
  average eigenvalue GAMMA=   0.4264
  1.5636  0.8208  0.8208  0.3493  0.3493  0.2780  0.2780  0.1636  0.1636  0.0867
  0.1216  0.1216

 Free energy of the ion-electron system (eV)
  ---------------------------------------------------
  alpha Z        PSCENC =      3266.22189490
  Ewald energy   TEWEN  =    348035.06200535
  -Hartree energ DENC   =   -512818.99282063
  -exchange      EXHF   =         0.00000000
  -V(xc)+E(xc)   XCENC  =      4860.38310736
  PAW double counting   =    181231.32660204  -187902.13490252
  entropy T*S    EENTRO =        -0.88956352
  eigenvalues    EBANDS =    -18491.35611567
  atomic energy  EATOM  =    181336.80673834
  Solvation  Ediel_sol  =         0.00000000
  ---------------------------------------------------
  free energy    TOTEN  =      -483.57305433 eV

  energy without entropy =     -482.68349081  energy(sigma->0) =     -483.12827257


--------------------------------------------------------------------------------------------------------




--------------------------------------- Iteration      1(  18)  ---------------------------------------


    POTLOK:  cpu time    0.2755: real time    0.2755
    SETDIJ:  cpu time    0.0230: real time    0.0230
     EDDAV:  cpu time   12.0305: real time   12.0323
       DOS:  cpu time    0.0014: real time    0.0014
    CHARGE:  cpu time    0.2859: real time    0.2860
    MIXING:  cpu time    0.0147: real time    0.0147
    --------------------------------------------
      LOOP:  cpu time   12.6310: real time   12.6328

 eigenvalue-minimisations  :  1736
 total energy-change (2. order) : 0.5649379E+00  (-0.3347465E+00)
 number of electron    1056.0000173 magnetization 
 augmentation part      415.3728844 magnetization 

 Broyden mixing:
  rms(total) = 0.18667E+01    rms(broyden)= 0.18656E+01
  rms(prec ) = 0.20687E+01
  weight for this iteration     100.00

 eigenvalues of (default mixing * dielectric matrix)
  average eigenvalue GAMMA=   0.4516
  1.5767  1.0330  1.0330  0.3724  0.3724  0.3146  0.3146  0.0867  0.1912  0.1664
  0.1664  0.1214  0.1214

 Free energy of the ion-electron system (eV)
  ---------------------------------------------------
  alpha Z        PSCENC =      3266.22189490
  Ewald energy   TEWEN  =    348035.06200535
  -Hartree energ DENC   =   -512770.86515174
  -exchange      EXHF   =         0.00000000
  -V(xc)+E(xc)   XCENC  =      4860.53399832
  PAW double counting   =    180598.90316882  -187262.13203382
  entropy T*S    EENTRO =        -1.02878417
  eigenvalues    EBANDS =    -18546.50995241
  atomic energy  EATOM  =    181336.80673834
  Solvation  Ediel_sol  =         0.00000000
  ---------------------------------------------------
  free energy    TOTEN  =      -483.00811640 eV

  energy without entropy =     -481.97933223  energy(sigma->0) =     -482.49372432


--------------------------------------------------------------------------------------------------------




--------------------------------------- Iteration      1(  19)  ---------------------------------------


    POTLOK:  cpu time    0.2751: real time    0.2751
    SETDIJ:  cpu time    0.0235: real time    0.0235
     EDDAV:  cpu time   11.6360: real time   11.6383
       DOS:  cpu time    0.0014: real time    0.0014
    CHARGE:  cpu time    0.2898: real time    0.2898
    MIXING:  cpu time    0.0141: real time    0.0141
    --------------------------------------------
      LOOP:  cpu time   12.2400: real time   12.2423

 eigenvalue-minimisations  :  1680
 total energy-change (2. order) : 0.1475861E-01  (-0.4974868E+00)
 number of electron    1056.0000178 magnetization 
 augmentation part      415.5201188 magnetization 

 Broyden mixing:
  rms(total) = 0.18269E+01    rms(broyden)= 0.18250E+01
  rms(prec ) = 0.20094E+01
  weight for this iteration     100.00

 eigenvalues of (default mixing * dielectric matrix)
  average eigenvalue GAMMA=   0.4794
  1.5615  1.2740  1.2740  0.3774  0.3774  0.4050  0.4050  0.0867  0.1862  0.1862
  0.1946  0.1224  0.1224  0.1390

 Free energy of the ion-electron system (eV)
  ---------------------------------------------------
  alpha Z        PSCENC =      3266.22189490
  Ewald energy   TEWEN  =    348035.06200535
  -Hartree energ DENC   =   -512786.43464356
  -exchange      EXHF   =         0.00000000
  -V(xc)+E(xc)   XCENC  =      4860.18064033
  PAW double counting   =    180092.35273481  -186746.95154569
  entropy T*S    EENTRO =        -1.15996311
  eigenvalues    EBANDS =    -18539.07121917
  atomic energy  EATOM  =    181336.80673834
  Solvation  Ediel_sol  =         0.00000000
  ---------------------------------------------------
  free energy    TOTEN  =      -482.99335779 eV

  energy without entropy =     -481.83339468  energy(sigma->0) =     -482.41337624


--------------------------------------------------------------------------------------------------------




--------------------------------------- Iteration      1(  20)  ---------------------------------------


    POTLOK:  cpu time    0.2745: real time    0.2745
    SETDIJ:  cpu time    0.0236: real time    0.0236
     EDDAV:  cpu time   11.8440: real time   11.8460
       DOS:  cpu time    0.0015: real time    0.0015
    CHARGE:  cpu time    0.2858: real time    0.2858
    MIXING:  cpu time    0.0146: real time    0.0146
    --------------------------------------------
      LOOP:  cpu time   12.4441: real time   12.4460

 eigenvalue-minimisations  :  1728
 total energy-change (2. order) : 0.7693282E+00  (-0.1701447E+00)
 number of electron    1056.0000169 magnetization 
 augmentation part      415.4797340 magnetization 

 Broyden mixing:
  rms(total) = 0.13474E+01    rms(broyden)= 0.13464E+01
  rms(prec ) = 0.14267E+01
  weight for this iteration     100.00

 eigenvalues of (default mixing * dielectric matrix)
  average eigenvalue GAMMA=   0.4963
  1.5991  1.4300  1.4300  0.4868  0.4868  0.3717  0.3717  0.2247  0.2247  0.0867
  0.1711  0.1711  0.1221  0.1221  0.1456

 Free energy of the ion-electron system (eV)
  ---------------------------------------------------
  alpha Z        PSCENC =      3266.22189490
  Ewald energy   TEWEN  =    348035.06200535
  -Hartree energ DENC   =   -512792.33908761
  -exchange      EXHF   =         0.00000000
  -V(xc)+E(xc)   XCENC  =      4859.95059093
  PAW double counting   =    179457.66123777  -186101.33718992
  entropy T*S    EENTRO =        -1.20927540
  eigenvalues    EBANDS =    -18543.04094400
  atomic energy  EATOM  =    181336.80673834
  Solvation  Ediel_sol  =         0.00000000
  ---------------------------------------------------
  free energy    TOTEN  =      -482.22402964 eV

  energy without entropy =     -481.01475424  energy(sigma->0) =     -481.61939194


--------------------------------------------------------------------------------------------------------




--------------------------------------- Iteration      1(  21)  ---------------------------------------


    POTLOK:  cpu time    0.2758: real time    0.2758
    SETDIJ:  cpu time    0.0278: real time    0.0278
     EDDAV:  cpu time   11.3436: real time   11.3452
       DOS:  cpu time    0.0015: real time    0.0015
    CHARGE:  cpu time    0.2861: real time    0.2862
    MIXING:  cpu time    0.0152: real time    0.0152
    --------------------------------------------
      LOOP:  cpu time   11.9500: real time   11.9517

 eigenvalue-minimisations  :  1632
 total energy-change (2. order) : 0.1474687E+00  (-0.1794594E+00)
 number of electron    1056.0000183 magnetization 
 augmentation part      415.5726986 magnetization 

 Broyden mixing:
  rms(total) = 0.11895E+01    rms(broyden)= 0.11882E+01
  rms(prec ) = 0.13375E+01
  weight for this iteration     100.00

 eigenvalues of (default mixing * dielectric matrix)
  average eigenvalue GAMMA=   0.5085
  1.5702  1.5429  1.5429  0.5865  0.5865  0.3648  0.3648  0.3511  0.2442  0.0867
  0.1766  0.1766  0.1615  0.1223  0.1223  0.1358

 Free energy of the ion-electron system (eV)
  ---------------------------------------------------
  alpha Z        PSCENC =      3266.22189490
  Ewald energy   TEWEN  =    348035.06200535
  -Hartree energ DENC   =   -512815.05024331
  -exchange      EXHF   =         0.00000000
  -V(xc)+E(xc)   XCENC  =      4859.57113543
  PAW double counting   =    179099.53786395  -185734.87028836
  entropy T*S    EENTRO =        -1.13730708
  eigenvalues    EBANDS =    -18528.21836021
  atomic energy  EATOM  =    181336.80673834
  Solvation  Ediel_sol  =         0.00000000
  ---------------------------------------------------
  free energy    TOTEN  =      -482.07656099 eV

  energy without entropy =     -480.93925391  energy(sigma->0) =     -481.50790745


--------------------------------------------------------------------------------------------------------




--------------------------------------- Iteration      1(  22)  ---------------------------------------


    POTLOK:  cpu time    0.2773: real time    0.2773
    SETDIJ:  cpu time    0.0229: real time    0.0229
     EDDAV:  cpu time   11.5496: real time   11.5516
       DOS:  cpu time    0.0021: real time    0.0021
    CHARGE:  cpu time    0.2942: real time    0.2943
    MIXING:  cpu time    0.0159: real time    0.0159
    --------------------------------------------
      LOOP:  cpu time   12.1620: real time   12.1640

 eigenvalue-minimisations  :  1640
 total energy-change (2. order) : 0.3247259E+00  (-0.1175566E+00)
 number of electron    1056.0000182 magnetization 
 augmentation part      416.1217331 magnetization 

 Broyden mixing:
  rms(total) = 0.87091E+00    rms(broyden)= 0.86950E+00
  rms(prec ) = 0.92355E+00
  weight for this iteration     100.00

 eigenvalues of (default mixing * dielectric matrix)
  average eigenvalue GAMMA=   0.5047
  1.6058  1.6058  1.4732  0.6752  0.6752  0.3677  0.3677  0.4012  0.2480  0.0867
  0.1863  0.1863  0.1222  0.1222  0.1611  0.1611  0.1334

 Free energy of the ion-electron system (eV)
  ---------------------------------------------------
  alpha Z        PSCENC =      3266.22189490
  Ewald energy   TEWEN  =    348035.06200535
  -Hartree energ DENC   =   -512780.39900363
  -exchange      EXHF   =         0.00000000
  -V(xc)+E(xc)   XCENC  =      4859.23918384
  PAW double counting   =    178782.31552883  -185410.74356504
  entropy T*S    EENTRO =        -1.27789062
  eigenvalues    EBANDS =    -18568.97672707
  atomic energy  EATOM  =    181336.80673834
  Solvation  Ediel_sol  =         0.00000000
  ---------------------------------------------------
  free energy    TOTEN  =      -481.75183509 eV

  energy without entropy =     -480.47394447  energy(sigma->0) =     -481.11288978


--------------------------------------------------------------------------------------------------------




--------------------------------------- Iteration      1(  23)  ---------------------------------------


    POTLOK:  cpu time    0.2770: real time    0.2770
    SETDIJ:  cpu time    0.0229: real time    0.0229
     EDDAV:  cpu time   11.5011: real time   11.5037
       DOS:  cpu time    0.0015: real time    0.0015
    CHARGE:  cpu time    0.2917: real time    0.2917
    MIXING:  cpu time    0.0166: real time    0.0166
    --------------------------------------------
      LOOP:  cpu time   12.1108: real time   12.1133

 eigenvalue-minimisations  :  1656
 total energy-change (2. order) : 0.1714639E+00  (-0.1051567E+00)
 number of electron    1056.0000183 magnetization 
 augmentation part      416.4266834 magnetization 

 Broyden mixing:
  rms(total) = 0.60214E+00    rms(broyden)= 0.60102E+00
  rms(prec ) = 0.63967E+00
  weight for this iteration     100.00

 eigenvalues of (default mixing * dielectric matrix)
  average eigenvalue GAMMA=   0.4938
  1.6499  1.6499  1.3180  0.7455  0.7455  0.4244  0.3694  0.3694  0.2701  0.0867
  0.2045  0.1858  0.1858  0.1739  0.1223  0.1223  0.1328  0.1328

 Free energy of the ion-electron system (eV)
  ---------------------------------------------------
  alpha Z        PSCENC =      3266.22189490
  Ewald energy   TEWEN  =    348035.06200535
  -Hartree energ DENC   =   -512771.53102936
  -exchange      EXHF   =         0.00000000
  -V(xc)+E(xc)   XCENC  =      4859.06551350
  PAW double counting   =    178632.43548187  -185257.33182416
  entropy T*S    EENTRO =        -1.36809282
  eigenvalues    EBANDS =    -18580.94105882
  atomic energy  EATOM  =    181336.80673834
  Solvation  Ediel_sol  =         0.00000000
  ---------------------------------------------------
  free energy    TOTEN  =      -481.58037120 eV

  energy without entropy =     -480.21227838  energy(sigma->0) =     -480.89632479


[...]
   -.423E+02 -.522E+03 0.188E+04   0.416E+02 0.523E+03 -.188E+04   0.922E+00 -.901E+00 0.338E+00   -.508E-02 -.884E-01 -.128E+01
   -.291E+02 -.675E+03 -.585E+04   0.290E+02 0.679E+03 0.585E+04   0.215E+00 -.401E+01 -.342E+00   0.741E-02 -.137E+00 0.762E+00
   -.443E+02 0.288E+03 0.418E+04   0.433E+02 -.288E+03 -.418E+04   0.109E+01 0.799E+00 -.176E+01   -.143E-01 -.641E-01 -.890E+00
   -.413E+02 0.256E+03 -.334E+04   0.405E+02 -.256E+03 0.334E+04   0.984E+00 0.494E+00 -.797E+00   0.521E-02 -.439E-01 0.363E+00
   -.413E+02 0.256E+03 0.449E+03   0.404E+02 -.257E+03 -.447E+03   0.968E+00 0.506E+00 -.104E+01   -.200E-02 0.665E-01 -.105E+01
   -.126E+02 0.458E+03 -.728E+04   0.128E+02 -.459E+03 0.728E+04   -.146E+00 0.920E+00 0.606E+00   -.227E-02 0.319E-01 0.707E+00
   -.192E+02 0.566E+03 0.729E+04   0.191E+02 -.567E+03 -.729E+04   0.181E+00 0.131E+00 -.611E+00   -.115E-01 -.245E-02 -.131E+00
   -.413E+02 0.257E+03 -.443E+03   0.404E+02 -.257E+03 0.443E+03   0.974E+00 0.489E+00 0.110E+01   0.427E-02 -.383E-01 -.489E+00
   -.407E+02 0.252E+03 0.334E+04   0.399E+02 -.252E+03 -.334E+04   0.976E+00 0.593E+00 0.985E+00   -.182E-02 0.139E+00 -.136E+01
   -.367E+02 0.276E+03 -.414E+04   0.356E+02 -.277E+03 0.414E+04   0.118E+01 0.809E+00 0.206E+01   0.108E-01 0.606E-01 0.715E+00
   -.445E+02 -.657E+03 0.583E+04   0.444E+02 0.660E+03 -.583E+04   0.103E+00 -.369E+01 0.579E+00   0.179E-01 0.253E+00 -.562E+00
   -.412E+02 -.515E+03 -.189E+04   0.404E+02 0.516E+03 0.189E+04   0.900E+00 -.126E+01 0.191E-01   0.315E-02 0.717E-01 -.450E-01
   -.424E+02 -.510E+03 0.190E+04   0.417E+02 0.511E+03 -.190E+04   0.893E+00 -.122E+01 0.889E-02   0.776E-03 0.123E+00 -.135E+01
   -.291E+02 -.676E+03 -.585E+04   0.290E+02 0.680E+03 0.585E+04   0.217E+00 -.401E+01 -.340E+00   0.353E-02 -.957E-02 0.717E+00
   -.316E+02 0.255E+03 0.417E+04   0.306E+02 -.255E+03 -.416E+04   0.117E+01 0.625E+00 -.179E+01   0.200E-01 -.219E-01 -.960E+00
   -.413E+02 0.256E+03 -.334E+04   0.404E+02 -.256E+03 0.334E+04   0.985E+00 0.483E+00 -.802E+00   0.230E-02 -.448E-01 0.363E+00
   -.414E+02 0.256E+03 0.449E+03   0.405E+02 -.257E+03 -.447E+03   0.999E+00 0.501E+00 -.105E+01   0.407E-02 0.606E-01 -.104E+01
   -.126E+02 0.458E+03 -.728E+04   0.128E+02 -.459E+03 0.728E+04   -.146E+00 0.923E+00 0.607E+00   -.334E-02 0.301E-01 0.703E+00
   -.638E+01 0.528E+03 0.730E+04   0.642E+01 -.529E+03 -.730E+04   0.472E-01 0.496E+00 -.632E+00   0.108E-01 0.453E-01 -.988E-01
   -.412E+02 0.257E+03 -.443E+03   0.404E+02 -.257E+03 0.443E+03   0.962E+00 0.522E+00 0.113E+01   0.208E-02 -.401E-01 -.487E+00
   -.419E+02 0.248E+03 0.335E+04   0.410E+02 -.249E+03 -.335E+04   0.989E+00 0.455E+00 0.105E+01   0.317E-02 0.132E+00 -.138E+01
   -.367E+02 0.276E+03 -.414E+04   0.356E+02 -.277E+03 0.414E+04   0.118E+01 0.804E+00 0.206E+01   0.853E-02 0.592E-01 0.709E+00
   -.128E+02 -.672E+03 0.582E+04   0.126E+02 0.676E+03 -.581E+04   0.186E+00 -.441E+01 0.825E+00   -.170E-01 0.138E+00 -.601E+00
   -.411E+02 -.515E+03 -.189E+04   0.404E+02 0.516E+03 0.189E+04   0.892E+00 -.127E+01 0.227E-01   0.925E-04 0.693E-01 -.438E-01
   -.400E+02 -.508E+03 0.189E+04   0.391E+02 0.509E+03 -.189E+04   0.966E+00 -.127E+01 -.356E-01   0.309E-02 0.116E+00 -.134E+01
   -.291E+02 -.676E+03 -.585E+04   0.290E+02 0.680E+03 0.585E+04   0.217E+00 -.401E+01 -.339E+00   0.704E-02 -.645E-02 0.720E+00
   0.398E+02 -.830E+02 -.871E+02   -.404E+02 0.840E+02 0.852E+02   0.517E+00 -.128E+01 0.254E+01   0.175E-02 0.361E-02 -.237E+00
   0.359E+02 -.866E+02 0.133E+04   -.366E+02 0.875E+02 -.133E+04   0.558E+00 -.119E+01 0.302E+01   -.568E-02 -.390E-01 -.511E+00
   0.391E+02 -.987E+02 -.150E+04   -.399E+02 0.100E+03 0.150E+04   0.784E+00 -.135E+01 0.216E+01   -.303E-02 -.398E-01 0.284E+00
   0.426E+02 -.634E+02 0.159E+04   -.438E+02 0.652E+02 -.159E+04   0.143E+01 -.146E+01 -.230E+01   -.438E-01 -.734E-01 -.413E+00
   0.399E+02 -.806E+02 -.133E+04   -.405E+02 0.817E+02 0.133E+04   0.484E+00 -.129E+01 -.250E+01   0.520E-03 -.116E-01 0.195E+00
   0.396E+02 -.840E+02 0.872E+02   -.402E+02 0.852E+02 -.847E+02   0.593E+00 -.135E+01 -.261E+01   -.339E-02 -.272E-01 -.343E+00
   0.135E+01 -.195E+03 -.280E+04   -.170E+01 0.198E+03 0.281E+04   0.303E+00 -.233E+01 -.435E+01   -.112E-02 -.524E-01 0.258E+00
   0.114E+02 0.240E+03 0.223E+04   -.116E+02 -.243E+03 -.223E+04   0.314E+00 0.244E+01 0.507E+00   -.281E-01 -.369E-01 -.158E+00
   0.396E+02 0.166E+03 -.708E+03   -.404E+02 -.168E+03 0.708E+03   0.722E+00 0.270E+01 0.141E-01   -.554E-02 -.156E-01 -.316E-01
   0.380E+02 0.169E+03 0.708E+03   -.389E+02 -.172E+03 -.707E+03   0.720E+00 0.284E+01 -.271E+00   -.554E-02 -.256E-01 -.491E+00
   0.355E+02 0.238E+03 -.218E+04   -.357E+02 -.241E+03 0.218E+04   0.130E+00 0.206E+01 -.944E-01   0.115E-02 0.367E-01 0.291E+00
   0.980E+01 -.262E+03 0.280E+04   -.989E+01 0.267E+03 -.281E+04   -.323E-01 -.245E+01 0.463E+01   0.112E+00 -.151E+00 -.318E-01
   0.398E+02 -.830E+02 -.873E+02   -.404E+02 0.840E+02 0.854E+02   0.513E+00 -.132E+01 0.263E+01   -.589E-02 0.488E-02 -.239E+00
   0.430E+02 -.909E+02 0.132E+04   -.436E+02 0.918E+02 -.133E+04   0.505E+00 -.119E+01 0.286E+01   0.933E-02 -.292E-01 -.520E+00
   0.391E+02 -.987E+02 -.150E+04   -.399E+02 0.100E+03 0.150E+04   0.784E+00 -.135E+01 0.216E+01   0.649E-03 -.397E-01 0.283E+00
   0.269E+02 -.351E+02 0.146E+04   -.282E+02 0.382E+02 -.146E+04   0.134E+01 -.352E+01 0.825E+00   0.540E-01 -.724E-01 -.422E+00
   0.399E+02 -.806E+02 -.133E+04   -.405E+02 0.817E+02 0.133E+04   0.491E+00 -.130E+01 -.252E+01   0.699E-03 -.110E-01 0.197E+00
   0.398E+02 -.841E+02 0.870E+02   -.406E+02 0.853E+02 -.845E+02   0.664E+00 -.141E+01 -.258E+01   0.309E-03 -.284E-01 -.343E+00
   0.135E+01 -.195E+03 -.280E+04   -.171E+01 0.198E+03 0.281E+04   0.301E+00 -.233E+01 -.435E+01   0.833E-03 -.526E-01 0.258E+00
   0.669E+02 0.275E+03 0.224E+04   -.674E+02 -.279E+03 -.224E+04   0.206E+00 0.189E+01 0.456E+00   0.346E-01 -.241E-02 -.161E+00
   0.396E+02 0.166E+03 -.708E+03   -.404E+02 -.168E+03 0.708E+03   0.720E+00 0.271E+01 -.136E-01   -.189E-02 -.191E-01 -.316E-01
   0.409E+02 0.170E+03 0.705E+03   -.418E+02 -.172E+03 -.705E+03   0.805E+00 0.281E+01 -.298E+00   0.743E-02 -.267E-01 -.487E+00
   0.355E+02 0.238E+03 -.218E+04   -.357E+02 -.241E+03 0.218E+04   0.131E+00 0.206E+01 -.897E-01   0.548E-02 0.360E-01 0.291E+00
   0.508E+01 -.178E+03 0.279E+04   -.551E+01 0.181E+03 -.280E+04   0.300E+00 -.223E+01 0.419E+01   0.531E-01 0.570E-01 -.558E-01
   0.397E+02 -.837E+02 -.866E+02   -.404E+02 0.848E+02 0.847E+02   0.552E+00 -.132E+01 0.251E+01   -.225E-02 -.310E-02 -.199E+00
   0.363E+02 -.795E+02 0.134E+04   -.368E+02 0.806E+02 -.134E+04   0.446E+00 -.138E+01 0.204E+01   0.277E-02 0.726E-01 -.530E+00
   0.391E+02 -.987E+02 -.150E+04   -.399E+02 0.100E+03 0.150E+04   0.785E+00 -.135E+01 0.218E+01   0.204E-02 0.775E-02 0.244E+00
   0.392E+02 -.101E+03 0.151E+04   -.402E+02 0.102E+03 -.150E+04   0.848E+00 -.149E+01 -.252E+01   0.293E-01 0.263E-02 -.407E+00
   0.399E+02 -.807E+02 -.133E+04   -.405E+02 0.818E+02 0.133E+04   0.452E+00 -.129E+01 -.249E+01   0.136E-02 0.402E-01 0.187E+00
   0.395E+02 -.828E+02 0.890E+02   -.402E+02 0.838E+02 -.865E+02   0.669E+00 -.133E+01 -.262E+01   -.624E-02 0.507E-01 -.384E+00
   0.135E+01 -.195E+03 -.280E+04   -.170E+01 0.198E+03 0.281E+04   0.301E+00 -.234E+01 -.435E+01   -.152E-02 -.399E-02 0.253E+00
   0.216E+02 0.245E+03 0.214E+04   -.227E+02 -.248E+03 -.214E+04   0.131E+01 0.172E+01 0.266E+01   0.104E+00 0.132E+00 -.262E+00
   0.395E+02 0.166E+03 -.707E+03   -.404E+02 -.169E+03 0.707E+03   0.739E+00 0.270E+01 0.262E-01   -.138E-03 0.118E-01 0.916E-02
   0.393E+02 0.165E+03 0.710E+03   -.403E+02 -.167E+03 -.709E+03   0.812E+00 0.277E+01 -.139E-01   -.582E-02 0.509E-02 -.481E+00
   0.355E+02 0.238E+03 -.218E+04   -.357E+02 -.241E+03 0.218E+04   0.133E+00 0.206E+01 -.893E-01   0.341E-02 0.185E-01 0.282E+00
   -.263E+01 -.165E+03 0.279E+04   0.240E+01 0.168E+03 -.280E+04   0.284E+00 -.187E+01 0.400E+01   -.531E-01 0.513E-01 -.608E-01
   0.398E+02 -.837E+02 -.866E+02   -.404E+02 0.848E+02 0.847E+02   0.529E+00 -.133E+01 0.249E+01   -.293E-02 -.227E-02 -.200E+00
   0.436E+02 -.816E+02 0.134E+04   -.442E+02 0.827E+02 -.134E+04   0.528E+00 -.139E+01 0.245E+01   0.233E-02 0.551E-01 -.501E+00
   0.391E+02 -.987E+02 -.150E+04   -.399E+02 0.100E+03 0.150E+04   0.779E+00 -.135E+01 0.218E+01   -.194E-03 0.591E-02 0.248E+00
   0.385E+02 -.989E+02 0.150E+04   -.397E+02 0.100E+03 -.150E+04   0.117E+01 -.166E+01 -.235E+01   -.249E-01 -.257E-02 -.397E+00
   0.399E+02 -.807E+02 -.133E+04   -.405E+02 0.818E+02 0.133E+04   0.442E+00 -.131E+01 -.247E+01   -.109E-02 0.390E-01 0.186E+00
   0.909E+02 0.105E+03 0.263E+04   -.907E+02 -.106E+03 -.264E+04   -.193E+01 -.288E+00 -.184E+00   -.284E-01 0.178E-01 0.103E+00
   0.398E+02 -.828E+02 0.891E+02   -.406E+02 0.839E+02 -.866E+02   0.699E+00 -.139E+01 -.258E+01   0.143E-02 0.508E-01 -.385E+00
   0.135E+01 -.195E+03 -.280E+04   -.171E+01 0.198E+03 0.281E+04   0.302E+00 -.234E+01 -.435E+01   0.228E-02 -.400E-02 0.254E+00
   0.554E+02 0.136E+03 0.220E+04   -.576E+02 -.139E+03 -.220E+04   0.212E+01 0.311E+01 -.116E+01   -.802E-01 0.944E-01 -.274E+00
   0.396E+02 0.166E+03 -.707E+03   -.404E+02 -.169E+03 0.707E+03   0.731E+00 0.269E+01 0.456E-01   -.459E-02 0.110E-01 0.897E-02
   0.396E+02 0.164E+03 0.710E+03   -.405E+02 -.167E+03 -.709E+03   0.778E+00 0.283E+01 -.141E+00   0.348E-03 0.528E-02 -.485E+00
   0.355E+02 0.238E+03 -.218E+04   -.357E+02 -.241E+03 0.218E+04   0.132E+00 0.206E+01 -.980E-01   0.266E-02 0.179E-01 0.282E+00
 -----------------------------------------------------------------------------------------------
   -.657E+02 0.328E+02 0.257E+01   -.448E-12 0.375E-11 0.455E-12   0.654E+02 -.321E+02 0.164E+02   0.299E+00 -.606E+00 -.189E+02
 
 
 POSITION                                       TOTAL-FORCE (eV/Angst)
 -----------------------------------------------------------------------------------
      1.64370      0.18204      4.44331         0.091646     -0.300173      1.247145
      1.64370      0.18204     14.02172         0.109540      0.122980     -0.345303
      0.59727      2.94708      9.23251         0.074538      0.209525     -0.312726
      0.64209      2.90185     18.60389         0.016447     -0.643893     -0.099176
      1.53912      0.15903      2.12783         1.737225     -0.417110     -0.379989
      1.64370      0.18204     11.49105         0.095875      0.142420      0.323646
      0.59727      2.94708      6.70184         0.082627      0.014625      0.549207
      0.59727      2.94708     16.28025         0.089216      0.236062     -1.039626
      1.57146      2.43763      3.41754         1.156659     -0.084198      0.073774
      1.64370      2.37366     12.75638         0.167346     -0.341867     -0.013150
      3.73655      5.13871      7.96718         0.188569     -0.351782      0.057661
      3.73655      5.13871     17.54559         0.114465      0.030000     -2.122938
      4.78298      0.18204      4.44331         0.159868     -0.059065      1.194511
      4.78298      0.18204     14.02172         0.110147      0.124679     -0.338693
      3.73655      2.94708      9.23251         0.069010      0.186151     -0.332301
      3.78137      2.90185     18.60389         0.017214     -0.643691     -0.100199
      4.94031      0.11264      2.10182        -0.092335      0.334417      1.640299
      4.78298      0.18204     11.49105         0.101076      0.142437      0.323719
      3.73655      2.94708      6.70184         0.055047      0.116135      0.591487
      3.73655      2.94708     16.28025         0.088908      0.235912     -1.041068
      4.93989      2.45575      3.46207        -1.609945     -0.085007     -0.091831
      4.78298      2.37366     12.75638         0.174708     -0.341526     -0.019109
      6.87583      5.13871      7.96718         0.208145     -0.328024      0.069377
      6.87583      5.13871     17.54559         0.114397      0.030975     -2.122918
      2.69013      5.71213      4.44331         0.059757      0.322231      0.986982
      2.69013      5.71213     14.02172         0.110862      0.123592     -0.344220
      1.64370      8.47718      9.23251         0.065039      0.162903     -0.345997
      1.68851      8.43195     18.60389         0.016569     -0.644838     -0.097388
      2.74101      5.67183      2.11869        -0.022433     -0.758720      0.230294
      2.69013      5.71213     11.49105         0.095029      0.140670      0.301523
      1.64370      8.47718      6.70184         0.095099      0.146060      0.407766
      1.64370      8.47718     16.28025         0.084293      0.234293     -1.035072
      2.69013      7.90376      3.17797         0.040983      0.192303      2.227238
      2.69013      7.90376     12.75638         0.167409     -0.342408     -0.017057
      4.78298     10.66881      7.96718         0.176214     -0.335287      0.049565
      4.78298     10.66881     17.54559         0.115860      0.030389     -2.121981
      5.82941      5.71213      4.44331         0.125740      0.352878      1.023839
      5.82941      5.71213     14.02172         0.111995      0.124421     -0.342708
      4.78298      8.47718      9.23251         0.080024      0.155271     -0.349138
      4.82779      8.43195     18.60389         0.016215     -0.644509     -0.096411
      5.86700      5.67049      2.11877         0.099228     -0.678804      0.271867
      5.82941      5.71213     11.49105         0.093378      0.143775      0.309723
      4.78298      8.47718      6.70184         0.106653      0.102226      0.414760
      4.78298      8.47718     16.28025         0.085392      0.234704     -1.035015
      5.82941      7.90376      3.17797         0.010080     -0.034016      2.296563
      5.82941      7.90376     12.75638         0.163381     -0.350197     -0.016315
      7.92226     10.66881      7.96718         0.149949     -0.381112      0.039871
      7.92226     10.66881     17.54559         0.115083      0.030001     -2.121451
      3.28961      1.84282     11.14515        -0.122314     -0.263202      0.384806
      2.24318      4.60787      6.35595        -0.152637     -0.328870      0.354534
      2.24318      4.60787     15.93436        -0.084093     -0.082719     -0.255936
      3.28961      1.84282      4.78920         0.127144      0.287414     -0.756126
      3.28961      1.84282     14.36761        -0.113887     -0.217231     -0.402751
      2.24318      4.60787      9.57841        -0.102368     -0.263262     -0.454817
      2.19010      4.33100     18.73148        -0.051169      1.240522      3.793379
      1.19676      4.58218      3.17797         0.009652     -0.663296      0.058735
      1.19676      4.58218     12.75638        -0.120404      0.521676      0.012637
      2.24318      1.81714      7.96718        -0.171532      0.596196     -0.027106
      2.24318      1.81714     17.54559        -0.087747     -0.748608      0.015106
      6.38678      1.67629      2.06726        -0.008296      1.818269     -3.232594
      6.42889      1.84282     11.14515        -0.134530     -0.263957      0.395499
      5.38246      4.60787      6.35595        -0.047303     -0.302367      0.348415
      5.38246      4.60787     15.93436        -0.083481     -0.082959     -0.256749
      6.42889      1.84282      4.78920         0.106967     -0.503209      2.319389
      6.42889      1.84282     14.36761        -0.112852     -0.216418     -0.408037
      5.38246      4.60787      9.57841        -0.101524     -0.260598     -0.402829
      5.32938      4.33100     18.73148        -0.051123      1.239875      3.794905
      4.33604      4.58218      3.17797        -0.172100     -1.296015      0.015751
      4.33604      4.58218     12.75638        -0.122680      0.528222      0.011286
      5.38246      1.81714      7.96718        -0.086141      0.570220     -0.132267
      5.38246      1.81714     17.54559        -0.086842     -0.748855      0.014681
      4.28308      7.10368      1.98750        -0.075010      1.457939     -3.872768
      4.33604      7.37292     11.14515        -0.111618     -0.251771      0.400241
      3.28961     10.13797      6.35595        -0.060144     -0.197597      0.160512
      3.28961     10.13797     15.93436        -0.085044     -0.083592     -0.256981
      4.33604      7.37292      4.78920        -0.124325     -0.112679      0.133597
      4.33604      7.37292     14.36761        -0.116594     -0.211290     -0.398464
      3.28961     10.13797      9.57841        -0.091578     -0.254883     -0.432551
      3.23652      9.86110     18.73148        -0.051306      1.239317      3.792241
      2.24318     10.11228      3.17797         0.287769     -0.877496      0.825071
      2.24318     10.11228     12.75638        -0.131792      0.528114      0.010225
      3.28961      7.34723      7.96718        -0.144009      0.540561     -0.005836
      3.28961      7.34723     17.54559        -0.086161     -0.749667      0.013772
      7.42170      7.09544      1.99160         0.002060      1.465159     -3.972532
      7.47532      7.37292     11.14515        -0.117168     -0.255293      0.399070
      6.42889     10.13797      6.35595        -0.119855     -0.196983      0.311245
      6.42889     10.13797     15.93436        -0.085029     -0.083022     -0.256984
      7.47532      7.37292      4.78920        -0.103036     -0.155657      0.196074
      7.47532      7.37292     14.36761        -0.115780     -0.211183     -0.395465
      6.38891     10.37488      0.47749        -1.740018     -1.107772     -2.871685
      6.42889     10.13797      9.57841        -0.093732     -0.248026     -0.425782
      6.37580      9.86110     18.73148        -0.051255      1.240277      3.792698
      5.38246     10.11228      3.17797        -0.162591      0.975213     -0.702523
      5.38246     10.11228     12.75638        -0.125328      0.526464      0.012556
      6.42889      7.34723      7.96718        -0.124883      0.557121     -0.006866
      6.42889      7.34723     17.54559        -0.086509     -0.749889      0.012190
 -----------------------------------------------------------------------------------
    total drift:                                0.007104      0.101738      0.128701


--------------------------------------------------------------------------------------------------------



  FREE ENERGIE OF THE ION-ELECTRON SYSTEM (eV)
  ---------------------------------------------------
  free  energy   TOTEN  =      -481.40453738 eV

  energy  without entropy=     -480.13752654  energy(sigma->0) =     -480.77103196
 


--------------------------------------------------------------------------------------------------------


    POTLOK:  cpu time    0.3012: real time    0.3012


--------------------------------------------------------------------------------------------------------


     LOOP+:  cpu time  500.6787: real time  500.8121
    4ORBIT:  cpu time    0.0000: real time    0.0000

 total amount of memory used by VASP MPI-rank0    76708. kBytes
=======================================================================

   base      :      30000. kBytes
   nonlr-proj:       3248. kBytes
   fftplans  :       8997. kBytes
   grid      :      15269. kBytes
   one-center:        124. kBytes
   wavefun   :      19070. kBytes
 
  
  
 General timing and accounting informations for this job:
 ========================================================
  
                  Total CPU time used (sec):      504.158
                            User time (sec):      503.621
                          System time (sec):        0.537
                         Elapsed time (sec):      504.532
  
                   Maximum memory used (kb):      211620.
                   Average memory used (kb):           0.
  
                          Minor page faults:       168685
                          Major page faults:            0
                 Voluntary context switches:          169
