"Millerite NiS"                         
           1
     6.278560    0.000000    0.000000
     2.092853   11.060196    0.000000
     0.000000    0.000000   29.156820
   Ty   Ty
  48  48
Direct configuration=     1
   0.25630944  0.01645859  0.15239349
   0.25630944  0.01645859  0.48090702
   0.00630944  0.26645858  0.31665025
   0.01481034  0.26236879  0.63806295
   0.24034543  0.01437872  0.07297898
   0.25630944  0.01645859  0.39411177
   0.00630944  0.26645858  0.22985501
   0.00630944  0.26645858  0.55836854
   0.17682424  0.22039702  0.11721227
   0.19025794  0.21461308  0.43750940
   0.44025794  0.46461308  0.27325263
   0.44025794  0.46461308  0.60176617
   0.75630944  0.01645859  0.15239349
   0.75630944  0.01645859  0.48090702
   0.50630944  0.26645858  0.31665025
   0.51481034  0.26236879  0.63806295
   0.78345930  0.01018459  0.07208664
   0.75630944  0.01645859  0.39411177
   0.50630944  0.26645858  0.22985501
   0.50630944  0.26645858  0.55836854
   0.71277499  0.22203469  0.11873967
   0.69025794  0.21461308  0.43750940
   0.94025794  0.46461308  0.27325263
   0.94025794  0.46461308  0.60176617
   0.25630944  0.51645859  0.15239349
   0.25630944  0.51645859  0.48090702
   0.00630944  0.76645858  0.31665025
   0.01481034  0.76236879  0.63806295
   0.26562789  0.51281460  0.07266546
   0.25630944  0.51645859  0.39411177
   0.00630944  0.76645858  0.22985501
   0.00630944  0.76645858  0.55836854
   0.19025794  0.71461308  0.10899586
   0.19025794  0.71461308  0.43750940
   0.44025794  0.96461308  0.27325263
   0.44025794  0.96461308  0.60176617
   0.75630944  0.51645859  0.15239349
   0.75630944  0.51645859  0.48090702
   0.50630944  0.76645858  0.31665025
   0.51481034  0.76236879  0.63806295
   0.76355210  0.51269333  0.07266823
   0.75630944  0.51645859  0.39411177
   0.50630944  0.76645858  0.22985501
   0.50630944  0.76645858  0.55836854
   0.69025794  0.71461308  0.10899586
   0.69025794  0.71461308  0.43750940
   0.94025794  0.96461308  0.27325263
   0.94025794  0.96461308  0.60176617
   0.46840410  0.16661759  0.38224849
   0.21840410  0.41661758  0.21799173
   0.21840410  0.41661758  0.54650526
   0.46840410  0.16661759  0.16425677
   0.46840410  0.16661759  0.49277030
   0.21840410  0.41661758  0.32851354
   0.21829308  0.39158469  0.64243914
   0.05251161  0.41429508  0.10899586
   0.05251161  0.41429508  0.43750940
   0.30251160  0.16429509  0.27325263
   0.30251160  0.16429509  0.60176617
   0.96671609  0.15156089  0.07090150
   0.96840410  0.16661759  0.38224849
   0.71840410  0.41661758  0.21799173
   0.71840410  0.41661758  0.54650526
   0.96840410  0.16661759  0.16425677
   0.96840410  0.16661759  0.49277030
   0.71840410  0.41661758  0.32851354
   0.71829308  0.39158469  0.64243914
   0.55251161  0.41429508  0.10899586
   0.55251161  0.41429508  0.43750940
   0.80251160  0.16429509  0.27325263
   0.80251160  0.16429509  0.60176617
   0.46808447  0.64227403  0.06816580
   0.46840411  0.66661759  0.38224849
   0.21840411  0.91661758  0.21799173
   0.21840411  0.91661758  0.54650526
   0.46840411  0.66661759  0.16425677
   0.46840411  0.66661759  0.49277030
   0.21840411  0.91661758  0.32851354
   0.21829308  0.89158469  0.64243914
   0.05251161  0.91429508  0.10899586
   0.05251161  0.91429508  0.43750940
   0.30251161  0.66429509  0.27325263
   0.30251161  0.66429509  0.60176617
   0.96822756  0.64152904  0.06830633
   0.96840411  0.66661759  0.38224849
   0.71840411  0.91661758  0.21799173
   0.71840411  0.91661758  0.54650526
   0.96840411  0.66661759  0.16425677
   0.96840411  0.66661759  0.49277030
   0.70489703  0.93803763  0.01637652
   0.71840411  0.91661758  0.32851354
   0.71829308  0.89158469  0.64243914
   0.55251161  0.91429508  0.10899586
   0.55251161  0.91429508  0.43750940
   0.80251161  0.66429509  0.27325263
   0.80251161  0.66429509  0.60176617
