  96  96   0   0
  0.2084053E+02  0.6278560E-09  0.1125646E-08  0.2881092E-08  0.5000000E-15
  1.000000000000000E-004
  CAR 
 "Millerite NiS"                         
     13.16833577    -64.58087105  301      3.41595570      1.00000000
    -64.581  0.0000E+00  0.0000E+00
    -64.322  0.0000E+00  0.0000E+00
    -64.063  0.0000E+00  0.0000E+00
    -63.803  0.0000E+00  0.0000E+00
    -63.544  0.0000E+00  0.0000E+00
    -63.285  0.0000E+00  0.0000E+00
    -63.026  0.0000E+00  0.0000E+00
    -62.767  0.0000E+00  0.0000E+00
    -62.508  0.0000E+00  0.0000E+00
    -62.248  0.0000E+00  0.0000E+00
    -61.989  0.1781E-08  0.4617E-09
    -61.730  0.1151E-03  0.2983E-04
    -61.471  0.3061E+00  0.7935E-01
    -61.212  0.3797E+02  0.9921E+01
    -60.953  0.2968E+03  0.8685E+02
    -60.693  0.3233E+03  0.1706E+03
    -60.434  0.2130E+03  0.2258E+03
    -60.175  0.5540E+02  0.2402E+03
    -59.916  0.3915E+02  0.2503E+03
    -59.657  0.4861E+02  0.2629E+03
    -59.398  0.4353E+02  0.2742E+03
    -59.138  0.4355E+02  0.2855E+03
    -58.879  0.9456E+01  0.2880E+03
    -58.620  0.1919E+00  0.2880E+03
    -58.361  0.2092E-03  0.2880E+03
    -58.102  0.9511E-08  0.2880E+03
    -57.843  0.1542E-13  0.2880E+03
    -57.583  0.0000E+00  0.2880E+03
    -57.324  0.0000E+00  0.2880E+03
    -57.065  0.0000E+00  0.2880E+03
    -56.806  0.0000E+00  0.2880E+03
    -56.547  0.0000E+00  0.2880E+03
    -56.288  0.0000E+00  0.2880E+03
    -56.028  0.0000E+00  0.2880E+03
    -55.769  0.0000E+00  0.2880E+03
    -55.510  0.0000E+00  0.2880E+03
    -55.251  0.0000E+00  0.2880E+03
    -54.992  0.0000E+00  0.2880E+03
    -54.733  0.0000E+00  0.2880E+03
    -54.473  0.0000E+00  0.2880E+03
    -54.214  0.0000E+00  0.2880E+03
    -53.955  0.0000E+00  0.2880E+03
    -53.696  0.0000E+00  0.2880E+03
    -53.437  0.0000E+00  0.2880E+03
    -53.178  0.0000E+00  0.2880E+03
    -52.918  0.0000E+00  0.2880E+03
    -52.659  0.0000E+00  0.2880E+03
    -52.400  0.0000E+00  0.2880E+03
    -52.141  0.0000E+00  0.2880E+03
    -51.882  0.0000E+00  0.2880E+03
    -51.623  0.0000E+00  0.2880E+03
    -51.364  0.0000E+00  0.2880E+03
    -51.104  0.0000E+00  0.2880E+03
    -50.845  0.0000E+00  0.2880E+03
    -50.586  0.0000E+00  0.2880E+03
    -50.327  0.0000E+00  0.2880E+03
    -50.068  0.0000E+00  0.2880E+03
    -49.809  0.0000E+00  0.2880E+03
    -49.549  0.0000E+00  0.2880E+03
    -49.290  0.0000E+00  0.2880E+03
    -49.031  0.0000E+00  0.2880E+03
    -48.772  0.0000E+00  0.2880E+03
    -48.513  0.0000E+00  0.2880E+03
    -48.254  0.0000E+00  0.2880E+03
    -47.994  0.0000E+00  0.2880E+03
    -47.735  0.0000E+00  0.2880E+03
    -47.476  0.0000E+00  0.2880E+03
    -47.217  0.0000E+00  0.2880E+03
    -46.958  0.0000E+00  0.2880E+03
    -46.699  0.0000E+00  0.2880E+03
    -46.439  0.0000E+00  0.2880E+03
    -46.180  0.0000E+00  0.2880E+03
    -45.921  0.0000E+00  0.2880E+03
    -45.662  0.0000E+00  0.2880E+03
    -45.403  0.0000E+00  0.2880E+03
    -45.144  0.0000E+00  0.2880E+03
    -44.884  0.0000E+00  0.2880E+03
    -44.625  0.0000E+00  0.2880E+03
    -44.366  0.0000E+00  0.2880E+03
    -44.107  0.0000E+00  0.2880E+03
    -43.848  0.0000E+00  0.2880E+03
    -43.589  0.0000E+00  0.2880E+03
    -43.329  0.0000E+00  0.2880E+03
    -43.070  0.0000E+00  0.2880E+03
    -42.811  0.0000E+00  0.2880E+03
    -42.552  0.0000E+00  0.2880E+03
    -42.293  0.0000E+00  0.2880E+03
    -42.034  0.0000E+00  0.2880E+03
    -41.774  0.0000E+00  0.2880E+03
    -41.515  0.0000E+00  0.2880E+03
    -41.256  0.0000E+00  0.2880E+03
    -40.997  0.0000E+00  0.2880E+03
    -40.738  0.0000E+00  0.2880E+03
    -40.479  0.0000E+00  0.2880E+03
    -40.219  0.0000E+00  0.2880E+03
    -39.960  0.0000E+00  0.2880E+03
    -39.701  0.0000E+00  0.2880E+03
    -39.442  0.0000E+00  0.2880E+03
    -39.183  0.0000E+00  0.2880E+03
    -38.924  0.0000E+00  0.2880E+03
    -38.664  0.0000E+00  0.2880E+03
    -38.405  0.0000E+00  0.2880E+03
    -38.146  0.0000E+00  0.2880E+03
    -37.887  0.0000E+00  0.2880E+03
    -37.628  0.0000E+00  0.2880E+03
    -37.369  0.0000E+00  0.2880E+03
    -37.109  0.0000E+00  0.2880E+03
    -36.850  0.0000E+00  0.2880E+03
    -36.591  0.0000E+00  0.2880E+03
    -36.332  0.0000E+00  0.2880E+03
    -36.073  0.0000E+00  0.2880E+03
    -35.814  0.0000E+00  0.2880E+03
    -35.555  0.0000E+00  0.2880E+03
    -35.295  0.0000E+00  0.2880E+03
    -35.036  0.0000E+00  0.2880E+03
    -34.777  0.0000E+00  0.2880E+03
    -34.518  0.0000E+00  0.2880E+03
    -34.259  0.0000E+00  0.2880E+03
    -34.000  0.0000E+00  0.2880E+03
    -33.740  0.0000E+00  0.2880E+03
    -33.481  0.0000E+00  0.2880E+03
    -33.222  0.0000E+00  0.2880E+03
    -32.963  0.0000E+00  0.2880E+03
    -32.704  0.0000E+00  0.2880E+03
    -32.445  0.0000E+00  0.2880E+03
    -32.185  0.0000E+00  0.2880E+03
    -31.926  0.0000E+00  0.2880E+03
    -31.667  0.0000E+00  0.2880E+03
    -31.408  0.0000E+00  0.2880E+03
    -31.149  0.0000E+00  0.2880E+03
    -30.890  0.0000E+00  0.2880E+03
    -30.630  0.0000E+00  0.2880E+03
    -30.371  0.0000E+00  0.2880E+03
    -30.112  0.0000E+00  0.2880E+03
    -29.853  0.0000E+00  0.2880E+03
    -29.594  0.0000E+00  0.2880E+03
    -29.335  0.0000E+00  0.2880E+03
    -29.075  0.0000E+00  0.2880E+03
    -28.816  0.0000E+00  0.2880E+03
    -28.557  0.0000E+00  0.2880E+03
    -28.298  0.0000E+00  0.2880E+03
    -28.039  0.0000E+00  0.2880E+03
    -27.780  0.0000E+00  0.2880E+03
    -27.520  0.0000E+00  0.2880E+03
    -27.261  0.0000E+00  0.2880E+03
    -27.002  0.0000E+00  0.2880E+03
    -26.743  0.0000E+00  0.2880E+03
    -26.484  0.0000E+00  0.2880E+03
    -26.225  0.0000E+00  0.2880E+03
    -25.965  0.0000E+00  0.2880E+03
    -25.706  0.0000E+00  0.2880E+03
    -25.447  0.0000E+00  0.2880E+03
    -25.188  0.0000E+00  0.2880E+03
    -24.929  0.0000E+00  0.2880E+03
    -24.670  0.0000E+00  0.2880E+03
    -24.410  0.0000E+00  0.2880E+03
    -24.151  0.0000E+00  0.2880E+03
    -23.892  0.0000E+00  0.2880E+03
    -23.633  0.0000E+00  0.2880E+03
    -23.374  0.0000E+00  0.2880E+03
    -23.115  0.0000E+00  0.2880E+03
    -22.855  0.0000E+00  0.2880E+03
    -22.596  0.0000E+00  0.2880E+03
    -22.337  0.0000E+00  0.2880E+03
    -22.078  0.0000E+00  0.2880E+03
    -21.819  0.0000E+00  0.2880E+03
    -21.560  0.0000E+00  0.2880E+03
    -21.300  0.0000E+00  0.2880E+03
    -21.041  0.0000E+00  0.2880E+03
    -20.782  0.0000E+00  0.2880E+03
    -20.523  0.0000E+00  0.2880E+03
    -20.264  0.0000E+00  0.2880E+03
    -20.005  0.0000E+00  0.2880E+03
    -19.745  0.0000E+00  0.2880E+03
    -19.486  0.0000E+00  0.2880E+03
    -19.227  0.0000E+00  0.2880E+03
    -18.968  0.0000E+00  0.2880E+03
    -18.709  0.0000E+00  0.2880E+03
    -18.450  0.0000E+00  0.2880E+03
    -18.191  0.0000E+00  0.2880E+03
    -17.931  0.0000E+00  0.2880E+03
    -17.672  0.0000E+00  0.2880E+03
    -17.413  0.0000E+00  0.2880E+03
    -17.154  0.0000E+00  0.2880E+03
    -16.895  0.0000E+00  0.2880E+03
    -16.636  0.0000E+00  0.2880E+03
    -16.376  0.0000E+00  0.2880E+03
    -16.117  0.0000E+00  0.2880E+03
    -15.858  0.0000E+00  0.2880E+03
    -15.599  0.0000E+00  0.2880E+03
    -15.340  0.0000E+00  0.2880E+03
    -15.081  0.0000E+00  0.2880E+03
    -14.821  0.0000E+00  0.2880E+03
    -14.562  0.0000E+00  0.2880E+03
    -14.303  0.0000E+00  0.2880E+03
    -14.044  0.0000E+00  0.2880E+03
    -13.785  0.1714E-14  0.2880E+03
    -13.526  0.1174E-08  0.2880E+03
    -13.266  0.3103E-04  0.2880E+03
    -13.007  0.3280E-01  0.2880E+03
    -12.748  0.1639E+01  0.2884E+03
    -12.489  0.6572E+01  0.2901E+03
    -12.230  0.7093E+01  0.2920E+03
    -11.971  0.1287E+02  0.2953E+03
    -11.711  0.1851E+02  0.3001E+03
    -11.452  0.1757E+02  0.3047E+03
    -11.193  0.2092E+02  0.3101E+03
    -10.934  0.3330E+02  0.3187E+03
    -10.675  0.5180E+02  0.3321E+03
    -10.416  0.4402E+02  0.3435E+03
    -10.156  0.5164E+02  0.3569E+03
     -9.897  0.4109E+02  0.3676E+03
     -9.638  0.1931E+02  0.3726E+03
     -9.379  0.1123E+02  0.3755E+03
     -9.120  0.1921E+01  0.3760E+03
     -8.861  0.8222E+00  0.3762E+03
     -8.601  0.7703E+01  0.3782E+03
     -8.342  0.6470E+01  0.3799E+03
     -8.083  0.5658E+00  0.3800E+03
     -7.824  0.3933E+01  0.3810E+03
     -7.565  0.9557E+01  0.3835E+03
     -7.306  0.1817E+01  0.3840E+03
     -7.046  0.2098E-01  0.3840E+03
     -6.787  0.1125E-04  0.3840E+03
     -6.528  0.2457E-09  0.3840E+03
     -6.269  0.0000E+00  0.3840E+03
     -6.010  0.0000E+00  0.3840E+03
     -5.751  0.3402E-10  0.3840E+03
     -5.491  0.2580E-05  0.3840E+03
     -5.232  0.8159E-02  0.3840E+03
     -4.973  0.1255E+01  0.3843E+03
     -4.714  0.1341E+02  0.3878E+03
     -4.455  0.2392E+02  0.3940E+03
     -4.196  0.2807E+02  0.4013E+03
     -3.936  0.2493E+02  0.4077E+03
     -3.677  0.4265E+02  0.4188E+03
     -3.418  0.6014E+02  0.4344E+03
     -3.159  0.4696E+02  0.4465E+03
     -2.900  0.3843E+02  0.4565E+03
     -2.641  0.3925E+02  0.4667E+03
     -2.382  0.3365E+02  0.4754E+03
     -2.122  0.3225E+02  0.4838E+03
     -1.863  0.5099E+02  0.4970E+03
     -1.604  0.7252E+02  0.5158E+03
     -1.345  0.7022E+02  0.5340E+03
     -1.086  0.9172E+02  0.5577E+03
     -0.827  0.1219E+03  0.5893E+03
     -0.567  0.8183E+02  0.6105E+03
     -0.308  0.5176E+02  0.6240E+03
     -0.049  0.6755E+02  0.6415E+03
      0.210  0.8035E+02  0.6623E+03
      0.469  0.7806E+02  0.6825E+03
      0.728  0.1178E+03  0.7130E+03
      0.988  0.1518E+03  0.7524E+03
      1.247  0.1187E+03  0.7831E+03
      1.506  0.2056E+03  0.8364E+03
      1.765  0.2416E+03  0.8990E+03
      2.024  0.1657E+03  0.9420E+03
      2.283  0.1313E+03  0.9760E+03
      2.543  0.8320E+02  0.9975E+03
      2.802  0.7202E+02  0.1016E+04
      3.061  0.7129E+02  0.1035E+04
      3.320  0.5971E+02  0.1050E+04
      3.579  0.7010E+02  0.1068E+04
      3.838  0.1024E+03  0.1095E+04
      4.098  0.9562E+02  0.1120E+04
      4.357  0.7586E+02  0.1139E+04
      4.616  0.4362E+02  0.1151E+04
      4.875  0.1686E+02  0.1155E+04
      5.134  0.4110E+01  0.1156E+04
      5.393  0.5284E+01  0.1157E+04
      5.653  0.8910E+01  0.1160E+04
      5.912  0.9516E+01  0.1162E+04
      6.171  0.2268E+02  0.1168E+04
      6.430  0.2009E+02  0.1173E+04
      6.689  0.1562E+02  0.1177E+04
      6.948  0.1218E+02  0.1180E+04
      7.208  0.1963E+02  0.1186E+04
      7.467  0.3786E+02  0.1195E+04
      7.726  0.3990E+02  0.1206E+04
      7.985  0.3630E+02  0.1215E+04
      8.244  0.2653E+02  0.1222E+04
      8.503  0.3592E+02  0.1231E+04
      8.763  0.4775E+02  0.1244E+04
      9.022  0.4468E+02  0.1255E+04
      9.281  0.3942E+02  0.1265E+04
      9.540  0.3685E+02  0.1275E+04
      9.799  0.1772E+02  0.1280E+04
     10.058  0.1443E+01  0.1280E+04
     10.318  0.1168E-01  0.1280E+04
     10.577  0.5365E-05  0.1280E+04
     10.836  0.1035E-09  0.1280E+04
     11.095  0.0000E+00  0.1280E+04
     11.354  0.0000E+00  0.1280E+04
     11.613  0.0000E+00  0.1280E+04
     11.873  0.0000E+00  0.1280E+04
     12.132  0.0000E+00  0.1280E+04
     12.391  0.0000E+00  0.1280E+04
     12.650  0.0000E+00  0.1280E+04
     12.909  0.0000E+00  0.1280E+04
     13.168  0.0000E+00  0.1280E+04
