"Millerite NiS"                         
           1
     6.169087    1.167339    0.000000
     0.000000   11.256463    0.000000
     0.000000    0.000000   28.810924
   Ni   S 
    48    48
Direct configuration=     1
   0.25630944  0.01645859  0.08783728
   0.25630944  0.01645859  0.42029486
   0.00630944  0.26645858  0.25406607
   0.00630944  0.26645858  0.58652364
   0.25630944  0.01645859  0.00000000
   0.25630944  0.01645859  0.33245757
   0.00630944  0.26645858  0.16622879
   0.00630944  0.26645858  0.49868636
   0.19025794  0.21461309  0.04391864
   0.19025794  0.21461309  0.37637622
   0.44025794  0.46461308  0.21014743
   0.44025794  0.46461308  0.54260500
   0.75630944  0.01645859  0.08783728
   0.75630944  0.01645859  0.42029486
   0.50630944  0.26645858  0.25406607
   0.50630944  0.26645858  0.58652364
   0.75630944  0.01645859  0.00000000
   0.75630944  0.01645859  0.33245757
   0.50630944  0.26645858  0.16622879
   0.50630944  0.26645858  0.49868636
   0.69025794  0.21461309  0.04391864
   0.69025794  0.21461309  0.37637622
   0.94025794  0.46461308  0.21014743
   0.94025794  0.46461308  0.54260500
   0.25630944  0.51645859  0.08783728
   0.25630944  0.51645859  0.42029486
   0.00630944  0.76645858  0.25406607
   0.00630944  0.76645858  0.58652364
   0.25630944  0.51645859  0.00000000
   0.25630944  0.51645859  0.33245757
   0.00630944  0.76645858  0.16622879
   0.00630944  0.76645858  0.49868636
   0.19025794  0.71461309  0.04391864
   0.19025794  0.71461309  0.37637622
   0.44025794  0.96461308  0.21014743
   0.44025794  0.96461308  0.54260500
   0.75630944  0.51645859  0.08783728
   0.75630944  0.51645859  0.42029486
   0.50630944  0.76645858  0.25406607
   0.50630944  0.76645858  0.58652364
   0.75630944  0.51645859  0.00000000
   0.75630944  0.51645859  0.33245757
   0.50630944  0.76645858  0.16622879
   0.50630944  0.76645858  0.49868636
   0.69025794  0.71461309  0.04391864
   0.69025794  0.71461309  0.37637622
   0.94025794  0.96461308  0.21014743
   0.94025794  0.96461308  0.54260500
   0.46840410  0.16661759  0.32045186
   0.46840410  0.16661759  0.65290944
   0.21840410  0.41661758  0.15422308
   0.21840410  0.41661758  0.48668065
   0.46840410  0.16661759  0.09984299
   0.46840410  0.16661759  0.43230056
   0.21840410  0.41661758  0.26607178
   0.21840410  0.41661758  0.59852935
   0.05251160  0.41429508  0.04391864
   0.05251160  0.41429508  0.37637622
   0.30251160  0.16429509  0.21014743
   0.30251160  0.16429509  0.54260500
   0.96840410  0.16661759  0.32045186
   0.96840410  0.16661759  0.65290944
   0.71840410  0.41661758  0.15422308
   0.71840410  0.41661758  0.48668065
   0.96840410  0.16661759  0.09984299
   0.96840410  0.16661759  0.43230056
   0.71840410  0.41661758  0.26607178
   0.71840410  0.41661758  0.59852935
   0.55251160  0.41429508  0.04391864
   0.55251160  0.41429508  0.37637622
   0.80251160  0.16429509  0.21014743
   0.80251160  0.16429509  0.54260500
   0.46840410  0.66661759  0.32045186
   0.46840410  0.66661759  0.65290944
   0.21840410  0.91661758  0.15422308
   0.21840410  0.91661758  0.48668065
   0.46840410  0.66661759  0.09984299
   0.46840410  0.66661759  0.43230056
   0.21840410  0.91661758  0.26607178
   0.21840410  0.91661758  0.59852935
   0.05251160  0.91429508  0.04391864
   0.05251160  0.91429508  0.37637622
   0.30251160  0.66429509  0.21014743
   0.30251160  0.66429509  0.54260500
   0.96840410  0.66661759  0.32045186
   0.96840410  0.66661759  0.65290944
   0.71840410  0.91661758  0.15422308
   0.71840410  0.91661758  0.48668065
   0.96840410  0.66661759  0.09984299
   0.96840410  0.66661759  0.43230056
   0.71840410  0.91661758  0.26607178
   0.71840410  0.91661758  0.59852935
   0.55251160  0.91429508  0.04391864
   0.55251160  0.91429508  0.37637622
   0.80251160  0.66429509  0.21014743
   0.80251160  0.66429509  0.54260500
