       N       E                     dE             d eps       ncg     rms          rms(c)
DAV:   1     0.990576444618E+04    0.99058E+04   -0.51353E+05  1160   0.165E+03
DAV:   2     0.604658165520E+03   -0.93011E+04   -0.89700E+04  1012   0.531E+02
DAV:   3    -0.341272421310E+03   -0.94593E+03   -0.89846E+03  1088   0.185E+02
DAV:   4    -0.398389078516E+03   -0.57117E+02   -0.56508E+02  1096   0.411E+01
DAV:   5    -0.400621595714E+03   -0.22325E+01   -0.22293E+01  1248   0.863E+00    0.959E+01
DAV:   6    -0.465911000172E+03   -0.65289E+02   -0.92198E+02  1184   0.125E+02    0.155E+02
DAV:   7    -0.369275973627E+03    0.96635E+02   -0.20182E+02  1064   0.807E+01    0.669E+01
DAV:   8    -0.423830751658E+03   -0.54555E+02   -0.21835E+02  1296   0.981E+01    0.127E+02
DAV:   9    -0.376474803790E+03    0.47356E+02   -0.14975E+02  1236   0.639E+01    0.596E+01
DAV:  10    -0.384813934330E+03   -0.83391E+01   -0.70156E+01  1320   0.530E+01    0.661E+01
DAV:  11    -0.371809096505E+03    0.13005E+02   -0.47762E+01  1224   0.511E+01    0.502E+01
DAV:  12    -0.371070721950E+03    0.73837E+00   -0.40735E+01  1312   0.409E+01    0.534E+01
DAV:  13    -0.359752445454E+03    0.11318E+02   -0.26347E+01  1320   0.282E+01    0.279E+01
DAV:  14    -0.356642079874E+03    0.31104E+01   -0.92420E+00  1328   0.196E+01    0.233E+01
DAV:  15    -0.354596142498E+03    0.20459E+01   -0.42865E+00  1304   0.122E+01    0.180E+01
DAV:  16    -0.354258813175E+03    0.33733E+00   -0.11342E+00  1280   0.577E+00    0.170E+01
DAV:  17    -0.353752627986E+03    0.50619E+00   -0.31682E-01  1240   0.359E+00    0.156E+01
DAV:  18    -0.353333211963E+03    0.41942E+00   -0.15521E-01  1312   0.243E+00    0.147E+01
DAV:  19    -0.352457716422E+03    0.87550E+00   -0.31207E-01  1408   0.438E+00    0.116E+01
DAV:  20    -0.351669212825E+03    0.78850E+00   -0.52668E-01  1312   0.529E+00    0.749E+00
DAV:  21    -0.351340667565E+03    0.32855E+00   -0.60733E-01  1312   0.497E+00    0.411E+00
DAV:  22    -0.351301111990E+03    0.39556E-01   -0.27695E-01  1280   0.237E+00    0.296E+00
DAV:  23    -0.351299627506E+03    0.14845E-02   -0.14585E-01  1144   0.243E+00    0.280E+00
DAV:  24    -0.351302487606E+03   -0.28601E-02   -0.11348E-01  1328   0.253E+00    0.259E+00
DAV:  25    -0.351278254668E+03    0.24233E-01   -0.10713E-01  1136   0.231E+00    0.169E+00
DAV:  26    -0.351290005389E+03   -0.11751E-01   -0.95032E-02  1296   0.189E+00    0.211E+00
DAV:  27    -0.351268700729E+03    0.21305E-01   -0.53198E-02  1256   0.141E+00    0.829E-01
DAV:  28    -0.351269951202E+03   -0.12505E-02   -0.11100E-02  1264   0.646E-01    0.836E-01
DAV:  29    -0.351266990565E+03    0.29606E-02   -0.98590E-03  1400   0.568E-01    0.455E-01
DAV:  30    -0.351266762043E+03    0.22852E-03   -0.31436E-03  1296   0.330E-01    0.345E-01
DAV:  31    -0.351267055720E+03   -0.29368E-03   -0.19089E-03  1048   0.288E-01    0.322E-01
DAV:  32    -0.351267009178E+03    0.46542E-04   -0.11082E-03  1032   0.256E-01    0.234E-01
DAV:  33    -0.351267321201E+03   -0.31202E-03   -0.39294E-04   784   0.142E-01    0.192E-01
DAV:  34    -0.351267341978E+03   -0.20777E-04   -0.19682E-04   600   0.117E-01
   1 F= -.35126734E+03 E0= -.35078930E+03  d E =-.956082E+00
