       N       E                     dE             d eps       ncg     rms          rms(c)
DAV:   1     0.146458549749E+05    0.14646E+05   -0.73481E+05  1656   0.169E+03
DAV:   2     0.996132006349E+03   -0.13650E+05   -0.13169E+05  1440   0.545E+02
DAV:   3    -0.474244099289E+03   -0.14704E+04   -0.13693E+04  1576   0.190E+02
DAV:   4    -0.580730598426E+03   -0.10649E+03   -0.10464E+03  1608   0.443E+01
DAV:   5    -0.584806298922E+03   -0.40757E+01   -0.40676E+01  1768   0.933E+00    0.101E+02
DAV:   6    -0.785341334192E+03   -0.20054E+03   -0.14410E+03  1656   0.124E+02    0.211E+02
DAV:   7    -0.592348426621E+03    0.19299E+03   -0.23984E+02  1648   0.843E+01    0.135E+02
DAV:   8    -0.628164390499E+03   -0.35816E+02   -0.18966E+02  1688   0.915E+01    0.114E+02
DAV:   9    -0.634194508628E+03   -0.60301E+01   -0.25296E+02  1880   0.954E+01    0.165E+02
DAV:  10    -0.539397482077E+03    0.94797E+02   -0.12490E+02  1872   0.453E+01    0.651E+01
DAV:  11    -0.539847813925E+03   -0.45033E+00   -0.11214E+02  1960   0.606E+01    0.919E+01
DAV:  12    -0.554997437781E+03   -0.15150E+02   -0.79417E+01  1816   0.480E+01    0.102E+02
DAV:  13    -0.522611074966E+03    0.32386E+02   -0.46042E+01  1872   0.326E+01    0.473E+01
DAV:  14    -0.518281091274E+03    0.43300E+01   -0.37287E+01  1832   0.337E+01    0.495E+01
DAV:  15    -0.519631078468E+03   -0.13500E+01   -0.41332E+01  1864   0.248E+01    0.427E+01
DAV:  16    -0.514269414057E+03    0.53617E+01   -0.14363E+01  1808   0.209E+01    0.387E+01
DAV:  17    -0.512331125648E+03    0.19383E+01   -0.10896E+01  1816   0.136E+01    0.232E+01
DAV:  18    -0.510596505121E+03    0.17346E+01   -0.20945E+00  1856   0.686E+00    0.185E+01
DAV:  19    -0.509969597166E+03    0.62691E+00   -0.15505E+00  1792   0.695E+00    0.164E+01
DAV:  20    -0.509857380805E+03    0.11222E+00   -0.17475E+00  1776   0.658E+00    0.156E+01
DAV:  21    -0.509546311115E+03    0.31107E+00   -0.16255E+00  1872   0.719E+00    0.133E+01
DAV:  22    -0.509325091193E+03    0.22122E+00   -0.11013E+00  1864   0.517E+00    0.115E+01
DAV:  23    -0.509272746632E+03    0.52345E-01   -0.12137E+00  1896   0.558E+00    0.118E+01
DAV:  24    -0.509073398881E+03    0.19935E+00   -0.54947E-01  1856   0.388E+00    0.961E+00
DAV:  25    -0.508914711552E+03    0.15869E+00   -0.43118E-01  1760   0.361E+00    0.681E+00
DAV:  26    -0.508832624792E+03    0.82087E-01   -0.21145E-01  1848   0.225E+00    0.515E+00
DAV:  27    -0.508807641234E+03    0.24984E-01   -0.10821E-01  1856   0.161E+00    0.428E+00
DAV:  28    -0.508783513197E+03    0.24128E-01   -0.73117E-02  1872   0.151E+00    0.356E+00
DAV:  29    -0.508780583779E+03    0.29294E-02   -0.60142E-02  1864   0.123E+00    0.364E+00
DAV:  30    -0.508761639720E+03    0.18944E-01   -0.29576E-02  1872   0.940E-01    0.283E+00
DAV:  31    -0.508751476156E+03    0.10164E-01   -0.31168E-02  1864   0.105E+00    0.227E+00
DAV:  32    -0.508746314289E+03    0.51619E-02   -0.34225E-02  1904   0.881E-01    0.180E+00
DAV:  33    -0.508740625891E+03    0.56884E-02   -0.25542E-02  1832   0.879E-01    0.129E+00
DAV:  34    -0.508737145677E+03    0.34802E-02   -0.15179E-02  1832   0.581E-01    0.110E+00
DAV:  35    -0.508735803753E+03    0.13419E-02   -0.70163E-03  1808   0.390E-01    0.853E-01
DAV:  36    -0.508734994260E+03    0.80949E-03   -0.21588E-03  1600   0.207E-01    0.754E-01
DAV:  37    -0.508734641644E+03    0.35262E-03   -0.93130E-04  1360   0.147E-01    0.687E-01
DAV:  38    -0.508734275343E+03    0.36630E-03   -0.98440E-04  1560   0.171E-01    0.566E-01
DAV:  39    -0.508734459280E+03   -0.18394E-03   -0.16336E-03  1696   0.266E-01    0.515E-01
DAV:  40    -0.508734857024E+03   -0.39774E-03   -0.22694E-03  1712   0.260E-01    0.461E-01
DAV:  41    -0.508734769267E+03    0.87757E-04   -0.16576E-03  1472   0.224E-01    0.295E-01
DAV:  42    -0.508735041748E+03   -0.27248E-03   -0.61667E-04  1280   0.135E-01    0.233E-01
DAV:  43    -0.508735185654E+03   -0.14391E-03   -0.28071E-04   976   0.102E-01    0.155E-01
DAV:  44    -0.508735545187E+03   -0.35953E-03   -0.29621E-04   992   0.981E-02    0.201E-01
DAV:  45    -0.508735673932E+03   -0.12874E-03   -0.26032E-04   984   0.952E-02    0.120E-01
DAV:  46    -0.508735849750E+03   -0.17582E-03   -0.10898E-04   856   0.558E-02    0.918E-02
DAV:  47    -0.508736161068E+03   -0.31132E-03   -0.82723E-05   880   0.548E-02    0.806E-02
DAV:  48    -0.508736402826E+03   -0.24176E-03   -0.59183E-05   872   0.359E-02    0.532E-02
DAV:  49    -0.508736663608E+03   -0.26078E-03   -0.41812E-05   856   0.322E-02    0.541E-02
DAV:  50    -0.508736954778E+03   -0.29117E-03   -0.44613E-05   840   0.338E-02    0.371E-02
DAV:  51    -0.508737129835E+03   -0.17506E-03   -0.30226E-05   888   0.241E-02    0.288E-02
DAV:  52    -0.508737262612E+03   -0.13278E-03   -0.22514E-05   832   0.225E-02    0.219E-02
DAV:  53    -0.508737528834E+03   -0.26622E-03   -0.25157E-05   880   0.130E-02    0.233E-02
DAV:  54    -0.508737678211E+03   -0.14938E-03   -0.18736E-05   848   0.157E-02    0.242E-02
DAV:  55    -0.508737811574E+03   -0.13336E-03   -0.17033E-05   872   0.157E-02    0.180E-02
DAV:  56    -0.508737879016E+03   -0.67441E-04   -0.12123E-05   848   0.114E-02
   1 F= -.50873788E+03 E0= -.50787763E+03  d E =-.172049E+01
