  72  72   0   0
  0.3631948E+02  0.1688469E-08  0.9578410E-09  0.1616909E-08  0.5000000E-15
  1.000000000000000E-004
  CAR 
 "Millerite NiS"                         
      9.30648607    -68.77065236  301     -0.19652662      1.00000000
    -68.771  0.0000E+00  0.0000E+00
    -68.510  0.0000E+00  0.0000E+00
    -68.250  0.0000E+00  0.0000E+00
    -67.990  0.0000E+00  0.0000E+00
    -67.730  0.0000E+00  0.0000E+00
    -67.469  0.0000E+00  0.0000E+00
    -67.209  0.0000E+00  0.0000E+00
    -66.949  0.0000E+00  0.0000E+00
    -66.689  0.0000E+00  0.0000E+00
    -66.428  0.0000E+00  0.0000E+00
    -66.168  0.8523E-10  0.2218E-10
    -65.908  0.4848E-05  0.1262E-05
    -65.648  0.1125E-01  0.2929E-02
    -65.387  0.1414E+01  0.3710E+00
    -65.127  0.1908E+02  0.5338E+01
    -64.867  0.8672E+02  0.2791E+02
    -64.607  0.1780E+03  0.7424E+02
    -64.346  0.1958E+03  0.1252E+03
    -64.086  0.1655E+03  0.1683E+03
    -63.826  0.9642E+02  0.1933E+03
    -63.566  0.5970E+02  0.2089E+03
    -63.305  0.2552E+02  0.2155E+03
    -63.045  0.1820E+01  0.2160E+03
    -62.785  0.9240E-02  0.2160E+03
    -62.524  0.2275E-05  0.2160E+03
    -62.264  0.2301E-10  0.2160E+03
    -62.004  0.0000E+00  0.2160E+03
    -61.744  0.0000E+00  0.2160E+03
    -61.483  0.0000E+00  0.2160E+03
    -61.223  0.0000E+00  0.2160E+03
    -60.963  0.0000E+00  0.2160E+03
    -60.703  0.0000E+00  0.2160E+03
    -60.442  0.0000E+00  0.2160E+03
    -60.182  0.0000E+00  0.2160E+03
    -59.922  0.0000E+00  0.2160E+03
    -59.662  0.0000E+00  0.2160E+03
    -59.401  0.0000E+00  0.2160E+03
    -59.141  0.0000E+00  0.2160E+03
    -58.881  0.0000E+00  0.2160E+03
    -58.621  0.0000E+00  0.2160E+03
    -58.360  0.0000E+00  0.2160E+03
    -58.100  0.0000E+00  0.2160E+03
    -57.840  0.0000E+00  0.2160E+03
    -57.580  0.0000E+00  0.2160E+03
    -57.319  0.0000E+00  0.2160E+03
    -57.059  0.0000E+00  0.2160E+03
    -56.799  0.0000E+00  0.2160E+03
    -56.539  0.0000E+00  0.2160E+03
    -56.278  0.0000E+00  0.2160E+03
    -56.018  0.0000E+00  0.2160E+03
    -55.758  0.0000E+00  0.2160E+03
    -55.498  0.0000E+00  0.2160E+03
    -55.237  0.0000E+00  0.2160E+03
    -54.977  0.0000E+00  0.2160E+03
    -54.717  0.0000E+00  0.2160E+03
    -54.457  0.0000E+00  0.2160E+03
    -54.196  0.0000E+00  0.2160E+03
    -53.936  0.0000E+00  0.2160E+03
    -53.676  0.0000E+00  0.2160E+03
    -53.415  0.0000E+00  0.2160E+03
    -53.155  0.0000E+00  0.2160E+03
    -52.895  0.0000E+00  0.2160E+03
    -52.635  0.0000E+00  0.2160E+03
    -52.374  0.0000E+00  0.2160E+03
    -52.114  0.0000E+00  0.2160E+03
    -51.854  0.0000E+00  0.2160E+03
    -51.594  0.0000E+00  0.2160E+03
    -51.333  0.0000E+00  0.2160E+03
    -51.073  0.0000E+00  0.2160E+03
    -50.813  0.0000E+00  0.2160E+03
    -50.553  0.0000E+00  0.2160E+03
    -50.292  0.0000E+00  0.2160E+03
    -50.032  0.0000E+00  0.2160E+03
    -49.772  0.0000E+00  0.2160E+03
    -49.512  0.0000E+00  0.2160E+03
    -49.251  0.0000E+00  0.2160E+03
    -48.991  0.0000E+00  0.2160E+03
    -48.731  0.0000E+00  0.2160E+03
    -48.471  0.0000E+00  0.2160E+03
    -48.210  0.0000E+00  0.2160E+03
    -47.950  0.0000E+00  0.2160E+03
    -47.690  0.0000E+00  0.2160E+03
    -47.430  0.0000E+00  0.2160E+03
    -47.169  0.0000E+00  0.2160E+03
    -46.909  0.0000E+00  0.2160E+03
    -46.649  0.0000E+00  0.2160E+03
    -46.389  0.0000E+00  0.2160E+03
    -46.128  0.0000E+00  0.2160E+03
    -45.868  0.0000E+00  0.2160E+03
    -45.608  0.0000E+00  0.2160E+03
    -45.348  0.0000E+00  0.2160E+03
    -45.087  0.0000E+00  0.2160E+03
    -44.827  0.0000E+00  0.2160E+03
    -44.567  0.0000E+00  0.2160E+03
    -44.306  0.0000E+00  0.2160E+03
    -44.046  0.0000E+00  0.2160E+03
    -43.786  0.0000E+00  0.2160E+03
    -43.526  0.0000E+00  0.2160E+03
    -43.265  0.0000E+00  0.2160E+03
    -43.005  0.0000E+00  0.2160E+03
    -42.745  0.0000E+00  0.2160E+03
    -42.485  0.0000E+00  0.2160E+03
    -42.224  0.0000E+00  0.2160E+03
    -41.964  0.0000E+00  0.2160E+03
    -41.704  0.0000E+00  0.2160E+03
    -41.444  0.0000E+00  0.2160E+03
    -41.183  0.0000E+00  0.2160E+03
    -40.923  0.0000E+00  0.2160E+03
    -40.663  0.0000E+00  0.2160E+03
    -40.403  0.0000E+00  0.2160E+03
    -40.142  0.0000E+00  0.2160E+03
    -39.882  0.0000E+00  0.2160E+03
    -39.622  0.0000E+00  0.2160E+03
    -39.362  0.0000E+00  0.2160E+03
    -39.101  0.0000E+00  0.2160E+03
    -38.841  0.0000E+00  0.2160E+03
    -38.581  0.0000E+00  0.2160E+03
    -38.321  0.0000E+00  0.2160E+03
    -38.060  0.0000E+00  0.2160E+03
    -37.800  0.0000E+00  0.2160E+03
    -37.540  0.0000E+00  0.2160E+03
    -37.280  0.0000E+00  0.2160E+03
    -37.019  0.0000E+00  0.2160E+03
    -36.759  0.0000E+00  0.2160E+03
    -36.499  0.0000E+00  0.2160E+03
    -36.239  0.0000E+00  0.2160E+03
    -35.978  0.0000E+00  0.2160E+03
    -35.718  0.0000E+00  0.2160E+03
    -35.458  0.0000E+00  0.2160E+03
    -35.197  0.0000E+00  0.2160E+03
    -34.937  0.0000E+00  0.2160E+03
    -34.677  0.0000E+00  0.2160E+03
    -34.417  0.0000E+00  0.2160E+03
    -34.156  0.0000E+00  0.2160E+03
    -33.896  0.0000E+00  0.2160E+03
    -33.636  0.0000E+00  0.2160E+03
    -33.376  0.0000E+00  0.2160E+03
    -33.115  0.0000E+00  0.2160E+03
    -32.855  0.0000E+00  0.2160E+03
    -32.595  0.0000E+00  0.2160E+03
    -32.335  0.0000E+00  0.2160E+03
    -32.074  0.0000E+00  0.2160E+03
    -31.814  0.0000E+00  0.2160E+03
    -31.554  0.0000E+00  0.2160E+03
    -31.294  0.0000E+00  0.2160E+03
    -31.033  0.0000E+00  0.2160E+03
    -30.773  0.0000E+00  0.2160E+03
    -30.513  0.0000E+00  0.2160E+03
    -30.253  0.0000E+00  0.2160E+03
    -29.992  0.0000E+00  0.2160E+03
    -29.732  0.0000E+00  0.2160E+03
    -29.472  0.0000E+00  0.2160E+03
    -29.212  0.0000E+00  0.2160E+03
    -28.951  0.0000E+00  0.2160E+03
    -28.691  0.0000E+00  0.2160E+03
    -28.431  0.0000E+00  0.2160E+03
    -28.171  0.0000E+00  0.2160E+03
    -27.910  0.0000E+00  0.2160E+03
    -27.650  0.0000E+00  0.2160E+03
    -27.390  0.0000E+00  0.2160E+03
    -27.130  0.0000E+00  0.2160E+03
    -26.869  0.0000E+00  0.2160E+03
    -26.609  0.0000E+00  0.2160E+03
    -26.349  0.0000E+00  0.2160E+03
    -26.088  0.0000E+00  0.2160E+03
    -25.828  0.0000E+00  0.2160E+03
    -25.568  0.0000E+00  0.2160E+03
    -25.308  0.0000E+00  0.2160E+03
    -25.047  0.0000E+00  0.2160E+03
    -24.787  0.0000E+00  0.2160E+03
    -24.527  0.0000E+00  0.2160E+03
    -24.267  0.0000E+00  0.2160E+03
    -24.006  0.0000E+00  0.2160E+03
    -23.746  0.0000E+00  0.2160E+03
    -23.486  0.0000E+00  0.2160E+03
    -23.226  0.0000E+00  0.2160E+03
    -22.965  0.0000E+00  0.2160E+03
    -22.705  0.0000E+00  0.2160E+03
    -22.445  0.0000E+00  0.2160E+03
    -22.185  0.0000E+00  0.2160E+03
    -21.924  0.0000E+00  0.2160E+03
    -21.664  0.0000E+00  0.2160E+03
    -21.404  0.0000E+00  0.2160E+03
    -21.144  0.0000E+00  0.2160E+03
    -20.883  0.0000E+00  0.2160E+03
    -20.623  0.0000E+00  0.2160E+03
    -20.363  0.0000E+00  0.2160E+03
    -20.103  0.0000E+00  0.2160E+03
    -19.842  0.0000E+00  0.2160E+03
    -19.582  0.0000E+00  0.2160E+03
    -19.322  0.0000E+00  0.2160E+03
    -19.062  0.0000E+00  0.2160E+03
    -18.801  0.0000E+00  0.2160E+03
    -18.541  0.0000E+00  0.2160E+03
    -18.281  0.0000E+00  0.2160E+03
    -18.021  0.0000E+00  0.2160E+03
    -17.760  0.1706E-14  0.2160E+03
    -17.500  0.1338E-08  0.2160E+03
    -17.240  0.3536E-04  0.2160E+03
    -16.979  0.3666E-01  0.2160E+03
    -16.719  0.1840E+01  0.2165E+03
    -16.459  0.7900E+01  0.2185E+03
    -16.199  0.6752E+01  0.2203E+03
    -15.938  0.8768E+01  0.2226E+03
    -15.678  0.1485E+02  0.2264E+03
    -15.418  0.1461E+02  0.2302E+03
    -15.158  0.1617E+02  0.2345E+03
    -14.897  0.2410E+02  0.2407E+03
    -14.637  0.2480E+02  0.2472E+03
    -14.377  0.2373E+02  0.2534E+03
    -14.117  0.2893E+02  0.2609E+03
    -13.856  0.2141E+02  0.2665E+03
    -13.596  0.2262E+02  0.2723E+03
    -13.336  0.2591E+02  0.2791E+03
    -13.076  0.2070E+02  0.2845E+03
    -12.815  0.1030E+02  0.2872E+03
    -12.555  0.3111E+01  0.2880E+03
    -12.295  0.1155E+00  0.2880E+03
    -12.035  0.2287E-03  0.2880E+03
    -11.774  0.1830E-07  0.2880E+03
    -11.514  0.5460E-13  0.2880E+03
    -11.254  0.0000E+00  0.2880E+03
    -10.994  0.0000E+00  0.2880E+03
    -10.733  0.0000E+00  0.2880E+03
    -10.473  0.0000E+00  0.2880E+03
    -10.213  0.0000E+00  0.2880E+03
     -9.953  0.0000E+00  0.2880E+03
     -9.692  0.0000E+00  0.2880E+03
     -9.432  0.2984E-10  0.2880E+03
     -9.172  0.2217E-05  0.2880E+03
     -8.912  0.6483E-02  0.2880E+03
     -8.651  0.8910E+00  0.2882E+03
     -8.391  0.8533E+01  0.2905E+03
     -8.131  0.1377E+02  0.2940E+03
     -7.870  0.2014E+02  0.2993E+03
     -7.610  0.2728E+02  0.3064E+03
     -7.350  0.3808E+02  0.3163E+03
     -7.090  0.3569E+02  0.3256E+03
     -6.829  0.3820E+02  0.3355E+03
     -6.569  0.4265E+02  0.3466E+03
     -6.309  0.4267E+02  0.3577E+03
     -6.049  0.5056E+02  0.3709E+03
     -5.788  0.5353E+02  0.3848E+03
     -5.528  0.5262E+02  0.3985E+03
     -5.268  0.6006E+02  0.4141E+03
     -5.008  0.6603E+02  0.4313E+03
     -4.747  0.6185E+02  0.4474E+03
     -4.487  0.5133E+02  0.4608E+03
     -4.227  0.4660E+02  0.4729E+03
     -3.967  0.4208E+02  0.4839E+03
     -3.706  0.4559E+02  0.4957E+03
     -3.446  0.5562E+02  0.5102E+03
     -3.186  0.7167E+02  0.5289E+03
     -2.926  0.7862E+02  0.5493E+03
     -2.665  0.9446E+02  0.5739E+03
     -2.405  0.1168E+03  0.6043E+03
     -2.145  0.1242E+03  0.6366E+03
     -1.885  0.1181E+03  0.6674E+03
     -1.624  0.1034E+03  0.6943E+03
     -1.364  0.9314E+02  0.7185E+03
     -1.104  0.8492E+02  0.7406E+03
     -0.844  0.6629E+02  0.7579E+03
     -0.583  0.5523E+02  0.7722E+03
     -0.323  0.4910E+02  0.7850E+03
     -0.063  0.5661E+02  0.7998E+03
      0.197  0.5293E+02  0.8135E+03
      0.458  0.3831E+02  0.8235E+03
      0.718  0.3360E+02  0.8322E+03
      0.978  0.4067E+02  0.8428E+03
      1.239  0.4211E+02  0.8538E+03
      1.499  0.2872E+02  0.8613E+03
      1.759  0.1177E+02  0.8643E+03
      2.019  0.5535E+01  0.8658E+03
      2.280  0.9689E+00  0.8660E+03
      2.540  0.2370E+01  0.8666E+03
      2.800  0.7679E+01  0.8686E+03
      3.060  0.1237E+02  0.8719E+03
      3.321  0.1353E+02  0.8754E+03
      3.581  0.1401E+02  0.8790E+03
      3.841  0.1440E+02  0.8828E+03
      4.101  0.2262E+02  0.8887E+03
      4.362  0.2536E+02  0.8953E+03
      4.622  0.2912E+02  0.9028E+03
      4.882  0.4064E+02  0.9134E+03
      5.142  0.4100E+02  0.9241E+03
      5.403  0.4332E+02  0.9354E+03
      5.663  0.4046E+02  0.9459E+03
      5.923  0.2155E+02  0.9515E+03
      6.183  0.1914E+01  0.9520E+03
      6.444  0.1404E-01  0.9520E+03
      6.704  0.5486E-05  0.9520E+03
      6.964  0.9070E-10  0.9520E+03
      7.224  0.0000E+00  0.9520E+03
      7.485  0.0000E+00  0.9520E+03
      7.745  0.0000E+00  0.9520E+03
      8.005  0.0000E+00  0.9520E+03
      8.265  0.0000E+00  0.9520E+03
      8.526  0.0000E+00  0.9520E+03
      8.786  0.0000E+00  0.9520E+03
      9.046  0.0000E+00  0.9520E+03
      9.306  0.0000E+00  0.9520E+03
