  96  96   0   0
  0.2657162E+02  0.1125646E-08  0.1125646E-08  0.2251996E-08  0.5000000E-15
  1.000000000000000E-004
  CAR 
 "Millerite NiS"                         
     11.33883292    -66.59459988  301      1.59499053      1.00000000
    -66.595  0.0000E+00  0.0000E+00
    -66.335  0.0000E+00  0.0000E+00
    -66.075  0.0000E+00  0.0000E+00
    -65.815  0.0000E+00  0.0000E+00
    -65.555  0.0000E+00  0.0000E+00
    -65.296  0.0000E+00  0.0000E+00
    -65.036  0.0000E+00  0.0000E+00
    -64.776  0.0000E+00  0.0000E+00
    -64.516  0.0000E+00  0.0000E+00
    -64.257  0.0000E+00  0.0000E+00
    -63.997  0.1063E-09  0.2762E-10
    -63.737  0.6831E-05  0.1775E-05
    -63.477  0.2065E-01  0.5367E-02
    -63.217  0.3765E+01  0.9835E+00
    -62.958  0.6476E+02  0.1781E+02
    -62.698  0.2058E+03  0.7127E+02
    -62.438  0.3286E+03  0.1566E+03
    -62.178  0.3176E+03  0.2391E+03
    -61.919  0.1286E+03  0.2726E+03
    -61.659  0.5296E+02  0.2863E+03
    -61.399  0.6426E+01  0.2880E+03
    -61.139  0.6017E-01  0.2880E+03
    -60.879  0.2956E-04  0.2880E+03
    -60.620  0.6464E-09  0.2880E+03
    -60.360  0.0000E+00  0.2880E+03
    -60.100  0.0000E+00  0.2880E+03
    -59.840  0.0000E+00  0.2880E+03
    -59.581  0.0000E+00  0.2880E+03
    -59.321  0.0000E+00  0.2880E+03
    -59.061  0.0000E+00  0.2880E+03
    -58.801  0.0000E+00  0.2880E+03
    -58.541  0.0000E+00  0.2880E+03
    -58.282  0.0000E+00  0.2880E+03
    -58.022  0.0000E+00  0.2880E+03
    -57.762  0.0000E+00  0.2880E+03
    -57.502  0.0000E+00  0.2880E+03
    -57.243  0.0000E+00  0.2880E+03
    -56.983  0.0000E+00  0.2880E+03
    -56.723  0.0000E+00  0.2880E+03
    -56.463  0.0000E+00  0.2880E+03
    -56.203  0.0000E+00  0.2880E+03
    -55.944  0.0000E+00  0.2880E+03
    -55.684  0.0000E+00  0.2880E+03
    -55.424  0.0000E+00  0.2880E+03
    -55.164  0.0000E+00  0.2880E+03
    -54.905  0.0000E+00  0.2880E+03
    -54.645  0.0000E+00  0.2880E+03
    -54.385  0.0000E+00  0.2880E+03
    -54.125  0.0000E+00  0.2880E+03
    -53.865  0.0000E+00  0.2880E+03
    -53.606  0.0000E+00  0.2880E+03
    -53.346  0.0000E+00  0.2880E+03
    -53.086  0.0000E+00  0.2880E+03
    -52.826  0.0000E+00  0.2880E+03
    -52.567  0.0000E+00  0.2880E+03
    -52.307  0.0000E+00  0.2880E+03
    -52.047  0.0000E+00  0.2880E+03
    -51.787  0.0000E+00  0.2880E+03
    -51.527  0.0000E+00  0.2880E+03
    -51.268  0.0000E+00  0.2880E+03
    -51.008  0.0000E+00  0.2880E+03
    -50.748  0.0000E+00  0.2880E+03
    -50.488  0.0000E+00  0.2880E+03
    -50.229  0.0000E+00  0.2880E+03
    -49.969  0.0000E+00  0.2880E+03
    -49.709  0.0000E+00  0.2880E+03
    -49.449  0.0000E+00  0.2880E+03
    -49.189  0.0000E+00  0.2880E+03
    -48.930  0.0000E+00  0.2880E+03
    -48.670  0.0000E+00  0.2880E+03
    -48.410  0.0000E+00  0.2880E+03
    -48.150  0.0000E+00  0.2880E+03
    -47.891  0.0000E+00  0.2880E+03
    -47.631  0.0000E+00  0.2880E+03
    -47.371  0.0000E+00  0.2880E+03
    -47.111  0.0000E+00  0.2880E+03
    -46.851  0.0000E+00  0.2880E+03
    -46.592  0.0000E+00  0.2880E+03
    -46.332  0.0000E+00  0.2880E+03
    -46.072  0.0000E+00  0.2880E+03
    -45.812  0.0000E+00  0.2880E+03
    -45.553  0.0000E+00  0.2880E+03
    -45.293  0.0000E+00  0.2880E+03
    -45.033  0.0000E+00  0.2880E+03
    -44.773  0.0000E+00  0.2880E+03
    -44.513  0.0000E+00  0.2880E+03
    -44.254  0.0000E+00  0.2880E+03
    -43.994  0.0000E+00  0.2880E+03
    -43.734  0.0000E+00  0.2880E+03
    -43.474  0.0000E+00  0.2880E+03
    -43.215  0.0000E+00  0.2880E+03
    -42.955  0.0000E+00  0.2880E+03
    -42.695  0.0000E+00  0.2880E+03
    -42.435  0.0000E+00  0.2880E+03
    -42.175  0.0000E+00  0.2880E+03
    -41.916  0.0000E+00  0.2880E+03
    -41.656  0.0000E+00  0.2880E+03
    -41.396  0.0000E+00  0.2880E+03
    -41.136  0.0000E+00  0.2880E+03
    -40.877  0.0000E+00  0.2880E+03
    -40.617  0.0000E+00  0.2880E+03
    -40.357  0.0000E+00  0.2880E+03
    -40.097  0.0000E+00  0.2880E+03
    -39.837  0.0000E+00  0.2880E+03
    -39.578  0.0000E+00  0.2880E+03
    -39.318  0.0000E+00  0.2880E+03
    -39.058  0.0000E+00  0.2880E+03
    -38.798  0.0000E+00  0.2880E+03
    -38.539  0.0000E+00  0.2880E+03
    -38.279  0.0000E+00  0.2880E+03
    -38.019  0.0000E+00  0.2880E+03
    -37.759  0.0000E+00  0.2880E+03
    -37.499  0.0000E+00  0.2880E+03
    -37.240  0.0000E+00  0.2880E+03
    -36.980  0.0000E+00  0.2880E+03
    -36.720  0.0000E+00  0.2880E+03
    -36.460  0.0000E+00  0.2880E+03
    -36.201  0.0000E+00  0.2880E+03
    -35.941  0.0000E+00  0.2880E+03
    -35.681  0.0000E+00  0.2880E+03
    -35.421  0.0000E+00  0.2880E+03
    -35.161  0.0000E+00  0.2880E+03
    -34.902  0.0000E+00  0.2880E+03
    -34.642  0.0000E+00  0.2880E+03
    -34.382  0.0000E+00  0.2880E+03
    -34.122  0.0000E+00  0.2880E+03
    -33.863  0.0000E+00  0.2880E+03
    -33.603  0.0000E+00  0.2880E+03
    -33.343  0.0000E+00  0.2880E+03
    -33.083  0.0000E+00  0.2880E+03
    -32.823  0.0000E+00  0.2880E+03
    -32.564  0.0000E+00  0.2880E+03
    -32.304  0.0000E+00  0.2880E+03
    -32.044  0.0000E+00  0.2880E+03
    -31.784  0.0000E+00  0.2880E+03
    -31.525  0.0000E+00  0.2880E+03
    -31.265  0.0000E+00  0.2880E+03
    -31.005  0.0000E+00  0.2880E+03
    -30.745  0.0000E+00  0.2880E+03
    -30.485  0.0000E+00  0.2880E+03
    -30.226  0.0000E+00  0.2880E+03
    -29.966  0.0000E+00  0.2880E+03
    -29.706  0.0000E+00  0.2880E+03
    -29.446  0.0000E+00  0.2880E+03
    -29.187  0.0000E+00  0.2880E+03
    -28.927  0.0000E+00  0.2880E+03
    -28.667  0.0000E+00  0.2880E+03
    -28.407  0.0000E+00  0.2880E+03
    -28.147  0.0000E+00  0.2880E+03
    -27.888  0.0000E+00  0.2880E+03
    -27.628  0.0000E+00  0.2880E+03
    -27.368  0.0000E+00  0.2880E+03
    -27.108  0.0000E+00  0.2880E+03
    -26.849  0.0000E+00  0.2880E+03
    -26.589  0.0000E+00  0.2880E+03
    -26.329  0.0000E+00  0.2880E+03
    -26.069  0.0000E+00  0.2880E+03
    -25.809  0.0000E+00  0.2880E+03
    -25.550  0.0000E+00  0.2880E+03
    -25.290  0.0000E+00  0.2880E+03
    -25.030  0.0000E+00  0.2880E+03
    -24.770  0.0000E+00  0.2880E+03
    -24.511  0.0000E+00  0.2880E+03
    -24.251  0.0000E+00  0.2880E+03
    -23.991  0.0000E+00  0.2880E+03
    -23.731  0.0000E+00  0.2880E+03
    -23.471  0.0000E+00  0.2880E+03
    -23.212  0.0000E+00  0.2880E+03
    -22.952  0.0000E+00  0.2880E+03
    -22.692  0.0000E+00  0.2880E+03
    -22.432  0.0000E+00  0.2880E+03
    -22.173  0.0000E+00  0.2880E+03
    -21.913  0.0000E+00  0.2880E+03
    -21.653  0.0000E+00  0.2880E+03
    -21.393  0.0000E+00  0.2880E+03
    -21.133  0.0000E+00  0.2880E+03
    -20.874  0.0000E+00  0.2880E+03
    -20.614  0.0000E+00  0.2880E+03
    -20.354  0.0000E+00  0.2880E+03
    -20.094  0.0000E+00  0.2880E+03
    -19.835  0.0000E+00  0.2880E+03
    -19.575  0.0000E+00  0.2880E+03
    -19.315  0.0000E+00  0.2880E+03
    -19.055  0.0000E+00  0.2880E+03
    -18.795  0.0000E+00  0.2880E+03
    -18.536  0.0000E+00  0.2880E+03
    -18.276  0.0000E+00  0.2880E+03
    -18.016  0.0000E+00  0.2880E+03
    -17.756  0.0000E+00  0.2880E+03
    -17.497  0.0000E+00  0.2880E+03
    -17.237  0.0000E+00  0.2880E+03
    -16.977  0.0000E+00  0.2880E+03
    -16.717  0.0000E+00  0.2880E+03
    -16.457  0.0000E+00  0.2880E+03
    -16.198  0.0000E+00  0.2880E+03
    -15.938  0.0000E+00  0.2880E+03
    -15.678  0.4274E-15  0.2880E+03
    -15.418  0.3066E-09  0.2880E+03
    -15.159  0.1192E-04  0.2880E+03
    -14.899  0.1807E-01  0.2880E+03
    -14.639  0.1243E+01  0.2883E+03
    -14.379  0.6283E+01  0.2900E+03
    -14.119  0.7231E+01  0.2918E+03
    -13.860  0.9189E+01  0.2942E+03
    -13.600  0.2045E+02  0.2995E+03
    -13.340  0.2540E+02  0.3061E+03
    -13.080  0.2661E+02  0.3131E+03
    -12.821  0.2533E+02  0.3196E+03
    -12.561  0.3923E+02  0.3298E+03
    -12.301  0.5138E+02  0.3432E+03
    -12.041  0.4443E+02  0.3547E+03
    -11.781  0.4172E+02  0.3655E+03
    -11.522  0.4118E+02  0.3762E+03
    -11.262  0.2521E+02  0.3828E+03
    -11.002  0.4560E+01  0.3840E+03
    -10.742  0.7859E-01  0.3840E+03
    -10.483  0.7175E-04  0.3840E+03
    -10.223  0.2796E-08  0.3840E+03
     -9.963  0.3419E-14  0.3840E+03
     -9.703  0.0000E+00  0.3840E+03
     -9.443  0.0000E+00  0.3840E+03
     -9.184  0.0000E+00  0.3840E+03
     -8.924  0.0000E+00  0.3840E+03
     -8.664  0.0000E+00  0.3840E+03
     -8.404  0.0000E+00  0.3840E+03
     -8.145  0.0000E+00  0.3840E+03
     -7.885  0.0000E+00  0.3840E+03
     -7.625  0.2522E-13  0.3840E+03
     -7.365  0.9909E-08  0.3840E+03
     -7.105  0.1472E-03  0.3840E+03
     -6.846  0.9057E-01  0.3840E+03
     -6.586  0.3070E+01  0.3848E+03
     -6.326  0.1117E+02  0.3877E+03
     -6.066  0.1984E+02  0.3929E+03
     -5.807  0.3265E+02  0.4014E+03
     -5.547  0.2769E+02  0.4086E+03
     -5.287  0.3666E+02  0.4181E+03
     -5.027  0.6250E+02  0.4343E+03
     -4.767  0.6314E+02  0.4507E+03
     -4.508  0.5270E+02  0.4644E+03
     -4.248  0.6336E+02  0.4809E+03
     -3.988  0.6752E+02  0.4984E+03
     -3.728  0.6536E+02  0.5154E+03
     -3.469  0.7897E+02  0.5359E+03
     -3.209  0.8480E+02  0.5579E+03
     -2.949  0.8089E+02  0.5789E+03
     -2.689  0.8073E+02  0.5999E+03
     -2.429  0.8685E+02  0.6225E+03
     -2.170  0.8049E+02  0.6434E+03
     -1.910  0.5273E+02  0.6571E+03
     -1.650  0.5916E+02  0.6724E+03
     -1.390  0.8631E+02  0.6949E+03
     -1.131  0.9125E+02  0.7186E+03
     -0.871  0.1130E+03  0.7479E+03
     -0.611  0.1377E+03  0.7837E+03
     -0.351  0.1602E+03  0.8253E+03
     -0.091  0.1822E+03  0.8727E+03
      0.168  0.1840E+03  0.9205E+03
      0.428  0.1451E+03  0.9582E+03
      0.688  0.1017E+03  0.9846E+03
      0.948  0.8403E+02  0.1006E+04
      1.207  0.8207E+02  0.1028E+04
      1.467  0.7723E+02  0.1048E+04
      1.727  0.6173E+02  0.1064E+04
      1.987  0.5608E+02  0.1078E+04
      2.247  0.5817E+02  0.1093E+04
      2.506  0.6695E+02  0.1111E+04
      2.766  0.6163E+02  0.1127E+04
      3.026  0.4778E+02  0.1139E+04
      3.286  0.3430E+02  0.1148E+04
      3.545  0.1462E+02  0.1152E+04
      3.805  0.6455E+01  0.1154E+04
      4.065  0.1549E+01  0.1154E+04
      4.325  0.4055E+01  0.1155E+04
      4.585  0.4317E+01  0.1156E+04
      4.844  0.1290E+02  0.1160E+04
      5.104  0.2249E+02  0.1165E+04
      5.364  0.2466E+02  0.1172E+04
      5.624  0.2413E+02  0.1178E+04
      5.883  0.2520E+02  0.1185E+04
      6.143  0.3267E+02  0.1193E+04
      6.403  0.3011E+02  0.1201E+04
      6.663  0.2769E+02  0.1208E+04
      6.923  0.4006E+02  0.1219E+04
      7.182  0.4768E+02  0.1231E+04
      7.442  0.5510E+02  0.1245E+04
      7.702  0.5705E+02  0.1260E+04
      7.962  0.2784E+02  0.1267E+04
      8.221  0.2505E+01  0.1268E+04
      8.481  0.1830E-01  0.1268E+04
      8.741  0.6977E-05  0.1268E+04
      9.001  0.1134E-09  0.1268E+04
      9.261  0.0000E+00  0.1268E+04
      9.520  0.0000E+00  0.1268E+04
      9.780  0.0000E+00  0.1268E+04
     10.040  0.0000E+00  0.1268E+04
     10.300  0.0000E+00  0.1268E+04
     10.559  0.0000E+00  0.1268E+04
     10.819  0.0000E+00  0.1268E+04
     11.079  0.0000E+00  0.1268E+04
     11.339  0.0000E+00  0.1268E+04
