  96  96   0   0
  0.2565633E+02  0.1125646E-08  0.1125646E-08  0.2174423E-08  0.5000000E-15
  1.000000000000000E-004
  CAR 
 "Millerite NiS"                         
     11.57383393    -66.55413354  301      1.75620462      1.00000000
    -66.554  0.0000E+00  0.0000E+00
    -66.294  0.0000E+00  0.0000E+00
    -66.033  0.0000E+00  0.0000E+00
    -65.773  0.0000E+00  0.0000E+00
    -65.512  0.0000E+00  0.0000E+00
    -65.252  0.0000E+00  0.0000E+00
    -64.992  0.0000E+00  0.0000E+00
    -64.731  0.0000E+00  0.0000E+00
    -64.471  0.0000E+00  0.0000E+00
    -64.210  0.0000E+00  0.0000E+00
    -63.950  0.1042E-09  0.2713E-10
    -63.689  0.6869E-05  0.1789E-05
    -63.429  0.1980E-01  0.5157E-02
    -63.169  0.3365E+01  0.8814E+00
    -62.908  0.5458E+02  0.1510E+02
    -62.648  0.1411E+03  0.5184E+02
    -62.387  0.2195E+03  0.1090E+03
    -62.127  0.3866E+03  0.2097E+03
    -61.866  0.2252E+03  0.2683E+03
    -61.606  0.4791E+02  0.2808E+03
    -61.346  0.2252E+02  0.2867E+03
    -61.085  0.4988E+01  0.2880E+03
    -60.825  0.8342E-01  0.2880E+03
    -60.564  0.7068E-04  0.2880E+03
    -60.304  0.2568E-08  0.2880E+03
    -60.043  0.3410E-14  0.2880E+03
    -59.783  0.0000E+00  0.2880E+03
    -59.523  0.0000E+00  0.2880E+03
    -59.262  0.0000E+00  0.2880E+03
    -59.002  0.0000E+00  0.2880E+03
    -58.741  0.0000E+00  0.2880E+03
    -58.481  0.0000E+00  0.2880E+03
    -58.220  0.0000E+00  0.2880E+03
    -57.960  0.0000E+00  0.2880E+03
    -57.700  0.0000E+00  0.2880E+03
    -57.439  0.0000E+00  0.2880E+03
    -57.179  0.0000E+00  0.2880E+03
    -56.918  0.0000E+00  0.2880E+03
    -56.658  0.0000E+00  0.2880E+03
    -56.397  0.0000E+00  0.2880E+03
    -56.137  0.0000E+00  0.2880E+03
    -55.877  0.0000E+00  0.2880E+03
    -55.616  0.0000E+00  0.2880E+03
    -55.356  0.0000E+00  0.2880E+03
    -55.095  0.0000E+00  0.2880E+03
    -54.835  0.0000E+00  0.2880E+03
    -54.575  0.0000E+00  0.2880E+03
    -54.314  0.0000E+00  0.2880E+03
    -54.054  0.0000E+00  0.2880E+03
    -53.793  0.0000E+00  0.2880E+03
    -53.533  0.0000E+00  0.2880E+03
    -53.272  0.0000E+00  0.2880E+03
    -53.012  0.0000E+00  0.2880E+03
    -52.752  0.0000E+00  0.2880E+03
    -52.491  0.0000E+00  0.2880E+03
    -52.231  0.0000E+00  0.2880E+03
    -51.970  0.0000E+00  0.2880E+03
    -51.710  0.0000E+00  0.2880E+03
    -51.449  0.0000E+00  0.2880E+03
    -51.189  0.0000E+00  0.2880E+03
    -50.929  0.0000E+00  0.2880E+03
    -50.668  0.0000E+00  0.2880E+03
    -50.408  0.0000E+00  0.2880E+03
    -50.147  0.0000E+00  0.2880E+03
    -49.887  0.0000E+00  0.2880E+03
    -49.626  0.0000E+00  0.2880E+03
    -49.366  0.0000E+00  0.2880E+03
    -49.106  0.0000E+00  0.2880E+03
    -48.845  0.0000E+00  0.2880E+03
    -48.585  0.0000E+00  0.2880E+03
    -48.324  0.0000E+00  0.2880E+03
    -48.064  0.0000E+00  0.2880E+03
    -47.803  0.0000E+00  0.2880E+03
    -47.543  0.0000E+00  0.2880E+03
    -47.283  0.0000E+00  0.2880E+03
    -47.022  0.0000E+00  0.2880E+03
    -46.762  0.0000E+00  0.2880E+03
    -46.501  0.0000E+00  0.2880E+03
    -46.241  0.0000E+00  0.2880E+03
    -45.980  0.0000E+00  0.2880E+03
    -45.720  0.0000E+00  0.2880E+03
    -45.460  0.0000E+00  0.2880E+03
    -45.199  0.0000E+00  0.2880E+03
    -44.939  0.0000E+00  0.2880E+03
    -44.678  0.0000E+00  0.2880E+03
    -44.418  0.0000E+00  0.2880E+03
    -44.157  0.0000E+00  0.2880E+03
    -43.897  0.0000E+00  0.2880E+03
    -43.637  0.0000E+00  0.2880E+03
    -43.376  0.0000E+00  0.2880E+03
    -43.116  0.0000E+00  0.2880E+03
    -42.855  0.0000E+00  0.2880E+03
    -42.595  0.0000E+00  0.2880E+03
    -42.334  0.0000E+00  0.2880E+03
    -42.074  0.0000E+00  0.2880E+03
    -41.814  0.0000E+00  0.2880E+03
    -41.553  0.0000E+00  0.2880E+03
    -41.293  0.0000E+00  0.2880E+03
    -41.032  0.0000E+00  0.2880E+03
    -40.772  0.0000E+00  0.2880E+03
    -40.511  0.0000E+00  0.2880E+03
    -40.251  0.0000E+00  0.2880E+03
    -39.991  0.0000E+00  0.2880E+03
    -39.730  0.0000E+00  0.2880E+03
    -39.470  0.0000E+00  0.2880E+03
    -39.209  0.0000E+00  0.2880E+03
    -38.949  0.0000E+00  0.2880E+03
    -38.688  0.0000E+00  0.2880E+03
    -38.428  0.0000E+00  0.2880E+03
    -38.168  0.0000E+00  0.2880E+03
    -37.907  0.0000E+00  0.2880E+03
    -37.647  0.0000E+00  0.2880E+03
    -37.386  0.0000E+00  0.2880E+03
    -37.126  0.0000E+00  0.2880E+03
    -36.866  0.0000E+00  0.2880E+03
    -36.605  0.0000E+00  0.2880E+03
    -36.345  0.0000E+00  0.2880E+03
    -36.084  0.0000E+00  0.2880E+03
    -35.824  0.0000E+00  0.2880E+03
    -35.563  0.0000E+00  0.2880E+03
    -35.303  0.0000E+00  0.2880E+03
    -35.043  0.0000E+00  0.2880E+03
    -34.782  0.0000E+00  0.2880E+03
    -34.522  0.0000E+00  0.2880E+03
    -34.261  0.0000E+00  0.2880E+03
    -34.001  0.0000E+00  0.2880E+03
    -33.740  0.0000E+00  0.2880E+03
    -33.480  0.0000E+00  0.2880E+03
    -33.220  0.0000E+00  0.2880E+03
    -32.959  0.0000E+00  0.2880E+03
    -32.699  0.0000E+00  0.2880E+03
    -32.438  0.0000E+00  0.2880E+03
    -32.178  0.0000E+00  0.2880E+03
    -31.917  0.0000E+00  0.2880E+03
    -31.657  0.0000E+00  0.2880E+03
    -31.397  0.0000E+00  0.2880E+03
    -31.136  0.0000E+00  0.2880E+03
    -30.876  0.0000E+00  0.2880E+03
    -30.615  0.0000E+00  0.2880E+03
    -30.355  0.0000E+00  0.2880E+03
    -30.094  0.0000E+00  0.2880E+03
    -29.834  0.0000E+00  0.2880E+03
    -29.574  0.0000E+00  0.2880E+03
    -29.313  0.0000E+00  0.2880E+03
    -29.053  0.0000E+00  0.2880E+03
    -28.792  0.0000E+00  0.2880E+03
    -28.532  0.0000E+00  0.2880E+03
    -28.271  0.0000E+00  0.2880E+03
    -28.011  0.0000E+00  0.2880E+03
    -27.751  0.0000E+00  0.2880E+03
    -27.490  0.0000E+00  0.2880E+03
    -27.230  0.0000E+00  0.2880E+03
    -26.969  0.0000E+00  0.2880E+03
    -26.709  0.0000E+00  0.2880E+03
    -26.448  0.0000E+00  0.2880E+03
    -26.188  0.0000E+00  0.2880E+03
    -25.928  0.0000E+00  0.2880E+03
    -25.667  0.0000E+00  0.2880E+03
    -25.407  0.0000E+00  0.2880E+03
    -25.146  0.0000E+00  0.2880E+03
    -24.886  0.0000E+00  0.2880E+03
    -24.625  0.0000E+00  0.2880E+03
    -24.365  0.0000E+00  0.2880E+03
    -24.105  0.0000E+00  0.2880E+03
    -23.844  0.0000E+00  0.2880E+03
    -23.584  0.0000E+00  0.2880E+03
    -23.323  0.0000E+00  0.2880E+03
    -23.063  0.0000E+00  0.2880E+03
    -22.802  0.0000E+00  0.2880E+03
    -22.542  0.0000E+00  0.2880E+03
    -22.282  0.0000E+00  0.2880E+03
    -22.021  0.0000E+00  0.2880E+03
    -21.761  0.0000E+00  0.2880E+03
    -21.500  0.0000E+00  0.2880E+03
    -21.240  0.0000E+00  0.2880E+03
    -20.979  0.0000E+00  0.2880E+03
    -20.719  0.0000E+00  0.2880E+03
    -20.459  0.0000E+00  0.2880E+03
    -20.198  0.0000E+00  0.2880E+03
    -19.938  0.0000E+00  0.2880E+03
    -19.677  0.0000E+00  0.2880E+03
    -19.417  0.0000E+00  0.2880E+03
    -19.156  0.0000E+00  0.2880E+03
    -18.896  0.0000E+00  0.2880E+03
    -18.636  0.0000E+00  0.2880E+03
    -18.375  0.0000E+00  0.2880E+03
    -18.115  0.0000E+00  0.2880E+03
    -17.854  0.0000E+00  0.2880E+03
    -17.594  0.0000E+00  0.2880E+03
    -17.334  0.0000E+00  0.2880E+03
    -17.073  0.0000E+00  0.2880E+03
    -16.813  0.0000E+00  0.2880E+03
    -16.552  0.0000E+00  0.2880E+03
    -16.292  0.0000E+00  0.2880E+03
    -16.031  0.0000E+00  0.2880E+03
    -15.771  0.0000E+00  0.2880E+03
    -15.511  0.5542E-14  0.2880E+03
    -15.250  0.3210E-08  0.2880E+03
    -14.990  0.6664E-04  0.2880E+03
    -14.729  0.5404E-01  0.2880E+03
    -14.469  0.2021E+01  0.2885E+03
    -14.208  0.5273E+01  0.2899E+03
    -13.948  0.7039E+01  0.2917E+03
    -13.688  0.1427E+02  0.2955E+03
    -13.427  0.2412E+02  0.3017E+03
    -13.167  0.2132E+02  0.3073E+03
    -12.906  0.2472E+02  0.3137E+03
    -12.646  0.2398E+02  0.3200E+03
    -12.385  0.4068E+02  0.3306E+03
    -12.125  0.5170E+02  0.3440E+03
    -11.865  0.3775E+02  0.3539E+03
    -11.604  0.3979E+02  0.3642E+03
    -11.344  0.4518E+02  0.3760E+03
    -11.083  0.2042E+02  0.3813E+03
    -10.823  0.8588E+01  0.3836E+03
    -10.562  0.1676E+01  0.3840E+03
    -10.302  0.3078E-01  0.3840E+03
    -10.042  0.2678E-04  0.3840E+03
     -9.781  0.9053E-09  0.3840E+03
     -9.521  0.1705E-14  0.3840E+03
     -9.260  0.0000E+00  0.3840E+03
     -9.000  0.0000E+00  0.3840E+03
     -8.739  0.0000E+00  0.3840E+03
     -8.479  0.0000E+00  0.3840E+03
     -8.219  0.0000E+00  0.3840E+03
     -7.958  0.0000E+00  0.3840E+03
     -7.698  0.0000E+00  0.3840E+03
     -7.437  0.0000E+00  0.3840E+03
     -7.177  0.1010E-12  0.3840E+03
     -6.916  0.2992E-07  0.3840E+03
     -6.656  0.3309E-03  0.3840E+03
     -6.396  0.1567E+00  0.3840E+03
     -6.135  0.4797E+01  0.3853E+03
     -5.875  0.2215E+02  0.3911E+03
     -5.614  0.3260E+02  0.3995E+03
     -5.354  0.2735E+02  0.4067E+03
     -5.093  0.4587E+02  0.4186E+03
     -4.833  0.6644E+02  0.4359E+03
     -4.573  0.6045E+02  0.4517E+03
     -4.312  0.5467E+02  0.4659E+03
     -4.052  0.6728E+02  0.4834E+03
     -3.791  0.6039E+02  0.4992E+03
     -3.531  0.6909E+02  0.5171E+03
     -3.270  0.8731E+02  0.5399E+03
     -3.010  0.9252E+02  0.5640E+03
     -2.750  0.8630E+02  0.5865E+03
     -2.489  0.9129E+02  0.6102E+03
     -2.229  0.7529E+02  0.6298E+03
     -1.968  0.5482E+02  0.6441E+03
     -1.708  0.5245E+02  0.6578E+03
     -1.447  0.5505E+02  0.6721E+03
     -1.187  0.6991E+02  0.6903E+03
     -0.927  0.1039E+03  0.7174E+03
     -0.666  0.1394E+03  0.7537E+03
     -0.406  0.1565E+03  0.7944E+03
     -0.145  0.1735E+03  0.8396E+03
      0.115  0.1863E+03  0.8881E+03
      0.375  0.1707E+03  0.9326E+03
      0.636  0.1348E+03  0.9677E+03
      0.896  0.1037E+03  0.9947E+03
      1.157  0.7933E+02  0.1015E+04
      1.417  0.7623E+02  0.1035E+04
      1.678  0.6291E+02  0.1052E+04
      1.938  0.5545E+02  0.1066E+04
      2.198  0.6022E+02  0.1082E+04
      2.459  0.7172E+02  0.1100E+04
      2.719  0.7104E+02  0.1119E+04
      2.980  0.5925E+02  0.1134E+04
      3.240  0.3736E+02  0.1144E+04
      3.501  0.2068E+02  0.1149E+04
      3.761  0.8200E+01  0.1152E+04
      4.021  0.2632E+01  0.1152E+04
      4.282  0.4910E+01  0.1154E+04
      4.542  0.1995E+01  0.1154E+04
      4.803  0.3871E+01  0.1155E+04
      5.063  0.8921E+01  0.1157E+04
      5.324  0.2033E+02  0.1163E+04
      5.584  0.2052E+02  0.1168E+04
      5.844  0.2192E+02  0.1174E+04
      6.105  0.2679E+02  0.1181E+04
      6.365  0.3324E+02  0.1189E+04
      6.626  0.3290E+02  0.1198E+04
      6.886  0.3658E+02  0.1207E+04
      7.147  0.4643E+02  0.1220E+04
      7.407  0.5385E+02  0.1234E+04
      7.667  0.5350E+02  0.1248E+04
      7.928  0.5104E+02  0.1261E+04
      8.188  0.2555E+02  0.1267E+04
      8.449  0.2044E+01  0.1268E+04
      8.709  0.1426E-01  0.1268E+04
      8.970  0.5470E-05  0.1268E+04
      9.230  0.8894E-10  0.1268E+04
      9.490  0.0000E+00  0.1268E+04
      9.751  0.0000E+00  0.1268E+04
     10.011  0.0000E+00  0.1268E+04
     10.272  0.0000E+00  0.1268E+04
     10.532  0.0000E+00  0.1268E+04
     10.793  0.0000E+00  0.1268E+04
     11.053  0.0000E+00  0.1268E+04
     11.313  0.0000E+00  0.1268E+04
     11.574  0.0000E+00  0.1268E+04
