<?xml version="1.0" encoding="ISO-8859-1"?>
<modeling>
 <generator>
  <i name="program" type="string">vasp </i>
  <i name="version" type="string">5.4.4.18Apr17-6-g9f103f2a35  </i>
  <i name="subversion" type="string">(build Aug 13 2019 17:33:20) gamma-only         parallel </i>
  <i name="platform" type="string">LinuxIFC </i>
  <i name="date" type="string">2020 05 10 </i>
  <i name="time" type="string">18:03:29 </i>
 </generator>
 <incar>
  <i type="string" name="SYSTEM">"Millerite NiS"</i>
  <i type="string" name="PREC">normal</i>
  <i type="int" name="NSIM">     4</i>
  <i type="int" name="NELM">   100</i>
  <i name="ENCUT">    450.00000000</i>
  <i type="string" name="LREAL">A</i>
  <i type="int" name="ISMEAR">     0</i>
  <i type="int" name="NWRITE">     2</i>
  <i type="logical" name="LWAVE"> F  </i>
  <i type="logical" name="LCHARG"> F  </i>
  <v type="int" name="KPOINT_BSE">    -1     0     0     0</v>
  <i type="int" name="NELM">   100</i>
 </incar>
 <structure name="primitive_cell" >
  <crystal>
   <varray name="basis" >
    <v>      11.25646304       0.00000000       0.00000000 </v>
    <v>       5.04456212      10.06282034       0.00000000 </v>
    <v>       0.00000000       0.00000000      21.74423184 </v>
   </varray>
   <i name="volume">   2463.00752351 </i>
   <varray name="rec_basis" >
    <v>       0.08883785      -0.04453504       0.00000000 </v>
    <v>       0.00000000       0.09937572       0.00000000 </v>
    <v>       0.00000000       0.00000000       0.04598921 </v>
   </varray>
  </crystal>
  <varray name="positions" >
   <v>       0.26092070       0.47878036       0.25332799 </v>
   <v>       0.07287764      -0.33317657       0.27005396 </v>
   <v>       0.17409868       0.39738738       0.18045411 </v>
   <v>       0.34231368      -0.43439761       0.18045411 </v>
   <v>       0.43627354       0.47164251       0.31548109 </v>
   <v>       0.26805855       0.30342751       0.31548109 </v>
   <v>       0.36819893       0.23939913       0.21765305 </v>
   <v>      -0.49969806       0.37150212       0.21765305 </v>
   <v>       0.35488056       0.38482049       0.38835497 </v>
   <v>       0.16696083      -0.42725976       0.11830101 </v>
   <v>       0.16683750      -0.42713643       0.40508094 </v>
   <v>       0.47891775       0.26078330       0.13502698 </v>
   <v>       0.41695605       0.45723328       0.10173402 </v>
   <v>      -0.42712237       0.16682343       0.27005396 </v>
   <v>       0.00030194       0.37150212       0.21765305 </v>
   <v>       0.09426181      -0.22245774       0.35268003 </v>
   <v>      -0.03784120      -0.35456074       0.35268003 </v>
   <v>       0.36819893      -0.26060087       0.21765305 </v>
   <v>       0.28468432       0.29716981       0.10461343 </v>
   <v>       0.26805855      -0.19657249       0.31548109 </v>
   <v>      -0.06372646       0.47164251       0.31548109 </v>
   <v>       0.46215880       0.14543926       0.35268003 </v>
   <v>      -0.40573819       0.27754226       0.35268003 </v>
   <v>       0.09426181       0.27754226       0.35268003 </v>
   <v>       0.46215880      -0.35456074       0.35268003 </v>
   <v>       0.00030194      -0.12849788       0.21765305 </v>
   <v>      -0.13180107      -0.26060087       0.21765305 </v>
   <v>      -0.02108225      -0.23921670       0.13502698 </v>
   <v>      -0.00917115       0.44135878       0.11371038 </v>
   <v>       0.27725593      -0.35808447       0.06678821 </v>
   <v>       0.13430427       0.45186473       0.05755842 </v>
   <v>       0.34231368       0.06560239       0.18045411 </v>
   <v>      -0.32590132       0.39738738       0.18045411 </v>
   <v>      -0.15768632      -0.43439761       0.18045411 </v>
   <v>       0.17409868      -0.10261262       0.18045411 </v>
   <v>       0.07287763       0.16682343       0.27005396 </v>
   <v>      -0.42712236      -0.33317657       0.27005396 </v>
   <v>       0.36201842       0.20946765       0.45050807 </v>
   <v>      -0.46976657       0.37768264       0.45050807 </v>
   <v>       0.28103407      -0.18577357       0.10249233 </v>
   <v>       0.18562320      -0.30147106       0.46608883 </v>
   <v>       0.04117419      -0.44591998       0.46609207 </v>
   <v>      -0.06372646      -0.02835749       0.31548109 </v>
   <v>      -0.23194145      -0.19657249       0.31548109 </v>
   <v>      -0.23194145       0.30342751       0.31548109 </v>
   <v>       0.43627354      -0.02835749       0.31548109 </v>
   <v>      -0.41868270       0.47819260       0.07006943 </v>
   <v>       0.03023343       0.37768264       0.45050807 </v>
   <v>       0.36201842      -0.29053236       0.45050807 </v>
   <v>       0.47891775      -0.23921670       0.13502698 </v>
   <v>      -0.02108225       0.26078330       0.13502698 </v>
   <v>      -0.33303917       0.07274024       0.11830101 </v>
   <v>      -0.14511944      -0.11517951       0.38835497 </v>
   <v>       0.26092070      -0.02121964       0.25332799 </v>
   <v>      -0.23907930       0.47878036       0.25332799 </v>
   <v>       0.27893718       0.13132236       0.06322937 </v>
   <v>      -0.32036430      -0.44596799       0.13155262 </v>
   <v>      -0.33316250       0.07286357       0.40508094 </v>
   <v>       0.03023342      -0.12231736       0.45050807 </v>
   <v>      -0.13798158      -0.29053236       0.45050807 </v>
   <v>       0.16696083       0.07274024       0.11830101 </v>
   <v>       0.35488056      -0.11517951       0.38835497 </v>
   <v>      -0.14511944       0.38482049       0.38835497 </v>
   <v>      -0.23907930      -0.02121964       0.25332799 </v>
   <v>       0.45551772       0.28418346      -0.49490456 </v>
   <v>      -0.45042715      -0.44540781       0.47258666 </v>
   <v>       0.18510763       0.19012655       0.47258635 </v>
   <v>      -0.21710004      -0.16656670       0.10029272 </v>
   <v>       0.16683750       0.07286357       0.40508094 </v>
   <v>      -0.33316250      -0.42713643       0.40508094 </v>
   <v>      -0.13180107       0.23939913       0.21765305 </v>
   <v>      -0.49969806      -0.12849788       0.21765305 </v>
   <v>       0.42199774      -0.04457305       0.10238487 </v>
   <v>      -0.15768632       0.06560239       0.18045411 </v>
   <v>      -0.32590132      -0.10261262       0.18045411 </v>
   <v>       0.09716496      -0.03984857       0.06778050 </v>
   <v>      -0.09365794      -0.03453801       0.08262607 </v>
   <v>      -0.22576094       0.33335899       0.08262607 </v>
   <v>      -0.03784120       0.14543926       0.35268003 </v>
   <v>      -0.40573819      -0.22245774       0.35268003 </v>
   <v>      -0.17934864       0.48431615       0.06163655 </v>
   <v>      -0.31033401       0.18862321       0.47255773 </v>
   <v>      -0.44892089       0.05003528       0.47255906 </v>
   <v>      -0.23801363       0.15741636       0.06465954 </v>
   <v>      -0.40961462      -0.03331371       0.06806223 </v>
   <v>      -0.15884051      -0.12016912       0.02020554 </v>
   <v>      -0.13298179      -0.12731701       0.49640251 </v>
   <v>       0.37173323      -0.13251538       0.49696230 </v>
   <v>      -0.12777917       0.36796299       0.49696332 </v>
   <v>      -0.13798158       0.20946765       0.45050807 </v>
   <v>      -0.46976658      -0.12231736       0.45050807 </v>
   <v>       0.04926921       0.05389818       0.47246406 </v>
   <v>      -0.31419942      -0.30956979       0.47246862 </v>
   <v>      -0.29463866       0.03434162      -0.47024385 </v>
   <v>      -0.29066702      -0.46924847      -0.47248667 </v>
   <v>       0.20894290       0.03036863      -0.47248659 </v>
  </varray>
 </structure>
 <varray name="primitive_index" >
  <v type="int" >        1 </v>
  <v type="int" >       73 </v>
  <v type="int" >       57 </v>
  <v type="int" >       80 </v>
  <v type="int" >       53 </v>
  <v type="int" >       58 </v>
  <v type="int" >        7 </v>
  <v type="int" >       21 </v>
  <v type="int" >        2 </v>
  <v type="int" >       28 </v>
  <v type="int" >       74 </v>
  <v type="int" >       51 </v>
  <v type="int" >       12 </v>
  <v type="int" >       60 </v>
  <v type="int" >        9 </v>
  <v type="int" >       34 </v>
  <v type="int" >       44 </v>
  <v type="int" >       31 </v>
  <v type="int" >        6 </v>
  <v type="int" >       83 </v>
  <v type="int" >       66 </v>
  <v type="int" >        8 </v>
  <v type="int" >       22 </v>
  <v type="int" >       10 </v>
  <v type="int" >       32 </v>
  <v type="int" >       33 </v>
  <v type="int" >       43 </v>
  <v type="int" >       88 </v>
  <v type="int" >       24 </v>
  <v type="int" >       79 </v>
  <v type="int" >       56 </v>
  <v type="int" >       55 </v>
  <v type="int" >       70 </v>
  <v type="int" >       92 </v>
  <v type="int" >       82 </v>
  <v type="int" >       49 </v>
  <v type="int" >       85 </v>
  <v type="int" >       59 </v>
  <v type="int" >       65 </v>
  <v type="int" >       30 </v>
  <v type="int" >       35 </v>
  <v type="int" >       29 </v>
  <v type="int" >       91 </v>
  <v type="int" >       95 </v>
  <v type="int" >       71 </v>
  <v type="int" >       78 </v>
  <v type="int" >       69 </v>
  <v type="int" >       52 </v>
  <v type="int" >       84 </v>
  <v type="int" >       75 </v>
  <v type="int" >       63 </v>
  <v type="int" >       16 </v>
  <v type="int" >       38 </v>
  <v type="int" >       25 </v>
  <v type="int" >       13 </v>
  <v type="int" >       54 </v>
  <v type="int" >       40 </v>
  <v type="int" >       61 </v>
  <v type="int" >       77 </v>
  <v type="int" >       96 </v>
  <v type="int" >        4 </v>
  <v type="int" >       26 </v>
  <v type="int" >       14 </v>
  <v type="int" >       37 </v>
  <v type="int" >        3 </v>
  <v type="int" >       41 </v>
  <v type="int" >       11 </v>
  <v type="int" >       42 </v>
  <v type="int" >       50 </v>
  <v type="int" >       86 </v>
  <v type="int" >       19 </v>
  <v type="int" >       45 </v>
  <v type="int" >       36 </v>
  <v type="int" >       68 </v>
  <v type="int" >       94 </v>
  <v type="int" >       81 </v>
  <v type="int" >       48 </v>
  <v type="int" >       18 </v>
  <v type="int" >       20 </v>
  <v type="int" >       46 </v>
  <v type="int" >       62 </v>
  <v type="int" >       23 </v>
  <v type="int" >       17 </v>
  <v type="int" >       67 </v>
  <v type="int" >       93 </v>
  <v type="int" >       87 </v>
  <v type="int" >       39 </v>
  <v type="int" >       27 </v>
  <v type="int" >       15 </v>
  <v type="int" >       72 </v>
  <v type="int" >       90 </v>
  <v type="int" >        5 </v>
  <v type="int" >       47 </v>
  <v type="int" >       89 </v>
  <v type="int" >       64 </v>
  <v type="int" >       76 </v>
 </varray>
 <kpoints>
  <generation param="Gamma">
   <v type="int" name="divisions">       1        1        1 </v>
   <v name="usershift">      0.00000000       0.00000000       0.00000000 </v>
   <v name="genvec1">      1.00000000       0.00000000       0.00000000 </v>
   <v name="genvec2">      0.00000000       1.00000000       0.00000000 </v>
   <v name="genvec3">      0.00000000       0.00000000       1.00000000 </v>
   <v name="shift">      0.00000000       0.00000000       0.00000000 </v>
  </generation>
  <varray name="kpointlist" >
   <v>       0.00000000       0.00000000       0.00000000 </v>
  </varray>
  <varray name="weights" >
   <v>       1.00000000 </v>
  </varray>
 </kpoints>
 <parameters>
  <separator name="general" >
   <i type="string" name="SYSTEM">"Millerite NiS"</i>
   <i type="logical" name="LCOMPAT"> F  </i>
  </separator>
  <separator name="electronic" >
   <i type="string" name="PREC">normal</i>
   <i name="ENMAX">    450.00000000</i>
   <i name="ENAUG">    703.44300000</i>
   <i name="EDIFF">      0.00010000</i>
   <i type="int" name="IALGO">    38</i>
   <i type="int" name="IWAVPR">    10</i>
   <i type="int" name="NBANDS">   634</i>
   <i name="NELECT">   1056.00000000</i>
   <i type="int" name="TURBO">     0</i>
   <i type="int" name="IRESTART">     0</i>
   <i type="int" name="NREBOOT">     0</i>
   <i type="int" name="NMIN">     0</i>
   <i name="EREF">      0.00000000</i>
   <separator name="electronic smearing" >
    <i type="int" name="ISMEAR">     0</i>
    <i name="SIGMA">      0.20000000</i>
    <i name="KSPACING">      0.50000000</i>
    <i type="logical" name="KGAMMA"> T  </i>
   </separator>
   <separator name="electronic projectors" >
    <i type="logical" name="LREAL"> T  </i>
    <v name="ROPT">     -0.00050000     -0.00050000</v>
    <i type="int" name="LMAXPAW">  -100</i>
    <i type="int" name="LMAXMIX">     2</i>
    <i type="logical" name="NLSPLINE"> F  </i>
   </separator>
   <separator name="electronic startup" >
    <i type="int" name="ISTART">     0</i>
    <i type="int" name="ICHARG">     2</i>
    <i type="int" name="INIWAV">     1</i>
   </separator>
   <separator name="electronic spin" >
    <i type="int" name="ISPIN">     1</i>
    <i type="logical" name="LNONCOLLINEAR"> F  </i>
    <v name="MAGMOM">      1.00000000      1.00000000      1.00000000      1.00000000      1.00000000      1.00000000      1.00000000      1.00000000      1.00000000      1.00000000      1.00000000      1.00000000      1.00000000      1.00000000      1.00000000      1.00000000      1.00000000      1.00000000      1.00000000      1.00000000
      1.00000000      1.00000000      1.00000000      1.00000000      1.00000000      1.00000000      1.00000000      1.00000000      1.00000000      1.00000000      1.00000000      1.00000000      1.00000000      1.00000000      1.00000000      1.00000000      1.00000000      1.00000000      1.00000000      1.00000000
      1.00000000      1.00000000      1.00000000      1.00000000      1.00000000      1.00000000      1.00000000      1.00000000      1.00000000      1.00000000      1.00000000      1.00000000      1.00000000      1.00000000      1.00000000      1.00000000      1.00000000      1.00000000      1.00000000      1.00000000
      1.00000000      1.00000000      1.00000000      1.00000000      1.00000000      1.00000000      1.00000000      1.00000000      1.00000000      1.00000000      1.00000000      1.00000000      1.00000000      1.00000000      1.00000000      1.00000000      1.00000000      1.00000000      1.00000000      1.00000000
      1.00000000      1.00000000      1.00000000      1.00000000      1.00000000      1.00000000      1.00000000      1.00000000      1.00000000      1.00000000      1.00000000      1.00000000      1.00000000      1.00000000      1.00000000      1.00000000</v>
    <i name="NUPDOWN">     -1.00000000</i>
    <i type="logical" name="LSORBIT"> F  </i>
    <v name="SAXIS">      0.00000000      0.00000000      1.00000000</v>
    <i type="logical" name="LSPIRAL"> F  </i>
    <v name="QSPIRAL">      0.00000000      0.00000000      0.00000000</v>
    <i type="logical" name="LZEROZ"> F  </i>
   </separator>
   <separator name="electronic exchange-correlation" >
    <i type="logical" name="LASPH"> F  </i>
    <i type="logical" name="LMETAGGA"> F  </i>
   </separator>
   <separator name="electronic convergence" >
    <i type="int" name="NELM">   100</i>
    <i type="int" name="NELMDL">    -5</i>
    <i type="int" name="NELMIN">     2</i>
    <i name="ENINI">    450.00000000</i>
    <separator name="electronic convergence detail" >
     <i type="logical" name="LDIAG"> T  </i>
     <i type="logical" name="LSUBROT"> F  </i>
     <i name="WEIMIN">      0.00000000</i>
     <i name="EBREAK">      0.00000004</i>
     <i name="DEPER">      0.30000000</i>
     <i type="int" name="NRMM">     4</i>
     <i name="TIME">      0.40000000</i>
    </separator>
   </separator>
   <separator name="electronic mixer" >
    <i name="AMIX">      0.40000000</i>
    <i name="BMIX">      1.00000000</i>
    <i name="AMIN">      0.10000000</i>
    <i name="AMIX_MAG">      1.60000000</i>
    <i name="BMIX_MAG">      1.00000000</i>
    <separator name="electronic mixer details" >
     <i type="int" name="IMIX">     4</i>
     <i type="logical" name="MIXFIRST"> F  </i>
     <i type="int" name="MAXMIX">   -45</i>
     <i name="WC">    100.00000000</i>
     <i type="int" name="INIMIX">     1</i>
     <i type="int" name="MIXPRE">     1</i>
     <i type="int" name="MREMOVE">     5</i>
    </separator>
   </separator>
   <separator name="electronic dipolcorrection" >
    <i type="logical" name="LDIPOL"> F  </i>
    <i type="logical" name="LMONO"> F  </i>
    <i type="int" name="IDIPOL">     0</i>
    <i name="EPSILON">      1.00000000</i>
    <v name="DIPOL">   -100.00000000   -100.00000000   -100.00000000</v>
    <i name="EFIELD">      0.00000000</i>
   </separator>
  </separator>
  <separator name="grids" >
   <i type="int" name="NGX">    60</i>
   <i type="int" name="NGY">    60</i>
   <i type="int" name="NGZ">   120</i>
   <i type="int" name="NGXF">   120</i>
   <i type="int" name="NGYF">   120</i>
   <i type="int" name="NGZF">   240</i>
   <i type="logical" name="ADDGRID"> F  </i>
  </separator>
  <separator name="ionic" >
   <i type="int" name="NSW">     0</i>
   <i type="int" name="IBRION">    -1</i>
   <i type="int" name="MDALGO">     0</i>
   <i type="int" name="ISIF">     2</i>
   <i name="PSTRESS">      0.00000000</i>
   <i name="EDIFFG">      0.00100000</i>
   <i type="int" name="NFREE">     0</i>
   <i name="POTIM">      0.50000000</i>
   <i name="SMASS">     -3.00000000</i>
   <i name="SCALEE">      1.00000000</i>
  </separator>
  <separator name="ionic md" >
   <i name="TEBEG">      0.00010000</i>
   <i name="TEEND">      0.00010000</i>
   <i type="int" name="NBLOCK">     1</i>
   <i type="int" name="KBLOCK">     1</i>
   <i type="int" name="NPACO">   256</i>
   <i name="APACO">     16.00000000</i>
  </separator>
  <separator name="symmetry" >
   <i type="int" name="ISYM">     2</i>
   <i name="SYMPREC">      0.00001000</i>
  </separator>
  <separator name="dos" >
   <i type="int" name="LORBIT">     0</i>
   <v name="RWIGS">     -1.00000000     -1.00000000</v>
   <i type="int" name="NEDOS">   301</i>
   <i name="EMIN">     10.00000000</i>
   <i name="EMAX">    -10.00000000</i>
   <i name="EFERMI">      0.00000000</i>
  </separator>
  <separator name="writing" >
   <i type="int" name="NWRITE">     2</i>
   <i type="logical" name="LWAVE"> F  </i>
   <i type="logical" name="LDOWNSAMPLE"> F  </i>
   <i type="logical" name="LCHARG"> F  </i>
   <i type="logical" name="LPARD"> F  </i>
   <i type="logical" name="LVTOT"> F  </i>
   <i type="logical" name="LVHAR"> F  </i>
   <i type="logical" name="LELF"> F  </i>
   <i type="logical" name="LOPTICS"> F  </i>
   <v name="STM">      0.00000000      0.00000000      0.00000000      0.00000000      0.00000000      0.00000000      0.00000000</v>
  </separator>
  <separator name="performance" >
   <i type="int" name="NPAR">     2</i>
   <i type="int" name="NSIM">     4</i>
   <i type="int" name="NBLK">    -1</i>
   <i type="logical" name="LPLANE"> T  </i>
   <i type="logical" name="LSCALAPACK"> T  </i>
   <i type="logical" name="LSCAAWARE"> F  </i>
   <i type="logical" name="LSCALU"> F  </i>
   <i type="logical" name="LASYNC"> F  </i>
   <i type="logical" name="LORBITALREAL"> F  </i>
  </separator>
  <separator name="miscellaneous" >
   <i type="int" name="IDIOT">     3</i>
   <i type="int" name="ISPECIAL">     0</i>
   <i type="logical" name="LMUSIC"> F  </i>
   <v name="POMASS">     58.69000000     32.06600000</v>
   <v name="DARWINR">      0.00000000      0.00000000</v>
   <v name="DARWINV">      1.00000000      1.00000000</v>
   <i type="logical" name="LCORR"> T  </i>
  </separator>
  <i type="logical" name="GGA_COMPAT"> T  </i>
  <i type="logical" name="LBERRY"> F  </i>
  <i type="int" name="ICORELEVEL">     0</i>
  <i type="logical" name="LDAU"> F  </i>
  <i type="int" name="I_CONSTRAINED_M">     0</i>
  <separator name="electronic exchange-correlation" >
   <i type="string" name="GGA">--</i>
   <i type="int" name="VOSKOWN">     0</i>
   <i type="logical" name="LHFCALC"> F  </i>
   <i type="string" name="PRECFOCK"></i>
   <i type="logical" name="LSYMGRAD"> F  </i>
   <i type="logical" name="LHFONE"> F  </i>
   <i type="logical" name="LRHFCALC"> F  </i>
   <i type="logical" name="LTHOMAS"> F  </i>
   <i type="logical" name="LMODELHF"> F  </i>
   <i name="ENCUT4O">     -1.00000000</i>
   <i type="int" name="EXXOEP">     0</i>
   <i type="int" name="FOURORBIT">     0</i>
   <i name="AEXX">      0.00000000</i>
   <i name="HFALPHA">      0.00000000</i>
   <i name="MCALPHA">      0.00000000</i>
   <i name="ALDAX">      1.00000000</i>
   <i name="AGGAX">      1.00000000</i>
   <i name="ALDAC">      1.00000000</i>
   <i name="AGGAC">      1.00000000</i>
   <i type="int" name="NKREDX">     1</i>
   <i type="int" name="NKREDY">     1</i>
   <i type="int" name="NKREDZ">     1</i>
   <i type="logical" name="SHIFTRED"> F  </i>
   <i type="logical" name="ODDONLY"> F  </i>
   <i type="logical" name="EVENONLY"> F  </i>
   <i type="int" name="LMAXFOCK">     0</i>
   <i type="int" name="NMAXFOCKAE">     0</i>
   <i type="logical" name="LFOCKAEDFT"> F  </i>
   <i name="HFSCREEN">      0.00000000</i>
   <i name="HFSCREENC">      0.00000000</i>
   <i type="int" name="NBANDSGWLOW">     0</i>
  </separator>
  <separator name="vdW DFT" >
   <i type="logical" name="LUSE_VDW"> F  </i>
   <i name="Zab_VDW">     -0.84910000</i>
   <i name="PARAM1">      0.12340000</i>
   <i name="PARAM2">      1.00000000</i>
   <i name="PARAM3">      0.00000000</i>
  </separator>
  <separator name="model GW" >
   <i type="int" name="MODEL_GW">     0</i>
   <i name="MODEL_EPS0">     15.39379702</i>
   <i name="MODEL_ALPHA">      1.00000000</i>
  </separator>
  <separator name="linear response parameters" >
   <i type="logical" name="LEPSILON"> F  </i>
   <i type="logical" name="LRPA"> F  </i>
   <i type="logical" name="LNABLA"> F  </i>
   <i type="logical" name="LVEL"> F  </i>
   <i type="int" name="KINTER">     0</i>
   <i name="CSHIFT">      0.10000000</i>
   <i name="OMEGAMAX">     -1.00000000</i>
   <i name="DEG_THRESHOLD">      0.00200000</i>
   <i name="RTIME">     -0.10000000</i>
   <i name="WPLASMAI">      0.00000000</i>
   <v name="DFIELD">      0.00000000      0.00000000      0.00000000</v>
   <v name="WPLASMA">      0.00000000      0.00000000      0.00000000      0.00000000      0.00000000      0.00000000      0.00000000      0.00000000      0.00000000</v>
  </separator>
  <separator name="orbital magnetization" >
   <i type="logical" name="NUCIND"> F  </i>
   <v name="MAGPOS">      0.00000000      0.00000000      0.00000000</v>
   <i type="logical" name="LNICSALL"> T  </i>
   <i type="logical" name="ORBITALMAG"> F  </i>
   <i type="logical" name="LMAGBLOCH"> F  </i>
   <i type="logical" name="LCHIMAG"> F  </i>
   <i type="logical" name="LGAUGE"> T  </i>
   <i type="int" name="MAGATOM">     0</i>
   <v name="MAGDIPOL">      0.00000000      0.00000000      0.00000000</v>
   <v name="AVECCONST">      0.00000000      0.00000000      0.00000000</v>
  </separator>
  <separator name="response functions" >
   <i type="logical" name="LADDER"> F  </i>
   <i type="logical" name="LRPAFORCE"> F  </i>
   <i type="logical" name="LFXC"> F  </i>
   <i type="logical" name="LHARTREE"> T  </i>
   <i type="int" name="IBSE">     0</i>
   <v type="int" name="KPOINT">    -1     0     0     0</v>
   <i type="logical" name="LTCTE"> F  </i>
   <i type="logical" name="LTETE"> F  </i>
   <i type="logical" name="LTRIPLET"> F  </i>
   <i type="logical" name="LFXCEPS"> F  </i>
   <i type="logical" name="LFXHEG"> F  </i>
   <i type="int" name="NATURALO">     2</i>
   <i type="logical" name="L2ORDER"> F  </i>
   <i type="logical" name="LMP2LT"> F  </i>
   <i type="logical" name="LUSEW"> F  </i>
   <i name="ENCUTGW">     -2.00000000</i>
   <i name="ENCUTGWSOFT">     -2.00000000</i>
   <i name="ENCUTLF">     -1.00000000</i>
   <i type="int" name="LMAXMP2">    -1</i>
   <i name="SCISSOR">      0.00000000</i>
   <i type="int" name="NOMEGA">     0</i>
   <i type="int" name="NOMEGAR">     0</i>
   <i type="int" name="NBANDSGW">    -1</i>
   <i type="int" name="NBANDSO">    -1</i>
   <i type="int" name="NBANDSV">    -1</i>
   <i type="int" name="NELM">   100</i>
   <i type="int" name="NELMHF">     1</i>
   <i type="int" name="DIM">     3</i>
   <i type="int" name="ANTIRES">     0</i>
   <i name="OMEGAMAX">    -30.00000000</i>
   <i name="OMEGAMIN">    -30.00000000</i>
   <i name="OMEGATL">   -200.00000000</i>
   <i type="int" name="OMEGAGRID">   140</i>
   <i name="CSHIFT">     -0.10000000</i>
   <i type="logical" name="SELFENERGY"> F  </i>
   <i type="logical" name="LSPECTRAL"> F  </i>
   <i type="logical" name="LSPECTRALGW"> F  </i>
   <i type="logical" name="LSINGLES"> F  </i>
   <i type="logical" name="LFERMIGW"> F  </i>
   <i type="logical" name="ODDONLYGW"> F  </i>
   <i type="logical" name="EVENONLYGW"> F  </i>
   <i type="int" name="NKREDLFX">     1</i>
   <i type="int" name="NKREDLFY">     1</i>
   <i type="int" name="NKREDLFZ">     1</i>
   <i type="int" name="MAXMEM">  2800</i>
   <i type="int" name="TELESCOPE">     0</i>
   <i type="int" name="TAUPAR">     1</i>
   <i type="int" name="OMEGAPAR">    -1</i>
   <i name="LAMBDA">      1.00000000</i>
  </separator>
  <separator name="External order field" >
   <i name="OFIELD_KAPPA">      0.00000000</i>
   <v name="OFIELD_K">      0.00000000      0.00000000      0.00000000</v>
   <i name="OFIELD_Q6_NEAR">      0.00000000</i>
   <i name="OFIELD_Q6_FAR">      0.00000000</i>
   <i name="OFIELD_A">      0.00000000</i>
  </separator>
 </parameters>
 <atominfo>
  <atoms>      96 </atoms>
  <types>       2 </types>
  <array name="atoms" >
   <dimension dim="1">ion</dimension>
   <field type="string">element</field>
   <field type="int">atomtype</field>
   <set>
    <rc><c>Ni</c><c>   1</c></rc>
    <rc><c>Ni</c><c>   1</c></rc>
    <rc><c>Ni</c><c>   1</c></rc>
    <rc><c>Ni</c><c>   1</c></rc>
    <rc><c>Ni</c><c>   1</c></rc>
    <rc><c>Ni</c><c>   1</c></rc>
    <rc><c>Ni</c><c>   1</c></rc>
    <rc><c>Ni</c><c>   1</c></rc>
    <rc><c>Ni</c><c>   1</c></rc>
    <rc><c>Ni</c><c>   1</c></rc>
    <rc><c>Ni</c><c>   1</c></rc>
    <rc><c>Ni</c><c>   1</c></rc>
    <rc><c>Ni</c><c>   1</c></rc>
    <rc><c>Ni</c><c>   1</c></rc>
    <rc><c>Ni</c><c>   1</c></rc>
    <rc><c>Ni</c><c>   1</c></rc>
    <rc><c>Ni</c><c>   1</c></rc>
    <rc><c>Ni</c><c>   1</c></rc>
    <rc><c>Ni</c><c>   1</c></rc>
    <rc><c>Ni</c><c>   1</c></rc>
    <rc><c>Ni</c><c>   1</c></rc>
    <rc><c>Ni</c><c>   1</c></rc>
    <rc><c>Ni</c><c>   1</c></rc>
    <rc><c>Ni</c><c>   1</c></rc>
    <rc><c>Ni</c><c>   1</c></rc>
    <rc><c>Ni</c><c>   1</c></rc>
    <rc><c>Ni</c><c>   1</c></rc>
    <rc><c>Ni</c><c>   1</c></rc>
    <rc><c>Ni</c><c>   1</c></rc>
    <rc><c>Ni</c><c>   1</c></rc>
    <rc><c>Ni</c><c>   1</c></rc>
    <rc><c>Ni</c><c>   1</c></rc>
    <rc><c>Ni</c><c>   1</c></rc>
    <rc><c>Ni</c><c>   1</c></rc>
    <rc><c>Ni</c><c>   1</c></rc>
    <rc><c>Ni</c><c>   1</c></rc>
    <rc><c>Ni</c><c>   1</c></rc>
    <rc><c>Ni</c><c>   1</c></rc>
    <rc><c>Ni</c><c>   1</c></rc>
    <rc><c>Ni</c><c>   1</c></rc>
    <rc><c>Ni</c><c>   1</c></rc>
    <rc><c>Ni</c><c>   1</c></rc>
    <rc><c>Ni</c><c>   1</c></rc>
    <rc><c>Ni</c><c>   1</c></rc>
    <rc><c>Ni</c><c>   1</c></rc>
    <rc><c>Ni</c><c>   1</c></rc>
    <rc><c>Ni</c><c>   1</c></rc>
    <rc><c>Ni</c><c>   1</c></rc>
    <rc><c>S </c><c>   2</c></rc>
    <rc><c>S </c><c>   2</c></rc>
    <rc><c>S </c><c>   2</c></rc>
    <rc><c>S </c><c>   2</c></rc>
    <rc><c>S </c><c>   2</c></rc>
    <rc><c>S </c><c>   2</c></rc>
    <rc><c>S </c><c>   2</c></rc>
    <rc><c>S </c><c>   2</c></rc>
    <rc><c>S </c><c>   2</c></rc>
    <rc><c>S </c><c>   2</c></rc>
    <rc><c>S </c><c>   2</c></rc>
    <rc><c>S </c><c>   2</c></rc>
    <rc><c>S </c><c>   2</c></rc>
    <rc><c>S </c><c>   2</c></rc>
    <rc><c>S </c><c>   2</c></rc>
    <rc><c>S </c><c>   2</c></rc>
    <rc><c>S </c><c>   2</c></rc>
    <rc><c>S </c><c>   2</c></rc>
    <rc><c>S </c><c>   2</c></rc>
    <rc><c>S </c><c>   2</c></rc>
    <rc><c>S </c><c>   2</c></rc>
    <rc><c>S </c><c>   2</c></rc>
    <rc><c>S </c><c>   2</c></rc>
    <rc><c>S </c><c>   2</c></rc>
    <rc><c>S </c><c>   2</c></rc>
    <rc><c>S </c><c>   2</c></rc>
    <rc><c>S </c><c>   2</c></rc>
    <rc><c>S </c><c>   2</c></rc>
    <rc><c>S </c><c>   2</c></rc>
    <rc><c>S </c><c>   2</c></rc>
    <rc><c>S </c><c>   2</c></rc>
    <rc><c>S </c><c>   2</c></rc>
    <rc><c>S </c><c>   2</c></rc>
    <rc><c>S </c><c>   2</c></rc>
    <rc><c>S </c><c>   2</c></rc>
    <rc><c>S </c><c>   2</c></rc>
    <rc><c>S </c><c>   2</c></rc>
    <rc><c>S </c><c>   2</c></rc>
    <rc><c>S </c><c>   2</c></rc>
    <rc><c>S </c><c>   2</c></rc>
    <rc><c>S </c><c>   2</c></rc>
    <rc><c>S </c><c>   2</c></rc>
    <rc><c>S </c><c>   2</c></rc>
    <rc><c>S </c><c>   2</c></rc>
    <rc><c>S </c><c>   2</c></rc>
    <rc><c>S </c><c>   2</c></rc>
    <rc><c>S </c><c>   2</c></rc>
    <rc><c>S </c><c>   2</c></rc>
   </set>
  </array>
  <array name="atomtypes" >
   <dimension dim="1">type</dimension>
   <field type="int">atomspertype</field>
   <field type="string">element</field>
   <field>mass</field>
   <field>valence</field>
   <field type="string">pseudopotential</field>
   <set>
    <rc><c>  48</c><c>Ni</c><c>     58.69000000</c><c>     16.00000000</c><c>  PAW_PBE Ni_pv 06Sep2000               </c></rc>
    <rc><c>  48</c><c>S </c><c>     32.06600000</c><c>      6.00000000</c><c>  PAW_PBE S 06Sep2000                   </c></rc>
   </set>
  </array>
 </atominfo>
 <structure name="initialpos" >
  <crystal>
   <varray name="basis" >
    <v>      11.25646304       0.00000000       0.00000000 </v>
    <v>       5.04456212      10.06282034       0.00000000 </v>
    <v>       0.00000000       0.00000000      21.74423184 </v>
   </varray>
   <i name="volume">   2463.00752351 </i>
   <varray name="rec_basis" >
    <v>       0.08883785      -0.04453504       0.00000000 </v>
    <v>       0.00000000       0.09937572       0.00000000 </v>
    <v>       0.00000000       0.00000000       0.04598921 </v>
   </varray>
  </crystal>
  <varray name="positions" >
   <v>       0.26092070       0.47878036       0.25332799 </v>
   <v>       0.35488056       0.38482049       0.38835497 </v>
   <v>       0.45551772       0.28418346       0.50509544 </v>
   <v>       0.16696083       0.07274024       0.11830101 </v>
   <v>       0.04926921       0.05389818       0.47246406 </v>
   <v>       0.28468432       0.29716981       0.10461343 </v>
   <v>       0.36819893       0.23939913       0.21765305 </v>
   <v>       0.46215880       0.14543926       0.35268003 </v>
   <v>       0.00030194       0.37150212       0.21765305 </v>
   <v>       0.09426181       0.27754226       0.35268003 </v>
   <v>       0.18510763       0.19012655       0.47258635 </v>
   <v>       0.41695605       0.45723328       0.10173402 </v>
   <v>       0.76092070       0.47878036       0.25332799 </v>
   <v>       0.85488056       0.38482049       0.38835497 </v>
   <v>       0.87222083       0.36796299       0.49696332 </v>
   <v>       0.66696083       0.07274024       0.11830101 </v>
   <v>       0.55107911       0.05003528       0.47255906 </v>
   <v>       0.77423906       0.33335899       0.08262607 </v>
   <v>       0.86819893       0.23939913       0.21765305 </v>
   <v>       0.96215880       0.14543926       0.35268003 </v>
   <v>       0.50030194       0.37150212       0.21765305 </v>
   <v>       0.59426181       0.27754226       0.35268003 </v>
   <v>       0.68966599       0.18862321       0.47255773 </v>
   <v>       0.99082885       0.44135878       0.11371038 </v>
   <v>       0.26092070       0.97878036       0.25332799 </v>
   <v>       0.35488056       0.88482049       0.38835497 </v>
   <v>       0.37173323       0.86748462       0.49696230 </v>
   <v>       0.16696083       0.57274024       0.11830101 </v>
   <v>       0.04117419       0.55408002       0.46609207 </v>
   <v>       0.28103407       0.81422643       0.10249233 </v>
   <v>       0.36819893       0.73939913       0.21765305 </v>
   <v>       0.46215880       0.64543926       0.35268003 </v>
   <v>       0.00030194       0.87150212       0.21765305 </v>
   <v>       0.09426181       0.77754226       0.35268003 </v>
   <v>       0.18562320       0.69852894       0.46608883 </v>
   <v>       0.42199774       0.95542695       0.10238487 </v>
   <v>       0.76092070       0.97878036       0.25332799 </v>
   <v>       0.85488056       0.88482049       0.38835497 </v>
   <v>       0.86701821       0.87268299       0.49640251 </v>
   <v>       0.67963570       0.55403201       0.13155262 </v>
   <v>       0.54957285       0.55459219       0.47258666 </v>
   <v>       0.78289996       0.83343330       0.10029272 </v>
   <v>       0.86819893       0.73939913       0.21765305 </v>
   <v>       0.96215880       0.64543926       0.35268003 </v>
   <v>       0.50030194       0.87150212       0.21765305 </v>
   <v>       0.59426181       0.77754226       0.35268003 </v>
   <v>       0.68580058       0.69043021       0.47246862 </v>
   <v>       0.90634206       0.96546199       0.08262607 </v>
   <v>       0.07287763       0.16682343       0.27005396 </v>
   <v>       0.16683750       0.07286357       0.40508094 </v>
   <v>       0.47891775       0.26078330       0.13502698 </v>
   <v>       0.03023343       0.37768264       0.45050807 </v>
   <v>       0.43627354       0.47164251       0.31548109 </v>
   <v>       0.27893718       0.13132236       0.06322937 </v>
   <v>       0.34231368       0.06560239       0.18045411 </v>
   <v>       0.13430427       0.45186473       0.05755842 </v>
   <v>       0.17409868       0.39738738       0.18045411 </v>
   <v>       0.26805855       0.30342751       0.31548109 </v>
   <v>       0.36201842       0.20946765       0.45050807 </v>
   <v>       0.57287763       0.16682343       0.27005396 </v>
   <v>       0.66683750       0.07286357       0.40508094 </v>
   <v>       0.82065136       0.48431615       0.06163655 </v>
   <v>       0.97891775       0.26078330       0.13502698 </v>
   <v>       0.70933298       0.53075153       0.52751333 </v>
   <v>       0.53023343       0.37768264       0.45050807 </v>
   <v>       0.93627354       0.47164251       0.31548109 </v>
   <v>       0.76198637       0.15741636       0.06465954 </v>
   <v>       0.84231368       0.06560239       0.18045411 </v>
   <v>       0.58131730       0.47819260       0.07006943 </v>
   <v>       0.67409868       0.39738738       0.18045411 </v>
   <v>       0.76805855       0.30342751       0.31548109 </v>
   <v>       0.86201842       0.20946765       0.45050807 </v>
   <v>       0.07287764       0.66682343       0.27005396 </v>
   <v>       0.16683750       0.57286357       0.40508094 </v>
   <v>       0.47891775       0.76078330       0.13502698 </v>
   <v>       0.20894290       0.03036863       0.52751341 </v>
   <v>       0.03023342       0.87768264       0.45050807 </v>
   <v>       0.43627354       0.97164251       0.31548109 </v>
   <v>       0.27725593       0.64191553       0.06678821 </v>
   <v>       0.34231368       0.56560239       0.18045411 </v>
   <v>       0.09716496       0.96015143       0.06778050 </v>
   <v>       0.17409868       0.89738738       0.18045411 </v>
   <v>       0.26805855       0.80342751       0.31548109 </v>
   <v>       0.36201842       0.70946764       0.45050807 </v>
   <v>       0.57287764       0.66682343       0.27005396 </v>
   <v>       0.66683750       0.57286357       0.40508094 </v>
   <v>       0.84115949       0.87983088       0.02020554 </v>
   <v>       0.97891775       0.76078330       0.13502698 </v>
   <v>       0.70536134       0.03434162       0.52975615 </v>
   <v>       0.53023342       0.87768264       0.45050807 </v>
   <v>       0.93627354       0.97164251       0.31548109 </v>
   <v>       0.84231368       0.56560239       0.18045411 </v>
   <v>       0.59038538       0.96668629       0.06806223 </v>
   <v>       0.67409868       0.89738738       0.18045411 </v>
   <v>       0.76805855       0.80342751       0.31548109 </v>
   <v>       0.86201842       0.70946764       0.45050807 </v>
  </varray>
 </structure>
 <calculation>
  <scstep>
   <time name="dav">   13.36   13.37</time>
   <time name="total">   13.88   13.88</time>
   <energy>
    <i name="alphaZ">   2684.99175279 </i>
    <i name="ewald"> 297247.63627319 </i>
    <i name="hartreedc">-460876.92032307 </i>
    <i name="XCdc">   4902.79515839 </i>
    <i name="pawpsdc"> 150306.04444553 </i>
    <i name="pawaedc">-156855.34918313 </i>
    <i name="eentropy">     -0.53566108 </i>
    <i name="bandstr">  -5184.08037610 </i>
    <i name="atom"> 181336.80673834 </i>
    <i name="e_fr_energy">  13561.38882488 </i>
    <i name="e_wo_entrp">  13561.92448596 </i>
    <i name="e_0_energy">  13561.65665542 </i>
   </energy>
  </scstep>
  <scstep>
   <time name="dav">   12.19   12.19</time>
   <time name="total">   12.19   12.19</time>
   <energy>
    <i name="e_fr_energy">    894.11703169 </i>
    <i name="e_wo_entrp">    894.94788445 </i>
    <i name="e_0_energy">    894.53245807 </i>
   </energy>
  </scstep>
  <scstep>
   <time name="dav">   14.65   14.65</time>
   <time name="total">   14.65   14.65</time>
   <energy>
    <i name="e_fr_energy">   -453.21786074 </i>
    <i name="e_wo_entrp">   -451.98438648 </i>
    <i name="e_0_energy">   -452.60112361 </i>
   </energy>
  </scstep>
  <scstep>
   <time name="dav">   14.41   14.41</time>
   <time name="total">   14.41   14.41</time>
   <energy>
    <i name="e_fr_energy">   -540.07249762 </i>
    <i name="e_wo_entrp">   -538.77778140 </i>
    <i name="e_0_energy">   -539.42513951 </i>
   </energy>
  </scstep>
  <scstep>
   <time name="dav">   15.21   15.21</time>
   <time name="total">   15.77   15.78</time>
   <energy>
    <i name="e_fr_energy">   -543.00361975 </i>
    <i name="e_wo_entrp">   -541.70588642 </i>
    <i name="e_0_energy">   -542.35475308 </i>
   </energy>
  </scstep>
  <scstep>
   <time name="dav">   14.87   14.87</time>
   <time name="total">   15.81   15.81</time>
   <energy>
    <i name="e_fr_energy">   -635.07159689 </i>
    <i name="e_wo_entrp">   -633.91115762 </i>
    <i name="e_0_energy">   -634.49137725 </i>
   </energy>
  </scstep>
  <scstep>
   <time name="dav">   13.27   13.27</time>
   <time name="total">   14.07   14.07</time>
   <energy>
    <i name="e_fr_energy">   -502.94658601 </i>
    <i name="e_wo_entrp">   -501.98489520 </i>
    <i name="e_0_energy">   -502.46574060 </i>
   </energy>
  </scstep>
  <scstep>
   <time name="dav">   14.77   14.77</time>
   <time name="total">   15.55   15.56</time>
   <energy>
    <i name="e_fr_energy">   -635.54581493 </i>
    <i name="e_wo_entrp">   -634.55036175 </i>
    <i name="e_0_energy">   -635.04808834 </i>
   </energy>
  </scstep>
  <scstep>
   <time name="dav">   14.32   14.32</time>
   <time name="total">   15.34   15.35</time>
   <energy>
    <i name="e_fr_energy">   -553.39490313 </i>
    <i name="e_wo_entrp">   -551.69361898 </i>
    <i name="e_0_energy">   -552.54426106 </i>
   </energy>
  </scstep>
  <scstep>
   <time name="dav">   15.59   15.59</time>
   <time name="total">   16.43   16.43</time>
   <energy>
    <i name="e_fr_energy">   -533.86534138 </i>
    <i name="e_wo_entrp">   -532.30113050 </i>
    <i name="e_0_energy">   -533.08323594 </i>
   </energy>
  </scstep>
  <scstep>
   <time name="dav">   14.80   14.80</time>
   <time name="total">   15.85   15.85</time>
   <energy>
    <i name="e_fr_energy">   -527.69135372 </i>
    <i name="e_wo_entrp">   -526.39932610 </i>
    <i name="e_0_energy">   -527.04533991 </i>
   </energy>
  </scstep>
  <scstep>
   <time name="dav">   15.10   15.11</time>
   <time name="total">   15.97   15.98</time>
   <energy>
    <i name="e_fr_energy">   -501.31808472 </i>
    <i name="e_wo_entrp">   -500.29325574 </i>
    <i name="e_0_energy">   -500.80567023 </i>
   </energy>
  </scstep>
  <scstep>
   <time name="dav">   14.42   14.42</time>
   <time name="total">   15.27   15.28</time>
   <energy>
    <i name="e_fr_energy">   -496.17695103 </i>
    <i name="e_wo_entrp">   -495.01267443 </i>
    <i name="e_0_energy">   -495.59481273 </i>
   </energy>
  </scstep>
  <scstep>
   <time name="dav">   15.05   15.07</time>
   <time name="total">   15.84   15.85</time>
   <energy>
    <i name="e_fr_energy">   -487.32135175 </i>
    <i name="e_wo_entrp">   -486.26448836 </i>
    <i name="e_0_energy">   -486.79292005 </i>
   </energy>
  </scstep>
  <scstep>
   <time name="dav">   15.23   15.24</time>
   <time name="total">   16.02   16.02</time>
   <energy>
    <i name="e_fr_energy">   -483.80130408 </i>
    <i name="e_wo_entrp">   -482.77194450 </i>
    <i name="e_0_energy">   -483.28662429 </i>
   </energy>
  </scstep>
  <scstep>
   <time name="dav">   15.05   15.06</time>
   <time name="total">   15.86   15.87</time>
   <energy>
    <i name="e_fr_energy">   -481.29966812 </i>
    <i name="e_wo_entrp">   -480.19545343 </i>
    <i name="e_0_energy">   -480.74756078 </i>
   </energy>
  </scstep>
  <scstep>
   <time name="dav">   15.55   15.56</time>
   <time name="total">   16.35   16.35</time>
   <energy>
    <i name="e_fr_energy">   -480.36254197 </i>
    <i name="e_wo_entrp">   -479.26321036 </i>
    <i name="e_0_energy">   -479.81287616 </i>
   </energy>
  </scstep>
  <scstep>
   <time name="dav">   16.19   16.20</time>
   <time name="total">   17.12   17.13</time>
   <energy>
    <i name="e_fr_energy">   -479.65124388 </i>
    <i name="e_wo_entrp">   -478.58300175 </i>
    <i name="e_0_energy">   -479.11712282 </i>
   </energy>
  </scstep>
  <scstep>
   <time name="dav">   18.52   18.53</time>
   <time name="total">   19.50   19.51</time>
   <energy>
    <i name="e_fr_energy">   -478.82937051 </i>
    <i name="e_wo_entrp">   -477.75074436 </i>
    <i name="e_0_energy">   -478.29005744 </i>
   </energy>
  </scstep>
  <scstep>
   <time name="dav">   18.09   18.09</time>
   <time name="total">   19.06   19.06</time>
   <energy>
    <i name="e_fr_energy">   -478.07410153 </i>
    <i name="e_wo_entrp">   -476.98963645 </i>
    <i name="e_0_energy">   -477.53186899 </i>
   </energy>
  </scstep>
  <scstep>
   <time name="dav">   18.40   18.41</time>
   <time name="total">   19.35   19.36</time>
   <energy>
    <i name="e_fr_energy">   -477.21041384 </i>
    <i name="e_wo_entrp">   -476.14207523 </i>
    <i name="e_0_energy">   -476.67624454 </i>
   </energy>
  </scstep>
  <scstep>
   <time name="dav">   18.57   18.58</time>
   <time name="total">   19.53   19.54</time>
   <energy>
    <i name="e_fr_energy">   -476.52280176 </i>
    <i name="e_wo_entrp">   -475.41794414 </i>
    <i name="e_0_energy">   -475.97037295 </i>
   </energy>
  </scstep>
  <scstep>
   <time name="dav">   16.76   16.76</time>
   <time name="total">   17.76   17.76</time>
   <energy>
    <i name="e_fr_energy">   -476.51296618 </i>
    <i name="e_wo_entrp">   -475.41351512 </i>
    <i name="e_0_energy">   -475.96324065 </i>
   </energy>
  </scstep>
  <scstep>
   <time name="dav">   14.26   14.27</time>
   <time name="total">   15.08   15.09</time>
   <energy>
    <i name="e_fr_energy">   -476.47725441 </i>
    <i name="e_wo_entrp">   -475.37247099 </i>
    <i name="e_0_energy">   -475.92486270 </i>
   </energy>
  </scstep>
  <scstep>
   <time name="dav">   15.10   15.10</time>
   <time name="total">   16.03   16.03</time>
   <energy>
    <i name="e_fr_energy">   -476.49872787 </i>
    <i name="e_wo_entrp">   -475.38087565 </i>
    <i name="e_0_energy">   -475.93980176 </i>
   </energy>
  </scstep>
  <scstep>
   <time name="dav">   14.59   14.59</time>
   <time name="total">   15.45   15.45</time>
   <energy>
    <i name="e_fr_energy">   -476.44838838 </i>
    <i name="e_wo_entrp">   -475.34218466 </i>
    <i name="e_0_energy">   -475.89528652 </i>
   </energy>
  </scstep>
  <scstep>
   <time name="dav">   15.00   15.01</time>
   <time name="total">   15.81   15.82</time>
   <energy>
    <i name="e_fr_energy">   -476.47434759 </i>
    <i name="e_wo_entrp">   -475.35657907 </i>
    <i name="e_0_energy">   -475.91546333 </i>
   </energy>
  </scstep>
  <scstep>
   <time name="dav">   13.91   13.91</time>
   <time name="total">   14.73   14.73</time>
   <energy>
    <i name="e_fr_energy">   -476.44681312 </i>
    <i name="e_wo_entrp">   -475.33414933 </i>
    <i name="e_0_energy">   -475.89048122 </i>
   </energy>
  </scstep>
  <scstep>
   <time name="dav">   15.04   15.04</time>
   <time name="total">   15.85   15.86</time>
   <energy>
    <i name="e_fr_energy">   -476.44313567 </i>
    <i name="e_wo_entrp">   -475.33417889 </i>
    <i name="e_0_energy">   -475.88865728 </i>
   </energy>
  </scstep>
  <scstep>
   <time name="dav">   14.76   14.76</time>
   <time name="total">   15.71   15.71</time>
   <energy>
    <i name="e_fr_energy">   -476.44044567 </i>
    <i name="e_wo_entrp">   -475.33447843 </i>
    <i name="e_0_energy">   -475.88746205 </i>
   </energy>
  </scstep>
  <scstep>
   <time name="dav">   13.90   13.90</time>
   <time name="total">   14.72   14.73</time>
   <energy>
    <i name="e_fr_energy">   -476.44029031 </i>
    <i name="e_wo_entrp">   -475.33526919 </i>
    <i name="e_0_energy">   -475.88777975 </i>
   </energy>
  </scstep>
  <scstep>
   <time name="dav">   13.27   13.27</time>
   <time name="total">   14.10   14.10</time>
   <energy>
    <i name="e_fr_energy">   -476.43963574 </i>
    <i name="e_wo_entrp">   -475.33255093 </i>
    <i name="e_0_energy">   -475.88609334 </i>
   </energy>
  </scstep>
  <scstep>
   <time name="dav">   13.46   13.46</time>
   <time name="total">   14.50   14.51</time>
   <energy>
    <i name="e_fr_energy">   -476.43937560 </i>
    <i name="e_wo_entrp">   -475.33142846 </i>
    <i name="e_0_energy">   -475.88540203 </i>
   </energy>
  </scstep>
  <scstep>
   <time name="dav">   11.72   11.73</time>
   <time name="total">   12.57   12.57</time>
   <energy>
    <i name="e_fr_energy">   -476.43985697 </i>
    <i name="e_wo_entrp">   -475.33316986 </i>
    <i name="e_0_energy">   -475.88651342 </i>
   </energy>
  </scstep>
  <scstep>
   <time name="dav">   10.19   10.19</time>
   <time name="total">   10.58   10.58</time>
   <energy>
    <i name="alphaZ">   2684.99175279 </i>
    <i name="ewald"> 297247.63627319 </i>
    <i name="hartreedc">-459811.19624768 </i>
    <i name="XCdc">   4861.41930848 </i>
    <i name="pawpsdc"> 183504.33774083 </i>
    <i name="pawaedc">-190155.52064339 </i>
    <i name="eentropy">     -1.10746950 </i>
    <i name="bandstr"> -20143.80734680 </i>
    <i name="atom"> 181336.80673834 </i>
    <i name="e_fr_energy">   -476.43989373 </i>
    <i name="e_wo_entrp">   -475.33242424 </i>
    <i name="e_0_energy">   -475.88615898 </i>
   </energy>
  </scstep>
  <structure>
   <crystal>
    <varray name="basis" >
     <v>      11.25646304       0.00000000       0.00000000 </v>
     <v>       5.04456212      10.06282034       0.00000000 </v>
     <v>       0.00000000       0.00000000      21.74423184 </v>
    </varray>
    <i name="volume">   2463.00752351 </i>
    <varray name="rec_basis" >
     <v>       0.08883785      -0.04453504       0.00000000 </v>
     <v>       0.00000000       0.09937572       0.00000000 </v>
     <v>       0.00000000       0.00000000       0.04598921 </v>
    </varray>
   </crystal>
   <varray name="positions" >
    <v>       0.26092070       0.47878036       0.25332799 </v>
    <v>       0.35488056       0.38482049       0.38835497 </v>
    <v>       0.45551772       0.28418346       0.50509544 </v>
    <v>       0.16696083       0.07274024       0.11830101 </v>
    <v>       0.04926921       0.05389818       0.47246406 </v>
    <v>       0.28468432       0.29716981       0.10461343 </v>
    <v>       0.36819893       0.23939913       0.21765305 </v>
    <v>       0.46215880       0.14543926       0.35268003 </v>
    <v>       0.00030194       0.37150212       0.21765305 </v>
    <v>       0.09426181       0.27754226       0.35268003 </v>
    <v>       0.18510763       0.19012655       0.47258635 </v>
    <v>       0.41695605       0.45723328       0.10173402 </v>
    <v>       0.76092070       0.47878036       0.25332799 </v>
    <v>       0.85488056       0.38482049       0.38835497 </v>
    <v>       0.87222083       0.36796299       0.49696332 </v>
    <v>       0.66696083       0.07274024       0.11830101 </v>
    <v>       0.55107911       0.05003528       0.47255906 </v>
    <v>       0.77423906       0.33335899       0.08262607 </v>
    <v>       0.86819893       0.23939913       0.21765305 </v>
    <v>       0.96215880       0.14543926       0.35268003 </v>
    <v>       0.50030194       0.37150212       0.21765305 </v>
    <v>       0.59426181       0.27754226       0.35268003 </v>
    <v>       0.68966599       0.18862321       0.47255773 </v>
    <v>       0.99082885       0.44135878       0.11371038 </v>
    <v>       0.26092070       0.97878036       0.25332799 </v>
    <v>       0.35488056       0.88482049       0.38835497 </v>
    <v>       0.37173323       0.86748462       0.49696230 </v>
    <v>       0.16696083       0.57274024       0.11830101 </v>
    <v>       0.04117419       0.55408002       0.46609207 </v>
    <v>       0.28103407       0.81422643       0.10249233 </v>
    <v>       0.36819893       0.73939913       0.21765305 </v>
    <v>       0.46215880       0.64543926       0.35268003 </v>
    <v>       0.00030194       0.87150212       0.21765305 </v>
    <v>       0.09426181       0.77754226       0.35268003 </v>
    <v>       0.18562320       0.69852894       0.46608883 </v>
    <v>       0.42199774       0.95542695       0.10238487 </v>
    <v>       0.76092070       0.97878036       0.25332799 </v>
    <v>       0.85488056       0.88482049       0.38835497 </v>
    <v>       0.86701821       0.87268299       0.49640251 </v>
    <v>       0.67963570       0.55403201       0.13155262 </v>
    <v>       0.54957285       0.55459219       0.47258666 </v>
    <v>       0.78289996       0.83343330       0.10029272 </v>
    <v>       0.86819893       0.73939913       0.21765305 </v>
    <v>       0.96215880       0.64543926       0.35268003 </v>
    <v>       0.50030194       0.87150212       0.21765305 </v>
    <v>       0.59426181       0.77754226       0.35268003 </v>
    <v>       0.68580058       0.69043021       0.47246862 </v>
    <v>       0.90634206       0.96546199       0.08262607 </v>
    <v>       0.07287763       0.16682343       0.27005396 </v>
    <v>       0.16683750       0.07286357       0.40508094 </v>
    <v>       0.47891775       0.26078330       0.13502698 </v>
    <v>       0.03023343       0.37768264       0.45050807 </v>
    <v>       0.43627354       0.47164251       0.31548109 </v>
    <v>       0.27893718       0.13132236       0.06322937 </v>
    <v>       0.34231368       0.06560239       0.18045411 </v>
    <v>       0.13430427       0.45186473       0.05755842 </v>
    <v>       0.17409868       0.39738738       0.18045411 </v>
    <v>       0.26805855       0.30342751       0.31548109 </v>
    <v>       0.36201842       0.20946765       0.45050807 </v>
    <v>       0.57287763       0.16682343       0.27005396 </v>
    <v>       0.66683750       0.07286357       0.40508094 </v>
    <v>       0.82065136       0.48431615       0.06163655 </v>
    <v>       0.97891775       0.26078330       0.13502698 </v>
    <v>       0.70933298       0.53075153       0.52751333 </v>
    <v>       0.53023343       0.37768264       0.45050807 </v>
    <v>       0.93627354       0.47164251       0.31548109 </v>
    <v>       0.76198637       0.15741636       0.06465954 </v>
    <v>       0.84231368       0.06560239       0.18045411 </v>
    <v>       0.58131730       0.47819260       0.07006943 </v>
    <v>       0.67409868       0.39738738       0.18045411 </v>
    <v>       0.76805855       0.30342751       0.31548109 </v>
    <v>       0.86201842       0.20946765       0.45050807 </v>
    <v>       0.07287764       0.66682343       0.27005396 </v>
    <v>       0.16683750       0.57286357       0.40508094 </v>
    <v>       0.47891775       0.76078330       0.13502698 </v>
    <v>       0.20894290       0.03036863       0.52751341 </v>
    <v>       0.03023342       0.87768264       0.45050807 </v>
    <v>       0.43627354       0.97164251       0.31548109 </v>
    <v>       0.27725593       0.64191553       0.06678821 </v>
    <v>       0.34231368       0.56560239       0.18045411 </v>
    <v>       0.09716496       0.96015143       0.06778050 </v>
    <v>       0.17409868       0.89738738       0.18045411 </v>
    <v>       0.26805855       0.80342751       0.31548109 </v>
    <v>       0.36201842       0.70946764       0.45050807 </v>
    <v>       0.57287764       0.66682343       0.27005396 </v>
    <v>       0.66683750       0.57286357       0.40508094 </v>
    <v>       0.84115949       0.87983088       0.02020554 </v>
    <v>       0.97891775       0.76078330       0.13502698 </v>
    <v>       0.70536134       0.03434162       0.52975615 </v>
    <v>       0.53023342       0.87768264       0.45050807 </v>
    <v>       0.93627354       0.97164251       0.31548109 </v>
    <v>       0.84231368       0.56560239       0.18045411 </v>
    <v>       0.59038538       0.96668629       0.06806223 </v>
    <v>       0.67409868       0.89738738       0.18045411 </v>
    <v>       0.76805855       0.80342751       0.31548109 </v>
    <v>       0.86201842       0.70946764       0.45050807 </v>
   </varray>
  </structure>
  <varray name="forces" >
   <v>      -0.02304297       0.14907954       0.04758854 </v>
   <v>       0.04193068      -0.06598309       0.03468114 </v>
   <v>       0.03144862      -0.05964158       1.36328919 </v>
   <v>      -0.65470787       0.09264038       1.44691459 </v>
   <v>      -0.63678663       0.11079724       0.46410718 </v>
   <v>       0.81985687      -0.07190984      -0.78947043 </v>
   <v>       0.01646072      -0.13549973       0.22891282 </v>
   <v>       0.10653322      -0.09844067      -0.01244512 </v>
   <v>      -0.24219787      -0.28732107       1.19193985 </v>
   <v>      -0.10904832      -0.15361119       0.07907683 </v>
   <v>       0.41647781       0.76834337       0.51135387 </v>
   <v>      -0.18143826      -0.56646795      -1.10115356 </v>
   <v>      -0.07055076       0.02922047      -0.09656192 </v>
   <v>      -0.20980703       0.09396533      -1.06310877 </v>
   <v>       0.46973157      -0.89650708       0.75791907 </v>
   <v>       0.08752779       1.25168568       2.14833071 </v>
   <v>      -0.87483207       0.14508807       0.41528253 </v>
   <v>       0.45379796      -2.08176122       1.21214058 </v>
   <v>      -0.03304253      -0.05757863       0.12868256 </v>
   <v>       0.11099247      -0.06187591      -0.02252737 </v>
   <v>      -0.02953803      -0.07959627       0.28908000 </v>
   <v>       0.00361458      -0.13673869      -0.05292371 </v>
   <v>       0.25090255       0.86179978       0.44088741 </v>
   <v>       0.81218625       0.28429703       0.23877777 </v>
   <v>       0.07336616      -0.02020452       0.03049221 </v>
   <v>      -0.02230703       0.18918428      -1.02173312 </v>
   <v>       0.55057992      -0.80360927       0.75131848 </v>
   <v>      -0.05890420       0.40271767       1.63606126 </v>
   <v>       0.44257722      -0.45196458       0.97596694 </v>
   <v>       0.59816932      -0.22647674      -1.20264127 </v>
   <v>       0.05194679       0.07883736       0.21799010 </v>
   <v>       0.13808379       0.01343529      -0.03229460 </v>
   <v>      -0.10998094      -0.01068098       0.15462452 </v>
   <v>      -0.03641346       0.03552422      -0.30624618 </v>
   <v>       0.18263476      -0.59184139       1.02498806 </v>
   <v>      -0.11397789      -0.55498428      -0.96700313 </v>
   <v>       0.10851259      -0.13659453      -0.12075200 </v>
   <v>      -0.12231197       0.19425995      -1.19742776 </v>
   <v>       0.58910864      -0.91145490       0.88385389 </v>
   <v>      -0.71722383       2.15206762       0.22305337 </v>
   <v>      -0.86486388      -0.00220451       0.54179628 </v>
   <v>      -0.80784555      -1.34580539       0.18850204 </v>
   <v>      -0.01964563       0.00680959       0.12944476 </v>
   <v>      -0.01287394       0.04052046      -0.35443401 </v>
   <v>      -0.19170533      -0.02369812       0.24688427 </v>
   <v>      -0.01158299      -0.12588372      -0.03444786 </v>
   <v>       0.21626053       0.60909065       0.46621448 </v>
   <v>       2.17397831       0.09279010       2.33947648 </v>
   <v>       0.09577946       0.00984732       0.05477340 </v>
   <v>       0.43008343      -0.76112878      -3.06049168 </v>
   <v>       0.72284358      -1.21015630       0.08354833 </v>
   <v>       0.12467872       0.66112003      -0.17283273 </v>
   <v>       0.06613277       0.01424091       0.03470832 </v>
   <v>       0.64322851       0.58568032      -2.46350905 </v>
   <v>      -0.42468419       0.55615528       2.54533966 </v>
   <v>      -0.78343798       0.13893500      -3.55248811 </v>
   <v>      -0.83182849       0.71218827       1.96043857 </v>
   <v>      -0.14064223       0.01426509       0.04779860 </v>
   <v>      -1.72249516       0.34311127      -0.68281476 </v>
   <v>       0.01996975       0.01553151       0.11604167 </v>
   <v>       0.55041827      -0.82745610      -2.98774628 </v>
   <v>       1.39471985       1.44761481      -3.08071714 </v>
   <v>      -0.37774082      -1.65453783      -0.12069606 </v>
   <v>       0.27806950      -0.29178605       2.78331086 </v>
   <v>       0.48665929       1.69276021      -0.70425088 </v>
   <v>       0.06859182      -0.05401522      -0.07751507 </v>
   <v>      -0.07601920       1.20510880      -2.51681296 </v>
   <v>       0.21373832      -0.01134274       0.72255128 </v>
   <v>      -1.09390509       0.75098681      -2.22567424 </v>
   <v>      -0.42818451      -1.40967377       2.11604615 </v>
   <v>      -0.06189503       0.01894539      -0.03036714 </v>
   <v>      -0.45575369       0.38940301      -0.16220893 </v>
   <v>       0.08705596      -0.02102160       0.16181948 </v>
   <v>       0.82629020      -1.33527354      -1.48630606 </v>
   <v>       0.78067471      -1.45928092      -0.05434930 </v>
   <v>       0.15888286      -0.35579566       2.77809955 </v>
   <v>      -0.48537267       1.27209034       0.04354095 </v>
   <v>       0.01466392       0.08091094      -0.03755908 </v>
   <v>       0.43018795       0.59667771      -2.36348121 </v>
   <v>      -0.28900672       0.57930222       2.81704029 </v>
   <v>      -0.71053229       0.06689804      -1.93501531 </v>
   <v>      -0.67091314       0.66560431       2.53944151 </v>
   <v>      -0.09476671      -0.03109380      -0.04448362 </v>
   <v>      -0.62994454       0.22028917      -0.18902173 </v>
   <v>      -0.02322956       0.02748748       0.13491719 </v>
   <v>       0.45242436      -0.67878903      -3.07444502 </v>
   <v>      -0.67436216      -1.18747133      -4.15360884 </v>
   <v>       1.12109772      -0.47795834       0.32803458 </v>
   <v>       0.25943933      -0.40559163       2.57970142 </v>
   <v>      -0.10829819       0.60152377      -0.15782271 </v>
   <v>       0.03501348      -0.01390699       0.00878378 </v>
   <v>       0.49885592       1.00981701       1.13442876 </v>
   <v>      -0.75119672      -0.50668557      -2.60966542 </v>
   <v>      -0.55630264       0.36178004       2.35603334 </v>
   <v>      -0.02558320       0.01807375       0.07505201 </v>
   <v>      -0.93545487       0.99279813       0.08797270 </v>
  </varray>
  <varray name="stress" >
   <v>      58.26730843      -0.45423884      -2.89227812 </v>
   <v>      -0.45423875      60.80863809       2.35036490 </v>
   <v>      -2.89227826       2.35036506      61.67905300 </v>
  </varray>
  <energy>
   <i name="e_fr_energy">   -476.43989373 </i>
   <i name="e_wo_entrp">   -475.88615898 </i>
   <i name="e_0_energy">     -1.10746950 </i>
  </energy>
  <time name="totalsc">  558.33  558.49</time>
  <eigenvalues>
   <array>
    <dimension dim="1">band</dimension>
    <dimension dim="2">kpoint</dimension>
    <dimension dim="3">spin</dimension>
    <field>eigene</field>
    <field>occ</field>
    <set>
     <set comment="spin 1">
      <set comment="kpoint 1">
       <r>  -63.0029    1.0000 </r>
       <r>  -62.9685    1.0000 </r>
       <r>  -62.9499    1.0000 </r>
       <r>  -62.9034    1.0000 </r>
       <r>  -62.8775    1.0000 </r>
       <r>  -62.8762    1.0000 </r>
       <r>  -62.8718    1.0000 </r>
       <r>  -62.8631    1.0000 </r>
       <r>  -62.8521    1.0000 </r>
       <r>  -62.8486    1.0000 </r>
       <r>  -62.8423    1.0000 </r>
       <r>  -62.8385    1.0000 </r>
       <r>  -62.8126    1.0000 </r>
       <r>  -62.8116    1.0000 </r>
       <r>  -62.7969    1.0000 </r>
       <r>  -62.7897    1.0000 </r>
       <r>  -62.7881    1.0000 </r>
       <r>  -62.7698    1.0000 </r>
       <r>  -62.7500    1.0000 </r>
       <r>  -62.7496    1.0000 </r>
       <r>  -62.7490    1.0000 </r>
       <r>  -62.7320    1.0000 </r>
       <r>  -62.7075    1.0000 </r>
       <r>  -62.6885    1.0000 </r>
       <r>  -62.6870    1.0000 </r>
       <r>  -62.6735    1.0000 </r>
       <r>  -62.6183    1.0000 </r>
       <r>  -62.5983    1.0000 </r>
       <r>  -62.5844    1.0000 </r>
       <r>  -62.5804    1.0000 </r>
       <r>  -62.5770    1.0000 </r>
       <r>  -62.5659    1.0000 </r>
       <r>  -62.5615    1.0000 </r>
       <r>  -62.5258    1.0000 </r>
       <r>  -62.5199    1.0000 </r>
       <r>  -62.5194    1.0000 </r>
       <r>  -62.5036    1.0000 </r>
       <r>  -62.4860    1.0000 </r>
       <r>  -62.4700    1.0000 </r>
       <r>  -62.4626    1.0000 </r>
       <r>  -62.4605    1.0000 </r>
       <r>  -62.4496    1.0000 </r>
       <r>  -62.4284    1.0000 </r>
       <r>  -62.3837    1.0000 </r>
       <r>  -62.3731    1.0000 </r>
       <r>  -62.3598    1.0000 </r>
       <r>  -62.3527    1.0000 </r>
       <r>  -62.3472    1.0000 </r>
       <r>  -62.3401    1.0000 </r>
       <r>  -62.3389    1.0000 </r>
       <r>  -62.3308    1.0000 </r>
       <r>  -62.3263    1.0000 </r>
       <r>  -62.3257    1.0000 </r>
       <r>  -62.3233    1.0000 </r>
       <r>  -62.3216    1.0000 </r>
       <r>  -62.3197    1.0000 </r>
       <r>  -62.3193    1.0000 </r>
       <r>  -62.3157    1.0000 </r>
       <r>  -62.3132    1.0000 </r>
       <r>  -62.3125    1.0000 </r>
       <r>  -62.3121    1.0000 </r>
       <r>  -62.3108    1.0000 </r>
       <r>  -62.3077    1.0000 </r>
       <r>  -62.3042    1.0000 </r>
       <r>  -62.3038    1.0000 </r>
       <r>  -62.3010    1.0000 </r>
       <r>  -62.2989    1.0000 </r>
       <r>  -62.2922    1.0000 </r>
       <r>  -62.2914    1.0000 </r>
       <r>  -62.2911    1.0000 </r>
       <r>  -62.2863    1.0000 </r>
       <r>  -62.2849    1.0000 </r>
       <r>  -62.2844    1.0000 </r>
       <r>  -62.2792    1.0000 </r>
       <r>  -62.2778    1.0000 </r>
       <r>  -62.2776    1.0000 </r>
       <r>  -62.2769    1.0000 </r>
       <r>  -62.2762    1.0000 </r>
       <r>  -62.2759    1.0000 </r>
       <r>  -62.2744    1.0000 </r>
       <r>  -62.2678    1.0000 </r>
       <r>  -62.2674    1.0000 </r>
       <r>  -62.2664    1.0000 </r>
       <r>  -62.2589    1.0000 </r>
       <r>  -62.2550    1.0000 </r>
       <r>  -62.2537    1.0000 </r>
       <r>  -62.2507    1.0000 </r>
       <r>  -62.2481    1.0000 </r>
       <r>  -62.2463    1.0000 </r>
       <r>  -62.2458    1.0000 </r>
       <r>  -62.2444    1.0000 </r>
       <r>  -62.2369    1.0000 </r>
       <r>  -62.2332    1.0000 </r>
       <r>  -62.2317    1.0000 </r>
       <r>  -62.2302    1.0000 </r>
       <r>  -62.2256    1.0000 </r>
       <r>  -62.2108    1.0000 </r>
       <r>  -62.2075    1.0000 </r>
       <r>  -62.2015    1.0000 </r>
       <r>  -62.1939    1.0000 </r>
       <r>  -62.1886    1.0000 </r>
       <r>  -62.1874    1.0000 </r>
       <r>  -62.1755    1.0000 </r>
       <r>  -62.1716    1.0000 </r>
       <r>  -62.1704    1.0000 </r>
       <r>  -62.1555    1.0000 </r>
       <r>  -62.1234    1.0000 </r>
       <r>  -62.1110    1.0000 </r>
       <r>  -62.0991    1.0000 </r>
       <r>  -62.0973    1.0000 </r>
       <r>  -62.0972    1.0000 </r>
       <r>  -62.0937    1.0000 </r>
       <r>  -62.0924    1.0000 </r>
       <r>  -62.0902    1.0000 </r>
       <r>  -62.0847    1.0000 </r>
       <r>  -62.0827    1.0000 </r>
       <r>  -62.0706    1.0000 </r>
       <r>  -62.0698    1.0000 </r>
       <r>  -62.0618    1.0000 </r>
       <r>  -62.0598    1.0000 </r>
       <r>  -62.0481    1.0000 </r>
       <r>  -62.0456    1.0000 </r>
       <r>  -62.0454    1.0000 </r>
       <r>  -62.0408    1.0000 </r>
       <r>  -62.0332    1.0000 </r>
       <r>  -62.0274    1.0000 </r>
       <r>  -62.0245    1.0000 </r>
       <r>  -62.0241    1.0000 </r>
       <r>  -62.0204    1.0000 </r>
       <r>  -62.0170    1.0000 </r>
       <r>  -62.0157    1.0000 </r>
       <r>  -62.0061    1.0000 </r>
       <r>  -61.9854    1.0000 </r>
       <r>  -61.9812    1.0000 </r>
       <r>  -61.9790    1.0000 </r>
       <r>  -61.9752    1.0000 </r>
       <r>  -61.9588    1.0000 </r>
       <r>  -61.8086    1.0000 </r>
       <r>  -61.8048    1.0000 </r>
       <r>  -61.7202    1.0000 </r>
       <r>  -61.5213    1.0000 </r>
       <r>  -61.4953    1.0000 </r>
       <r>  -61.4891    1.0000 </r>
       <r>  -61.4418    1.0000 </r>
       <r>  -14.3821    1.0000 </r>
       <r>  -13.9910    1.0000 </r>
       <r>  -13.8371    1.0000 </r>
       <r>  -13.6906    1.0000 </r>
       <r>  -13.5508    1.0000 </r>
       <r>  -13.5122    1.0000 </r>
       <r>  -13.4817    1.0000 </r>
       <r>  -13.4303    1.0000 </r>
       <r>  -13.2967    1.0000 </r>
       <r>  -13.1573    1.0000 </r>
       <r>  -13.0477    1.0000 </r>
       <r>  -12.9824    1.0000 </r>
       <r>  -12.9722    1.0000 </r>
       <r>  -12.8889    1.0000 </r>
       <r>  -12.7837    1.0000 </r>
       <r>  -12.6317    1.0000 </r>
       <r>  -12.5655    1.0000 </r>
       <r>  -12.5116    1.0000 </r>
       <r>  -12.4863    1.0000 </r>
       <r>  -12.4556    1.0000 </r>
       <r>  -12.3753    1.0000 </r>
       <r>  -12.3585    1.0000 </r>
       <r>  -12.3442    1.0000 </r>
       <r>  -12.3270    1.0000 </r>
       <r>  -12.2733    1.0000 </r>
       <r>  -12.2316    1.0000 </r>
       <r>  -12.2036    1.0000 </r>
       <r>  -12.1451    1.0000 </r>
       <r>  -12.1008    1.0000 </r>
       <r>  -12.0698    1.0000 </r>
       <r>  -12.0512    1.0000 </r>
       <r>  -12.0236    1.0000 </r>
       <r>  -11.8578    1.0000 </r>
       <r>  -11.8167    1.0000 </r>
       <r>  -11.7749    1.0000 </r>
       <r>  -11.6604    1.0000 </r>
       <r>  -11.6363    1.0000 </r>
       <r>  -11.6011    1.0000 </r>
       <r>  -11.5735    1.0000 </r>
       <r>  -11.5532    1.0000 </r>
       <r>  -11.5248    1.0000 </r>
       <r>  -11.4846    1.0000 </r>
       <r>  -11.4774    1.0000 </r>
       <r>  -11.4269    1.0000 </r>
       <r>  -11.3613    1.0000 </r>
       <r>  -11.2587    1.0000 </r>
       <r>  -11.1394    1.0000 </r>
       <r>  -10.9376    1.0000 </r>
       <r>   -6.0999    1.0000 </r>
       <r>   -5.9808    1.0000 </r>
       <r>   -5.9199    1.0000 </r>
       <r>   -5.8634    1.0000 </r>
       <r>   -5.8023    1.0000 </r>
       <r>   -5.7488    1.0000 </r>
       <r>   -5.7212    1.0000 </r>
       <r>   -5.6603    1.0000 </r>
       <r>   -5.5827    1.0000 </r>
       <r>   -5.4996    1.0000 </r>
       <r>   -5.3869    1.0000 </r>
       <r>   -5.2986    1.0000 </r>
       <r>   -5.2217    1.0000 </r>
       <r>   -5.2204    1.0000 </r>
       <r>   -5.1822    1.0000 </r>
       <r>   -5.1490    1.0000 </r>
       <r>   -5.0945    1.0000 </r>
       <r>   -5.0844    1.0000 </r>
       <r>   -5.0382    1.0000 </r>
       <r>   -4.9983    1.0000 </r>
       <r>   -4.9707    1.0000 </r>
       <r>   -4.9463    1.0000 </r>
       <r>   -4.9363    1.0000 </r>
       <r>   -4.9348    1.0000 </r>
       <r>   -4.8906    1.0000 </r>
       <r>   -4.8653    1.0000 </r>
       <r>   -4.8395    1.0000 </r>
       <r>   -4.8017    1.0000 </r>
       <r>   -4.7623    1.0000 </r>
       <r>   -4.7057    1.0000 </r>
       <r>   -4.6744    1.0000 </r>
       <r>   -4.6642    1.0000 </r>
       <r>   -4.6329    1.0000 </r>
       <r>   -4.6043    1.0000 </r>
       <r>   -4.5468    1.0000 </r>
       <r>   -4.5204    1.0000 </r>
       <r>   -4.4816    1.0000 </r>
       <r>   -4.4471    1.0000 </r>
       <r>   -4.4206    1.0000 </r>
       <r>   -4.3227    1.0000 </r>
       <r>   -4.2907    1.0000 </r>
       <r>   -4.2501    1.0000 </r>
       <r>   -4.2334    1.0000 </r>
       <r>   -4.2095    1.0000 </r>
       <r>   -4.1916    1.0000 </r>
       <r>   -4.1678    1.0000 </r>
       <r>   -4.1472    1.0000 </r>
       <r>   -4.1431    1.0000 </r>
       <r>   -4.1182    1.0000 </r>
       <r>   -4.1086    1.0000 </r>
       <r>   -4.0281    1.0000 </r>
       <r>   -3.9966    1.0000 </r>
       <r>   -3.9927    1.0000 </r>
       <r>   -3.9264    1.0000 </r>
       <r>   -3.8792    1.0000 </r>
       <r>   -3.8658    1.0000 </r>
       <r>   -3.8426    1.0000 </r>
       <r>   -3.7920    1.0000 </r>
       <r>   -3.7379    1.0000 </r>
       <r>   -3.7036    1.0000 </r>
       <r>   -3.6782    1.0000 </r>
       <r>   -3.6635    1.0000 </r>
       <r>   -3.6348    1.0000 </r>
       <r>   -3.5879    1.0000 </r>
       <r>   -3.5534    1.0000 </r>
       <r>   -3.5463    1.0000 </r>
       <r>   -3.5372    1.0000 </r>
       <r>   -3.5126    1.0000 </r>
       <r>   -3.4772    1.0000 </r>
       <r>   -3.4693    1.0000 </r>
       <r>   -3.4446    1.0000 </r>
       <r>   -3.4006    1.0000 </r>
       <r>   -3.3718    1.0000 </r>
       <r>   -3.3450    1.0000 </r>
       <r>   -3.3204    1.0000 </r>
       <r>   -3.2938    1.0000 </r>
       <r>   -3.2887    1.0000 </r>
       <r>   -3.2746    1.0000 </r>
       <r>   -3.2657    1.0000 </r>
       <r>   -3.2467    1.0000 </r>
       <r>   -3.2251    1.0000 </r>
       <r>   -3.2007    1.0000 </r>
       <r>   -3.1793    1.0000 </r>
       <r>   -3.1564    1.0000 </r>
       <r>   -3.1437    1.0000 </r>
       <r>   -3.1089    1.0000 </r>
       <r>   -3.1018    1.0000 </r>
       <r>   -3.0921    1.0000 </r>
       <r>   -3.0587    1.0000 </r>
       <r>   -3.0344    1.0000 </r>
       <r>   -2.9950    1.0000 </r>
       <r>   -2.9769    1.0000 </r>
       <r>   -2.9686    1.0000 </r>
       <r>   -2.9159    1.0000 </r>
       <r>   -2.8937    1.0000 </r>
       <r>   -2.8618    1.0000 </r>
       <r>   -2.8438    1.0000 </r>
       <r>   -2.8350    1.0000 </r>
       <r>   -2.8116    1.0000 </r>
       <r>   -2.7979    1.0000 </r>
       <r>   -2.7688    1.0000 </r>
       <r>   -2.7416    1.0000 </r>
       <r>   -2.7035    1.0000 </r>
       <r>   -2.6972    1.0000 </r>
       <r>   -2.6679    1.0000 </r>
       <r>   -2.6547    1.0000 </r>
       <r>   -2.6332    1.0000 </r>
       <r>   -2.6038    1.0000 </r>
       <r>   -2.5757    1.0000 </r>
       <r>   -2.5689    1.0000 </r>
       <r>   -2.5437    1.0000 </r>
       <r>   -2.5343    1.0000 </r>
       <r>   -2.5252    1.0000 </r>
       <r>   -2.5080    1.0000 </r>
       <r>   -2.4661    1.0000 </r>
       <r>   -2.4433    1.0000 </r>
       <r>   -2.4249    1.0000 </r>
       <r>   -2.4070    1.0000 </r>
       <r>   -2.3622    1.0000 </r>
       <r>   -2.3506    1.0000 </r>
       <r>   -2.3173    1.0000 </r>
       <r>   -2.2872    1.0000 </r>
       <r>   -2.2633    1.0000 </r>
       <r>   -2.2386    1.0000 </r>
       <r>   -2.1949    1.0000 </r>
       <r>   -2.1439    1.0000 </r>
       <r>   -2.1006    1.0000 </r>
       <r>   -2.0721    1.0000 </r>
       <r>   -2.0227    1.0000 </r>
       <r>   -1.9897    1.0000 </r>
       <r>   -1.9329    1.0000 </r>
       <r>   -1.9116    1.0000 </r>
       <r>   -1.9017    1.0000 </r>
       <r>   -1.8416    1.0000 </r>
       <r>   -1.7869    1.0000 </r>
       <r>   -1.7366    1.0000 </r>
       <r>   -1.7201    1.0000 </r>
       <r>   -1.6862    1.0000 </r>
       <r>   -1.6604    1.0000 </r>
       <r>   -1.6219    1.0000 </r>
       <r>   -1.5607    1.0000 </r>
       <r>   -1.5464    1.0000 </r>
       <r>   -1.4829    1.0000 </r>
       <r>   -1.4465    1.0000 </r>
       <r>   -1.4210    1.0000 </r>
       <r>   -1.4057    1.0000 </r>
       <r>   -1.3437    1.0000 </r>
       <r>   -1.3336    1.0000 </r>
       <r>   -1.2852    1.0000 </r>
       <r>   -1.2641    1.0000 </r>
       <r>   -1.2388    1.0000 </r>
       <r>   -1.2089    1.0000 </r>
       <r>   -1.1792    1.0000 </r>
       <r>   -1.1748    1.0000 </r>
       <r>   -1.1459    1.0000 </r>
       <r>   -1.1244    1.0000 </r>
       <r>   -1.1075    1.0000 </r>
       <r>   -1.0645    1.0000 </r>
       <r>   -1.0386    1.0000 </r>
       <r>   -1.0322    1.0000 </r>
       <r>   -1.0180    1.0000 </r>
       <r>   -0.9864    1.0000 </r>
       <r>   -0.9744    1.0000 </r>
       <r>   -0.9662    1.0000 </r>
       <r>   -0.9410    1.0000 </r>
       <r>   -0.9354    1.0000 </r>
       <r>   -0.9190    1.0000 </r>
       <r>   -0.9131    1.0000 </r>
       <r>   -0.8958    1.0000 </r>
       <r>   -0.8722    1.0000 </r>
       <r>   -0.8636    1.0000 </r>
       <r>   -0.8387    1.0000 </r>
       <r>   -0.8220    1.0000 </r>
       <r>   -0.8149    1.0000 </r>
       <r>   -0.8015    1.0000 </r>
       <r>   -0.7891    1.0000 </r>
       <r>   -0.7690    1.0000 </r>
       <r>   -0.7518    1.0000 </r>
       <r>   -0.7482    1.0000 </r>
       <r>   -0.7449    1.0000 </r>
       <r>   -0.7394    1.0000 </r>
       <r>   -0.7114    1.0000 </r>
       <r>   -0.7052    1.0000 </r>
       <r>   -0.6773    1.0000 </r>
       <r>   -0.6583    1.0000 </r>
       <r>   -0.6548    1.0000 </r>
       <r>   -0.6480    1.0000 </r>
       <r>   -0.6251    1.0000 </r>
       <r>   -0.6138    1.0000 </r>
       <r>   -0.5926    1.0000 </r>
       <r>   -0.5752    1.0000 </r>
       <r>   -0.5743    1.0000 </r>
       <r>   -0.5601    1.0000 </r>
       <r>   -0.5579    1.0000 </r>
       <r>   -0.5382    1.0000 </r>
       <r>   -0.5336    1.0000 </r>
       <r>   -0.5143    1.0000 </r>
       <r>   -0.4986    1.0000 </r>
       <r>   -0.4756    1.0000 </r>
       <r>   -0.4725    1.0000 </r>
       <r>   -0.4633    1.0000 </r>
       <r>   -0.4525    1.0000 </r>
       <r>   -0.4406    1.0000 </r>
       <r>   -0.4157    1.0000 </r>
       <r>   -0.4069    1.0000 </r>
       <r>   -0.3954    1.0000 </r>
       <r>   -0.3732    1.0000 </r>
       <r>   -0.3609    1.0000 </r>
       <r>   -0.3573    1.0000 </r>
       <r>   -0.3475    1.0000 </r>
       <r>   -0.3423    1.0000 </r>
       <r>   -0.3300    1.0000 </r>
       <r>   -0.3218    1.0000 </r>
       <r>   -0.3027    1.0000 </r>
       <r>   -0.3010    1.0000 </r>
       <r>   -0.2871    1.0000 </r>
       <r>   -0.2718    1.0000 </r>
       <r>   -0.2609    1.0000 </r>
       <r>   -0.2492    1.0000 </r>
       <r>   -0.2256    1.0000 </r>
       <r>   -0.2241    1.0000 </r>
       <r>   -0.2177    1.0000 </r>
       <r>   -0.2022    1.0000 </r>
       <r>   -0.1878    1.0000 </r>
       <r>   -0.1729    1.0000 </r>
       <r>   -0.1569    1.0000 </r>
       <r>   -0.1535    1.0000 </r>
       <r>   -0.1448    1.0000 </r>
       <r>   -0.1358    1.0000 </r>
       <r>   -0.1191    1.0000 </r>
       <r>   -0.1105    1.0000 </r>
       <r>   -0.0904    1.0000 </r>
       <r>   -0.0853    1.0000 </r>
       <r>   -0.0836    1.0000 </r>
       <r>   -0.0635    1.0000 </r>
       <r>   -0.0577    1.0000 </r>
       <r>   -0.0453    1.0000 </r>
       <r>   -0.0391    1.0000 </r>
       <r>   -0.0310    1.0000 </r>
       <r>   -0.0229    1.0000 </r>
       <r>   -0.0155    1.0000 </r>
       <r>   -0.0006    1.0000 </r>
       <r>    0.0088    1.0000 </r>
       <r>    0.0232    1.0000 </r>
       <r>    0.0284    1.0000 </r>
       <r>    0.0449    1.0000 </r>
       <r>    0.0526    1.0000 </r>
       <r>    0.0635    1.0000 </r>
       <r>    0.0721    1.0000 </r>
       <r>    0.0758    1.0000 </r>
       <r>    0.0940    1.0000 </r>
       <r>    0.1006    1.0000 </r>
       <r>    0.1182    1.0000 </r>
       <r>    0.1370    1.0000 </r>
       <r>    0.1423    1.0000 </r>
       <r>    0.1498    1.0000 </r>
       <r>    0.1648    1.0000 </r>
       <r>    0.1683    1.0000 </r>
       <r>    0.1780    1.0000 </r>
       <r>    0.1913    1.0000 </r>
       <r>    0.2058    1.0000 </r>
       <r>    0.2115    1.0000 </r>
       <r>    0.2275    1.0000 </r>
       <r>    0.2335    1.0000 </r>
       <r>    0.2455    1.0000 </r>
       <r>    0.2588    1.0000 </r>
       <r>    0.2700    1.0000 </r>
       <r>    0.2818    1.0000 </r>
       <r>    0.2893    1.0000 </r>
       <r>    0.3015    1.0000 </r>
       <r>    0.3137    1.0000 </r>
       <r>    0.3309    1.0000 </r>
       <r>    0.3558    1.0000 </r>
       <r>    0.3580    1.0000 </r>
       <r>    0.3668    1.0000 </r>
       <r>    0.3765    1.0000 </r>
       <r>    0.3851    1.0000 </r>
       <r>    0.4131    1.0000 </r>
       <r>    0.4226    1.0000 </r>
       <r>    0.4270    1.0000 </r>
       <r>    0.4485    1.0000 </r>
       <r>    0.4637    1.0000 </r>
       <r>    0.4784    1.0000 </r>
       <r>    0.5020    1.0000 </r>
       <r>    0.5131    1.0000 </r>
       <r>    0.5283    1.0000 </r>
       <r>    0.5313    1.0000 </r>
       <r>    0.5477    1.0000 </r>
       <r>    0.5569    1.0000 </r>
       <r>    0.5813    1.0000 </r>
       <r>    0.6052    1.0000 </r>
       <r>    0.6207    1.0000 </r>
       <r>    0.6508    1.0000 </r>
       <r>    0.6651    1.0000 </r>
       <r>    0.6807    1.0000 </r>
       <r>    0.6893    1.0000 </r>
       <r>    0.7164    1.0000 </r>
       <r>    0.7412    1.0000 </r>
       <r>    0.7560    1.0000 </r>
       <r>    0.7581    1.0000 </r>
       <r>    0.7831    1.0000 </r>
       <r>    0.7872    1.0000 </r>
       <r>    0.8143    1.0000 </r>
       <r>    0.8247    1.0000 </r>
       <r>    0.8425    1.0000 </r>
       <r>    0.8813    1.0000 </r>
       <r>    0.8893    1.0000 </r>
       <r>    0.9376    1.0000 </r>
       <r>    0.9603    1.0000 </r>
       <r>    0.9887    1.0000 </r>
       <r>    1.0419    1.0000 </r>
       <r>    1.0610    1.0000 </r>
       <r>    1.0913    1.0000 </r>
       <r>    1.1203    1.0000 </r>
       <r>    1.1308    1.0000 </r>
       <r>    1.1381    1.0000 </r>
       <r>    1.1535    1.0000 </r>
       <r>    1.2131    0.9999 </r>
       <r>    1.2272    0.9999 </r>
       <r>    1.2693    0.9997 </r>
       <r>    1.2836    0.9996 </r>
       <r>    1.3001    0.9994 </r>
       <r>    1.3316    0.9987 </r>
       <r>    1.3472    0.9981 </r>
       <r>    1.3688    0.9969 </r>
       <r>    1.3951    0.9947 </r>
       <r>    1.4131    0.9924 </r>
       <r>    1.4470    0.9856 </r>
       <r>    1.5081    0.9603 </r>
       <r>    1.5602    0.9172 </r>
       <r>    1.5623    0.9148 </r>
       <r>    1.5889    0.8816 </r>
       <r>    1.6144    0.8420 </r>
       <r>    1.6394    0.7955 </r>
       <r>    1.6761    0.7144 </r>
       <r>    1.7661    0.4721 </r>
       <r>    1.7790    0.4361 </r>
       <r>    1.8181    0.3307 </r>
       <r>    1.8489    0.2560 </r>
       <r>    1.8838    0.1834 </r>
       <r>    1.9169    0.1279 </r>
       <r>    1.9375    0.0999 </r>
       <r>    1.9768    0.0594 </r>
       <r>    2.0419    0.0217 </r>
       <r>    2.0933    0.0086 </r>
       <r>    2.1117    0.0060 </r>
       <r>    2.1247    0.0046 </r>
       <r>    2.1785    0.0014 </r>
       <r>    2.2013    0.0008 </r>
       <r>    2.2335    0.0004 </r>
       <r>    2.2553    0.0002 </r>
[...]
       <r>   -58.4809     0.0000   288.0000 </r>
       <r>   -58.2205     0.0000   288.0000 </r>
       <r>   -57.9601     0.0000   288.0000 </r>
       <r>   -57.6996     0.0000   288.0000 </r>
       <r>   -57.4392     0.0000   288.0000 </r>
       <r>   -57.1788     0.0000   288.0000 </r>
       <r>   -56.9184     0.0000   288.0000 </r>
       <r>   -56.6579     0.0000   288.0000 </r>
       <r>   -56.3975     0.0000   288.0000 </r>
       <r>   -56.1371     0.0000   288.0000 </r>
       <r>   -55.8766     0.0000   288.0000 </r>
       <r>   -55.6162     0.0000   288.0000 </r>
       <r>   -55.3558     0.0000   288.0000 </r>
       <r>   -55.0954     0.0000   288.0000 </r>
       <r>   -54.8349     0.0000   288.0000 </r>
       <r>   -54.5745     0.0000   288.0000 </r>
       <r>   -54.3141     0.0000   288.0000 </r>
       <r>   -54.0537     0.0000   288.0000 </r>
       <r>   -53.7932     0.0000   288.0000 </r>
       <r>   -53.5328     0.0000   288.0000 </r>
       <r>   -53.2724     0.0000   288.0000 </r>
       <r>   -53.0120     0.0000   288.0000 </r>
       <r>   -52.7515     0.0000   288.0000 </r>
       <r>   -52.4911     0.0000   288.0000 </r>
       <r>   -52.2307     0.0000   288.0000 </r>
       <r>   -51.9702     0.0000   288.0000 </r>
       <r>   -51.7098     0.0000   288.0000 </r>
       <r>   -51.4494     0.0000   288.0000 </r>
       <r>   -51.1890     0.0000   288.0000 </r>
       <r>   -50.9285     0.0000   288.0000 </r>
       <r>   -50.6681     0.0000   288.0000 </r>
       <r>   -50.4077     0.0000   288.0000 </r>
       <r>   -50.1473     0.0000   288.0000 </r>
       <r>   -49.8868     0.0000   288.0000 </r>
       <r>   -49.6264     0.0000   288.0000 </r>
       <r>   -49.3660     0.0000   288.0000 </r>
       <r>   -49.1056     0.0000   288.0000 </r>
       <r>   -48.8451     0.0000   288.0000 </r>
       <r>   -48.5847     0.0000   288.0000 </r>
       <r>   -48.3243     0.0000   288.0000 </r>
       <r>   -48.0638     0.0000   288.0000 </r>
       <r>   -47.8034     0.0000   288.0000 </r>
       <r>   -47.5430     0.0000   288.0000 </r>
       <r>   -47.2826     0.0000   288.0000 </r>
       <r>   -47.0221     0.0000   288.0000 </r>
       <r>   -46.7617     0.0000   288.0000 </r>
       <r>   -46.5013     0.0000   288.0000 </r>
       <r>   -46.2409     0.0000   288.0000 </r>
       <r>   -45.9804     0.0000   288.0000 </r>
       <r>   -45.7200     0.0000   288.0000 </r>
       <r>   -45.4596     0.0000   288.0000 </r>
       <r>   -45.1992     0.0000   288.0000 </r>
       <r>   -44.9387     0.0000   288.0000 </r>
       <r>   -44.6783     0.0000   288.0000 </r>
       <r>   -44.4179     0.0000   288.0000 </r>
       <r>   -44.1574     0.0000   288.0000 </r>
       <r>   -43.8970     0.0000   288.0000 </r>
       <r>   -43.6366     0.0000   288.0000 </r>
       <r>   -43.3762     0.0000   288.0000 </r>
       <r>   -43.1157     0.0000   288.0000 </r>
       <r>   -42.8553     0.0000   288.0000 </r>
       <r>   -42.5949     0.0000   288.0000 </r>
       <r>   -42.3345     0.0000   288.0000 </r>
       <r>   -42.0740     0.0000   288.0000 </r>
       <r>   -41.8136     0.0000   288.0000 </r>
       <r>   -41.5532     0.0000   288.0000 </r>
       <r>   -41.2928     0.0000   288.0000 </r>
       <r>   -41.0323     0.0000   288.0000 </r>
       <r>   -40.7719     0.0000   288.0000 </r>
       <r>   -40.5115     0.0000   288.0000 </r>
       <r>   -40.2511     0.0000   288.0000 </r>
       <r>   -39.9906     0.0000   288.0000 </r>
       <r>   -39.7302     0.0000   288.0000 </r>
       <r>   -39.4698     0.0000   288.0000 </r>
       <r>   -39.2093     0.0000   288.0000 </r>
       <r>   -38.9489     0.0000   288.0000 </r>
       <r>   -38.6885     0.0000   288.0000 </r>
       <r>   -38.4281     0.0000   288.0000 </r>
       <r>   -38.1676     0.0000   288.0000 </r>
       <r>   -37.9072     0.0000   288.0000 </r>
       <r>   -37.6468     0.0000   288.0000 </r>
       <r>   -37.3864     0.0000   288.0000 </r>
       <r>   -37.1259     0.0000   288.0000 </r>
       <r>   -36.8655     0.0000   288.0000 </r>
       <r>   -36.6051     0.0000   288.0000 </r>
       <r>   -36.3447     0.0000   288.0000 </r>
       <r>   -36.0842     0.0000   288.0000 </r>
       <r>   -35.8238     0.0000   288.0000 </r>
       <r>   -35.5634     0.0000   288.0000 </r>
       <r>   -35.3029     0.0000   288.0000 </r>
       <r>   -35.0425     0.0000   288.0000 </r>
       <r>   -34.7821     0.0000   288.0000 </r>
       <r>   -34.5217     0.0000   288.0000 </r>
       <r>   -34.2612     0.0000   288.0000 </r>
       <r>   -34.0008     0.0000   288.0000 </r>
       <r>   -33.7404     0.0000   288.0000 </r>
       <r>   -33.4800     0.0000   288.0000 </r>
       <r>   -33.2195     0.0000   288.0000 </r>
       <r>   -32.9591     0.0000   288.0000 </r>
       <r>   -32.6987     0.0000   288.0000 </r>
       <r>   -32.4383     0.0000   288.0000 </r>
       <r>   -32.1778     0.0000   288.0000 </r>
       <r>   -31.9174     0.0000   288.0000 </r>
       <r>   -31.6570     0.0000   288.0000 </r>
       <r>   -31.3965     0.0000   288.0000 </r>
       <r>   -31.1361     0.0000   288.0000 </r>
       <r>   -30.8757     0.0000   288.0000 </r>
       <r>   -30.6153     0.0000   288.0000 </r>
       <r>   -30.3548     0.0000   288.0000 </r>
       <r>   -30.0944     0.0000   288.0000 </r>
       <r>   -29.8340     0.0000   288.0000 </r>
       <r>   -29.5736     0.0000   288.0000 </r>
       <r>   -29.3131     0.0000   288.0000 </r>
       <r>   -29.0527     0.0000   288.0000 </r>
       <r>   -28.7923     0.0000   288.0000 </r>
       <r>   -28.5319     0.0000   288.0000 </r>
       <r>   -28.2714     0.0000   288.0000 </r>
       <r>   -28.0110     0.0000   288.0000 </r>
       <r>   -27.7506     0.0000   288.0000 </r>
       <r>   -27.4901     0.0000   288.0000 </r>
       <r>   -27.2297     0.0000   288.0000 </r>
       <r>   -26.9693     0.0000   288.0000 </r>
       <r>   -26.7089     0.0000   288.0000 </r>
       <r>   -26.4484     0.0000   288.0000 </r>
       <r>   -26.1880     0.0000   288.0000 </r>
       <r>   -25.9276     0.0000   288.0000 </r>
       <r>   -25.6672     0.0000   288.0000 </r>
       <r>   -25.4067     0.0000   288.0000 </r>
       <r>   -25.1463     0.0000   288.0000 </r>
       <r>   -24.8859     0.0000   288.0000 </r>
       <r>   -24.6255     0.0000   288.0000 </r>
       <r>   -24.3650     0.0000   288.0000 </r>
       <r>   -24.1046     0.0000   288.0000 </r>
       <r>   -23.8442     0.0000   288.0000 </r>
       <r>   -23.5838     0.0000   288.0000 </r>
       <r>   -23.3233     0.0000   288.0000 </r>
       <r>   -23.0629     0.0000   288.0000 </r>
       <r>   -22.8025     0.0000   288.0000 </r>
       <r>   -22.5420     0.0000   288.0000 </r>
       <r>   -22.2816     0.0000   288.0000 </r>
       <r>   -22.0212     0.0000   288.0000 </r>
       <r>   -21.7608     0.0000   288.0000 </r>
       <r>   -21.5003     0.0000   288.0000 </r>
       <r>   -21.2399     0.0000   288.0000 </r>
       <r>   -20.9795     0.0000   288.0000 </r>
       <r>   -20.7191     0.0000   288.0000 </r>
       <r>   -20.4586     0.0000   288.0000 </r>
       <r>   -20.1982     0.0000   288.0000 </r>
       <r>   -19.9378     0.0000   288.0000 </r>
       <r>   -19.6774     0.0000   288.0000 </r>
       <r>   -19.4169     0.0000   288.0000 </r>
       <r>   -19.1565     0.0000   288.0000 </r>
       <r>   -18.8961     0.0000   288.0000 </r>
       <r>   -18.6356     0.0000   288.0000 </r>
       <r>   -18.3752     0.0000   288.0000 </r>
       <r>   -18.1148     0.0000   288.0000 </r>
       <r>   -17.8544     0.0000   288.0000 </r>
       <r>   -17.5939     0.0000   288.0000 </r>
       <r>   -17.3335     0.0000   288.0000 </r>
       <r>   -17.0731     0.0000   288.0000 </r>
       <r>   -16.8127     0.0000   288.0000 </r>
       <r>   -16.5522     0.0000   288.0000 </r>
       <r>   -16.2918     0.0000   288.0000 </r>
       <r>   -16.0314     0.0000   288.0000 </r>
       <r>   -15.7710     0.0000   288.0000 </r>
       <r>   -15.5105     0.0000   288.0000 </r>
       <r>   -15.2501     0.0000   288.0000 </r>
       <r>   -14.9897     0.0001   288.0000 </r>
       <r>   -14.7292     0.0540   288.0141 </r>
       <r>   -14.4688     2.0206   288.5403 </r>
       <r>   -14.2084     5.2734   289.9136 </r>
       <r>   -13.9480     7.0387   291.7467 </r>
       <r>   -13.6875    14.2739   295.4640 </r>
       <r>   -13.4271    24.1234   301.7464 </r>
       <r>   -13.1667    21.3167   307.2978 </r>
       <r>   -12.9063    24.7214   313.7359 </r>
       <r>   -12.6458    23.9831   319.9817 </r>
       <r>   -12.3854    40.6832   330.5767 </r>
       <r>   -12.1250    51.7013   344.0411 </r>
       <r>   -11.8646    37.7472   353.8715 </r>
       <r>   -11.6041    39.7911   364.2342 </r>
       <r>   -11.3437    45.1797   376.0002 </r>
       <r>   -11.0833    20.4238   381.3191 </r>
       <r>   -10.8229     8.5878   383.5555 </r>
       <r>   -10.5624     1.6758   383.9920 </r>
       <r>   -10.3020     0.0308   384.0000 </r>
       <r>   -10.0416     0.0000   384.0000 </r>
       <r>    -9.7811     0.0000   384.0000 </r>
       <r>    -9.5207     0.0000   384.0000 </r>
       <r>    -9.2603     0.0000   384.0000 </r>
       <r>    -8.9999     0.0000   384.0000 </r>
       <r>    -8.7394     0.0000   384.0000 </r>
       <r>    -8.4790     0.0000   384.0000 </r>
       <r>    -8.2186     0.0000   384.0000 </r>
       <r>    -7.9582     0.0000   384.0000 </r>
       <r>    -7.6977     0.0000   384.0000 </r>
       <r>    -7.4373     0.0000   384.0000 </r>
       <r>    -7.1769     0.0000   384.0000 </r>
       <r>    -6.9165     0.0000   384.0000 </r>
       <r>    -6.6560     0.0003   384.0001 </r>
       <r>    -6.3956     0.1567   384.0409 </r>
       <r>    -6.1352     4.7969   385.2901 </r>
       <r>    -5.8747    22.1503   391.0586 </r>
       <r>    -5.6143    32.6029   399.5493 </r>
       <r>    -5.3539    27.3503   406.6720 </r>
       <r>    -5.0935    45.8689   418.6175 </r>
       <r>    -4.8330    66.4414   435.9206 </r>
       <r>    -4.5726    60.4468   451.6626 </r>
       <r>    -4.3122    54.6731   465.9009 </r>
       <r>    -4.0518    67.2834   483.4233 </r>
       <r>    -3.7913    60.3947   499.1517 </r>
       <r>    -3.5309    69.0949   517.1458 </r>
       <r>    -3.2705    87.3143   539.8848 </r>
       <r>    -3.0101    92.5243   563.9806 </r>
       <r>    -2.7496    86.2980   586.4549 </r>
       <r>    -2.4892    91.2856   610.2281 </r>
       <r>    -2.2288    75.2869   629.8348 </r>
       <r>    -1.9683    54.8157   644.1102 </r>
       <r>    -1.7079    52.4518   657.7701 </r>
       <r>    -1.4475    55.0514   672.1069 </r>
       <r>    -1.1871    69.9085   690.3129 </r>
       <r>    -0.9266   103.8537   717.3592 </r>
       <r>    -0.6662   139.3999   753.6626 </r>
       <r>    -0.4058   156.4563   794.4080 </r>
       <r>    -0.1454   173.4771   839.5860 </r>
       <r>     0.1151   186.3179   888.1082 </r>
       <r>     0.3755   170.7254   932.5696 </r>
       <r>     0.6359   134.8363   967.6845 </r>
       <r>     0.8963   103.7396   994.7011 </r>
       <r>     1.1568    79.3303  1015.3608 </r>
       <r>     1.4172    76.2296  1035.2130 </r>
       <r>     1.6776    62.9116  1051.5969 </r>
       <r>     1.9381    55.4505  1066.0376 </r>
       <r>     2.1985    60.2208  1081.7207 </r>
       <r>     2.4589    71.7211  1100.3988 </r>
       <r>     2.7193    71.0382  1118.8990 </r>
       <r>     2.9798    59.2471  1134.3286 </r>
       <r>     3.2402    37.3563  1144.0571 </r>
       <r>     3.5006    20.6845  1149.4439 </r>
       <r>     3.7610     8.2004  1151.5795 </r>
       <r>     4.0215     2.6316  1152.2649 </r>
       <r>     4.2819     4.9102  1153.5436 </r>
       <r>     4.5423     1.9947  1154.0631 </r>
       <r>     4.8027     3.8713  1155.0713 </r>
       <r>     5.0632     8.9207  1157.3945 </r>
       <r>     5.3236    20.3324  1162.6896 </r>
       <r>     5.5840    20.5212  1168.0339 </r>
       <r>     5.8444    21.9198  1173.7424 </r>
       <r>     6.1049    26.7853  1180.7180 </r>
       <r>     6.3653    33.2388  1189.3742 </r>
       <r>     6.6257    32.9001  1197.9423 </r>
       <r>     6.8862    36.5827  1207.4694 </r>
       <r>     7.1466    46.4301  1219.5610 </r>
       <r>     7.4070    53.8517  1233.5854 </r>
       <r>     7.6674    53.5019  1247.5188 </r>
       <r>     7.9279    51.0405  1260.8110 </r>
       <r>     8.1883    25.5462  1267.4640 </r>
       <r>     8.4487     2.0441  1267.9963 </r>
       <r>     8.7091     0.0143  1268.0000 </r>
       <r>     8.9696     0.0000  1268.0000 </r>
       <r>     9.2300     0.0000  1268.0000 </r>
       <r>     9.4904     0.0000  1268.0000 </r>
       <r>     9.7508     0.0000  1268.0000 </r>
       <r>    10.0113     0.0000  1268.0000 </r>
       <r>    10.2717     0.0000  1268.0000 </r>
       <r>    10.5321     0.0000  1268.0000 </r>
       <r>    10.7926     0.0000  1268.0000 </r>
       <r>    11.0530     0.0000  1268.0000 </r>
       <r>    11.3134     0.0000  1268.0000 </r>
       <r>    11.5738     0.0000  1268.0000 </r>
      </set>
     </set>
    </array>
   </total>
  </dos>
 </calculation>
 <structure name="finalpos" >
  <crystal>
   <varray name="basis" >
    <v>      11.25646304       0.00000000       0.00000000 </v>
    <v>       5.04456212      10.06282034       0.00000000 </v>
    <v>       0.00000000       0.00000000      21.74423184 </v>
   </varray>
   <i name="volume">   2463.00752351 </i>
   <varray name="rec_basis" >
    <v>       0.08883785      -0.04453504       0.00000000 </v>
    <v>       0.00000000       0.09937572       0.00000000 </v>
    <v>       0.00000000       0.00000000       0.04598921 </v>
   </varray>
  </crystal>
  <varray name="positions" >
   <v>       0.26092070       0.47878036       0.25332799 </v>
   <v>       0.35488056       0.38482049       0.38835497 </v>
   <v>       0.45551772       0.28418346       0.50509544 </v>
   <v>       0.16696083       0.07274024       0.11830101 </v>
   <v>       0.04926921       0.05389818       0.47246406 </v>
   <v>       0.28468432       0.29716981       0.10461343 </v>
   <v>       0.36819893       0.23939913       0.21765305 </v>
   <v>       0.46215880       0.14543926       0.35268003 </v>
   <v>       0.00030194       0.37150212       0.21765305 </v>
   <v>       0.09426181       0.27754226       0.35268003 </v>
   <v>       0.18510763       0.19012655       0.47258635 </v>
   <v>       0.41695605       0.45723328       0.10173402 </v>
   <v>       0.76092070       0.47878036       0.25332799 </v>
   <v>       0.85488056       0.38482049       0.38835497 </v>
   <v>       0.87222083       0.36796299       0.49696332 </v>
   <v>       0.66696083       0.07274024       0.11830101 </v>
   <v>       0.55107911       0.05003528       0.47255906 </v>
   <v>       0.77423906       0.33335899       0.08262607 </v>
   <v>       0.86819893       0.23939913       0.21765305 </v>
   <v>       0.96215880       0.14543926       0.35268003 </v>
   <v>       0.50030194       0.37150212       0.21765305 </v>
   <v>       0.59426181       0.27754226       0.35268003 </v>
   <v>       0.68966599       0.18862321       0.47255773 </v>
   <v>       0.99082885       0.44135878       0.11371038 </v>
   <v>       0.26092070       0.97878036       0.25332799 </v>
   <v>       0.35488056       0.88482049       0.38835497 </v>
   <v>       0.37173323       0.86748462       0.49696230 </v>
   <v>       0.16696083       0.57274024       0.11830101 </v>
   <v>       0.04117419       0.55408002       0.46609207 </v>
   <v>       0.28103407       0.81422643       0.10249233 </v>
   <v>       0.36819893       0.73939913       0.21765305 </v>
   <v>       0.46215880       0.64543926       0.35268003 </v>
   <v>       0.00030194       0.87150212       0.21765305 </v>
   <v>       0.09426181       0.77754226       0.35268003 </v>
   <v>       0.18562320       0.69852894       0.46608883 </v>
   <v>       0.42199774       0.95542695       0.10238487 </v>
   <v>       0.76092070       0.97878036       0.25332799 </v>
   <v>       0.85488056       0.88482049       0.38835497 </v>
   <v>       0.86701821       0.87268299       0.49640251 </v>
   <v>       0.67963570       0.55403201       0.13155262 </v>
   <v>       0.54957285       0.55459219       0.47258666 </v>
   <v>       0.78289996       0.83343330       0.10029272 </v>
   <v>       0.86819893       0.73939913       0.21765305 </v>
   <v>       0.96215880       0.64543926       0.35268003 </v>
   <v>       0.50030194       0.87150212       0.21765305 </v>
   <v>       0.59426181       0.77754226       0.35268003 </v>
   <v>       0.68580058       0.69043021       0.47246862 </v>
   <v>       0.90634206       0.96546199       0.08262607 </v>
   <v>       0.07287763       0.16682343       0.27005396 </v>
   <v>       0.16683750       0.07286357       0.40508094 </v>
   <v>       0.47891775       0.26078330       0.13502698 </v>
   <v>       0.03023343       0.37768264       0.45050807 </v>
   <v>       0.43627354       0.47164251       0.31548109 </v>
   <v>       0.27893718       0.13132236       0.06322937 </v>
   <v>       0.34231368       0.06560239       0.18045411 </v>
   <v>       0.13430427       0.45186473       0.05755842 </v>
   <v>       0.17409868       0.39738738       0.18045411 </v>
   <v>       0.26805855       0.30342751       0.31548109 </v>
   <v>       0.36201842       0.20946765       0.45050807 </v>
   <v>       0.57287763       0.16682343       0.27005396 </v>
   <v>       0.66683750       0.07286357       0.40508094 </v>
   <v>       0.82065136       0.48431615       0.06163655 </v>
   <v>       0.97891775       0.26078330       0.13502698 </v>
   <v>       0.70933298       0.53075153       0.52751333 </v>
   <v>       0.53023343       0.37768264       0.45050807 </v>
   <v>       0.93627354       0.47164251       0.31548109 </v>
   <v>       0.76198637       0.15741636       0.06465954 </v>
   <v>       0.84231368       0.06560239       0.18045411 </v>
   <v>       0.58131730       0.47819260       0.07006943 </v>
   <v>       0.67409868       0.39738738       0.18045411 </v>
   <v>       0.76805855       0.30342751       0.31548109 </v>
   <v>       0.86201842       0.20946765       0.45050807 </v>
   <v>       0.07287764       0.66682343       0.27005396 </v>
   <v>       0.16683750       0.57286357       0.40508094 </v>
   <v>       0.47891775       0.76078330       0.13502698 </v>
   <v>       0.20894290       0.03036863       0.52751341 </v>
   <v>       0.03023342       0.87768264       0.45050807 </v>
   <v>       0.43627354       0.97164251       0.31548109 </v>
   <v>       0.27725593       0.64191553       0.06678821 </v>
   <v>       0.34231368       0.56560239       0.18045411 </v>
   <v>       0.09716496       0.96015143       0.06778050 </v>
   <v>       0.17409868       0.89738738       0.18045411 </v>
   <v>       0.26805855       0.80342751       0.31548109 </v>
   <v>       0.36201842       0.70946764       0.45050807 </v>
   <v>       0.57287764       0.66682343       0.27005396 </v>
   <v>       0.66683750       0.57286357       0.40508094 </v>
   <v>       0.84115949       0.87983088       0.02020554 </v>
   <v>       0.97891775       0.76078330       0.13502698 </v>
   <v>       0.70536134       0.03434162       0.52975615 </v>
   <v>       0.53023342       0.87768264       0.45050807 </v>
   <v>       0.93627354       0.97164251       0.31548109 </v>
   <v>       0.84231368       0.56560239       0.18045411 </v>
   <v>       0.59038538       0.96668629       0.06806223 </v>
   <v>       0.67409868       0.89738738       0.18045411 </v>
   <v>       0.76805855       0.80342751       0.31548109 </v>
   <v>       0.86201842       0.70946764       0.45050807 </v>
  </varray>
 </structure>
</modeling>
