LAMMPS (5 Jun 2019)
OMP_NUM_THREADS environment is not set. Defaulting to 1 thread. (../comm.cpp:88)
  using 1 OpenMP thread(s) per MPI task
Reading data file ...
  triclinic box = (0 0 0) to (16.8847 9.57841 16.1739) with tilt (0 0 0)
  1 by 1 by 1 MPI processor grid
  reading atoms ...
  72 atoms
  read_data CPU = 0.00080613 secs
30 atoms in group bulk
WARNING: Using 'neigh_modify every 1 delay 0 check yes' setting during minimization (../min.cpp:168)
Neighbor list info ...
  update every 1 steps, delay 0 steps, check yes
  max neighbors/atom: 2000, page size: 100000
  master list distance cutoff = 8.5
  ghost atom cutoff = 8.5
  binsize = 4.25, bins = 4 3 4
  1 neighbor lists, perpetual/occasional/extra = 1 0 0
  (1) pair eam/alloy, perpetual
      attributes: half, newton on
      pair build: half/bin/newton/tri
      stencil: half/bin/3d/newton/tri
      bin: standard
Setting up cg style minimization ...
  Unit style    : metal
  Current step  : 0
Per MPI rank memory allocation (min/avg/max) = 4.104 | 4.104 | 4.104 Mbytes
Step Temp E_pair E_mol TotEng Press 
       0            0    -296.2206            0    -296.2206   -102431.47 
      66            0   -327.72967            0   -327.72967   -10190.989 
Loop time of 0.0350529 on 1 procs for 66 steps with 72 atoms

99.8% CPU use with 1 MPI tasks x 1 OpenMP threads

Minimization stats:
  Stopping criterion = energy tolerance
  Energy initial, next-to-last, final = 
        -296.220598509     -327.726562128     -327.729673747
  Force two-norm initial, final = 14.463 0.259103
  Force max component initial, final = 3.00127 0.0705835
  Final line search alpha, max atom move = 0.545634 0.0385127
  Iterations, force evaluations = 66 101

MPI task timing breakdown:
Section |  min time  |  avg time  |  max time  |%varavg| %total
---------------------------------------------------------------
Pair    | 0.032262   | 0.032262   | 0.032262   |   0.0 | 92.04
Neigh   | 0.0012943  | 0.0012943  | 0.0012943  |   0.0 |  3.69
Comm    | 0.00072198 | 0.00072198 | 0.00072198 |   0.0 |  2.06
Output  | 0          | 0          | 0          |   0.0 |  0.00
Modify  | 5.8759e-05 | 5.8759e-05 | 5.8759e-05 |   0.0 |  0.17
Other   |            | 0.0007162  |            |       |  2.04

Nlocal:    72 ave 72 max 72 min
Histogram: 1 0 0 0 0 0 0 0 0 0
Nghost:    720 ave 720 max 720 min
Histogram: 1 0 0 0 0 0 0 0 0 0
Neighs:    3376 ave 3376 max 3376 min
Histogram: 1 0 0 0 0 0 0 0 0 0

Total # of neighbors = 3376
Ave neighs/atom = 46.8889
Neighbor list builds = 3
Dangerous builds = 0
System init for write_data ...
Total wall time: 0:00:00
