LAMMPS data file via write_data, version 5 Jun 2019, timestep = 41

96 atoms
2 atom types

0.0000000000000000e+00 1.1256463038200000e+01 xlo xhi
0.0000000000000000e+00 1.0062820337100000e+01 ylo yhi
0.0000000000000000e+00 2.1744231843600001e+01 zlo zhi
5.0445621212000002e+00 0.0000000000000000e+00 0.0000000000000000e+00 xy xz yz

Masses

1 58.71
2 32.06

Atoms # atomic

1 1 5.3522814389000004e+00 4.8178807436000000e+00 5.5084225035000003e+00 0 0 0
2 1 5.9359508115999997e+00 3.8723794831000009e+00 8.4444804617999996e+00 0 0 0
3 1 6.0647104535152661e+00 3.6638038608483381e+00 1.0815820003213135e+01 0 0 0
4 1 2.3845225186605310e+00 5.6941652760611605e-01 2.8230117864470592e+00 0 0 0
5 1 8.2617129167700609e-01 5.4936191329243189e-01 1.0272335490636054e+01 0 0 0
6 1 4.5967358209482905e+00 2.4606969071723430e+00 2.5143519636100962e+00 0 0 0
7 1 5.3522814304999997e+00 2.4090304139000001e+00 4.7326983806999996e+00 0 0 0
8 1 5.9359508195000004e+00 1.4635291635000003e+00 7.6687563388999989e+00 0 0 0
9 1 1.8774643416000001e+00 3.7383591286000000e+00 4.7326983806999996e+00 0 0 0
10 1 2.4611337306999999e+00 2.7928578782000000e+00 7.6687563388999989e+00 0 0 0
11 1 3.0459848605741269e+00 1.9196659037698942e+00 1.0272400238110023e+01 0 0 0
12 1 6.9220263192000004e+00 4.6838603892000004e+00 1.7966404224000001e+00 0 0 0
13 1 1.0980512958000002e+01 4.8178807436000000e+00 5.5084225035000003e+00 0 0 0
14 1 1.1564182330700000e+01 3.8723794831000009e+00 8.4444804617999996e+00 0 0 0
15 1 1.1692922246609392e+01 3.6638277095478746e+00 1.0815807265399254e+01 0 0 0
16 1 7.8745625839999995e+00 7.3197197650000023e-01 2.5723645453000001e+00 0 0 0
17 1 6.4544211298995968e+00 5.4935554895460759e-01 1.0272309730978101e+01 0 0 0
18 1 1.0396843571800000e+01 3.3545316644000001e+00 1.7966404224000001e+00 0 0 0
19 1 1.0980512949600000e+01 2.4090304139000001e+00 4.7326983806999996e+00 0 0 0
20 1 1.1564182338599998e+01 1.4635291635000003e+00 7.6687563388999989e+00 0 0 0
21 1 7.5056958608000004e+00 3.7383591286000000e+00 4.7326983806999996e+00 0 0 0
22 1 8.0893652498000002e+00 2.7928578782000000e+00 7.6687563388999989e+00 0 0 0
23 1 8.6742691460458090e+00 1.9197061634261297e+00 1.0272260724979963e+01 0 0 0
24 1 1.2809407530751615e+01 4.4955214466435134e+00 2.3480717122922576e+00 0 0 0
25 1 7.8745624993999996e+00 9.8492909121000007e+00 5.5084225035000003e+00 0 0 0
26 1 8.4582318722000007e+00 8.9037896516000004e+00 8.4444804617999996e+00 0 0 0
27 1 8.5869898556307742e+00 8.6952169527513359e+00 1.0815822309575994e+01 0 0 0
28 1 4.8995770645803587e+00 5.6008100756606876e+00 2.8218224886256413e+00 0 0 0
29 1 3.3484733569388201e+00 5.5807835779809922e+00 1.0272371806551154e+01 0 0 0
30 1 7.1325120754000038e+00 7.4931436540891028e+00 2.5147169609438258e+00 0 0 0
31 1 7.8745624910999998e+00 7.4404405823999999e+00 4.7326983806999996e+00 0 0 0
32 1 8.4582318800999996e+00 6.4949393320000004e+00 7.6687563388999989e+00 0 0 0
33 1 4.3997454021999998e+00 8.7697692971999999e+00 4.7326983806999996e+00 0 0 0
34 1 4.9834147912000004e+00 7.8242680467000003e+00 7.6687563388999989e+00 0 0 0
35 1 5.5682699654148351e+00 6.9510818996621744e+00 1.0272391453735182e+01 0 0 0
36 1 9.4443073797999997e+00 9.7152705577000003e+00 1.7966404224000001e+00 0 0 0
37 1 1.3502794018600001e+01 9.8492909121000007e+00 5.5084225035000003e+00 0 0 0
38 1 1.4086463391300001e+01 8.9037896516000004e+00 8.4444804617999996e+00 0 0 0
39 1 1.4215190217524682e+01 8.6952635463303665e+00 1.0815791960244869e+01 0 0 0
40 1 1.0431861649026349e+01 5.5739083729094547e+00 2.8148178085443178e+00 0 0 0
41 1 8.9767057547491866e+00 5.5807618918344790e+00 1.0272348643408868e+01 0 0 0
42 1 1.2987985694086932e+01 8.3527263207130673e+00 2.2353674783794784e+00 0 0 0
43 1 1.3502794010200001e+01 7.4404405823999999e+00 4.7326983806999996e+00 0 0 0
44 1 1.4086463399199998e+01 6.4949393320000004e+00 7.6687563388999989e+00 0 0 0
45 1 1.0027976921300001e+01 8.7697692971999999e+00 4.7326983806999996e+00 0 0 0
46 1 1.0611646310399999e+01 7.8242680467000003e+00 7.6687563388999989e+00 0 0 0
47 1 1.1196531661263629e+01 6.9511087476001077e+00 1.0272321694514920e+01 0 0 0
48 1 1.5059067368453025e+01 9.6359402891343180e+00 2.2351970059321973e+00 0 0 0
49 2 1.6618955858000000e+00 1.6787142544000002e+00 5.8721159164999994e+00 0 0 0
50 2 2.2455649697999998e+00 7.3321299390000005e-01 8.8081738747999996e+00 0 0 0
51 2 4.9772191688614056e+00 4.1124355640759642e+00 1.3294855751988182e+00 0 0 0
52 2 6.7064575583000003e+00 2.6242155049000000e+00 2.9360579583000002e+00 0 0 0
53 2 5.0442094309165793e+00 5.3169020977721742e+00 1.1444112785336813e+01 0 0 0
54 2 2.2455649705999998e+00 3.8005525507000000e+00 9.7959518563000003e+00 0 0 0
55 2 7.2901269369000010e+00 4.7460538113000004e+00 6.8598938979999993e+00 0 0 0
56 2 3.4710087969641652e+00 1.3886288271176179e+00 1.2151334793475264e+00 0 0 0
57 2 4.1841765742000003e+00 6.6014504409999997e-01 3.9238359396999996e+00 0 0 0
58 2 3.9643806934000003e+00 3.9988377890000004e+00 3.9238359396999996e+00 0 0 0
59 2 4.5480500711999996e+00 3.0533365386000000e+00 6.8598938979999993e+00 0 0 0
60 2 5.1317194551999998e+00 2.1078352781000000e+00 9.7959518563000003e+00 0 0 0
61 2 7.2901271048999998e+00 1.6787142544000002e+00 5.8721159164999994e+00 0 0 0
62 2 7.8737964889000001e+00 7.3321299390000005e-01 8.8081738747999996e+00 0 0 0
63 2 1.1378869024232344e+01 4.9972388839185200e+00 1.0338191623574173e+00 0 0 0
64 2 1.2334689077400000e+01 2.6242155049000000e+00 2.9360579583000002e+00 0 0 0
65 2 1.0672455305047061e+01 5.3169496297678407e+00 1.1444091378669233e+01 0 0 0
66 2 7.8737964897000001e+00 3.8005525507000000e+00 9.7959518563000003e+00 0 0 0
67 2 1.2918358456000000e+01 4.7460538113000004e+00 6.8598938979999993e+00 0 0 0
68 2 9.4822292493839484e+00 1.4598230316160947e+00 1.4678931836319395e+00 0 0 0
69 2 9.8124080933000002e+00 6.6014504409999997e-01 3.9238359396999996e+00 0 0 0
70 2 8.9249422902780839e+00 4.7936722473690532e+00 1.4735647916284544e+00 0 0 0
71 2 9.5926122126000006e+00 3.9988377890000004e+00 3.9238359396999996e+00 0 0 0
72 2 1.0176281590300000e+01 3.0533365386000000e+00 6.8598938979999993e+00 0 0 0
73 2 1.0759950974300001e+01 2.1078352781000000e+00 9.7959518563000003e+00 0 0 0
74 2 4.1841766464000001e+00 6.7101244228999999e+00 5.8721159164999994e+00 0 0 0
75 2 4.7678460304000003e+00 5.7646231624000004e+00 8.8081738747999996e+00 0 0 0
76 2 7.5152929335310548e+00 9.1432958169265710e+00 1.3329999044842813e+00 0 0 0
77 2 9.2287386188999996e+00 7.6556256734000003e+00 2.9360579583000002e+00 0 0 0
78 2 2.5219012889940871e+00 2.8548381310726018e-01 1.1444102563414928e+01 0 1 0
79 2 4.7678460312000031e+00 8.8319627192999999e+00 9.7959518563000003e+00 0 0 0
80 2 9.8124079974999994e+00 9.7774639798000003e+00 6.8598938979999993e+00 0 0 0
81 2 5.9841913883143638e+00 6.4351384331922041e+00 1.2236484699956993e+00 0 0 0
82 2 6.7064576347999996e+00 5.6915552127000000e+00 3.9238359396999996e+00 0 0 0
83 2 6.4866617540000027e+00 9.0302479576000003e+00 3.9238359396999996e+00 0 0 0
84 2 7.0703311317999997e+00 8.0847467071000008e+00 6.8598938979999993e+00 0 0 0
85 2 7.6540005157999991e+00 7.1392454466000022e+00 9.7959518563000003e+00 0 0 0
86 2 9.8124081655000008e+00 6.7101244228999999e+00 5.8721159164999994e+00 0 0 0
87 2 1.0396077549499999e+01 5.7646231624000004e+00 8.8081738747999996e+00 0 0 0
88 2 1.4856970137999999e+01 7.6556256734000003e+00 2.9360579583000002e+00 0 0 0
89 2 8.1501699352369563e+00 2.8557014986308510e-01 1.1444075571879837e+01 0 1 0
90 2 1.0396077550300001e+01 8.8319627192999999e+00 9.7959518563000003e+00 0 0 0
91 2 1.5440639516599999e+01 9.7774639798000003e+00 6.8598938979999993e+00 0 0 0
92 2 1.2334689153899999e+01 5.6915552127000000e+00 3.9238359396999996e+00 0 0 0
93 2 1.1548658908822865e+01 9.6863492209689888e+00 1.4637156766822326e+00 0 0 0
94 2 1.2114893273100002e+01 9.0302479576000003e+00 3.9238359396999996e+00 0 0 0
95 2 1.2698562650900000e+01 8.0847467071000008e+00 6.8598938979999993e+00 0 0 0
96 2 1.3282232034900000e+01 7.1392454466000022e+00 9.7959518563000003e+00 0 0 0

Velocities

1 0.0000000000000000e+00 0.0000000000000000e+00 0.0000000000000000e+00
2 0.0000000000000000e+00 0.0000000000000000e+00 0.0000000000000000e+00
3 0.0000000000000000e+00 0.0000000000000000e+00 0.0000000000000000e+00
4 0.0000000000000000e+00 0.0000000000000000e+00 0.0000000000000000e+00
5 0.0000000000000000e+00 0.0000000000000000e+00 0.0000000000000000e+00
6 0.0000000000000000e+00 0.0000000000000000e+00 0.0000000000000000e+00
7 0.0000000000000000e+00 0.0000000000000000e+00 0.0000000000000000e+00
8 0.0000000000000000e+00 0.0000000000000000e+00 0.0000000000000000e+00
9 0.0000000000000000e+00 0.0000000000000000e+00 0.0000000000000000e+00
10 0.0000000000000000e+00 0.0000000000000000e+00 0.0000000000000000e+00
11 0.0000000000000000e+00 0.0000000000000000e+00 0.0000000000000000e+00
12 0.0000000000000000e+00 0.0000000000000000e+00 0.0000000000000000e+00
13 0.0000000000000000e+00 0.0000000000000000e+00 0.0000000000000000e+00
14 0.0000000000000000e+00 0.0000000000000000e+00 0.0000000000000000e+00
15 0.0000000000000000e+00 0.0000000000000000e+00 0.0000000000000000e+00
16 0.0000000000000000e+00 0.0000000000000000e+00 0.0000000000000000e+00
17 0.0000000000000000e+00 0.0000000000000000e+00 0.0000000000000000e+00
18 0.0000000000000000e+00 0.0000000000000000e+00 0.0000000000000000e+00
19 0.0000000000000000e+00 0.0000000000000000e+00 0.0000000000000000e+00
20 0.0000000000000000e+00 0.0000000000000000e+00 0.0000000000000000e+00
21 0.0000000000000000e+00 0.0000000000000000e+00 0.0000000000000000e+00
22 0.0000000000000000e+00 0.0000000000000000e+00 0.0000000000000000e+00
23 0.0000000000000000e+00 0.0000000000000000e+00 0.0000000000000000e+00
24 0.0000000000000000e+00 0.0000000000000000e+00 0.0000000000000000e+00
25 0.0000000000000000e+00 0.0000000000000000e+00 0.0000000000000000e+00
26 0.0000000000000000e+00 0.0000000000000000e+00 0.0000000000000000e+00
27 0.0000000000000000e+00 0.0000000000000000e+00 0.0000000000000000e+00
28 0.0000000000000000e+00 0.0000000000000000e+00 0.0000000000000000e+00
29 0.0000000000000000e+00 0.0000000000000000e+00 0.0000000000000000e+00
30 0.0000000000000000e+00 0.0000000000000000e+00 0.0000000000000000e+00
31 0.0000000000000000e+00 0.0000000000000000e+00 0.0000000000000000e+00
32 0.0000000000000000e+00 0.0000000000000000e+00 0.0000000000000000e+00
33 0.0000000000000000e+00 0.0000000000000000e+00 0.0000000000000000e+00
34 0.0000000000000000e+00 0.0000000000000000e+00 0.0000000000000000e+00
35 0.0000000000000000e+00 0.0000000000000000e+00 0.0000000000000000e+00
36 0.0000000000000000e+00 0.0000000000000000e+00 0.0000000000000000e+00
37 0.0000000000000000e+00 0.0000000000000000e+00 0.0000000000000000e+00
38 0.0000000000000000e+00 0.0000000000000000e+00 0.0000000000000000e+00
39 0.0000000000000000e+00 0.0000000000000000e+00 0.0000000000000000e+00
40 0.0000000000000000e+00 0.0000000000000000e+00 0.0000000000000000e+00
41 0.0000000000000000e+00 0.0000000000000000e+00 0.0000000000000000e+00
42 0.0000000000000000e+00 0.0000000000000000e+00 0.0000000000000000e+00
43 0.0000000000000000e+00 0.0000000000000000e+00 0.0000000000000000e+00
44 0.0000000000000000e+00 0.0000000000000000e+00 0.0000000000000000e+00
45 0.0000000000000000e+00 0.0000000000000000e+00 0.0000000000000000e+00
46 0.0000000000000000e+00 0.0000000000000000e+00 0.0000000000000000e+00
47 0.0000000000000000e+00 0.0000000000000000e+00 0.0000000000000000e+00
48 0.0000000000000000e+00 0.0000000000000000e+00 0.0000000000000000e+00
49 0.0000000000000000e+00 0.0000000000000000e+00 0.0000000000000000e+00
50 0.0000000000000000e+00 0.0000000000000000e+00 0.0000000000000000e+00
51 0.0000000000000000e+00 0.0000000000000000e+00 0.0000000000000000e+00
52 0.0000000000000000e+00 0.0000000000000000e+00 0.0000000000000000e+00
53 0.0000000000000000e+00 0.0000000000000000e+00 0.0000000000000000e+00
54 0.0000000000000000e+00 0.0000000000000000e+00 0.0000000000000000e+00
55 0.0000000000000000e+00 0.0000000000000000e+00 0.0000000000000000e+00
56 0.0000000000000000e+00 0.0000000000000000e+00 0.0000000000000000e+00
57 0.0000000000000000e+00 0.0000000000000000e+00 0.0000000000000000e+00
58 0.0000000000000000e+00 0.0000000000000000e+00 0.0000000000000000e+00
59 0.0000000000000000e+00 0.0000000000000000e+00 0.0000000000000000e+00
60 0.0000000000000000e+00 0.0000000000000000e+00 0.0000000000000000e+00
61 0.0000000000000000e+00 0.0000000000000000e+00 0.0000000000000000e+00
62 0.0000000000000000e+00 0.0000000000000000e+00 0.0000000000000000e+00
63 0.0000000000000000e+00 0.0000000000000000e+00 0.0000000000000000e+00
64 0.0000000000000000e+00 0.0000000000000000e+00 0.0000000000000000e+00
65 0.0000000000000000e+00 0.0000000000000000e+00 0.0000000000000000e+00
66 0.0000000000000000e+00 0.0000000000000000e+00 0.0000000000000000e+00
67 0.0000000000000000e+00 0.0000000000000000e+00 0.0000000000000000e+00
68 0.0000000000000000e+00 0.0000000000000000e+00 0.0000000000000000e+00
69 0.0000000000000000e+00 0.0000000000000000e+00 0.0000000000000000e+00
70 0.0000000000000000e+00 0.0000000000000000e+00 0.0000000000000000e+00
71 0.0000000000000000e+00 0.0000000000000000e+00 0.0000000000000000e+00
72 0.0000000000000000e+00 0.0000000000000000e+00 0.0000000000000000e+00
73 0.0000000000000000e+00 0.0000000000000000e+00 0.0000000000000000e+00
74 0.0000000000000000e+00 0.0000000000000000e+00 0.0000000000000000e+00
75 0.0000000000000000e+00 0.0000000000000000e+00 0.0000000000000000e+00
76 0.0000000000000000e+00 0.0000000000000000e+00 0.0000000000000000e+00
77 0.0000000000000000e+00 0.0000000000000000e+00 0.0000000000000000e+00
78 0.0000000000000000e+00 0.0000000000000000e+00 0.0000000000000000e+00
79 0.0000000000000000e+00 0.0000000000000000e+00 0.0000000000000000e+00
80 0.0000000000000000e+00 0.0000000000000000e+00 0.0000000000000000e+00
81 0.0000000000000000e+00 0.0000000000000000e+00 0.0000000000000000e+00
82 0.0000000000000000e+00 0.0000000000000000e+00 0.0000000000000000e+00
83 0.0000000000000000e+00 0.0000000000000000e+00 0.0000000000000000e+00
84 0.0000000000000000e+00 0.0000000000000000e+00 0.0000000000000000e+00
85 0.0000000000000000e+00 0.0000000000000000e+00 0.0000000000000000e+00
86 0.0000000000000000e+00 0.0000000000000000e+00 0.0000000000000000e+00
87 0.0000000000000000e+00 0.0000000000000000e+00 0.0000000000000000e+00
88 0.0000000000000000e+00 0.0000000000000000e+00 0.0000000000000000e+00
89 0.0000000000000000e+00 0.0000000000000000e+00 0.0000000000000000e+00
90 0.0000000000000000e+00 0.0000000000000000e+00 0.0000000000000000e+00
91 0.0000000000000000e+00 0.0000000000000000e+00 0.0000000000000000e+00
92 0.0000000000000000e+00 0.0000000000000000e+00 0.0000000000000000e+00
93 0.0000000000000000e+00 0.0000000000000000e+00 0.0000000000000000e+00
94 0.0000000000000000e+00 0.0000000000000000e+00 0.0000000000000000e+00
95 0.0000000000000000e+00 0.0000000000000000e+00 0.0000000000000000e+00
96 0.0000000000000000e+00 0.0000000000000000e+00 0.0000000000000000e+00
