  72  72   0   0
  0.3631948E+02  0.1688469E-08  0.9578410E-09  0.1616909E-08  0.5000000E-15
  1.000000000000000E-004
  CAR 
 "Millerite NiS"                         
      9.20546091    -67.96077778  301     -0.29920196      1.00000000
    -67.961  0.0000E+00  0.0000E+00
    -67.704  0.0000E+00  0.0000E+00
    -67.446  0.0000E+00  0.0000E+00
    -67.189  0.0000E+00  0.0000E+00
    -66.932  0.0000E+00  0.0000E+00
    -66.675  0.0000E+00  0.0000E+00
    -66.417  0.0000E+00  0.0000E+00
    -66.160  0.0000E+00  0.0000E+00
    -65.903  0.0000E+00  0.0000E+00
    -65.646  0.0000E+00  0.0000E+00
    -65.389  0.3841E-09  0.9880E-10
    -65.131  0.2341E-04  0.6021E-05
    -64.874  0.6606E-01  0.1700E-01
    -64.617  0.1035E+02  0.2680E+01
    -64.360  0.1280E+03  0.3560E+02
    -64.102  0.2176E+03  0.9158E+02
    -63.845  0.1338E+03  0.1260E+03
    -63.588  0.1323E+03  0.1600E+03
    -63.331  0.1095E+03  0.1882E+03
    -63.074  0.7242E+02  0.2068E+03
    -62.816  0.3251E+02  0.2152E+03
    -62.559  0.3207E+01  0.2160E+03
    -62.302  0.2750E-01  0.2160E+03
    -62.045  0.1280E-04  0.2160E+03
    -61.787  0.2656E-09  0.2160E+03
    -61.530  0.0000E+00  0.2160E+03
    -61.273  0.0000E+00  0.2160E+03
    -61.016  0.0000E+00  0.2160E+03
    -60.759  0.0000E+00  0.2160E+03
    -60.501  0.0000E+00  0.2160E+03
    -60.244  0.0000E+00  0.2160E+03
    -59.987  0.0000E+00  0.2160E+03
    -59.730  0.0000E+00  0.2160E+03
    -59.472  0.0000E+00  0.2160E+03
    -59.215  0.0000E+00  0.2160E+03
    -58.958  0.0000E+00  0.2160E+03
    -58.701  0.0000E+00  0.2160E+03
    -58.444  0.0000E+00  0.2160E+03
    -58.186  0.0000E+00  0.2160E+03
    -57.929  0.0000E+00  0.2160E+03
    -57.672  0.0000E+00  0.2160E+03
    -57.415  0.0000E+00  0.2160E+03
    -57.158  0.0000E+00  0.2160E+03
    -56.900  0.0000E+00  0.2160E+03
    -56.643  0.0000E+00  0.2160E+03
    -56.386  0.0000E+00  0.2160E+03
    -56.129  0.0000E+00  0.2160E+03
    -55.871  0.0000E+00  0.2160E+03
    -55.614  0.0000E+00  0.2160E+03
    -55.357  0.0000E+00  0.2160E+03
    -55.100  0.0000E+00  0.2160E+03
    -54.843  0.0000E+00  0.2160E+03
    -54.585  0.0000E+00  0.2160E+03
    -54.328  0.0000E+00  0.2160E+03
    -54.071  0.0000E+00  0.2160E+03
    -53.814  0.0000E+00  0.2160E+03
    -53.556  0.0000E+00  0.2160E+03
    -53.299  0.0000E+00  0.2160E+03
    -53.042  0.0000E+00  0.2160E+03
    -52.785  0.0000E+00  0.2160E+03
    -52.528  0.0000E+00  0.2160E+03
    -52.270  0.0000E+00  0.2160E+03
    -52.013  0.0000E+00  0.2160E+03
    -51.756  0.0000E+00  0.2160E+03
    -51.499  0.0000E+00  0.2160E+03
    -51.241  0.0000E+00  0.2160E+03
    -50.984  0.0000E+00  0.2160E+03
    -50.727  0.0000E+00  0.2160E+03
    -50.470  0.0000E+00  0.2160E+03
    -50.213  0.0000E+00  0.2160E+03
    -49.955  0.0000E+00  0.2160E+03
    -49.698  0.0000E+00  0.2160E+03
    -49.441  0.0000E+00  0.2160E+03
    -49.184  0.0000E+00  0.2160E+03
    -48.926  0.0000E+00  0.2160E+03
    -48.669  0.0000E+00  0.2160E+03
    -48.412  0.0000E+00  0.2160E+03
    -48.155  0.0000E+00  0.2160E+03
    -47.898  0.0000E+00  0.2160E+03
    -47.640  0.0000E+00  0.2160E+03
    -47.383  0.0000E+00  0.2160E+03
    -47.126  0.0000E+00  0.2160E+03
    -46.869  0.0000E+00  0.2160E+03
    -46.611  0.0000E+00  0.2160E+03
    -46.354  0.0000E+00  0.2160E+03
    -46.097  0.0000E+00  0.2160E+03
    -45.840  0.0000E+00  0.2160E+03
    -45.583  0.0000E+00  0.2160E+03
    -45.325  0.0000E+00  0.2160E+03
    -45.068  0.0000E+00  0.2160E+03
    -44.811  0.0000E+00  0.2160E+03
    -44.554  0.0000E+00  0.2160E+03
    -44.296  0.0000E+00  0.2160E+03
    -44.039  0.0000E+00  0.2160E+03
    -43.782  0.0000E+00  0.2160E+03
    -43.525  0.0000E+00  0.2160E+03
    -43.268  0.0000E+00  0.2160E+03
    -43.010  0.0000E+00  0.2160E+03
    -42.753  0.0000E+00  0.2160E+03
    -42.496  0.0000E+00  0.2160E+03
    -42.239  0.0000E+00  0.2160E+03
    -41.981  0.0000E+00  0.2160E+03
    -41.724  0.0000E+00  0.2160E+03
    -41.467  0.0000E+00  0.2160E+03
    -41.210  0.0000E+00  0.2160E+03
    -40.953  0.0000E+00  0.2160E+03
    -40.695  0.0000E+00  0.2160E+03
    -40.438  0.0000E+00  0.2160E+03
    -40.181  0.0000E+00  0.2160E+03
    -39.924  0.0000E+00  0.2160E+03
    -39.666  0.0000E+00  0.2160E+03
    -39.409  0.0000E+00  0.2160E+03
    -39.152  0.0000E+00  0.2160E+03
    -38.895  0.0000E+00  0.2160E+03
    -38.638  0.0000E+00  0.2160E+03
    -38.380  0.0000E+00  0.2160E+03
    -38.123  0.0000E+00  0.2160E+03
    -37.866  0.0000E+00  0.2160E+03
    -37.609  0.0000E+00  0.2160E+03
    -37.352  0.0000E+00  0.2160E+03
    -37.094  0.0000E+00  0.2160E+03
    -36.837  0.0000E+00  0.2160E+03
    -36.580  0.0000E+00  0.2160E+03
    -36.323  0.0000E+00  0.2160E+03
    -36.065  0.0000E+00  0.2160E+03
    -35.808  0.0000E+00  0.2160E+03
    -35.551  0.0000E+00  0.2160E+03
    -35.294  0.0000E+00  0.2160E+03
    -35.037  0.0000E+00  0.2160E+03
    -34.779  0.0000E+00  0.2160E+03
    -34.522  0.0000E+00  0.2160E+03
    -34.265  0.0000E+00  0.2160E+03
    -34.008  0.0000E+00  0.2160E+03
    -33.750  0.0000E+00  0.2160E+03
    -33.493  0.0000E+00  0.2160E+03
    -33.236  0.0000E+00  0.2160E+03
    -32.979  0.0000E+00  0.2160E+03
    -32.722  0.0000E+00  0.2160E+03
    -32.464  0.0000E+00  0.2160E+03
    -32.207  0.0000E+00  0.2160E+03
    -31.950  0.0000E+00  0.2160E+03
    -31.693  0.0000E+00  0.2160E+03
    -31.435  0.0000E+00  0.2160E+03
    -31.178  0.0000E+00  0.2160E+03
    -30.921  0.0000E+00  0.2160E+03
    -30.664  0.0000E+00  0.2160E+03
    -30.407  0.0000E+00  0.2160E+03
    -30.149  0.0000E+00  0.2160E+03
    -29.892  0.0000E+00  0.2160E+03
    -29.635  0.0000E+00  0.2160E+03
    -29.378  0.0000E+00  0.2160E+03
    -29.120  0.0000E+00  0.2160E+03
    -28.863  0.0000E+00  0.2160E+03
    -28.606  0.0000E+00  0.2160E+03
    -28.349  0.0000E+00  0.2160E+03
    -28.092  0.0000E+00  0.2160E+03
    -27.834  0.0000E+00  0.2160E+03
    -27.577  0.0000E+00  0.2160E+03
    -27.320  0.0000E+00  0.2160E+03
    -27.063  0.0000E+00  0.2160E+03
    -26.805  0.0000E+00  0.2160E+03
    -26.548  0.0000E+00  0.2160E+03
    -26.291  0.0000E+00  0.2160E+03
    -26.034  0.0000E+00  0.2160E+03
    -25.777  0.0000E+00  0.2160E+03
    -25.519  0.0000E+00  0.2160E+03
    -25.262  0.0000E+00  0.2160E+03
    -25.005  0.0000E+00  0.2160E+03
    -24.748  0.0000E+00  0.2160E+03
    -24.490  0.0000E+00  0.2160E+03
    -24.233  0.0000E+00  0.2160E+03
    -23.976  0.0000E+00  0.2160E+03
    -23.719  0.0000E+00  0.2160E+03
    -23.462  0.0000E+00  0.2160E+03
    -23.204  0.0000E+00  0.2160E+03
    -22.947  0.0000E+00  0.2160E+03
    -22.690  0.0000E+00  0.2160E+03
    -22.433  0.0000E+00  0.2160E+03
    -22.175  0.0000E+00  0.2160E+03
    -21.918  0.0000E+00  0.2160E+03
    -21.661  0.0000E+00  0.2160E+03
    -21.404  0.0000E+00  0.2160E+03
    -21.147  0.0000E+00  0.2160E+03
    -20.889  0.0000E+00  0.2160E+03
    -20.632  0.0000E+00  0.2160E+03
    -20.375  0.0000E+00  0.2160E+03
    -20.118  0.0000E+00  0.2160E+03
    -19.860  0.0000E+00  0.2160E+03
    -19.603  0.0000E+00  0.2160E+03
    -19.346  0.0000E+00  0.2160E+03
    -19.089  0.0000E+00  0.2160E+03
    -18.832  0.0000E+00  0.2160E+03
    -18.574  0.0000E+00  0.2160E+03
    -18.317  0.0000E+00  0.2160E+03
    -18.060  0.0000E+00  0.2160E+03
    -17.803  0.0000E+00  0.2160E+03
    -17.546  0.0000E+00  0.2160E+03
    -17.288  0.0000E+00  0.2160E+03
    -17.031  0.0000E+00  0.2160E+03
    -16.774  0.0000E+00  0.2160E+03
    -16.517  0.0000E+00  0.2160E+03
    -16.259  0.6553E-11  0.2160E+03
    -16.002  0.6261E-06  0.2160E+03
    -15.745  0.2429E-02  0.2160E+03
    -15.488  0.4246E+00  0.2161E+03
    -15.231  0.4684E+01  0.2173E+03
    -14.973  0.1019E+02  0.2199E+03
    -14.716  0.8866E+01  0.2222E+03
    -14.459  0.1238E+02  0.2254E+03
    -14.202  0.2251E+02  0.2312E+03
    -13.944  0.2907E+02  0.2387E+03
    -13.687  0.3076E+02  0.2466E+03
    -13.430  0.2439E+02  0.2529E+03
    -13.173  0.2106E+02  0.2583E+03
    -12.916  0.2573E+02  0.2649E+03
    -12.658  0.3054E+02  0.2727E+03
    -12.401  0.2759E+02  0.2798E+03
    -12.144  0.1181E+02  0.2829E+03
    -11.887  0.9299E+01  0.2853E+03
    -11.629  0.9249E+01  0.2876E+03
    -11.372  0.1349E+01  0.2880E+03
    -11.115  0.1359E-01  0.2880E+03
    -10.858  0.6943E-05  0.2880E+03
    -10.601  0.1539E-09  0.2880E+03
    -10.343  0.0000E+00  0.2880E+03
    -10.086  0.0000E+00  0.2880E+03
     -9.829  0.0000E+00  0.2880E+03
     -9.572  0.0000E+00  0.2880E+03
     -9.314  0.0000E+00  0.2880E+03
     -9.057  0.0000E+00  0.2880E+03
     -8.800  0.0000E+00  0.2880E+03
     -8.543  0.0000E+00  0.2880E+03
     -8.286  0.0000E+00  0.2880E+03
     -8.028  0.1893E-11  0.2880E+03
     -7.771  0.2915E-06  0.2880E+03
     -7.514  0.1914E-02  0.2880E+03
     -7.257  0.6059E+00  0.2882E+03
     -6.999  0.1205E+02  0.2913E+03
     -6.742  0.2323E+02  0.2972E+03
     -6.485  0.2404E+02  0.3034E+03
     -6.228  0.4078E+02  0.3139E+03
     -5.971  0.4148E+02  0.3246E+03
     -5.713  0.4561E+02  0.3363E+03
     -5.456  0.5511E+02  0.3505E+03
     -5.199  0.4810E+02  0.3629E+03
     -4.942  0.3572E+02  0.3720E+03
     -4.684  0.4617E+02  0.3839E+03
     -4.427  0.6203E+02  0.3999E+03
     -4.170  0.4951E+02  0.4126E+03
     -3.913  0.6547E+02  0.4294E+03
     -3.656  0.6634E+02  0.4465E+03
     -3.398  0.6144E+02  0.4623E+03
     -3.141  0.6006E+02  0.4778E+03
     -2.884  0.6091E+02  0.4934E+03
     -2.627  0.7003E+02  0.5114E+03
     -2.369  0.9251E+02  0.5352E+03
     -2.112  0.1276E+03  0.5680E+03
     -1.855  0.1620E+03  0.6097E+03
     -1.598  0.1612E+03  0.6512E+03
     -1.341  0.1460E+03  0.6887E+03
     -1.083  0.1238E+03  0.7206E+03
     -0.826  0.1083E+03  0.7484E+03
     -0.569  0.9354E+02  0.7725E+03
     -0.312  0.7272E+02  0.7912E+03
     -0.054  0.5903E+02  0.8064E+03
      0.203  0.5479E+02  0.8205E+03
      0.460  0.5395E+02  0.8344E+03
      0.717  0.5883E+02  0.8495E+03
      0.974  0.5797E+02  0.8644E+03
      1.232  0.2589E+02  0.8711E+03
      1.489  0.6805E+01  0.8728E+03
      1.746  0.4310E+01  0.8739E+03
      2.003  0.4086E+01  0.8750E+03
      2.260  0.1091E+02  0.8778E+03
      2.518  0.8457E+01  0.8799E+03
      2.775  0.1068E+02  0.8827E+03
      3.032  0.9403E+01  0.8851E+03
      3.289  0.3924E+01  0.8861E+03
      3.547  0.9984E+01  0.8887E+03
      3.804  0.2103E+02  0.8941E+03
      4.061  0.2071E+02  0.8994E+03
      4.318  0.3248E+02  0.9078E+03
      4.575  0.3099E+02  0.9158E+03
      4.833  0.2576E+02  0.9224E+03
      5.090  0.3200E+02  0.9306E+03
      5.347  0.4347E+02  0.9418E+03
      5.604  0.4939E+02  0.9545E+03
      5.862  0.1981E+02  0.9596E+03
      6.119  0.1578E+01  0.9600E+03
      6.376  0.1320E-01  0.9600E+03
      6.633  0.6597E-05  0.9600E+03
      6.890  0.1473E-09  0.9600E+03
      7.148  0.0000E+00  0.9600E+03
      7.405  0.0000E+00  0.9600E+03
      7.662  0.0000E+00  0.9600E+03
      7.919  0.0000E+00  0.9600E+03
      8.177  0.0000E+00  0.9600E+03
      8.434  0.0000E+00  0.9600E+03
      8.691  0.0000E+00  0.9600E+03
      8.948  0.0000E+00  0.9600E+03
      9.205  0.0000E+00  0.9600E+03
