"Millerite NiS"                         
           1
     8.700731   -4.005399    0.000000
     0.000000   11.452784    0.000000
     0.000000    0.000000   20.846830
   Ni   S 
    39    39
Direct configuration=     1
   0.63793591  0.42904558  0.08004781
   0.72899292  0.61115959  0.20011952
   0.82004993  0.79327361  0.32019124
   0.45636426  0.06590227  0.28016734
   0.54742127  0.24801628  0.40023905
   0.63847827  0.43013030  0.52031076
   0.27425024  0.70167424  0.04002390
   0.36530725  0.88378825  0.16009562
   0.00162158  0.15641692  0.12007172
   0.09267859  0.33853093  0.24014343
   0.18373560  0.52064495  0.36021514
   0.27479261  0.70275896  0.48028686
   0.91056458  0.97430290  0.00000000
   0.59499452  0.07895679  0.02342343
   0.68605153  0.26107081  0.14349515
   0.77710854  0.44318482  0.26356686
   0.86816554  0.62529884  0.38363857
   0.95922255  0.80741285  0.50371029
   0.59553688  0.08004151  0.46368639
   0.32236586  0.53369947  0.10347124
   0.41342287  0.71581348  0.22354295
   0.50447988  0.89792750  0.34361467
   0.14079421  0.17055616  0.30359077
   0.23185121  0.35267018  0.42366248
   0.04973720  0.98844215  0.18351905
   0.95868019  0.80632813  0.06344733
   0.08425593  0.79327361  0.32019124
   0.17531294  0.97538762  0.44026296
   0.90214191  0.42904558  0.08004781
   0.99319892  0.61115959  0.20011952
   0.72057026  0.06590227  0.28016734
   0.81162727  0.24801628  0.40023905
   0.90268427  0.43013030  0.52031076
   0.53845624  0.70167424  0.04002390
   0.62951325  0.88378825  0.16009562
   0.26582758  0.15641692  0.12007172
   0.35688459  0.33853093  0.24014343
   0.44794160  0.52064495  0.36021514
   0.53899861  0.70275896  0.48028686
   0.01340710  0.57935194  0.31115216
   0.10446410  0.76146596  0.43122388
   0.83129308  0.21512391  0.07100873
   0.92235009  0.39723793  0.19108045
   0.74077844  0.03409462  0.39119997
   0.83183544  0.21620863  0.51127169
   0.46760741  0.48775257  0.03098483
   0.55866442  0.66986659  0.15105654
   0.64972143  0.85198060  0.27112826
   0.28603576  0.12460926  0.23110435
   0.37709277  0.30672328  0.35117607
   0.46814977  0.48883730  0.47124778
   0.19497875  0.94249525  0.11103264
   0.13425249  0.15747274  0.47050414
   0.04319549  0.97535872  0.35043242
   0.86108147  0.61113069  0.11028899
   0.95213848  0.79324471  0.23036071
   0.58845281  0.06587337  0.19033680
   0.67950982  0.24798738  0.31040852
   0.77056683  0.43010140  0.43048023
   0.49739580  0.88375935  0.07026509
   0.13371013  0.15638801  0.03024118
   0.22476714  0.33850203  0.15031290
   0.31582415  0.52061604  0.27038461
   0.40688116  0.70273006  0.39045633
   0.49793816  0.88484407  0.51052804
   0.49486308  0.21512391  0.07100873
   0.58592009  0.39723793  0.19108045
   0.67697710  0.57935194  0.31115216
   0.76803410  0.76146596  0.43122388
   0.40434844  0.03409462  0.39119997
   0.49540544  0.21620863  0.51127169
   0.13117741  0.48775257  0.03098483
   0.22223442  0.66986659  0.15105654
   0.31329143  0.85198060  0.27112826
   0.04066277  0.30672328  0.35117607
   0.13171977  0.48883730  0.47124778
   0.94960576  0.12460926  0.23110435
   0.85854875  0.94249525  0.11103264
