  96  96   0   0
  0.2565633E+02  0.1125646E-08  0.1125646E-08  0.2174423E-08  0.5000000E-15
  1.000000000000000E-004
  CAR 
 "Millerite NiS"                         
     11.63213176    -66.58944107  301      1.74302341      1.00000000
    -66.589  0.0000E+00  0.0000E+00
    -66.329  0.0000E+00  0.0000E+00
    -66.068  0.0000E+00  0.0000E+00
    -65.807  0.0000E+00  0.0000E+00
    -65.546  0.0000E+00  0.0000E+00
    -65.286  0.0000E+00  0.0000E+00
    -65.025  0.0000E+00  0.0000E+00
    -64.764  0.0000E+00  0.0000E+00
    -64.504  0.0000E+00  0.0000E+00
    -64.243  0.0000E+00  0.0000E+00
    -63.982  0.1023E-09  0.2667E-10
    -63.721  0.6888E-05  0.1796E-05
    -63.461  0.1984E-01  0.5175E-02
    -63.200  0.3241E+01  0.8502E+00
    -62.939  0.4948E+02  0.1375E+02
    -62.678  0.1310E+03  0.4790E+02
    -62.418  0.2003E+03  0.1001E+03
    -62.157  0.3809E+03  0.1994E+03
    -61.896  0.2560E+03  0.2662E+03
    -61.635  0.5599E+02  0.2808E+03
    -61.375  0.2344E+02  0.2869E+03
    -61.114  0.4163E+01  0.2880E+03
    -60.853  0.5160E-01  0.2880E+03
    -60.592  0.2912E-04  0.2880E+03
    -60.332  0.6423E-09  0.2880E+03
    -60.071  0.0000E+00  0.2880E+03
    -59.810  0.0000E+00  0.2880E+03
    -59.549  0.0000E+00  0.2880E+03
    -59.289  0.0000E+00  0.2880E+03
    -59.028  0.0000E+00  0.2880E+03
    -58.767  0.0000E+00  0.2880E+03
    -58.507  0.0000E+00  0.2880E+03
    -58.246  0.0000E+00  0.2880E+03
    -57.985  0.0000E+00  0.2880E+03
    -57.724  0.0000E+00  0.2880E+03
    -57.464  0.0000E+00  0.2880E+03
    -57.203  0.0000E+00  0.2880E+03
    -56.942  0.0000E+00  0.2880E+03
    -56.681  0.0000E+00  0.2880E+03
    -56.421  0.0000E+00  0.2880E+03
    -56.160  0.0000E+00  0.2880E+03
    -55.899  0.0000E+00  0.2880E+03
    -55.638  0.0000E+00  0.2880E+03
    -55.378  0.0000E+00  0.2880E+03
    -55.117  0.0000E+00  0.2880E+03
    -54.856  0.0000E+00  0.2880E+03
    -54.595  0.0000E+00  0.2880E+03
    -54.335  0.0000E+00  0.2880E+03
    -54.074  0.0000E+00  0.2880E+03
    -53.813  0.0000E+00  0.2880E+03
    -53.553  0.0000E+00  0.2880E+03
    -53.292  0.0000E+00  0.2880E+03
    -53.031  0.0000E+00  0.2880E+03
    -52.770  0.0000E+00  0.2880E+03
    -52.510  0.0000E+00  0.2880E+03
    -52.249  0.0000E+00  0.2880E+03
    -51.988  0.0000E+00  0.2880E+03
    -51.727  0.0000E+00  0.2880E+03
    -51.467  0.0000E+00  0.2880E+03
    -51.206  0.0000E+00  0.2880E+03
    -50.945  0.0000E+00  0.2880E+03
    -50.684  0.0000E+00  0.2880E+03
    -50.424  0.0000E+00  0.2880E+03
    -50.163  0.0000E+00  0.2880E+03
    -49.902  0.0000E+00  0.2880E+03
    -49.641  0.0000E+00  0.2880E+03
    -49.381  0.0000E+00  0.2880E+03
    -49.120  0.0000E+00  0.2880E+03
    -48.859  0.0000E+00  0.2880E+03
    -48.598  0.0000E+00  0.2880E+03
    -48.338  0.0000E+00  0.2880E+03
    -48.077  0.0000E+00  0.2880E+03
    -47.816  0.0000E+00  0.2880E+03
    -47.556  0.0000E+00  0.2880E+03
    -47.295  0.0000E+00  0.2880E+03
    -47.034  0.0000E+00  0.2880E+03
    -46.773  0.0000E+00  0.2880E+03
    -46.513  0.0000E+00  0.2880E+03
    -46.252  0.0000E+00  0.2880E+03
    -45.991  0.0000E+00  0.2880E+03
    -45.730  0.0000E+00  0.2880E+03
    -45.470  0.0000E+00  0.2880E+03
    -45.209  0.0000E+00  0.2880E+03
    -44.948  0.0000E+00  0.2880E+03
    -44.687  0.0000E+00  0.2880E+03
    -44.427  0.0000E+00  0.2880E+03
    -44.166  0.0000E+00  0.2880E+03
    -43.905  0.0000E+00  0.2880E+03
    -43.644  0.0000E+00  0.2880E+03
    -43.384  0.0000E+00  0.2880E+03
    -43.123  0.0000E+00  0.2880E+03
    -42.862  0.0000E+00  0.2880E+03
    -42.601  0.0000E+00  0.2880E+03
    -42.341  0.0000E+00  0.2880E+03
    -42.080  0.0000E+00  0.2880E+03
    -41.819  0.0000E+00  0.2880E+03
    -41.559  0.0000E+00  0.2880E+03
    -41.298  0.0000E+00  0.2880E+03
    -41.037  0.0000E+00  0.2880E+03
    -40.776  0.0000E+00  0.2880E+03
    -40.516  0.0000E+00  0.2880E+03
    -40.255  0.0000E+00  0.2880E+03
    -39.994  0.0000E+00  0.2880E+03
    -39.733  0.0000E+00  0.2880E+03
    -39.473  0.0000E+00  0.2880E+03
    -39.212  0.0000E+00  0.2880E+03
    -38.951  0.0000E+00  0.2880E+03
    -38.690  0.0000E+00  0.2880E+03
    -38.430  0.0000E+00  0.2880E+03
    -38.169  0.0000E+00  0.2880E+03
    -37.908  0.0000E+00  0.2880E+03
    -37.647  0.0000E+00  0.2880E+03
    -37.387  0.0000E+00  0.2880E+03
    -37.126  0.0000E+00  0.2880E+03
    -36.865  0.0000E+00  0.2880E+03
    -36.605  0.0000E+00  0.2880E+03
    -36.344  0.0000E+00  0.2880E+03
    -36.083  0.0000E+00  0.2880E+03
    -35.822  0.0000E+00  0.2880E+03
    -35.562  0.0000E+00  0.2880E+03
    -35.301  0.0000E+00  0.2880E+03
    -35.040  0.0000E+00  0.2880E+03
    -34.779  0.0000E+00  0.2880E+03
    -34.519  0.0000E+00  0.2880E+03
    -34.258  0.0000E+00  0.2880E+03
    -33.997  0.0000E+00  0.2880E+03
    -33.736  0.0000E+00  0.2880E+03
    -33.476  0.0000E+00  0.2880E+03
    -33.215  0.0000E+00  0.2880E+03
    -32.954  0.0000E+00  0.2880E+03
    -32.693  0.0000E+00  0.2880E+03
    -32.433  0.0000E+00  0.2880E+03
    -32.172  0.0000E+00  0.2880E+03
    -31.911  0.0000E+00  0.2880E+03
    -31.650  0.0000E+00  0.2880E+03
    -31.390  0.0000E+00  0.2880E+03
    -31.129  0.0000E+00  0.2880E+03
    -30.868  0.0000E+00  0.2880E+03
    -30.608  0.0000E+00  0.2880E+03
    -30.347  0.0000E+00  0.2880E+03
    -30.086  0.0000E+00  0.2880E+03
    -29.825  0.0000E+00  0.2880E+03
    -29.565  0.0000E+00  0.2880E+03
    -29.304  0.0000E+00  0.2880E+03
    -29.043  0.0000E+00  0.2880E+03
    -28.782  0.0000E+00  0.2880E+03
    -28.522  0.0000E+00  0.2880E+03
    -28.261  0.0000E+00  0.2880E+03
    -28.000  0.0000E+00  0.2880E+03
    -27.739  0.0000E+00  0.2880E+03
    -27.479  0.0000E+00  0.2880E+03
    -27.218  0.0000E+00  0.2880E+03
    -26.957  0.0000E+00  0.2880E+03
    -26.696  0.0000E+00  0.2880E+03
    -26.436  0.0000E+00  0.2880E+03
    -26.175  0.0000E+00  0.2880E+03
    -25.914  0.0000E+00  0.2880E+03
    -25.653  0.0000E+00  0.2880E+03
    -25.393  0.0000E+00  0.2880E+03
    -25.132  0.0000E+00  0.2880E+03
    -24.871  0.0000E+00  0.2880E+03
    -24.611  0.0000E+00  0.2880E+03
    -24.350  0.0000E+00  0.2880E+03
    -24.089  0.0000E+00  0.2880E+03
    -23.828  0.0000E+00  0.2880E+03
    -23.568  0.0000E+00  0.2880E+03
    -23.307  0.0000E+00  0.2880E+03
    -23.046  0.0000E+00  0.2880E+03
    -22.785  0.0000E+00  0.2880E+03
    -22.525  0.0000E+00  0.2880E+03
    -22.264  0.0000E+00  0.2880E+03
    -22.003  0.0000E+00  0.2880E+03
    -21.742  0.0000E+00  0.2880E+03
    -21.482  0.0000E+00  0.2880E+03
    -21.221  0.0000E+00  0.2880E+03
    -20.960  0.0000E+00  0.2880E+03
    -20.699  0.0000E+00  0.2880E+03
    -20.439  0.0000E+00  0.2880E+03
    -20.178  0.0000E+00  0.2880E+03
    -19.917  0.0000E+00  0.2880E+03
    -19.656  0.0000E+00  0.2880E+03
    -19.396  0.0000E+00  0.2880E+03
    -19.135  0.0000E+00  0.2880E+03
    -18.874  0.0000E+00  0.2880E+03
    -18.614  0.0000E+00  0.2880E+03
    -18.353  0.0000E+00  0.2880E+03
    -18.092  0.0000E+00  0.2880E+03
    -17.831  0.0000E+00  0.2880E+03
    -17.571  0.0000E+00  0.2880E+03
    -17.310  0.0000E+00  0.2880E+03
    -17.049  0.0000E+00  0.2880E+03
    -16.788  0.0000E+00  0.2880E+03
    -16.528  0.0000E+00  0.2880E+03
    -16.267  0.0000E+00  0.2880E+03
    -16.006  0.0000E+00  0.2880E+03
    -15.745  0.0000E+00  0.2880E+03
    -15.485  0.1703E-14  0.2880E+03
    -15.224  0.1249E-08  0.2880E+03
    -14.963  0.3412E-04  0.2880E+03
    -14.702  0.3586E-01  0.2880E+03
    -14.442  0.1699E+01  0.2885E+03
    -14.181  0.5715E+01  0.2899E+03
    -13.920  0.6820E+01  0.2917E+03
    -13.660  0.1408E+02  0.2954E+03
    -13.399  0.2581E+02  0.3021E+03
    -13.138  0.2490E+02  0.3086E+03
    -12.877  0.2418E+02  0.3149E+03
    -12.617  0.2440E+02  0.3213E+03
    -12.356  0.4014E+02  0.3317E+03
    -12.095  0.4779E+02  0.3442E+03
    -11.834  0.3409E+02  0.3531E+03
    -11.574  0.4058E+02  0.3637E+03
    -11.313  0.4856E+02  0.3763E+03
    -11.052  0.1948E+02  0.3814E+03
    -10.791  0.8314E+01  0.3836E+03
    -10.531  0.1554E+01  0.3840E+03
    -10.270  0.2490E-01  0.3840E+03
    -10.009  0.1882E-04  0.3840E+03
     -9.748  0.5485E-09  0.3840E+03
     -9.488  0.0000E+00  0.3840E+03
     -9.227  0.0000E+00  0.3840E+03
     -8.966  0.0000E+00  0.3840E+03
     -8.705  0.0000E+00  0.3840E+03
     -8.445  0.0000E+00  0.3840E+03
     -8.184  0.0000E+00  0.3840E+03
     -7.923  0.0000E+00  0.3840E+03
     -7.663  0.0000E+00  0.3840E+03
     -7.402  0.0000E+00  0.3840E+03
     -7.141  0.1277E-14  0.3840E+03
     -6.880  0.1268E-08  0.3840E+03
     -6.620  0.4355E-04  0.3840E+03
     -6.359  0.5972E-01  0.3840E+03
     -6.098  0.4100E+01  0.3851E+03
     -5.837  0.2509E+02  0.3916E+03
     -5.577  0.3213E+02  0.4000E+03
     -5.316  0.2441E+02  0.4064E+03
     -5.055  0.5103E+02  0.4197E+03
     -4.794  0.6894E+02  0.4376E+03
     -4.534  0.5813E+02  0.4528E+03
     -4.273  0.5394E+02  0.4669E+03
     -4.012  0.7009E+02  0.4851E+03
     -3.751  0.5865E+02  0.5004E+03
     -3.491  0.7170E+02  0.5191E+03
     -3.230  0.9352E+02  0.5435E+03
     -2.969  0.9300E+02  0.5678E+03
     -2.708  0.8805E+02  0.5907E+03
     -2.448  0.8790E+02  0.6136E+03
     -2.187  0.6946E+02  0.6317E+03
     -1.926  0.5040E+02  0.6449E+03
     -1.666  0.5531E+02  0.6593E+03
     -1.405  0.5776E+02  0.6744E+03
     -1.144  0.7381E+02  0.6936E+03
     -0.883  0.1117E+03  0.7227E+03
     -0.623  0.1439E+03  0.7603E+03
     -0.362  0.1596E+03  0.8019E+03
     -0.101  0.1829E+03  0.8496E+03
      0.160  0.1867E+03  0.8983E+03
      0.420  0.1663E+03  0.9416E+03
      0.681  0.1316E+03  0.9759E+03
      0.942  0.9310E+02  0.1000E+04
      1.203  0.7305E+02  0.1019E+04
      1.463  0.7307E+02  0.1038E+04
      1.724  0.6406E+02  0.1055E+04
      1.985  0.4975E+02  0.1068E+04
      2.246  0.6250E+02  0.1084E+04
      2.506  0.7835E+02  0.1105E+04
      2.767  0.6788E+02  0.1122E+04
      3.028  0.5503E+02  0.1137E+04
      3.288  0.3723E+02  0.1146E+04
      3.549  0.1940E+02  0.1152E+04
      3.810  0.1902E+01  0.1152E+04
      4.071  0.2376E+01  0.1153E+04
      4.331  0.4586E+01  0.1154E+04
      4.592  0.1565E+01  0.1154E+04
      4.853  0.5259E+01  0.1156E+04
      5.114  0.1082E+02  0.1158E+04
      5.374  0.2159E+02  0.1164E+04
      5.635  0.1777E+02  0.1169E+04
      5.896  0.2426E+02  0.1175E+04
      6.157  0.3183E+02  0.1183E+04
      6.417  0.3247E+02  0.1192E+04
      6.678  0.3156E+02  0.1200E+04
      6.939  0.3638E+02  0.1210E+04
      7.200  0.4864E+02  0.1222E+04
      7.460  0.5074E+02  0.1235E+04
      7.721  0.5397E+02  0.1249E+04
      7.982  0.4892E+02  0.1262E+04
      8.243  0.2040E+02  0.1268E+04
      8.503  0.1656E+01  0.1268E+04
      8.764  0.1222E-01  0.1268E+04
      9.025  0.4846E-05  0.1268E+04
      9.285  0.7962E-10  0.1268E+04
      9.546  0.0000E+00  0.1268E+04
      9.807  0.0000E+00  0.1268E+04
     10.068  0.0000E+00  0.1268E+04
     10.328  0.0000E+00  0.1268E+04
     10.589  0.0000E+00  0.1268E+04
     10.850  0.0000E+00  0.1268E+04
     11.111  0.0000E+00  0.1268E+04
     11.371  0.0000E+00  0.1268E+04
     11.632  0.0000E+00  0.1268E+04
