       N       E                     dE             d eps       ncg     rms          rms(c)
DAV:   1     0.856847077382E+04    0.85685E+04   -0.49827E+05  1184   0.152E+03
DAV:   2     0.474701960899E+03   -0.80938E+04   -0.78055E+04  1024   0.480E+02
DAV:   3    -0.347996828926E+03   -0.82270E+03   -0.77950E+03  1152   0.155E+02
DAV:   4    -0.394733404112E+03   -0.46737E+02   -0.46164E+02  1120   0.339E+01
DAV:   5    -0.396291142273E+03   -0.15577E+01   -0.15558E+01  1240   0.654E+00    0.826E+01
DAV:   6    -0.529483843232E+03   -0.13319E+03   -0.10949E+03  1160   0.129E+02    0.183E+02
DAV:   7    -0.377952489357E+03    0.15153E+03   -0.20059E+02  1128   0.617E+01    0.790E+01
DAV:   8    -0.373808982411E+03    0.41435E+01   -0.18690E+02  1368   0.781E+01    0.893E+01
DAV:   9    -0.360601499666E+03    0.13207E+02   -0.11334E+02  1264   0.560E+01    0.665E+01
DAV:  10    -0.369128301625E+03   -0.85268E+01   -0.61050E+01  1344   0.422E+01    0.101E+02
DAV:  11    -0.364153885575E+03    0.49744E+01   -0.41015E+01  1280   0.239E+01    0.736E+01
DAV:  12    -0.353664579207E+03    0.10489E+02   -0.44708E+01  1328   0.282E+01    0.437E+01
DAV:  13    -0.347826403287E+03    0.58382E+01   -0.18620E+01  1320   0.249E+01    0.442E+01
DAV:  14    -0.347698069066E+03    0.12833E+00   -0.22394E+01  1288   0.205E+01    0.318E+01
DAV:  15    -0.345535217398E+03    0.21629E+01   -0.58581E+00  1184   0.163E+01    0.263E+01
DAV:  16    -0.344050859013E+03    0.14844E+01   -0.41040E+00  1288   0.109E+01    0.209E+01
DAV:  17    -0.343035756144E+03    0.10151E+01   -0.21844E+00  1280   0.976E+00    0.184E+01
DAV:  18    -0.342346838032E+03    0.68892E+00   -0.19806E+00  1304   0.776E+00    0.160E+01
DAV:  19    -0.341771942835E+03    0.57490E+00   -0.12779E+00  1288   0.628E+00    0.116E+01
DAV:  20    -0.341480109002E+03    0.29183E+00   -0.63026E-01  1312   0.520E+00    0.925E+00
DAV:  21    -0.341297605910E+03    0.18250E+00   -0.36765E-01  1312   0.390E+00    0.730E+00
DAV:  22    -0.341307802284E+03   -0.10196E-01   -0.36135E-01  1216   0.379E+00    0.711E+00
DAV:  23    -0.341333953885E+03   -0.26152E-01   -0.39449E-01  1312   0.392E+00    0.817E+00
DAV:  24    -0.341164012234E+03    0.16994E+00   -0.18207E-01  1136   0.221E+00    0.393E+00
DAV:  25    -0.341246445713E+03   -0.82433E-01   -0.19957E-01  1336   0.315E+00    0.550E+00
DAV:  26    -0.341170497948E+03    0.75948E-01   -0.17822E-01  1224   0.278E+00    0.313E+00
DAV:  27    -0.341189164007E+03   -0.18666E-01   -0.84553E-02  1304   0.178E+00    0.399E+00
DAV:  28    -0.341172567185E+03    0.16597E-01   -0.45120E-02  1280   0.119E+00    0.378E+00
DAV:  29    -0.341158107255E+03    0.14460E-01   -0.29885E-02  1304   0.106E+00    0.316E+00
DAV:  30    -0.341133337784E+03    0.24769E-01   -0.34826E-02  1352   0.818E-01    0.143E+00
DAV:  31    -0.341132158014E+03    0.11798E-02   -0.10691E-02  1320   0.693E-01    0.102E+00
DAV:  32    -0.341132465523E+03   -0.30751E-03   -0.57342E-03  1216   0.451E-01    0.108E+00
DAV:  33    -0.341130818178E+03    0.16473E-02   -0.26112E-03  1240   0.351E-01    0.817E-01
DAV:  34    -0.341129830714E+03    0.98746E-03   -0.15964E-03  1152   0.222E-01    0.514E-01
DAV:  35    -0.341129881968E+03   -0.51254E-04   -0.21343E-03  1168   0.274E-01    0.356E-01
DAV:  36    -0.341130084961E+03   -0.20299E-03   -0.11302E-03  1112   0.214E-01    0.259E-01
DAV:  37    -0.341130244566E+03   -0.15961E-03   -0.69711E-04   968   0.169E-01    0.210E-01
DAV:  38    -0.341130401418E+03   -0.15685E-03   -0.33941E-04   736   0.123E-01    0.127E-01
DAV:  39    -0.341130711783E+03   -0.31037E-03   -0.14905E-04   592   0.940E-02    0.142E-01
DAV:  40    -0.341131104622E+03   -0.39284E-03   -0.13473E-04   648   0.816E-02    0.800E-02
DAV:  41    -0.341131567243E+03   -0.46262E-03   -0.16393E-04   624   0.839E-02    0.105E-01
DAV:  42    -0.341132263481E+03   -0.69624E-03   -0.20705E-04   752   0.703E-02    0.660E-02
DAV:  43    -0.341132621153E+03   -0.35767E-03   -0.75533E-05   608   0.455E-02    0.596E-02
DAV:  44    -0.341132846768E+03   -0.22561E-03   -0.53872E-05   592   0.424E-02    0.431E-02
DAV:  45    -0.341133324185E+03   -0.47742E-03   -0.52081E-05   640   0.233E-02    0.493E-02
DAV:  46    -0.341133445009E+03   -0.12082E-03   -0.35319E-05   600   0.311E-02    0.366E-02
DAV:  47    -0.341133642599E+03   -0.19759E-03   -0.29607E-05   608   0.235E-02    0.297E-02
DAV:  48    -0.341133672367E+03   -0.29768E-04   -0.17025E-05   584   0.136E-02
   1 F= -.34113367E+03 E0= -.34044554E+03  d E =-.137627E+01
