"Millerite NiS"                         
           1
    16.884694    0.000000    0.000000
     0.000000    9.578410    0.000000
     0.000000    0.000000   16.173863
   Ni   S 
    36    36
Direct configuration=     1
   0.06497261  0.92341313  0.30979220
   0.09954057  0.92341313  0.11908059
   0.58225659  0.42341313  0.21443640
   0.61682455  0.42341313  0.02372478
   0.23740060  0.42341313  0.27800694
   0.27196856  0.42341313  0.08729532
   0.72011663  0.92341313  0.37336274
   0.75468458  0.92341313  0.18265113
   0.40982860  0.92341313  0.24622167
   0.44439655  0.92341313  0.05551005
   0.89254462  0.42341313  0.34157747
   0.92711258  0.42341313  0.15086586
   0.42015216  0.55551613  0.37995444
   0.45472012  0.55551613  0.18924282
   0.93743614  0.05551613  0.28459863
   0.97200410  0.05551613  0.09388701
   0.10986414  0.55551613  0.25281336
   0.14443209  0.55551613  0.06210174
   0.59258016  0.05551613  0.34816917
   0.62714811  0.05551613  0.15745755
   0.28229213  0.05551613  0.22102809
   0.31686009  0.05551613  0.03031647
   0.76500815  0.55551613  0.31638390
   0.79957611  0.55551613  0.12567228
   0.06497261  0.18761913  0.30979220
   0.09954057  0.18761913  0.11908059
   0.58225659  0.68761913  0.21443640
   0.61682455  0.68761913  0.02372478
   0.23740060  0.68761913  0.27800694
   0.27196856  0.68761913  0.08729532
   0.72011663  0.18761913  0.37336274
   0.75468458  0.18761913  0.18265113
   0.40982860  0.18761913  0.24622167
   0.44439655  0.18761913  0.05551005
   0.89254462  0.68761913  0.34157747
   0.92711258  0.68761913  0.15086586
   0.02101885  0.22373113  0.00000000
   0.46916691  0.72373113  0.28606742
   0.95188293  0.22373113  0.38142323
   0.98645089  0.22373113  0.19071162
   0.12431093  0.72373113  0.34963796
   0.15887888  0.72373113  0.15892635
   0.64159490  0.22373113  0.25428215
   0.67616286  0.22373113  0.06357054
   0.29673892  0.22373113  0.31785269
   0.33130688  0.22373113  0.12714108
   0.81402290  0.72373113  0.22249689
   0.84859085  0.72373113  0.03178527
   0.14885104  0.05551613  0.22279217
   0.18341900  0.05551613  0.03208056
   0.63156706  0.55551613  0.31814798
   0.66613502  0.55551613  0.12743636
   0.28671108  0.55551613  0.38171852
   0.32127903  0.55551613  0.19100690
   0.35584699  0.55551613  0.00029528
   0.80399506  0.05551613  0.28636271
   0.83856301  0.05551613  0.09565109
   0.01099101  0.55551613  0.06386582
   0.49370703  0.05551613  0.15922163
   0.97642305  0.55551613  0.25457744
   0.02101885  0.88730113  0.00000000
   0.46916691  0.38730113  0.28606742
   0.95188293  0.88730113  0.38142323
   0.98645089  0.88730113  0.19071162
   0.12431093  0.38730113  0.34963796
   0.15887888  0.38730113  0.15892635
   0.64159490  0.88730113  0.25428215
   0.67616286  0.88730113  0.06357054
   0.29673892  0.88730113  0.31785269
   0.33130688  0.88730113  0.12714108
   0.81402290  0.38730113  0.22249689
   0.84859085  0.38730113  0.03178527
