LAMMPS data file via write_data, version 5 Jun 2019, timestep = 101

52 atoms
2 atom types

0.0000000000000000e+00 1.1256463038200000e+01 xlo xhi
0.0000000000000000e+00 9.5784099999999999e+00 ylo yhi
0.0000000000000000e+00 1.7192492404700001e+01 zlo zhi
0.0000000000000000e+00 0.0000000000000000e+00 0.0000000000000000e+00 xy xz yz

Masses

1 58.71
2 32.06

Atoms # atomic

1 1 4.9453580762999998e+00 4.4433094293000002e+00 2.7995183711000000e+00 0 0 0
2 1 5.0887105681458804e+00 4.9993449668166310e+00 5.2170093754402505e+00 0 0 0
3 1 1.7983649427368229e+00 3.4139112305779423e-01 2.5527452115461231e+00 0 1 0
4 1 3.3131629121270905e+00 1.0632700706497547e+00 4.4563361540327664e+00 0 1 0
5 1 4.9791479637390212e+00 1.9242200340366633e+00 3.0505914364445568e+00 0 0 0
6 1 5.5440610219679245e+00 2.0086845604848080e+00 5.6886933985729327e+00 0 0 0
7 1 1.4299623986909176e+00 5.9211784347612291e+00 2.3238717331549634e+00 0 0 0
8 1 2.4936842957337708e+00 6.7318938029624320e+00 4.2443834226386974e+00 0 0 0
9 1 1.4705409881000000e+00 3.1779727330999998e+00 2.3920409138999998e+00 0 0 0
10 1 2.0542103667000000e+00 3.1779727330999998e+00 5.4765844701999997e+00 0 0 0
11 1 5.9270407287048634e+00 6.4028466627816654e+00 1.9323729317730567e+00 0 0 0
12 1 4.5764913469000001e+00 7.9671777330999998e+00 3.9343126834000000e+00 0 0 0
13 1 3.1366894615640692e+00 8.6866310578136403e+00 5.8790174057171267e+00 0 0 0
14 1 1.0573589595400000e+01 4.4433094293000002e+00 2.7995183711000000e+00 0 0 0
15 1 1.0992383287023900e+01 4.5785203987379539e+00 5.4972130119481131e+00 0 0 0
16 1 8.3122751503694285e+00 7.9327438266231916e+00 1.8322132913959583e+00 0 0 0
17 1 8.0559188511430193e+00 9.2876915066471160e+00 4.1339590388045959e+00 0 0 0
18 1 1.0573589595400000e+01 1.9126360368999999e+00 2.7995183711000000e+00 0 0 0
19 1 1.1044009457397662e+01 1.8482351859511719e+00 5.5553939301847386e+00 0 0 0
20 1 8.0231231521585862e+00 5.1473560742240929e+00 1.6611367062571212e+00 0 0 0
21 1 8.0077283181660146e+00 6.6479520801365313e+00 4.0901079427652212e+00 0 0 0
22 1 7.1426250579840627e+00 3.1849496810859046e+00 2.7754028664347414e+00 0 0 0
23 1 7.6824418858000003e+00 3.1779727330999998e+00 5.4765844701999997e+00 0 0 0
24 1 1.1100671813624967e+01 8.9913551216473628e+00 1.6569074925891318e+00 0 0 0
25 1 1.0204722865999999e+01 7.9671777330999998e+00 3.9343126834000000e+00 0 0 0
26 1 8.8860413519183687e+00 7.9925753520239402e+00 6.0494862692657048e+00 0 0 0
27 2 5.8029282721329245e-01 1.3920026340891378e+00 1.2673777876212422e+00 0 0 0
28 2 1.2549722353999999e+00 1.5667404949999999e+00 4.1079488450000001e+00 0 0 0
29 2 2.5661307266873234e+00 1.0928947378006220e+00 6.3774818345835467e+00 0 0 0
30 2 3.7772532155999996e+00 6.3559454950000003e+00 2.5656770582999990e+00 0 0 0
31 2 4.0327569554470752e+00 6.8076340099374830e+00 5.6164540728003001e+00 0 0 0
32 2 5.6307941983027876e-01 4.5228823235481919e+00 1.1526756540650416e+00 0 0 0
33 2 1.2549722353999999e+00 4.7892049713000002e+00 4.1079488450000001e+00 0 0 0
34 2 5.4844661791583971e-01 3.2623036513836445e+00 6.8286506937636560e+00 0 0 0
35 2 3.7772532155999996e+00 9.5784099712999993e+00 2.5656770582999990e+00 0 -1 0
36 2 4.9126148748594733e+00 9.5490767385944402e+00 5.3423284711248531e+00 0 -1 0
37 2 3.5416792091653062e+00 3.0373279814387626e+00 1.9948126083151267e+00 0 0 0
38 2 4.1411267131000002e+00 3.1779727330999998e+00 4.6268153430999996e+00 0 0 0
39 2 1.0351763544000001e+00 7.9671777330999998e+00 3.0845435562999990e+00 0 0 0
40 2 6.8832037545000002e+00 1.5667404949999999e+00 4.1079488450000001e+00 0 0 0
41 2 7.2806281659514340e+00 1.6504828419371256e+00 6.7434160608992944e+00 0 0 0
42 2 9.4054847346999999e+00 6.3559454950000003e+00 2.5656770582999990e+00 0 0 0
43 2 9.8051826195845813e+00 6.3576550177195026e+00 5.3248089257620759e+00 0 0 0
44 2 6.1982681105047677e+00 4.3083366947789346e+00 1.1924919128562987e+00 0 0 0
45 2 6.8832037545000002e+00 4.7892049713000002e+00 4.1079488450000001e+00 0 0 0
46 2 6.0620159894992023e+00 3.8447767144306755e+00 6.6055445556850501e+00 0 0 0
47 2 9.4054847346999999e+00 9.5784099712999993e+00 2.5656770582999990e+00 0 -1 0
48 2 9.8505130317316389e+00 2.7347305636417966e-02 5.3162957342461690e+00 0 0 0
49 2 9.0792780609953407e+00 3.2710489642675817e+00 1.8991755628219922e+00 0 0 0
50 2 9.7693582322000001e+00 3.1779727330999998e+00 4.6268153430999996e+00 0 0 0
51 2 7.3422564129793297e+00 6.7327513975761359e+00 4.7343789383890461e-01 0 0 0
52 2 6.6634078734999997e+00 7.9671777330999998e+00 3.0845435562999990e+00 0 0 0

Velocities

1 0.0000000000000000e+00 0.0000000000000000e+00 0.0000000000000000e+00
2 0.0000000000000000e+00 0.0000000000000000e+00 0.0000000000000000e+00
3 0.0000000000000000e+00 0.0000000000000000e+00 0.0000000000000000e+00
4 0.0000000000000000e+00 0.0000000000000000e+00 0.0000000000000000e+00
5 0.0000000000000000e+00 0.0000000000000000e+00 0.0000000000000000e+00
6 0.0000000000000000e+00 0.0000000000000000e+00 0.0000000000000000e+00
7 0.0000000000000000e+00 0.0000000000000000e+00 0.0000000000000000e+00
8 0.0000000000000000e+00 0.0000000000000000e+00 0.0000000000000000e+00
9 0.0000000000000000e+00 0.0000000000000000e+00 0.0000000000000000e+00
10 0.0000000000000000e+00 0.0000000000000000e+00 0.0000000000000000e+00
11 0.0000000000000000e+00 0.0000000000000000e+00 0.0000000000000000e+00
12 0.0000000000000000e+00 0.0000000000000000e+00 0.0000000000000000e+00
13 0.0000000000000000e+00 0.0000000000000000e+00 0.0000000000000000e+00
14 0.0000000000000000e+00 0.0000000000000000e+00 0.0000000000000000e+00
15 0.0000000000000000e+00 0.0000000000000000e+00 0.0000000000000000e+00
16 0.0000000000000000e+00 0.0000000000000000e+00 0.0000000000000000e+00
17 0.0000000000000000e+00 0.0000000000000000e+00 0.0000000000000000e+00
18 0.0000000000000000e+00 0.0000000000000000e+00 0.0000000000000000e+00
19 0.0000000000000000e+00 0.0000000000000000e+00 0.0000000000000000e+00
20 0.0000000000000000e+00 0.0000000000000000e+00 0.0000000000000000e+00
21 0.0000000000000000e+00 0.0000000000000000e+00 0.0000000000000000e+00
22 0.0000000000000000e+00 0.0000000000000000e+00 0.0000000000000000e+00
23 0.0000000000000000e+00 0.0000000000000000e+00 0.0000000000000000e+00
24 0.0000000000000000e+00 0.0000000000000000e+00 0.0000000000000000e+00
25 0.0000000000000000e+00 0.0000000000000000e+00 0.0000000000000000e+00
26 0.0000000000000000e+00 0.0000000000000000e+00 0.0000000000000000e+00
27 0.0000000000000000e+00 0.0000000000000000e+00 0.0000000000000000e+00
28 0.0000000000000000e+00 0.0000000000000000e+00 0.0000000000000000e+00
29 0.0000000000000000e+00 0.0000000000000000e+00 0.0000000000000000e+00
30 0.0000000000000000e+00 0.0000000000000000e+00 0.0000000000000000e+00
31 0.0000000000000000e+00 0.0000000000000000e+00 0.0000000000000000e+00
32 0.0000000000000000e+00 0.0000000000000000e+00 0.0000000000000000e+00
33 0.0000000000000000e+00 0.0000000000000000e+00 0.0000000000000000e+00
34 0.0000000000000000e+00 0.0000000000000000e+00 0.0000000000000000e+00
35 0.0000000000000000e+00 0.0000000000000000e+00 0.0000000000000000e+00
36 0.0000000000000000e+00 0.0000000000000000e+00 0.0000000000000000e+00
37 0.0000000000000000e+00 0.0000000000000000e+00 0.0000000000000000e+00
38 0.0000000000000000e+00 0.0000000000000000e+00 0.0000000000000000e+00
39 0.0000000000000000e+00 0.0000000000000000e+00 0.0000000000000000e+00
40 0.0000000000000000e+00 0.0000000000000000e+00 0.0000000000000000e+00
41 0.0000000000000000e+00 0.0000000000000000e+00 0.0000000000000000e+00
42 0.0000000000000000e+00 0.0000000000000000e+00 0.0000000000000000e+00
43 0.0000000000000000e+00 0.0000000000000000e+00 0.0000000000000000e+00
44 0.0000000000000000e+00 0.0000000000000000e+00 0.0000000000000000e+00
45 0.0000000000000000e+00 0.0000000000000000e+00 0.0000000000000000e+00
46 0.0000000000000000e+00 0.0000000000000000e+00 0.0000000000000000e+00
47 0.0000000000000000e+00 0.0000000000000000e+00 0.0000000000000000e+00
48 0.0000000000000000e+00 0.0000000000000000e+00 0.0000000000000000e+00
49 0.0000000000000000e+00 0.0000000000000000e+00 0.0000000000000000e+00
50 0.0000000000000000e+00 0.0000000000000000e+00 0.0000000000000000e+00
51 0.0000000000000000e+00 0.0000000000000000e+00 0.0000000000000000e+00
52 0.0000000000000000e+00 0.0000000000000000e+00 0.0000000000000000e+00
