 vasp.5.4.4.18Apr17-6-g9f103f2a35 (build Aug 13 2019 17:33:20) gamma-only       
  
 executed on             LinuxIFC date 2020.05.11  17:53:28
 running on   12 total cores
 distrk:  each k-point on   12 cores,    1 groups
 distr:  one band on NCORES_PER_BAND=   6 cores,    2 groups


--------------------------------------------------------------------------------------------------------


 INCAR:
 POTCAR:    PAW_PBE Ni_pv 06Sep2000               
 POTCAR:    PAW_PBE S 06Sep2000                   
 POTCAR:    PAW_PBE Ni_pv 06Sep2000               
   VRHFIN =Ni:                                                                  
   LEXCH  = PE                                                                  
   EATOM  =  3501.1230 eV,  257.3253 Ry                                         
                                                                                
   TITEL  = PAW_PBE Ni_pv 06Sep2000                                             
   LULTRA =        F    use ultrasoft PP ?                                      
   IUNSCR =        1    unscreen: 0-lin 1-nonlin 2-no                           
   RPACOR =    1.500    partial core radius                                     
   POMASS =   58.690; ZVAL   =   16.000    mass and valenz                      
   RCORE  =    2.000    outmost cutoff radius                                   
   RWIGS  =    2.000; RWIGS  =    1.058    wigner-seitz radius (au A)           
   ENMAX  =  367.986; ENMIN  =  275.989 eV                                      
   RCLOC  =    1.301    cutoff for local pot                                    
   LCOR   =        T    correct aug charges                                     
   LPAW   =        T    paw PP                                                  
   EAUG   =  703.443                                                            
   DEXC   =    0.000                                                            
   RMAX   =    2.041    core radius for proj-oper                               
   RAUG   =    1.300    factor for augmentation sphere                          
   RDEP   =    2.103    radius for radial grids                                 
   RDEPT  =    1.618    core radius for aug-charge                              
                                                                                
   Atomic configuration                                                         
    8 entries                                                                   
     n  l   j            E        occ.                                          
     1  0  0.50     -8206.4253   2.0000                                         
     2  0  0.50      -976.1748   2.0000                                         
     2  1  1.50      -839.0571   6.0000                                         
     3  0  0.50      -105.9991   2.0000                                         
     3  1  1.50       -66.4603   6.0000                                         
     3  2  2.50        -4.6458   9.0000                                         
     4  0  0.50        -4.4926   1.0000                                         
     4  3  2.50        -1.3606   0.0000                                         
   Description                                                                  
     l       E           TYP  RCUT    TYP  RCUT                                 
     1    -66.4602962     23  1.700                                             
     1     -1.3605826     23  1.700                                             
     2     -4.6457867     23  2.000                                             
     2     -6.0063693     23  2.000                                             
     0     -4.4925576     23  1.900                                             
     0     16.3626226     23  1.900                                             
  local pseudopotential read in
  partial core-charges read in
  partial kinetic energy density read in
  atomic valenz-charges read in
  non local Contribution for L=           1  read in
    real space projection operators read in
  non local Contribution for L=           1  read in
    real space projection operators read in
  non local Contribution for L=           2  read in
    real space projection operators read in
  non local Contribution for L=           2  read in
    real space projection operators read in
  non local Contribution for L=           0  read in
    real space projection operators read in
  non local Contribution for L=           0  read in
    real space projection operators read in
    PAW grid and wavefunctions read in
 
   number of l-projection  operators is LMAX  =           6
   number of lm-projection operators is LMMAX =          18
 
 POTCAR:    PAW_PBE S 06Sep2000                   
   VRHFIN =S : s2p4                                                             
   LEXCH  = PE                                                                  
   EATOM  =   276.8230 eV,   20.3459 Ry                                         
                                                                                
   TITEL  = PAW_PBE S 06Sep2000                                                 
   LULTRA =        F    use ultrasoft PP ?                                      
   IUNSCR =        1    unscreen: 0-lin 1-nonlin 2-no                           
   RPACOR =    1.500    partial core radius                                     
   POMASS =   32.066; ZVAL   =    6.000    mass and valenz                      
   RCORE  =    1.900    outmost cutoff radius                                   
   RWIGS  =    2.200; RWIGS  =    1.164    wigner-seitz radius (au A)           
   ENMAX  =  258.689; ENMIN  =  194.016 eV                                      
   ICORE  =        2    local potential                                         
   LCOR   =        T    correct aug charges                                     
   LPAW   =        T    paw PP                                                  
   EAUG   =  335.092                                                            
   DEXC   =    0.000                                                            
   RMAX   =    1.942    core radius for proj-oper                               
   RAUG   =    1.300    factor for augmentation sphere                          
   RDEP   =    1.954    radius for radial grids                                 
   RDEPT  =    1.744    core radius for aug-charge                              
                                                                                
   Atomic configuration                                                         
    6 entries                                                                   
     n  l   j            E        occ.                                          
     1  0  0.50     -2405.8406   2.0000                                         
     2  0  0.50      -211.7007   2.0000                                         
     2  1  1.50      -156.4958   6.0000                                         
     3  0  0.50       -17.2562   2.0000                                         
     3  1  0.50        -7.0085   4.0000                                         
     3  2  1.50        -6.8029   0.0000                                         
   Description                                                                  
     l       E           TYP  RCUT    TYP  RCUT                                 
     0    -17.2561641     23  1.900                                             
     0    -15.8743224     23  1.900                                             
     1     -7.0085400     23  1.900                                             
     1     -2.7779785     23  1.900                                             
     2     -6.8029130     23  1.900                                             
  local pseudopotential read in
  partial core-charges read in
  partial kinetic energy density read in
  atomic valenz-charges read in
  non local Contribution for L=           0  read in
    real space projection operators read in
  non local Contribution for L=           0  read in
    real space projection operators read in
  non local Contribution for L=           1  read in
    real space projection operators read in
  non local Contribution for L=           1  read in
    real space projection operators read in
    PAW grid and wavefunctions read in
 
   number of l-projection  operators is LMAX  =           4
   number of lm-projection operators is LMMAX =           8
 
 Optimization of the real space projectors (new method)

 maximal supplied QI-value         = 18.90
 optimisation between [QCUT,QGAM] = [ 10.77, 21.73] = [ 32.49,132.25] Ry 
 Optimized for a Real-space Cutoff    1.38 Angstroem

   l    n(q)    QCUT    max X(q) W(low)/X(q) W(high)/X(q)  e(spline) 
   1      8    10.771     2.836    0.40E-04    0.29E-04    0.12E-06
   1      8    10.771     4.023    0.10E-03    0.48E-04    0.29E-06
   2      8    10.771    73.368    0.42E-03    0.97E-04    0.44E-06
   2      8    10.771    69.010    0.42E-03    0.99E-04    0.45E-06
   0      9    10.771    54.797    0.10E-03    0.56E-04    0.74E-07
   0      9    10.771    24.266    0.89E-04    0.49E-04    0.67E-07
 Optimization of the real space projectors (new method)

 maximal supplied QI-value         = 19.84
 optimisation between [QCUT,QGAM] = [ 10.71, 21.63] = [ 32.15,130.99] Ry 
 Optimized for a Real-space Cutoff    1.19 Angstroem

   l    n(q)    QCUT    max X(q) W(low)/X(q) W(high)/X(q)  e(spline) 
   0      8    10.715   187.594    0.41E-03    0.53E-04    0.66E-07
   0      8    10.715   164.243    0.41E-03    0.53E-04    0.65E-07
   1      7    10.715    67.533    0.19E-03    0.59E-03    0.68E-07
   1      7    10.715    50.729    0.19E-03    0.58E-03    0.67E-07
  PAW_PBE Ni_pv 06Sep2000               :
 energy of atom  1       EATOM=-3501.1230
 kinetic energy error for atom=    0.0925 (will be added to EATOM!!)
  PAW_PBE S 06Sep2000                   :
 energy of atom  2       EATOM= -276.8230
 kinetic energy error for atom=    0.0033 (will be added to EATOM!!)
 
 
 POSCAR: Type_036 Type_136                       
  positions in cartesian coordinates
  No initial velocities read in
 exchange correlation table for  LEXCH =        8
   RHO(1)=    0.500       N(1)  =     2000
   RHO(2)=  100.500       N(2)  =     4000
 


--------------------------------------------------------------------------------------------------------


 ion  position               nearest neighbor table
   1  0.762  0.211  0.134-  63 2.04  41 2.07  50 2.12  49 2.12   2 2.45  24 2.49  42 2.50
   2  0.819  0.167  0.271-  64 2.04  50 2.09  42 2.10   1 2.45
   3  0.215  0.619  0.095-  43 2.03  44 2.12  61 2.16   4 2.41  15 2.50  51 2.51
   4  0.297  0.645  0.216-  62 2.14  52 2.16  44 2.25  51 2.26  61 2.26   3 2.41  28 2.53  16 2.53

   5  0.386  0.120  0.126-  45 2.04  46 2.13  67 2.19   6 2.44  18 2.51  53 2.52  22 2.53
   6  0.470  0.145  0.248-  54 2.11  68 2.12  46 2.25  53 2.26  67 2.26   5 2.44  31 2.53  19 2.53

   7  0.952  0.645  0.152-  66 2.01  56 2.07  47 2.20  55 2.36  65 2.36  32 2.53  20 2.53
   8  0.964  0.645  0.312-  55 2.03  65 2.03  48 2.05
   9  0.125  0.145  0.184-  57 2.11  71 2.11  38 2.14  10 2.34  58 2.36  72 2.36  34 2.53  22 2.53

  10  0.107  0.146  0.328-  37 2.02  58 2.12  72 2.13   9 2.34
  11  0.569  0.661  0.161-  39 2.00  59 2.13  40 2.14  12 2.29  69 2.33
  12  0.642  0.645  0.280-  70 2.04  60 2.04  59 2.11  40 2.25  69 2.26  11 2.29  36 2.53  25 2.53

  13  0.914  0.981  0.121-  63 2.00  56 2.05  64 2.08  38 2.11  14 2.42
  14  0.947  0.015  0.265-  37 2.05  38 2.11  55 2.16  64 2.18  13 2.42  26 2.50
  15  0.358  0.644  0.058-  39 2.02  61 2.04  51 2.06  27 2.49   3 2.50
  16  0.425  0.513  0.191-  62 2.14  53 2.25  39 2.26  61 2.26  40 2.36  17 2.44  28 2.53   4 2.53

  17  0.465  0.465  0.333-  54 2.00  62 2.05  40 2.08  16 2.44
  18  0.529  0.147  0.089-  53 2.03  41 2.04  67 2.06   5 2.51
  19  0.597  0.013  0.223-  68 2.05  59 2.16  42 2.25  67 2.26  41 2.26   6 2.53  31 2.53
  20  0.080  0.513  0.127-  66 2.03  43 2.07  57 2.10  44 2.36  65 2.36   7 2.53  32 2.53
  21  0.113  0.501  0.291-  65 2.02  44 2.05  58 2.08
  22  0.252  0.013  0.159-  45 2.07  71 2.09  51 2.25  46 2.36  72 2.36  23 2.50   9 2.53  34 2.53
                             5 2.53
  23  0.293  0.973  0.306-  52 2.04  46 2.05  72 2.06  22 2.50
  24  0.767  0.468  0.112-  49 2.02  47 2.10  69 2.19  50 2.21  25 2.35   1 2.49
  25  0.770  0.513  0.254-  70 2.03  48 2.12  50 2.16  47 2.17  69 2.26  24 2.35  12 2.53  36 2.53

  26  0.954  0.273  0.243-  37 2.06  38 2.08  65 2.12  50 2.19  14 2.50
  27  0.415  0.884  0.059-  67 2.09  51 2.10  28 2.37  15 2.49  39 2.54
  28  0.425  0.777  0.191-  52 2.15  67 2.25  39 2.26  51 2.26  40 2.36  27 2.37  29 2.41  16 2.53
                             4 2.53
  29  0.470  0.834  0.328-  68 2.00  52 2.06  40 2.09  28 2.41
  30  0.635  0.350  0.080-  49 2.04  41 2.07  69 2.09  31 2.49
  31  0.597  0.277  0.223-  54 2.07  42 2.14  69 2.25  53 2.26  41 2.26  30 2.49   6 2.53  19 2.53

  32  0.080  0.777  0.127-  43 2.06  56 2.08  71 2.11  44 2.36  55 2.36   7 2.53  20 2.53
  33  0.113  0.789  0.291-  55 2.03  44 2.05  72 2.09
  34  0.252  0.277  0.159-  45 2.06  57 2.09  61 2.25  46 2.36  58 2.36   9 2.53  22 2.53
  35  0.291  0.311  0.310-  62 2.04  58 2.04  46 2.04
  36  0.770  0.777  0.254-  60 2.02  48 2.10  47 2.17  59 2.20  64 2.25  12 2.53  25 2.53
  37  0.989  0.162  0.346-  10 2.02  14 2.05  26 2.06
  38  0.000  0.121  0.165-  26 2.08  13 2.11  14 2.11   9 2.14
  39  0.474  0.645  0.087-  11 2.00  15 2.02  28 2.26  16 2.26  27 2.54
  40  0.509  0.645  0.278-  17 2.08  29 2.09  11 2.14  12 2.25  28 2.36  16 2.36
  41  0.647  0.145  0.119-  18 2.04  30 2.07   1 2.07  31 2.26  19 2.26  42 2.53
  42  0.695  0.155  0.267-   2 2.10  31 2.14  19 2.25   1 2.50  41 2.53
  43  0.113  0.646  0.032-   3 2.03  32 2.06  20 2.07
  44  0.164  0.645  0.214-  21 2.05  33 2.05   3 2.12   4 2.25  32 2.36  20 2.36
  45  0.282  0.146  0.063-   5 2.04  34 2.06  22 2.07
  46  0.336  0.145  0.246-  35 2.04  23 2.05   5 2.13   6 2.25  34 2.36  22 2.36
  47  0.822  0.646  0.160-  24 2.10  36 2.17  25 2.17   7 2.20  48 2.67
  48  0.844  0.647  0.324-   8 2.05  36 2.10  25 2.12  47 2.67
  49  0.742  0.326  0.024-  24 2.02  30 2.04   1 2.12  63 2.76
  50  0.838  0.346  0.201-   2 2.09   1 2.12  25 2.16  26 2.19  24 2.21
  51  0.312  0.814  0.119-  15 2.06  27 2.10  22 2.25   4 2.26  28 2.26   3 2.51
  52  0.353  0.789  0.301-  23 2.04  29 2.06  28 2.15   4 2.16
  53  0.484  0.314  0.151-  18 2.03  16 2.25  31 2.26   6 2.26   5 2.52
  54  0.527  0.288  0.327-  17 2.00  31 2.07   6 2.11  68 2.65
  55  0.001  0.814  0.246-  33 2.03   8 2.03  14 2.16   7 2.36  32 2.36
  56  0.970  0.811  0.072-  13 2.05   7 2.07  32 2.08
  57  0.141  0.324  0.110-  34 2.09  20 2.10   9 2.11  58 2.78
  58  0.174  0.314  0.278-  35 2.04  21 2.08  10 2.12   9 2.36  34 2.36  57 2.78
  59  0.653  0.815  0.197-  12 2.11  11 2.13  19 2.16  36 2.20  60 2.68
  60  0.699  0.784  0.355-  36 2.02  12 2.04  59 2.68  70 2.77
  61  0.312  0.477  0.119-  15 2.04   3 2.16  34 2.25   4 2.26  16 2.26
  62  0.350  0.495  0.297-  35 2.04  17 2.05  16 2.14   4 2.14
  63  0.833  0.094  0.059-  13 2.00   1 2.04  64 2.75  49 2.76
  64  0.829  0.977  0.214-   2 2.04  13 2.08  14 2.18  36 2.25  63 2.75
  65  0.001  0.477  0.246-  21 2.02   8 2.03  26 2.12   7 2.36  20 2.36
  66  0.974  0.493  0.070-   7 2.01  20 2.03
  67  0.484  0.977  0.151-  18 2.06  27 2.09   5 2.19  28 2.25  19 2.26   6 2.26
  68  0.532  0.012  0.329-  29 2.00  19 2.05   6 2.12  54 2.65
  69  0.657  0.477  0.183-  30 2.09  24 2.19  31 2.25  25 2.26  12 2.26  11 2.33
  70  0.694  0.495  0.351-  25 2.03  12 2.04  60 2.77
  71  0.141  0.967  0.109-  22 2.09  32 2.11   9 2.11  72 2.78
  72  0.174  0.977  0.278-  23 2.06  33 2.09  10 2.13   9 2.36  22 2.36  71 2.78
 
  LATTYP: Found a simple orthorhombic cell.
 ALAT       =     9.5784100000
 B/A-ratio  =     1.6880763216
 C/A-ratio  =     1.7627867312
  
  Lattice vectors:
  
 A1 = (   0.0000000000,   9.5784100000,   0.0000000000)
 A2 = (   0.0000000000,   0.0000000000, -16.1690871197)
 A3 = ( -16.8846940542,   0.0000000000,   0.0000000000)


Analysis of symmetry for initial positions (statically):
=====================================================================
 Subroutine PRICEL returns:
 Original cell was already a primitive cell.
 

 Routine SETGRP: Setting up the symmetry group for a 
 simple orthorhombic supercell.


 Subroutine GETGRP returns: Found  1 space group operations
 (whereof  1 operations were pure point group operations)
 out of a pool of  8 trial point group operations.


The static configuration has the point symmetry C_1 .


Analysis of symmetry for dynamics (positions and initial velocities):
=====================================================================
 Subroutine PRICEL returns:
 Original cell was already a primitive cell.
 

 Routine SETGRP: Setting up the symmetry group for a 
 simple orthorhombic supercell.


 Subroutine GETGRP returns: Found  1 space group operations
 (whereof  1 operations were pure point group operations)
 out of a pool of  8 trial point group operations.


The dynamic configuration has the point symmetry C_1 .


 Subroutine INISYM returns: Found  1 space group operations
 (whereof  1 operations are pure point group operations),
 and found     1 'primitive' translations

 
 
 KPOINTS: gamma-point-only calculation. no periodi

Automatic generation of k-mesh.
Space group operators:
 irot       det(A)        alpha          n_x          n_y          n_z        tau_x        tau_y        tau_z
    1     1.000000     0.000000     1.000000     0.000000     0.000000     0.000000     0.000000     0.000000
 
 Subroutine IBZKPT returns following result:
 ===========================================
 
 Found      1 irreducible k-points:
 
 Following reciprocal coordinates:
            Coordinates               Weight
  0.000000  0.000000  0.000000      1.000000
 
 Following cartesian coordinates:
            Coordinates               Weight
  0.000000  0.000000  0.000000      1.000000
 


--------------------------------------------------------------------------------------------------------




 Dimension of arrays:
   k-points           NKPTS =      1   k-points in BZ     NKDIM =      1   number of bands    NBANDS=    476
   number of dos      NEDOS =    301   number of ions     NIONS =     72
   non local maximal  LDIM  =      6   non local SUM 2l+1 LMDIM =     18
   total plane-waves  NPLWV = 378000
   max r-space proj   IRMAX =   1644   max aug-charges    IRDMAX=   4753
   dimension x,y,z NGX =    90 NGY =   50 NGZ =   84
   dimension x,y,z NGXF=   180 NGYF=  100 NGZF=  168
   support grid    NGXF=   180 NGYF=  100 NGZF=  168
   ions per type =              36  36
   NGX,Y,Z   is equivalent  to a cutoff of   8.86,  8.68,  8.64 a.u.
   NGXF,Y,Z  is equivalent  to a cutoff of  17.72, 17.36, 17.27 a.u.

 SYSTEM =  "Millerite NiS"                         
 POSCAR =  Type_036 Type_136                       

 Startparameter for this run:
   NWRITE =      2    write-flag & timer
   PREC   = normal    normal or accurate (medium, high low for compatibility)
   ISTART =      0    job   : 0-new  1-cont  2-samecut
   ICHARG =      2    charge: 1-file 2-atom 10-const
   ISPIN  =      1    spin polarized calculation?
   LNONCOLLINEAR =      F non collinear calculations
   LSORBIT =      F    spin-orbit coupling
   INIWAV =      1    electr: 0-lowe 1-rand  2-diag
   LASPH  =      F    aspherical Exc in radial PAW
   METAGGA=      F    non-selfconsistent MetaGGA calc.

 Electronic Relaxation 1
   ENCUT  =  450.0 eV  33.07 Ry    5.75 a.u.  29.20 16.57 27.97*2*pi/ulx,y,z
   ENINI  =  450.0     initial cutoff
   ENAUG  =  703.4 eV  augmentation charge cutoff
   NELM   =    100;   NELMIN=  2; NELMDL= -5     # of ELM steps 
   EDIFF  = 0.1E-03   stopping-criterion for ELM
   LREAL  =      T    real-space projection
   NLSPLINE    = F    spline interpolate recip. space projectors
   LCOMPAT=      F    compatible to vasp.4.4
   GGA_COMPAT  = T    GGA compatible to vasp.4.4-vasp.4.6
   LMAXPAW     = -100 max onsite density
   LMAXMIX     =    2 max onsite mixed and CHGCAR
   VOSKOWN=      0    Vosko Wilk Nusair interpolation
   ROPT   =   -0.00050  -0.00050
 Ionic relaxation
   EDIFFG = 0.1E-02   stopping-criterion for IOM
   NSW    =      0    number of steps for IOM
   NBLOCK =      1;   KBLOCK =      1    inner block; outer block 
   IBRION =     -1    ionic relax: 0-MD 1-quasi-New 2-CG
   NFREE  =      0    steps in history (QN), initial steepest desc. (CG)
   ISIF   =      2    stress and relaxation
   IWAVPR =     10    prediction:  0-non 1-charg 2-wave 3-comb
   ISYM   =      2    0-nonsym 1-usesym 2-fastsym
   LCORR  =      T    Harris-Foulkes like correction to forces

   POTIM  = 0.5000    time-step for ionic-motion
   TEIN   =    0.0    initial temperature
   TEBEG  =    0.0;   TEEND  =   0.0 temperature during run
   SMASS  =  -3.00    Nose mass-parameter (am)
   estimated Nose-frequenzy (Omega)   =  0.10E-29 period in steps =****** mass=  -0.652E-26a.u.
   SCALEE = 1.0000    scale energy and forces
   NPACO  =    256;   APACO  = 16.0  distance and # of slots for P.C.
   PSTRESS=    0.0 pullay stress

  Mass of Ions in am
   POMASS =  58.69 32.07
  Ionic Valenz
   ZVAL   =  16.00  6.00
  Atomic Wigner-Seitz radii
   RWIGS  =  -1.00 -1.00
  virtual crystal weights 
   VCA    =   1.00  1.00
   NELECT =     792.0000    total number of electrons
   NUPDOWN=      -1.0000    fix difference up-down

 DOS related values:
   EMIN   =  10.00;   EMAX   =-10.00  energy-range for DOS
   EFERMI =   0.00
   ISMEAR =     0;   SIGMA  =   0.20  broadening in eV -4-tet -1-fermi 0-gaus

 Electronic relaxation 2 (details)
   IALGO  =     38    algorithm
   LDIAG  =      T    sub-space diagonalisation (order eigenvalues)
   LSUBROT=      F    optimize rotation matrix (better conditioning)
   TURBO    =      0    0=normal 1=particle mesh
   IRESTART =      0    0=no restart 2=restart with 2 vectors
   NREBOOT  =      0    no. of reboots
   NMIN     =      0    reboot dimension
   EREF     =   0.00    reference energy to select bands
   IMIX   =      4    mixing-type and parameters
     AMIX     =   0.40;   BMIX     =  1.00
     AMIX_MAG =   1.60;   BMIX_MAG =  1.00
     AMIN     =   0.10
     WC   =   100.;   INIMIX=   1;  MIXPRE=   1;  MAXMIX= -45

 Intra band minimization:
   WEIMIN = 0.0000     energy-eigenvalue tresh-hold
   EBREAK =  0.53E-07  absolut break condition
   DEPER  =   0.30     relativ break condition  

   TIME   =   0.40     timestep for ELM

  volume/ion in A,a.u.               =      36.32       245.10
  Fermi-wavevector in a.u.,A,eV,Ry     =   1.099409  2.077581 16.445356  1.208700
  Thomas-Fermi vector in A             =   2.235803
 
 Write flags
   LWAVE        =      F    write WAVECAR
   LDOWNSAMPLE  =      F    k-point downsampling of WAVECAR
   LCHARG       =      F    write CHGCAR
   LVTOT        =      F    write LOCPOT, total local potential
   LVHAR        =      F    write LOCPOT, Hartree potential only
   LELF         =      F    write electronic localiz. function (ELF)
   LORBIT       =      0    0 simple, 1 ext, 2 COOP (PROOUT), +10 PAW based schemes


 Dipole corrections
   LMONO  =      F    monopole corrections only (constant potential shift)
   LDIPOL =      F    correct potential (dipole corrections)
   IDIPOL =      0    1-x, 2-y, 3-z, 4-all directions 
   EPSILON=  1.0000000 bulk dielectric constant

 Exchange correlation treatment:
   GGA     =    --    GGA type
   LEXCH   =     8    internal setting for exchange type
   VOSKOWN=      0    Vosko Wilk Nusair interpolation
   LHFCALC =     F    Hartree Fock is set to
   LHFONE  =     F    Hartree Fock one center treatment
   AEXX    =    0.0000 exact exchange contribution

 Linear response parameters
   LEPSILON=     F    determine dielectric tensor
   LRPA    =     F    only Hartree local field effects (RPA)
   LNABLA  =     F    use nabla operator in PAW spheres
   LVEL    =     F    velocity operator in full k-point grid
   LINTERFAST=   F  fast interpolation
   KINTER  =     0    interpolate to denser k-point grid
   CSHIFT  =0.1000    complex shift for real part using Kramers Kronig
   OMEGAMAX=  -1.0    maximum frequency
   DEG_THRESHOLD= 0.2000000E-02 threshold for treating states as degnerate
   RTIME   =   -0.100 relaxation time in fs
  (WPLASMAI=    0.000 imaginary part of plasma frequency in eV, 0.658/RTIME)
   DFIELD  = 0.0000000 0.0000000 0.0000000 field for delta impulse in time
 
 Orbital magnetization related:
   ORBITALMAG=     F  switch on orbital magnetization
   LCHIMAG   =     F  perturbation theory with respect to B field
   DQ        =  0.001000  dq finite difference perturbation B field
   LLRAUG    =     F  two centre corrections for induced B field



--------------------------------------------------------------------------------------------------------


 Static calculation
 charge density and potential will be updated during run
 non-spin polarized calculation
 Variant of blocked Davidson
 Davidson routine will perform the subspace rotation
 perform sub-space diagonalisation
    after iterative eigenvector-optimisation
 modified Broyden-mixing scheme, WC =      100.0
 initial mixing is a Kerker type mixing with AMIX =  0.4000 and BMIX =      1.0000
 Hartree-type preconditioning will be used
 using additional bands           80
 real space projection scheme for non local part
 use partial core corrections
 calculate Harris-corrections to forces 
   (improved forces if not selfconsistent)
 use gradient corrections 
 use of overlap-Matrix (Vanderbilt PP)
 Gauss-broadening in eV      SIGMA  =   0.20


--------------------------------------------------------------------------------------------------------


  energy-cutoff  :      450.00
  volume of cell :     2615.00
      direct lattice vectors                 reciprocal lattice vectors
    16.884694054  0.000000000  0.000000000     0.059225237  0.000000000  0.000000000
     0.000000000  9.578410000  0.000000000     0.000000000  0.104401461  0.000000000
     0.000000000  0.000000000 16.169087120     0.000000000  0.000000000  0.061846411

  length of vectors
    16.884694054  9.578410000 16.169087120     0.059225237  0.104401461  0.061846411


 
 k-points in units of 2pi/SCALE and weight: gamma-point-only calculation. no periodi
   0.00000000  0.00000000  0.00000000       1.000
 
 k-points in reciprocal lattice and weights: gamma-point-only calculation. no periodi
   0.00000000  0.00000000  0.00000000       1.000
 
 position of ions in fractional coordinates (direct lattice) 
   0.76230463  0.21088731  0.13392865
   0.81855232  0.16677456  0.27098016
   0.21492553  0.61941740  0.09540430
   0.29733029  0.64529695  0.21596896
   0.38598348  0.11996803  0.12584050
   0.46975828  0.14529695  0.24776362
   0.95247430  0.64529695  0.15237965
   0.96439314  0.64544255  0.31236844
   0.12490229  0.14529695  0.18417431
   0.10728330  0.14561054  0.32801140
   0.56852596  0.66132148  0.16127841
   0.64218627  0.64529695  0.27955828
   0.91380233  0.98114527  0.12089935
   0.94690282  0.01490016  0.26534434
   0.35812171  0.64393668  0.05799396
   0.42486676  0.51319395  0.19076795
   0.46481383  0.46537568  0.33268463
   0.52931255  0.14727367  0.08872338
   0.59729475  0.01319395  0.22256260
   0.08001077  0.51319395  0.12717863
   0.11253277  0.50113259  0.29075979
   0.25243876  0.01319395  0.15897329
   0.29274463  0.97268066  0.30572623
   0.76670519  0.46839457  0.11172190
   0.76972274  0.51319395  0.25435726
   0.95398690  0.27268210  0.24349096
   0.41475981  0.88425607  0.05910286
   0.42486676  0.77739995  0.19076795
   0.46995467  0.83406945  0.32785472
   0.63495636  0.34971162  0.08001887
   0.59729475  0.27739995  0.22256260
   0.08001077  0.77739995  0.12717863
   0.11263661  0.78916144  0.29127334
   0.25243876  0.27739995  0.15897329
   0.29078718  0.31062297  0.31016242
   0.76972274  0.77739995  0.25435726
   0.98904335  0.16233410  0.34634590
   0.00023092  0.12093407  0.16518467
   0.47417723  0.64529695  0.08702573
   0.50874518  0.64529695  0.27779368
   0.64660522  0.14529695  0.11882039
   0.69458079  0.15521039  0.26719311
   0.11263355  0.64619690  0.03188171
   0.16388920  0.64529695  0.21420436
   0.28201055  0.14567913  0.06289053
   0.33631719  0.14529695  0.24599902
   0.82241036  0.64573400  0.16044414
   0.84374248  0.64665665  0.32426646
   0.74211972  0.32575546  0.02357008
   0.83845701  0.34621718  0.20060595
   0.31177708  0.81351195  0.11911576
   0.35331031  0.78889809  0.30058920
   0.48420507  0.31351195  0.15091042
   0.52714412  0.28811164  0.32704962
   0.00148905  0.81351195  0.24629439
   0.97022923  0.81052138  0.07218275
   0.14086162  0.32377420  0.10980719
   0.17391704  0.31351195  0.27808905
   0.65349921  0.81492424  0.19680421
   0.69875808  0.78412497  0.35457554
   0.31177708  0.47708195  0.11911576
   0.34986733  0.49467755  0.29651935
   0.83319680  0.09367918  0.05911361
   0.82906105  0.97708195  0.21449973
   0.00148905  0.47708195  0.24629439
   0.97394380  0.49304367  0.06973880
   0.48420507  0.97708195  0.15091042
   0.53210089  0.01189464  0.32918117
   0.65663306  0.47708195  0.18270508
   0.69351116  0.49509512  0.35081977
   0.14096997  0.96711809  0.10942986
   0.17391704  0.97708195  0.27808905
 
 position of ions in cartesian coordinates  (Angst):
  12.87128042  2.01996509  2.16550401
  13.82100549  1.59743511  4.38150179
   3.62895176  5.93303384  1.54260049
   5.02033090  6.18091880  3.49202101
   6.51721301  1.14910294  2.03472606
   7.93172480  1.39171380  4.00611161
  16.08223715  6.18091880  2.46383984
  16.28348307  6.18231336  5.05071248
   2.10893700  1.39171380  2.97793043
   1.81144563  1.39471744  5.30364494
   9.59938690  6.33440830  2.60772469
  10.84311871  6.18091880  4.52020220
  15.42927277  9.39781166  1.95483214
  15.98816442  0.14271988  4.29037578
   6.04677543  6.16788951  0.93770945
   7.17374517  4.91558210  3.08454355
   7.84823939  4.45755902  5.37920669
   8.93728048  1.41064762  1.43457602
  10.08513906  0.12637710  3.59863415
   1.35095736  4.91558210  2.05636238
   1.90008133  4.80005345  4.70132038
   4.26235126  0.12637710  2.57045296
   4.94290357  9.31673416  4.94331402
  12.94558258  4.48647519  1.80644119
  12.99653297  4.91558210  4.11272474
  16.10777697  2.61186097  3.93702651
   7.00309243  8.46976718  0.95563924
   7.17374517  7.44625549  3.08454355
   7.93504090  7.98905918  5.30111145
  10.72104384  3.34968130  1.29383216
  10.08513906  2.65705049  3.59863415
   1.35095736  7.44625549  2.05636238
   1.90183471  7.55891185  4.70962401
   4.26235126  2.65705049  2.57045296
   4.90985253  2.97527413  5.01504322
  12.99653297  7.44625549  4.11272474
  16.69969443  1.55490253  5.60009710
   0.00389903  1.15835612  2.67088526
   8.00633741  6.18091880  1.40712661
   8.59000678  6.18091880  4.49167018
  10.91773131  1.39171380  1.92121721
  11.72778418  1.48666880  4.32026862
   1.90178305  6.18953883  0.51549813
   2.76721897  6.18091880  3.46348899
   4.76166184  1.39537441  1.01688244
   5.67861288  1.39171380  3.97757959
  13.88614723  6.18510498  2.59423534
  14.24633367  6.19394253  5.24309267
  12.53046435  3.12021935  0.38110661
  14.15709011  3.31621012  3.24361503
   5.26426054  7.79215104  1.92599312
   5.96553649  7.55638934  4.86025290
   8.17565445  3.00294604  2.44008371
   8.90066711  2.75965146  5.28809382
   0.02514210  7.79215104  3.98235548
  16.38202365  7.76350611  1.16712923
   2.37840539  3.10124204  1.77548205
   2.93653601  3.00294604  4.49644608
  11.03413422  7.80567851  3.18214446
  11.79831648  7.51067041  5.73316274
   5.26426054  4.56968656  1.92599312
   5.90740276  4.73822444  4.79444715
  14.06827298  0.89729758  0.95581303
  13.99844227  9.35889156  3.46826489
   0.02514210  4.56968656  3.98235548
  16.44474313  4.72257439  1.12761268
   8.17565445  9.35889156  2.44008371
   8.98436070  0.11393177  5.32255897
  11.08704836  4.56968656  2.95417429
  11.70972369  4.74222404  5.67243539
   2.38023474  9.26345362  1.76938098
   2.93653601  9.35889156  4.49644608
 


--------------------------------------------------------------------------------------------------------


 use parallel FFT for orbitals z direction half grid
 k-point  1 :   0.0000 0.0000 0.0000  plane waves:   28369

 maximum and minimum number of plane-waves per node :      4733     4722

 maximum number of plane-waves:     28369
 maximum index in each direction: 
   IXMAX=   29   IYMAX=   16   IZMAX=   27
   IXMIN=  -29   IYMIN=  -16   IZMIN=    0


 real space projection operators:
  total allocation   :      10067.38 KBytes
  max/ min on nodes  :       1684.62       1671.06


 parallel 3D FFT for wavefunctions:
    minimum data exchange during FFTs selected (reduces bandwidth)
 parallel 3D FFT for charge:
    minimum data exchange during FFTs selected (reduces bandwidth)


 total amount of memory used by VASP MPI-rank0    77173. kBytes
=======================================================================

   base      :      30000. kBytes
   nonlr-proj:       2064. kBytes
   fftplans  :       9935. kBytes
   grid      :      16773. kBytes
   one-center:         93. kBytes
   wavefun   :      18308. kBytes
 
     INWAV:  cpu time    0.0000: real time    0.0000
 Broyden mixing: mesh for mixing (old mesh)
   NGX = 59   NGY = 33   NGZ = 55
  (NGX  =180   NGY  =100   NGZ  =168)
  gives a total of 107085 points

 initial charge density was supplied:
 charge density of overlapping atoms calculated
 number of electron     792.0000000 magnetization 
 keeping initial charge density in first step


--------------------------------------------------------------------------------------------------------


 Maximum index for non-local projection operator          266
 Maximum index for augmentation-charges          427 (set IRDMAX)


--------------------------------------------------------------------------------------------------------


 First call to EWALD:  gamma=   0.129
 Maximum number of real-space cells 2x 4x 2
 Maximum number of reciprocal cells 3x 2x 3

    FEWALD:  cpu time    0.0050: real time    0.0050


--------------------------------------- Iteration      1(   1)  ---------------------------------------


    POTLOK:  cpu time    0.3249: real time    0.3249
    SETDIJ:  cpu time    0.0170: real time    0.0171
     EDDAV:  cpu time    8.5467: real time    8.5482
       DOS:  cpu time    0.0022: real time    0.0022
    --------------------------------------------
      LOOP:  cpu time    8.8909: real time    8.8925

 eigenvalue-minimisations  :  1176
 total energy-change (2. order) : 0.8889602E+04  (-0.5061123E+05)
 number of electron     792.0000000 magnetization 
 augmentation part      792.0000000 magnetization 

 Free energy of the ion-electron system (eV)
  ---------------------------------------------------
  alpha Z        PSCENC =      1422.52235994
  Ewald energy   TEWEN  =    151881.12552011
  -Hartree energ DENC   =   -272171.29129426
  -exchange      EXHF   =         0.00000000
  -V(xc)+E(xc)   XCENC  =      3682.10365038
  PAW double counting   =    112729.53333415  -117641.51188735
  entropy T*S    EENTRO =        -0.47642605
  eigenvalues    EBANDS =     -7015.00872419
  atomic energy  EATOM  =    136002.60505376
  Solvation  Ediel_sol  =         0.00000000
  ---------------------------------------------------
  free energy    TOTEN  =      8889.60158649 eV

  energy without entropy =     8890.07801254  energy(sigma->0) =     8889.83979952


--------------------------------------------------------------------------------------------------------




--------------------------------------- Iteration      1(   2)  ---------------------------------------


     EDDAV:  cpu time    7.4592: real time    7.4642
       DOS:  cpu time    0.0013: real time    0.0013
    --------------------------------------------
      LOOP:  cpu time    7.4604: real time    7.4654

 eigenvalue-minimisations  :  1020
 total energy-change (2. order) :-0.8406367E+04  (-0.8117486E+04)
 number of electron     792.0000000 magnetization 
 augmentation part      792.0000000 magnetization 

 Free energy of the ion-electron system (eV)
  ---------------------------------------------------
  alpha Z        PSCENC =      1422.52235994
  Ewald energy   TEWEN  =    151881.12552011
  -Hartree energ DENC   =   -272171.29129426
  -exchange      EXHF   =         0.00000000
  -V(xc)+E(xc)   XCENC  =      3682.10365038
  PAW double counting   =    112729.53333415  -117641.51188735
  entropy T*S    EENTRO =        -0.67943034
  eigenvalues    EBANDS =    -15421.17288930
  atomic energy  EATOM  =    136002.60505376
  Solvation  Ediel_sol  =         0.00000000
  ---------------------------------------------------
  free energy    TOTEN  =       483.23441710 eV

  energy without entropy =      483.91384744  energy(sigma->0) =      483.57413227


--------------------------------------------------------------------------------------------------------




--------------------------------------- Iteration      1(   3)  ---------------------------------------


     EDDAV:  cpu time    8.1683: real time    8.1695
       DOS:  cpu time    0.0012: real time    0.0012
    --------------------------------------------
      LOOP:  cpu time    8.1695: real time    8.1706

 eigenvalue-minimisations  :  1104
 total energy-change (2. order) :-0.8300974E+03  (-0.7970487E+03)
 number of electron     792.0000000 magnetization 
 augmentation part      792.0000000 magnetization 

 Free energy of the ion-electron system (eV)
  ---------------------------------------------------
  alpha Z        PSCENC =      1422.52235994
  Ewald energy   TEWEN  =    151881.12552011
  -Hartree energ DENC   =   -272171.29129426
  -exchange      EXHF   =         0.00000000
  -V(xc)+E(xc)   XCENC  =      3682.10365038
  PAW double counting   =    112729.53333415  -117641.51188735
  entropy T*S    EENTRO =        -1.06312120
  eigenvalues    EBANDS =    -16250.88661939
  atomic energy  EATOM  =    136002.60505376
  Solvation  Ediel_sol  =         0.00000000
  ---------------------------------------------------
  free energy    TOTEN  =      -346.86300385 eV

  energy without entropy =     -345.79988265  energy(sigma->0) =     -346.33144325


--------------------------------------------------------------------------------------------------------




--------------------------------------- Iteration      1(   4)  ---------------------------------------


     EDDAV:  cpu time    7.7811: real time    7.7828
       DOS:  cpu time    0.0014: real time    0.0014
    --------------------------------------------
      LOOP:  cpu time    7.7825: real time    7.7842

 eigenvalue-minimisations  :  1072
 total energy-change (2. order) :-0.4323598E+02  (-0.4278989E+02)
 number of electron     792.0000000 magnetization 
 augmentation part      792.0000000 magnetization 

 Free energy of the ion-electron system (eV)
  ---------------------------------------------------
  alpha Z        PSCENC =      1422.52235994
  Ewald energy   TEWEN  =    151881.12552011
  -Hartree energ DENC   =   -272171.29129426
  -exchange      EXHF   =         0.00000000
  -V(xc)+E(xc)   XCENC  =      3682.10365038
  PAW double counting   =    112729.53333415  -117641.51188735
  entropy T*S    EENTRO =        -1.07647848
  eigenvalues    EBANDS =    -16294.10923829
  atomic energy  EATOM  =    136002.60505376
  Solvation  Ediel_sol  =         0.00000000
  ---------------------------------------------------
  free energy    TOTEN  =      -390.09898004 eV

  energy without entropy =     -389.02250156  energy(sigma->0) =     -389.56074080


--------------------------------------------------------------------------------------------------------




--------------------------------------- Iteration      1(   5)  ---------------------------------------


     EDDAV:  cpu time    8.8585: real time    8.8631
       DOS:  cpu time    0.0015: real time    0.0014
    CHARGE:  cpu time    0.2685: real time    0.2685
    MIXING:  cpu time    0.0092: real time    0.0092
    --------------------------------------------
      LOOP:  cpu time    9.1376: real time    9.1423

 eigenvalue-minimisations  :  1224
 total energy-change (2. order) :-0.1712326E+01  (-0.1709849E+01)
 number of electron     791.9997412 magnetization 
 augmentation part      286.0869910 magnetization 

 Broyden mixing:
  rms(total) = 0.99158E+01    rms(broyden)= 0.99081E+01
  rms(prec ) = 0.10440E+02
  weight for this iteration     100.00

 Free energy of the ion-electron system (eV)
  ---------------------------------------------------
  alpha Z        PSCENC =      1422.52235994
  Ewald energy   TEWEN  =    151881.12552011
  -Hartree energ DENC   =   -272171.29129426
  -exchange      EXHF   =         0.00000000
  -V(xc)+E(xc)   XCENC  =      3682.10365038
  PAW double counting   =    112729.53333415  -117641.51188735
  entropy T*S    EENTRO =        -1.07710609
  eigenvalues    EBANDS =    -16295.82093660
  atomic energy  EATOM  =    136002.60505376
  Solvation  Ediel_sol  =         0.00000000
  ---------------------------------------------------
  free energy    TOTEN  =      -391.81130596 eV

  energy without entropy =     -390.73419987  energy(sigma->0) =     -391.27275291


--------------------------------------------------------------------------------------------------------




--------------------------------------- Iteration      1(   6)  ---------------------------------------


    POTLOK:  cpu time    0.3140: real time    0.3141
    SETDIJ:  cpu time    0.0168: real time    0.0168
     EDDAV:  cpu time    8.3725: real time    8.3768
       DOS:  cpu time    0.0013: real time    0.0013
    CHARGE:  cpu time    0.2558: real time    0.2559
    MIXING:  cpu time    0.0098: real time    0.0098
    --------------------------------------------
      LOOP:  cpu time    8.9702: real time    8.9747

 eigenvalue-minimisations  :  1184
 total energy-change (2. order) :-0.6929067E+02  (-0.9793535E+02)
 number of electron     791.9996861 magnetization 
 augmentation part      348.4099818 magnetization 

 Broyden mixing:
  rms(total) = 0.15912E+02    rms(broyden)= 0.15910E+02
  rms(prec ) = 0.16714E+02
  weight for this iteration     100.00

 eigenvalues of (default mixing * dielectric matrix)
  average eigenvalue GAMMA=   0.2397
  0.2397

 Free energy of the ion-electron system (eV)
  ---------------------------------------------------
  alpha Z        PSCENC =      1422.52235994
  Ewald energy   TEWEN  =    151881.12552011
  -Hartree energ DENC   =   -269509.69846342
  -exchange      EXHF   =         0.00000000
  -V(xc)+E(xc)   XCENC  =      3608.18394648
  PAW double counting   =    117968.33856347  -122647.98792246
  entropy T*S    EENTRO =        -0.65623931
  eigenvalues    EBANDS =    -19185.53478980
  atomic energy  EATOM  =    136002.60505376
  Solvation  Ediel_sol  =         0.00000000
  ---------------------------------------------------
  free energy    TOTEN  =      -461.10197124 eV

  energy without entropy =     -460.44573193  energy(sigma->0) =     -460.77385158


--------------------------------------------------------------------------------------------------------




--------------------------------------- Iteration      1(   7)  ---------------------------------------


    POTLOK:  cpu time    0.4043: real time    0.4044
    SETDIJ:  cpu time    0.0370: real time    0.0371
     EDDAV:  cpu time    8.0747: real time    8.0781
       DOS:  cpu time    0.0013: real time    0.0012
    CHARGE:  cpu time    0.2603: real time    0.2603
    MIXING:  cpu time    0.0100: real time    0.0100
    --------------------------------------------
      LOOP:  cpu time    8.7876: real time    8.7912

 eigenvalue-minimisations  :  1120
 total energy-change (2. order) : 0.1042400E+03  (-0.1896665E+02)
 number of electron     791.9997024 magnetization 
 augmentation part      329.8769310 magnetization 

 Broyden mixing:
  rms(total) = 0.67740E+01    rms(broyden)= 0.67732E+01
  rms(prec ) = 0.71320E+01
  weight for this iteration     100.00

 eigenvalues of (default mixing * dielectric matrix)
  average eigenvalue GAMMA=   0.5817
  0.6774  0.4860

 Free energy of the ion-electron system (eV)
  ---------------------------------------------------
  alpha Z        PSCENC =      1422.52235994
  Ewald energy   TEWEN  =    151881.12552011
  -Hartree energ DENC   =   -270645.88630041
  -exchange      EXHF   =         0.00000000
  -V(xc)+E(xc)   XCENC  =      3636.29923145
  PAW double counting   =    122809.12597473  -127639.20893263
  entropy T*S    EENTRO =        -0.86249030
  eigenvalues    EBANDS =    -17822.58241097
  atomic energy  EATOM  =    136002.60505376
  Solvation  Ediel_sol  =         0.00000000
  ---------------------------------------------------
  free energy    TOTEN  =      -356.86199432 eV

  energy without entropy =     -355.99950402  energy(sigma->0) =     -356.43074917


--------------------------------------------------------------------------------------------------------




--------------------------------------- Iteration      1(   8)  ---------------------------------------


    POTLOK:  cpu time    0.3125: real time    0.3124
    SETDIJ:  cpu time    0.0168: real time    0.0168
     EDDAV:  cpu time    9.4110: real time    9.4125
       DOS:  cpu time    0.0013: real time    0.0013
    CHARGE:  cpu time    0.2582: real time    0.2582
    MIXING:  cpu time    0.0103: real time    0.0103
    --------------------------------------------
      LOOP:  cpu time   10.0100: real time   10.0115

 eigenvalue-minimisations  :  1336
 total energy-change (2. order) :-0.3103073E+02  (-0.2114111E+02)
 number of electron     791.9997164 magnetization 
 augmentation part      304.7342989 magnetization 

 Broyden mixing:
  rms(total) = 0.10646E+02    rms(broyden)= 0.10644E+02
  rms(prec ) = 0.13228E+02
  weight for this iteration     100.00

 eigenvalues of (default mixing * dielectric matrix)
  average eigenvalue GAMMA=   0.5293
  0.9889  0.3960  0.2031

 Free energy of the ion-electron system (eV)
  ---------------------------------------------------
  alpha Z        PSCENC =      1422.52235994
  Ewald energy   TEWEN  =    151881.12552011
  -Hartree energ DENC   =   -271554.92716986
  -exchange      EXHF   =         0.00000000
  -V(xc)+E(xc)   XCENC  =      3659.77088076
  PAW double counting   =    131477.41032581  -136440.06079882
  entropy T*S    EENTRO =        -0.99927086
  eigenvalues    EBANDS =    -16835.33962837
  atomic energy  EATOM  =    136002.60505376
  Solvation  Ediel_sol  =         0.00000000
  ---------------------------------------------------
  free energy    TOTEN  =      -387.89272752 eV

  energy without entropy =     -386.89345666  energy(sigma->0) =     -387.39309209


--------------------------------------------------------------------------------------------------------




--------------------------------------- Iteration      1(   9)  ---------------------------------------


    POTLOK:  cpu time    0.3107: real time    0.3107
    SETDIJ:  cpu time    0.0167: real time    0.0167
     EDDAV:  cpu time    8.7449: real time    8.7475
       DOS:  cpu time    0.0014: real time    0.0014
    CHARGE:  cpu time    0.2888: real time    0.2890
    MIXING:  cpu time    0.0110: real time    0.0110
    --------------------------------------------
      LOOP:  cpu time    9.3736: real time    9.3762

 eigenvalue-minimisations  :  1232
 total energy-change (2. order) : 0.2296623E+02  (-0.1457353E+02)
 number of electron     791.9997304 magnetization 
 augmentation part      303.2549547 magnetization 

 Broyden mixing:
  rms(total) = 0.66257E+01    rms(broyden)= 0.66207E+01
  rms(prec ) = 0.79167E+01
  weight for this iteration     100.00

 eigenvalues of (default mixing * dielectric matrix)
  average eigenvalue GAMMA=   0.6058
  1.5186  0.3889  0.3889  0.1266

 Free energy of the ion-electron system (eV)
  ---------------------------------------------------
  alpha Z        PSCENC =      1422.52235994
  Ewald energy   TEWEN  =    151881.12552011
  -Hartree energ DENC   =   -271592.29864833
  -exchange      EXHF   =         0.00000000
  -V(xc)+E(xc)   XCENC  =      3660.15601383
  PAW double counting   =    134522.26884104  -139506.41246181
  entropy T*S    EENTRO =        -1.05441553
  eigenvalues    EBANDS =    -16753.83875738
  atomic energy  EATOM  =    136002.60505376
  Solvation  Ediel_sol  =         0.00000000
  ---------------------------------------------------
  free energy    TOTEN  =      -364.92649437 eV

  energy without entropy =     -363.87207884  energy(sigma->0) =     -364.39928661


--------------------------------------------------------------------------------------------------------




--------------------------------------- Iteration      1(  10)  ---------------------------------------


    POTLOK:  cpu time    0.3152: real time    0.3153
    SETDIJ:  cpu time    0.0171: real time    0.0171
     EDDAV:  cpu time    9.0890: real time    9.0945
       DOS:  cpu time    0.0012: real time    0.0012
    CHARGE:  cpu time    0.2671: real time    0.2671
    MIXING:  cpu time    0.0111: real time    0.0111
    --------------------------------------------
      LOOP:  cpu time    9.7007: real time    9.7063

 eigenvalue-minimisations  :  1320
 total energy-change (2. order) :-0.8510552E+01  (-0.9614832E+01)
 number of electron     791.9997217 magnetization 
 augmentation part      303.2931764 magnetization 

 Broyden mixing:
  rms(total) = 0.88667E+01    rms(broyden)= 0.88639E+01
  rms(prec ) = 0.10482E+02
  weight for this iteration     100.00

 eigenvalues of (default mixing * dielectric matrix)
  average eigenvalue GAMMA=   0.6430
  2.0917  0.4269  0.4269  0.1348  0.1348

 Free energy of the ion-electron system (eV)
  ---------------------------------------------------
  alpha Z        PSCENC =      1422.52235994
  Ewald energy   TEWEN  =    151881.12552011
  -Hartree energ DENC   =   -271474.86461118
  -exchange      EXHF   =         0.00000000
  -V(xc)+E(xc)   XCENC  =      3657.45686211
  PAW double counting   =    138808.28646059  -143813.08121237
  entropy T*S    EENTRO =        -1.04047806
  eigenvalues    EBANDS =    -16856.44700163
  atomic energy  EATOM  =    136002.60505376
  Solvation  Ediel_sol  =         0.00000000
  ---------------------------------------------------
  free energy    TOTEN  =      -373.43704673 eV

  energy without entropy =     -372.39656867  energy(sigma->0) =     -372.91680770


--------------------------------------------------------------------------------------------------------




--------------------------------------- Iteration      1(  11)  ---------------------------------------


    POTLOK:  cpu time    0.3111: real time    0.3111
    SETDIJ:  cpu time    0.0167: real time    0.0167
     EDDAV:  cpu time    9.2099: real time    9.2171
       DOS:  cpu time    0.0010: real time    0.0010
    CHARGE:  cpu time    0.2583: real time    0.2583
    MIXING:  cpu time    0.0115: real time    0.0115
    --------------------------------------------
      LOOP:  cpu time    9.8087: real time    9.8159

 eigenvalue-minimisations  :  1304
 total energy-change (2. order) : 0.1491654E+02  (-0.6827580E+01)
 number of electron     791.9997212 magnetization 
 augmentation part      310.4274800 magnetization 

 Broyden mixing:
  rms(total) = 0.50819E+01    rms(broyden)= 0.50789E+01
  rms(prec ) = 0.58146E+01
  weight for this iteration     100.00

 eigenvalues of (default mixing * dielectric matrix)
  average eigenvalue GAMMA=   0.5786
  2.1547  0.4269  0.4269  0.1867  0.1525  0.1242

 Free energy of the ion-electron system (eV)
  ---------------------------------------------------
  alpha Z        PSCENC =      1422.52235994
  Ewald energy   TEWEN  =    151881.12552011
  -Hartree energ DENC   =   -271317.73914459
  -exchange      EXHF   =         0.00000000
  -V(xc)+E(xc)   XCENC  =      3652.74123246
  PAW double counting   =    143287.75856931  -148307.89424096
  entropy T*S    EENTRO =        -0.96394222
  eigenvalues    EBANDS =    -16978.67591793
  atomic energy  EATOM  =    136002.60505376
  Solvation  Ediel_sol  =         0.00000000
  ---------------------------------------------------
  free energy    TOTEN  =      -358.52051012 eV

  energy without entropy =     -357.55656790  energy(sigma->0) =     -358.03853901


--------------------------------------------------------------------------------------------------------




--------------------------------------- Iteration      1(  12)  ---------------------------------------


    POTLOK:  cpu time    0.3102: real time    0.3102
    SETDIJ:  cpu time    0.0168: real time    0.0168
     EDDAV:  cpu time    9.2935: real time    9.2990
       DOS:  cpu time    0.0014: real time    0.0014
    CHARGE:  cpu time    0.2554: real time    0.2554
    MIXING:  cpu time    0.0119: real time    0.0119
    --------------------------------------------
      LOOP:  cpu time    9.8892: real time    9.8947

 eigenvalue-minimisations  :  1304
 total energy-change (2. order) : 0.1354850E+02  (-0.2876036E+01)
 number of electron     791.9997188 magnetization 
 augmentation part      312.8431206 magnetization 

 Broyden mixing:
  rms(total) = 0.25826E+01    rms(broyden)= 0.25801E+01
  rms(prec ) = 0.29716E+01
  weight for this iteration     100.00

 eigenvalues of (default mixing * dielectric matrix)
  average eigenvalue GAMMA=   0.5469
  2.1272  0.4413  0.4413  0.3306  0.2251  0.1315  0.1315

 Free energy of the ion-electron system (eV)
  ---------------------------------------------------
  alpha Z        PSCENC =      1422.52235994
  Ewald energy   TEWEN  =    151881.12552011
  -Hartree energ DENC   =   -271312.11369315
  -exchange      EXHF   =         0.00000000
  -V(xc)+E(xc)   XCENC  =      3652.46053060
  PAW double counting   =    143764.60565370  -148787.87189657
  entropy T*S    EENTRO =        -0.91172327
  eigenvalues    EBANDS =    -16967.39381120
  atomic energy  EATOM  =    136002.60505376
  Solvation  Ediel_sol  =         0.00000000
  ---------------------------------------------------
  free energy    TOTEN  =      -344.97200607 eV

  energy without entropy =     -344.06028281  energy(sigma->0) =     -344.51614444


--------------------------------------------------------------------------------------------------------




--------------------------------------- Iteration      1(  13)  ---------------------------------------


    POTLOK:  cpu time    0.3137: real time    0.3137
    SETDIJ:  cpu time    0.0172: real time    0.0172
     EDDAV:  cpu time    9.3804: real time    9.3816
       DOS:  cpu time    0.0013: real time    0.0013
    CHARGE:  cpu time    0.2574: real time    0.2575
    MIXING:  cpu time    0.0136: real time    0.0136
    --------------------------------------------
      LOOP:  cpu time    9.9836: real time    9.9849

 eigenvalue-minimisations  :  1328
 total energy-change (2. order) : 0.5878664E+00  (-0.2075720E+01)
 number of electron     791.9997181 magnetization 
 augmentation part      311.2742609 magnetization 

 Broyden mixing:
  rms(total) = 0.31122E+01    rms(broyden)= 0.31101E+01
  rms(prec ) = 0.37921E+01
  weight for this iteration     100.00

 eigenvalues of (default mixing * dielectric matrix)
  average eigenvalue GAMMA=   0.5203
  2.0780  0.4602  0.4602  0.4807  0.2739  0.1433  0.1433  0.1225

 Free energy of the ion-electron system (eV)
  ---------------------------------------------------
  alpha Z        PSCENC =      1422.52235994
  Ewald energy   TEWEN  =    151881.12552011
  -Hartree energ DENC   =   -271364.91414420
  -exchange      EXHF   =         0.00000000
  -V(xc)+E(xc)   XCENC  =      3653.41458525
  PAW double counting   =    143399.71088475  -148422.89090467
  entropy T*S    EENTRO =        -1.09917201
  eigenvalues    EBANDS =    -16914.85832257
  atomic energy  EATOM  =    136002.60505376
  Solvation  Ediel_sol  =         0.00000000
  ---------------------------------------------------
  free energy    TOTEN  =      -344.38413964 eV

  energy without entropy =     -343.28496763  energy(sigma->0) =     -343.83455363


--------------------------------------------------------------------------------------------------------




--------------------------------------- Iteration      1(  14)  ---------------------------------------


    POTLOK:  cpu time    0.3134: real time    0.3136
    SETDIJ:  cpu time    0.0169: real time    0.0169
     EDDAV:  cpu time    8.9267: real time    8.9281
       DOS:  cpu time    0.0011: real time    0.0011
    CHARGE:  cpu time    0.2566: real time    0.2566
    MIXING:  cpu time    0.0130: real time    0.0130
    --------------------------------------------
      LOOP:  cpu time    9.5277: real time    9.5293

 eigenvalue-minimisations  :  1248
 total energy-change (2. order) : 0.2010250E+01  (-0.1451812E+01)
 number of electron     791.9997202 magnetization 
 augmentation part      311.8925945 magnetization 

 Broyden mixing:
  rms(total) = 0.17931E+01    rms(broyden)= 0.17905E+01
  rms(prec ) = 0.20424E+01
  weight for this iteration     100.00

 eigenvalues of (default mixing * dielectric matrix)
  average eigenvalue GAMMA=   0.5000
  2.0795  0.5217  0.5217  0.4027  0.4027  0.1672  0.1412  0.1412  0.1219

 Free energy of the ion-electron system (eV)
  ---------------------------------------------------
  alpha Z        PSCENC =      1422.52235994
  Ewald energy   TEWEN  =    151881.12552011
  -Hartree energ DENC   =   -271385.26489575
  -exchange      EXHF   =         0.00000000
  -V(xc)+E(xc)   XCENC  =      3653.07122223
  PAW double counting   =    142899.60584345  -147916.40489290
  entropy T*S    EENTRO =        -0.99021724
  eigenvalues    EBANDS =    -16898.64388316
  atomic energy  EATOM  =    136002.60505376
  Solvation  Ediel_sol  =         0.00000000
  ---------------------------------------------------
  free energy    TOTEN  =      -342.37388956 eV

  energy without entropy =     -341.38367232  energy(sigma->0) =     -341.87878094


--------------------------------------------------------------------------------------------------------




--------------------------------------- Iteration      1(  15)  ---------------------------------------


    POTLOK:  cpu time    0.3106: real time    0.3106
    SETDIJ:  cpu time    0.0167: real time    0.0167
     EDDAV:  cpu time    8.7598: real time    8.7623
       DOS:  cpu time    0.0013: real time    0.0013
    CHARGE:  cpu time    0.2629: real time    0.2630
    MIXING:  cpu time    0.0138: real time    0.0138
    --------------------------------------------
      LOOP:  cpu time    9.3652: real time    9.3678

 eigenvalue-minimisations  :  1264
 total energy-change (2. order) : 0.9794539E+00  (-0.2512207E+00)
 number of electron     791.9997184 magnetization 
 augmentation part      311.9765855 magnetization 

 Broyden mixing:
  rms(total) = 0.12350E+01    rms(broyden)= 0.12344E+01
  rms(prec ) = 0.13801E+01
  weight for this iteration     100.00

 eigenvalues of (default mixing * dielectric matrix)
  average eigenvalue GAMMA=   0.5208
  2.0900  0.7361  0.7361  0.4264  0.4264  0.1964  0.1964  0.1395  0.1395  0.1211

 Free energy of the ion-electron system (eV)
  ---------------------------------------------------
  alpha Z        PSCENC =      1422.52235994
  Ewald energy   TEWEN  =    151881.12552011
  -Hartree energ DENC   =   -271392.35262132
  -exchange      EXHF   =         0.00000000
  -V(xc)+E(xc)   XCENC  =      3653.15401653
  PAW double counting   =    142735.37374532  -147750.54769259
  entropy T*S    EENTRO =        -0.94861087
  eigenvalues    EBANDS =    -16892.32620651
  atomic energy  EATOM  =    136002.60505376
  Solvation  Ediel_sol  =         0.00000000
  ---------------------------------------------------
  free energy    TOTEN  =      -341.39443562 eV

  energy without entropy =     -340.44582475  energy(sigma->0) =     -340.92013019


--------------------------------------------------------------------------------------------------------




--------------------------------------- Iteration      1(  16)  ---------------------------------------


    POTLOK:  cpu time    0.3128: real time    0.3128
    SETDIJ:  cpu time    0.0180: real time    0.0180
     EDDAV:  cpu time    9.2670: real time    9.2731
       DOS:  cpu time    0.0014: real time    0.0014
    CHARGE:  cpu time    0.2552: real time    0.2552
    MIXING:  cpu time    0.0142: real time    0.0142
    --------------------------------------------
      LOOP:  cpu time    9.8686: real time    9.8747

 eigenvalue-minimisations  :  1312
 total energy-change (2. order) : 0.3269504E+00  (-0.1052910E+00)
 number of electron     791.9997186 magnetization 
 augmentation part      311.8938340 magnetization 

 Broyden mixing:
  rms(total) = 0.10359E+01    rms(broyden)= 0.10355E+01
  rms(prec ) = 0.11530E+01
  weight for this iteration     100.00

 eigenvalues of (default mixing * dielectric matrix)
  average eigenvalue GAMMA=   0.5411
  2.1136  0.9594  0.9594  0.4279  0.4279  0.2497  0.2497  0.1418  0.1418  0.1590
  0.1221

 Free energy of the ion-electron system (eV)
  ---------------------------------------------------
  alpha Z        PSCENC =      1422.52235994
  Ewald energy   TEWEN  =    151881.12552011
  -Hartree energ DENC   =   -271405.52980877
  -exchange      EXHF   =         0.00000000
  -V(xc)+E(xc)   XCENC  =      3653.26790602
  PAW double counting   =    142480.11635580  -147491.94880951
  entropy T*S    EENTRO =        -0.95428583
  eigenvalues    EBANDS =    -16882.27177677
  atomic energy  EATOM  =    136002.60505376
  Solvation  Ediel_sol  =         0.00000000
  ---------------------------------------------------
  free energy    TOTEN  =      -341.06748524 eV

  energy without entropy =     -340.11319942  energy(sigma->0) =     -340.59034233


--------------------------------------------------------------------------------------------------------




--------------------------------------- Iteration      1(  17)  ---------------------------------------


    POTLOK:  cpu time    0.3151: real time    0.3151
    SETDIJ:  cpu time    0.0171: real time    0.0170
     EDDAV:  cpu time    9.1910: real time    9.1983
       DOS:  cpu time    0.0011: real time    0.0011
    CHARGE:  cpu time    0.2581: real time    0.2581
    MIXING:  cpu time    0.0162: real time    0.0162
    --------------------------------------------
      LOOP:  cpu time    9.7985: real time    9.8058

 eigenvalue-minimisations  :  1296
 total energy-change (2. order) : 0.1935768E+00  (-0.8113079E-01)
 number of electron     791.9997184 magnetization 
 augmentation part      311.8583563 magnetization 

 Broyden mixing:
  rms(total) = 0.81441E+00    rms(broyden)= 0.81392E+00
  rms(prec ) = 0.92761E+00
  weight for this iteration     100.00

 eigenvalues of (default mixing * dielectric matrix)
  average eigenvalue GAMMA=   0.5725
  2.1347  1.1970  1.1970  0.4797  0.4353  0.4353  0.2410  0.1212  0.1400  0.1400
  0.1746  0.1746

 Free energy of the ion-electron system (eV)
  ---------------------------------------------------
  alpha Z        PSCENC =      1422.52235994
  Ewald energy   TEWEN  =    151881.12552011
  -Hartree energ DENC   =   -271420.15018620
  -exchange      EXHF   =         0.00000000
  -V(xc)+E(xc)   XCENC  =      3653.26455038
  PAW double counting   =    142204.56686228  -147212.15417799
  entropy T*S    EENTRO =        -0.96752024
  eigenvalues    EBANDS =    -16871.68637047
  atomic energy  EATOM  =    136002.60505376
  Solvation  Ediel_sol  =         0.00000000
  ---------------------------------------------------
  free energy    TOTEN  =      -340.87390844 eV

  energy without entropy =     -339.90638819  energy(sigma->0) =     -340.39014832


--------------------------------------------------------------------------------------------------------




--------------------------------------- Iteration      1(  18)  ---------------------------------------


    POTLOK:  cpu time    0.3167: real time    0.3168
    SETDIJ:  cpu time    0.0168: real time    0.0168
     EDDAV:  cpu time    9.2745: real time    9.2799
       DOS:  cpu time    0.0012: real time    0.0012
    CHARGE:  cpu time    0.2818: real time    0.2819
    MIXING:  cpu time    0.0174: real time    0.0174
    --------------------------------------------
      LOOP:  cpu time    9.9084: real time    9.9140

 eigenvalue-minimisations  :  1312
 total energy-change (2. order) : 0.8628352E-01  (-0.6167241E-01)
 number of electron     791.9997186 magnetization 
 augmentation part      311.6543334 magnetization 

 Broyden mixing:
  rms(total) = 0.70570E+00    rms(broyden)= 0.70541E+00
  rms(prec ) = 0.82592E+00
  weight for this iteration     100.00

 eigenvalues of (default mixing * dielectric matrix)
  average eigenvalue GAMMA=   0.5752
  2.1544  1.3459  1.3459  0.5562  0.4412  0.4412  0.2690  0.1892  0.1892  0.1404
  0.1404  0.1215  0.1425

 Free energy of the ion-electron system (eV)
  ---------------------------------------------------
  alpha Z        PSCENC =      1422.52235994
  Ewald energy   TEWEN  =    151881.12552011
  -Hartree energ DENC   =   -271445.11198326
  -exchange      EXHF   =         0.00000000
  -V(xc)+E(xc)   XCENC  =      3653.30434526
  PAW double counting   =    141839.27163669  -146841.99640759
  entropy T*S    EENTRO =        -1.00403515
  eigenvalues    EBANDS =    -16851.50411467
  atomic energy  EATOM  =    136002.60505376
  Solvation  Ediel_sol  =         0.00000000
  ---------------------------------------------------
  free energy    TOTEN  =      -340.78762492 eV

  energy without entropy =     -339.78358976  energy(sigma->0) =     -340.28560734


--------------------------------------------------------------------------------------------------------




--------------------------------------- Iteration      1(  19)  ---------------------------------------


    POTLOK:  cpu time    0.3165: real time    0.3165
    SETDIJ:  cpu time    0.0168: real time    0.0168
     EDDAV:  cpu time    8.9199: real time    8.9214
       DOS:  cpu time    0.0013: real time    0.0013
    CHARGE:  cpu time    0.3694: real time    0.3694
    MIXING:  cpu time    0.0354: real time    0.0354
    --------------------------------------------
      LOOP:  cpu time    9.6592: real time    9.6608

 eigenvalue-minimisations  :  1288
 total energy-change (2. order) : 0.1317680E+00  (-0.4359649E-01)
 number of electron     791.9997179 magnetization 
 augmentation part      311.6428981 magnetization 

 Broyden mixing:
  rms(total) = 0.48786E+00    rms(broyden)= 0.48757E+00
  rms(prec ) = 0.57645E+00
  weight for this iteration     100.00

 eigenvalues of (default mixing * dielectric matrix)
  average eigenvalue GAMMA=   0.5970
  2.1693  1.4880  1.4880  0.6144  0.6144  0.4264  0.4264  0.2110  0.2110  0.1696
  0.1408  0.1408  0.1211  0.1370

 Free energy of the ion-electron system (eV)
  ---------------------------------------------------
  alpha Z        PSCENC =      1422.52235994
  Ewald energy   TEWEN  =    151881.12552011
  -Hartree energ DENC   =   -271464.75873746
  -exchange      EXHF   =         0.00000000
  -V(xc)+E(xc)   XCENC  =      3653.30479961
  PAW double counting   =    141542.26971359  -146541.24139592
  entropy T*S    EENTRO =        -0.97473948
  eigenvalues    EBANDS =    -16835.50843105
  atomic energy  EATOM  =    136002.60505376
  Solvation  Ediel_sol  =         0.00000000
  ---------------------------------------------------
  free energy    TOTEN  =      -340.65585690 eV

  energy without entropy =     -339.68111742  energy(sigma->0) =     -340.16848716


--------------------------------------------------------------------------------------------------------




--------------------------------------- Iteration      1(  20)  ---------------------------------------


    POTLOK:  cpu time    0.3772: real time    0.3772
    SETDIJ:  cpu time    0.0167: real time    0.0167
     EDDAV:  cpu time    8.9831: real time    8.9849
       DOS:  cpu time    0.0014: real time    0.0014
    CHARGE:  cpu time    0.2606: real time    0.2606
    MIXING:  cpu time    0.0168: real time    0.0168
    --------------------------------------------
      LOOP:  cpu time    9.6558: real time    9.6575

 eigenvalue-minimisations  :  1304
 total energy-change (2. order) : 0.4473139E-01  (-0.2999291E-01)
 number of electron     791.9997181 magnetization 
 augmentation part      311.8811162 magnetization 

 Broyden mixing:
  rms(total) = 0.36488E+00    rms(broyden)= 0.36459E+00
  rms(prec ) = 0.42742E+00
  weight for this iteration     100.00

 eigenvalues of (default mixing * dielectric matrix)
  average eigenvalue GAMMA=   0.5928
  2.0804  1.4928  1.4928  0.8040  0.8040  0.4292  0.4292  0.2515  0.2032  0.2032
  0.1408  0.1408  0.1614  0.1211  0.1370

 Free energy of the ion-electron system (eV)
  ---------------------------------------------------
  alpha Z        PSCENC =      1422.52235994
  Ewald energy   TEWEN  =    151881.12552011
  -Hartree energ DENC   =   -271483.30785464
  -exchange      EXHF   =         0.00000000
  -V(xc)+E(xc)   XCENC  =      3653.23904064
  PAW double counting   =    141105.12811505  -146098.88450674
  entropy T*S    EENTRO =        -1.01731094
  eigenvalues    EBANDS =    -16822.02154269
  atomic energy  EATOM  =    136002.60505376
  Solvation  Ediel_sol  =         0.00000000
  ---------------------------------------------------
  free energy    TOTEN  =      -340.61112551 eV

  energy without entropy =     -339.59381457  energy(sigma->0) =     -340.10247004


--------------------------------------------------------------------------------------------------------




--------------------------------------- Iteration      1(  21)  ---------------------------------------


    POTLOK:  cpu time    0.3192: real time    0.3192
    SETDIJ:  cpu time    0.0176: real time    0.0176
     EDDAV:  cpu time    9.1926: real time    9.1973
       DOS:  cpu time    0.0014: real time    0.0014
    CHARGE:  cpu time    0.2601: real time    0.2601
    MIXING:  cpu time    0.0186: real time    0.0186
    --------------------------------------------
      LOOP:  cpu time    9.8095: real time    9.8142

 eigenvalue-minimisations  :  1296
 total energy-change (2. order) : 0.3394970E-01  (-0.1934841E-01)
 number of electron     791.9997176 magnetization 
 augmentation part      312.0095919 magnetization 

 Broyden mixing:
  rms(total) = 0.24842E+00    rms(broyden)= 0.24815E+00
  rms(prec ) = 0.28376E+00
  weight for this iteration     100.00

 eigenvalues of (default mixing * dielectric matrix)
  average eigenvalue GAMMA=   0.6045
  2.1456  2.1456  1.0352  0.9011  0.9011  0.4305  0.4305  0.3888  0.2159  0.1886
  0.1886  0.1405  0.1405  0.1666  0.1212  0.1323

 Free energy of the ion-electron system (eV)
  ---------------------------------------------------
  alpha Z        PSCENC =      1422.52235994
  Ewald energy   TEWEN  =    151881.12552011
  -Hartree energ DENC   =   -271496.83773217
  -exchange      EXHF   =         0.00000000
  -V(xc)+E(xc)   XCENC  =      3653.23446998
  PAW double counting   =    140845.77646185  -145836.87812323
  entropy T*S    EENTRO =        -0.99648573
  eigenvalues    EBANDS =    -16811.12870032
  atomic energy  EATOM  =    136002.60505376
  Solvation  Ediel_sol  =         0.00000000
  ---------------------------------------------------
  free energy    TOTEN  =      -340.57717581 eV

  energy without entropy =     -339.58069007  energy(sigma->0) =     -340.07893294


--------------------------------------------------------------------------------------------------------




--------------------------------------- Iteration      1(  22)  ---------------------------------------


    POTLOK:  cpu time    0.3205: real time    0.3210
    SETDIJ:  cpu time    0.0169: real time    0.0169
     EDDAV:  cpu time    8.3502: real time    8.3540
       DOS:  cpu time    0.0011: real time    0.0011
    CHARGE:  cpu time    0.2565: real time    0.2566
    MIXING:  cpu time    0.0184: real time    0.0184
    --------------------------------------------
      LOOP:  cpu time    8.9636: real time    8.9681

 eigenvalue-minimisations  :  1144
 total energy-change (2. order) : 0.1080441E-01  (-0.9135255E-02)
 number of electron     791.9997176 magnetization 
 augmentation part      312.0048168 magnetization 

 Broyden mixing:
  rms(total) = 0.23072E+00    rms(broyden)= 0.23064E+00
  rms(prec ) = 0.26156E+00
  weight for this iteration     100.00

 eigenvalues of (default mixing * dielectric matrix)
  average eigenvalue GAMMA=   0.5921
  2.1588  2.1588  1.0210  0.9365  0.9365  0.4316  0.4316  0.3483  0.3483  0.2120
  0.2120  0.1407  0.1407  0.1739  0.1598  0.1211  0.1336

 Free energy of the ion-electron system (eV)
  ---------------------------------------------------
  alpha Z        PSCENC =      1422.52235994
  Ewald energy   TEWEN  =    151881.12552011
  -Hartree energ DENC   =   -271508.18976491
  -exchange      EXHF   =         0.00000000
  -V(xc)+E(xc)   XCENC  =      3653.24102545
  PAW double counting   =    140698.09104097  -145687.89044134
  entropy T*S    EENTRO =        -1.00981482
  eigenvalues    EBANDS =    -16801.06135056
  atomic energy  EATOM  =    136002.60505376
  Solvation  Ediel_sol  =         0.00000000
  ---------------------------------------------------
  free energy    TOTEN  =      -340.56637140 eV

  energy without entropy =     -339.55655658  energy(sigma->0) =     -340.06146399


--------------------------------------------------------------------------------------------------------




--------------------------------------- Iteration      1(  23)  ---------------------------------------


    POTLOK:  cpu time    0.3248: real time    0.3248
    SETDIJ:  cpu time    0.0168: real time    0.0168
     EDDAV:  cpu time    8.6836: real time    8.6858
       DOS:  cpu time    0.0011: real time    0.0011
    CHARGE:  cpu time    0.2567: real time    0.2568
    MIXING:  cpu time    0.0204: real time    0.0203
    --------------------------------------------
      LOOP:  cpu time    9.3034: real time    9.3057

 eigenvalue-minimisations  :  1248
 total energy-change (2. order) : 0.3966181E-02  (-0.4361964E-02)
 number of electron     791.9997177 magnetization 
 augmentation part      312.0610711 magnetization 

 Broyden mixing:
  rms(total) = 0.22316E+00    rms(broyden)= 0.22310E+00
  rms(prec ) = 0.25009E+00
  weight for this iteration     100.00

 eigenvalues of (default mixing * dielectric matrix)
  average eigenvalue GAMMA=   0.6246
  2.3195  2.3195  1.1521  1.1521  0.7629  0.7629  0.4316  0.4316  0.4482  0.2100
  0.2100  0.1881  0.1406  0.1406  0.1212  0.1647  0.1543  0.1328

 Free energy of the ion-electron system (eV)
  ---------------------------------------------------
  alpha Z        PSCENC =      1422.52235994
  Ewald energy   TEWEN  =    151881.12552011
  -Hartree energ DENC   =   -271510.46081947
  -exchange      EXHF   =         0.00000000
  -V(xc)+E(xc)   XCENC  =      3653.24192546
  PAW double counting   =    140699.57632938  -145689.65932641
  entropy T*S    EENTRO =        -1.00298153
  eigenvalues    EBANDS =    -16798.51046646
  atomic energy  EATOM  =    136002.60505376
  Solvation  Ediel_sol  =         0.00000000
  ---------------------------------------------------
  free energy    TOTEN  =      -340.56240522 eV

  energy without entropy =     -339.55942369  energy(sigma->0) =     -340.06091445


--------------------------------------------------------------------------------------------------------




--------------------------------------- Iteration      1(  24)  ---------------------------------------


    POTLOK:  cpu time    0.3866: real time    0.3868
    SETDIJ:  cpu time    0.0374: real time    0.0374
     EDDAV:  cpu time    8.6526: real time    8.6545
       DOS:  cpu time    0.0012: real time    0.0012
    CHARGE:  cpu time    0.2557: real time    0.2557
    MIXING:  cpu time    0.0198: real time    0.0198
    --------------------------------------------
      LOOP:  cpu time    9.3533: real time    9.3555

 eigenvalue-minimisations  :  1216
 total energy-change (2. order) : 0.5556552E-02  (-0.3029335E-02)
 number of electron     791.9997176 magnetization 
 augmentation part      312.0514363 magnetization 

 Broyden mixing:
  rms(total) = 0.18428E+00    rms(broyden)= 0.18423E+00
  rms(prec ) = 0.21473E+00
  weight for this iteration     100.00

 eigenvalues of (default mixing * dielectric matrix)
  average eigenvalue GAMMA=   0.6382
  2.2632  2.2632  1.3595  1.3595  0.7382  0.7382  0.7234  0.4306  0.4306  0.3667
  0.2064  0.2064  0.1946  0.1406  0.1406  0.1212  0.1633  0.1330  0.1471

 Free energy of the ion-electron system (eV)
  ---------------------------------------------------
  alpha Z        PSCENC =      1422.52235994
  Ewald energy   TEWEN  =    151881.12552011
  -Hartree energ DENC   =   -271521.35627232
  -exchange      EXHF   =         0.00000000
  -V(xc)+E(xc)   XCENC  =      3653.32533696
  PAW double counting   =    140658.41975156  -145649.01014359
  entropy T*S    EENTRO =        -0.99950330
  eigenvalues    EBANDS =    -16787.18895179
  atomic energy  EATOM  =    136002.60505376
  Solvation  Ediel_sol  =         0.00000000
  ---------------------------------------------------
  free energy    TOTEN  =      -340.55684867 eV

  energy without entropy =     -339.55734537  energy(sigma->0) =     -340.05709702


--------------------------------------------------------------------------------------------------------




--------------------------------------- Iteration      1(  25)  ---------------------------------------


    POTLOK:  cpu time    0.3214: real time    0.3214
    SETDIJ:  cpu time    0.0171: real time    0.0171
     EDDAV:  cpu time    9.2688: real time    9.2705
       DOS:  cpu time    0.0011: real time    0.0011
    CHARGE:  cpu time    0.2567: real time    0.2568
    MIXING:  cpu time    0.0209: real time    0.0209
    --------------------------------------------
      LOOP:  cpu time    9.8860: real time    9.8878

 eigenvalue-minimisations  :  1304
 total energy-change (2. order) : 0.8554330E-02  (-0.3024732E-02)
 number of electron     791.9997175 magnetization 
 augmentation part      312.1398839 magnetization 

 Broyden mixing:
  rms(total) = 0.14734E+00    rms(broyden)= 0.14726E+00
  rms(prec ) = 0.16809E+00
  weight for this iteration     100.00

 eigenvalues of (default mixing * dielectric matrix)
  average eigenvalue GAMMA=   0.6513
  2.7167  1.9804  1.5043  1.5043  0.8303  0.8303  0.7557  0.4313  0.4313  0.3937
  0.2118  0.2118  0.1908  0.1908  0.1406  0.1406  0.1212  0.1621  0.1328  0.1459

 Free energy of the ion-electron system (eV)
  ---------------------------------------------------
  alpha Z        PSCENC =      1422.52235994
  Ewald energy   TEWEN  =    151881.12552011
  -Hartree energ DENC   =   -271523.92591016
  -exchange      EXHF   =         0.00000000
  -V(xc)+E(xc)   XCENC  =      3653.30899875
  PAW double counting   =    140755.38617288  -145747.38978229
  entropy T*S    EENTRO =        -0.99500437
  eigenvalues    EBANDS =    -16783.18570295
  atomic energy  EATOM  =    136002.60505376
  Solvation  Ediel_sol  =         0.00000000
  ---------------------------------------------------
  free energy    TOTEN  =      -340.54829434 eV

  energy without entropy =     -339.55328996  energy(sigma->0) =     -340.05079215


--------------------------------------------------------------------------------------------------------




[...]
    FORCOR:  cpu time    0.4250: real time    0.4251
    FORHAR:  cpu time    0.1852: real time    0.1852
    MIXING:  cpu time    0.0767: real time    0.0767
    OFIELD:  cpu time    0.0001: real time    0.0001

  FORCE on cell =-STRESS in cart. coord.  units (eV):
  Direction    XX          YY          ZZ          XY          YZ          ZX
  --------------------------------------------------------------------------------------
  Alpha Z  1422.52236  1422.52236  1422.52236
  Ewald  201437.15584199921.08966************   724.52377   930.35096   850.17913
  Hartree234731.83564234407.82539************   644.40620   667.12286   550.22881
  E(xc)   -5052.87206 -5054.75205 -5063.57883    -0.05085     0.57267     0.66841
  Local  ************************434393.73795 -1371.06405 -1580.13372 -1380.45435
  n-local  -575.25387  -588.12124  -603.59110    -1.39130     6.80690     2.41314
  augment  5763.10211  5791.96696  5819.11542    -0.13990    -7.46900    -9.52676
  Kinetic 11054.18069 11102.33020 11217.29517     1.99748   -12.75204   -13.38245
  Fock        0.00000     0.00000     0.00000     0.00000     0.00000     0.00000
  -------------------------------------------------------------------------------------
  Total     125.95874   126.19250   131.75377    -1.71865     4.49863     0.12593
  in kB      77.17325    77.31647    80.72379    -1.05299     2.75625     0.07715
  external pressure =       78.40 kB  Pullay stress =        0.00 kB


 VOLUME and BASIS-vectors are now :
 -----------------------------------------------------------------------------
  energy-cutoff  :      450.00
  volume of cell :     2615.00
      direct lattice vectors                 reciprocal lattice vectors
    16.884694054  0.000000000  0.000000000     0.059225237  0.000000000  0.000000000
     0.000000000  9.578410000  0.000000000     0.000000000  0.104401461  0.000000000
     0.000000000  0.000000000 16.169087120     0.000000000  0.000000000  0.061846411

  length of vectors
    16.884694054  9.578410000 16.169087120     0.059225237  0.104401461  0.061846411


 FORCES acting on ions
    electron-ion (+dipol)            ewald-force                    non-local-force                 convergence-correction
 -----------------------------------------------------------------------------------------------
   -.404E+03 0.613E+03 0.177E+04   0.409E+03 -.617E+03 -.177E+04   -.512E+01 0.332E+01 0.231E+01   -.145E-01 0.715E-02 0.527E-02
   0.235E+03 0.127E+03 -.239E+04   -.234E+03 -.128E+03 0.239E+04   -.107E+01 0.553E+00 0.631E+00   -.161E-01 0.107E-02 0.131E-01
   0.292E+03 0.120E+03 0.291E+04   -.292E+03 -.120E+03 -.292E+04   0.631E+00 0.101E+01 0.715E+01   0.191E-01 -.266E-03 0.481E-02
   0.585E+03 0.491E+02 -.113E+04   -.587E+03 -.493E+02 0.114E+04   0.228E+01 0.763E-01 -.414E+01   -.246E-02 0.296E-02 0.344E-02
   0.371E+02 -.413E+03 0.228E+04   -.377E+02 0.413E+03 -.229E+04   0.132E+01 0.313E+00 0.745E+01   0.154E-01 0.708E-02 0.103E-01
   0.922E+02 -.870E+02 -.182E+04   -.953E+02 0.875E+02 0.183E+04   0.247E+01 -.101E-02 -.653E+01   0.948E-02 0.215E-02 0.207E-01
   0.885E+03 0.497E+02 0.144E+04   -.890E+03 -.505E+02 -.144E+04   0.480E+01 0.133E+01 0.382E+01   -.828E-02 -.193E-02 -.674E-02
   0.396E+03 0.208E+02 -.313E+04   -.399E+03 -.209E+02 0.313E+04   0.296E+01 0.141E+00 0.744E+00   0.844E-02 0.217E-02 0.155E-01
   0.732E+03 -.550E+02 0.928E+03   -.736E+03 0.555E+02 -.930E+03   0.329E+01 -.762E+00 0.242E+01   0.107E-02 -.353E-02 0.249E-01
   0.232E+03 0.162E+01 -.343E+04   -.235E+03 -.929E+00 0.343E+04   0.430E+01 -.850E+00 0.446E+00   0.155E-01 -.676E-02 0.782E-02
   -.755E+03 -.173E+03 0.178E+04   0.758E+03 0.174E+03 -.178E+04   -.257E+01 -.185E+01 0.316E+01   0.570E-02 -.201E-02 0.177E-01
   -.106E+03 -.102E+03 -.221E+04   0.102E+03 0.101E+03 0.222E+04   0.277E+01 0.861E+00 -.633E+01   -.200E-01 -.364E-02 -.512E-02
   0.299E+03 0.775E+02 0.251E+04   -.298E+03 -.807E+02 -.252E+04   -.885E+00 0.333E+01 0.541E+01   0.205E-02 -.845E-04 -.185E-02
   0.273E+03 0.401E+03 -.196E+04   -.273E+03 -.403E+03 0.197E+04   -.794E+00 0.177E+01 -.314E+01   0.127E-01 -.653E-03 0.105E-01
   -.805E+02 0.442E+03 0.398E+04   0.793E+02 -.442E+03 -.399E+04   0.791E+00 0.433E+00 0.506E+01   -.631E-02 -.952E-02 0.416E-02
   -.317E+03 0.614E+03 0.469E+03   0.317E+03 -.617E+03 -.470E+03   0.407E+00 0.356E+01 -.123E+00   0.165E-01 0.736E-02 0.103E-01
   -.238E+03 0.124E+03 -.360E+04   0.240E+03 -.128E+03 0.360E+04   -.248E+01 0.407E+01 0.193E+01   0.138E-01 0.179E-02 0.532E-02
   -.370E+03 0.145E+03 0.347E+04   0.367E+03 -.144E+03 -.348E+04   0.186E+01 -.531E+00 0.502E+01   0.409E-02 0.699E-02 0.105E-01
   -.979E+03 0.565E+03 -.629E+03   0.983E+03 -.571E+03 0.632E+03   -.240E+01 0.561E+01 -.469E+01   -.475E-02 -.827E-02 0.167E-01
   0.425E+03 0.747E+03 0.203E+04   -.425E+03 -.753E+03 -.203E+04   0.983E+00 0.605E+01 0.307E+01   0.138E-01 -.374E-02 -.207E-02
   0.472E+02 0.167E+03 -.278E+04   -.468E+02 -.169E+03 0.278E+04   0.988E-01 0.291E+01 0.166E+00   0.187E-01 0.306E-03 0.153E-01
   0.428E+03 0.333E+03 0.132E+04   -.429E+03 -.336E+03 -.132E+04   0.167E+01 0.204E+01 0.299E+01   -.634E-02 -.562E-02 0.294E-01
   0.111E+03 0.108E+03 -.322E+04   -.110E+03 -.113E+03 0.322E+04   -.119E+01 0.449E+01 0.166E+01   0.174E-02 -.448E-02 0.230E-01
   -.537E+03 -.672E+03 0.271E+04   0.539E+03 0.675E+03 -.272E+04   -.253E+01 -.230E+01 0.655E+01   -.172E-01 0.114E-01 0.467E-02
   -.436E+03 0.267E+03 -.165E+04   0.438E+03 -.272E+03 0.166E+04   -.135E+01 0.439E+01 -.665E+01   -.321E-01 -.116E-02 0.793E-02
   0.164E+03 -.444E+03 -.884E+03   -.163E+03 0.447E+03 0.885E+03   -.247E+01 -.199E+01 -.108E+01   0.965E-02 -.538E-02 0.898E-02
   -.427E+03 -.242E+03 0.392E+04   0.425E+03 0.243E+03 -.392E+04   0.252E+01 -.755E+00 -.166E+01   0.727E-02 -.115E-01 0.923E-02
   -.373E+03 -.247E+03 0.462E+02   0.374E+03 0.249E+03 -.445E+02   -.193E-01 -.251E+01 -.179E+01   0.164E-01 -.111E-01 0.257E-01
   -.320E+03 -.124E+03 -.358E+04   0.324E+03 0.128E+03 0.358E+04   -.347E+01 -.479E+01 0.943E+00   0.600E-02 0.266E-02 0.936E-02
   0.133E+03 -.448E+03 0.336E+04   -.132E+03 0.449E+03 -.336E+04   -.149E+01 -.322E-02 0.580E+01   -.108E-01 0.146E-01 0.144E-01
   -.538E+03 -.292E+03 -.111E+04   0.538E+03 0.297E+03 0.111E+04   -.389E+00 -.388E+01 -.657E+01   -.644E-02 0.133E-01 0.155E-01
   0.257E+03 -.632E+03 0.205E+04   -.256E+03 0.638E+03 -.205E+04   -.879E-01 -.537E+01 0.364E+01   0.163E-01 0.637E-02 0.612E-02
   0.263E+02 -.144E+03 -.279E+04   -.263E+02 0.146E+03 0.279E+04   0.323E+00 -.274E+01 -.519E+00   0.224E-01 0.884E-02 0.152E-01
   0.163E+03 -.430E+03 0.139E+04   -.164E+03 0.433E+03 -.139E+04   0.163E+01 -.230E+01 0.377E+01   -.381E-02 0.846E-02 0.152E-01
   0.554E+02 -.125E+03 -.322E+04   -.546E+02 0.129E+03 0.321E+04   -.668E+00 -.423E+01 0.214E+01   0.237E-03 -.568E-02 0.156E-01
   -.326E+03 -.716E+03 -.102E+04   0.329E+03 0.722E+03 0.102E+04   -.226E+01 -.530E+01 -.768E+00   -.291E-01 -.643E-02 0.615E-02
   0.191E+03 -.644E+02 -.151E+04   -.191E+03 0.653E+02 0.152E+04   -.825E+00 -.410E+00 -.169E+01   0.119E-01 -.252E-02 0.587E-02
   0.324E+01 -.108E+03 0.721E+03   -.363E+01 0.110E+03 -.725E+03   0.112E+01 -.907E+00 0.197E+01   0.913E-02 -.174E-02 0.855E-03
   -.416E+03 0.141E+03 0.137E+04   0.420E+03 -.144E+03 -.137E+04   -.290E+01 0.271E+01 0.224E+01   0.690E-02 -.248E-02 0.849E-02
   -.201E+03 0.211E+02 -.896E+03   0.201E+03 -.208E+02 0.901E+03   0.770E+00 -.267E+00 -.419E+01   0.527E-02 0.240E-02 -.135E-03
   -.299E+03 0.440E+03 0.920E+03   0.301E+03 -.445E+03 -.926E+03   -.211E+01 0.275E+01 0.480E+01   -.648E-02 0.341E-03 0.572E-02
   -.156E+03 0.134E+03 -.927E+03   0.156E+03 -.134E+03 0.934E+03   -.923E-01 0.178E+00 -.439E+01   -.115E-01 0.221E-02 0.396E-02
   0.170E+03 -.198E+02 0.173E+04   -.170E+03 0.206E+02 -.173E+04   -.601E+00 -.813E+00 0.222E+01   0.777E-02 -.853E-03 -.387E-02
   -.413E+02 -.166E+02 -.291E+03   0.414E+02 0.169E+02 0.295E+03   0.147E+01 -.225E+00 -.340E+01   0.937E-02 0.197E-02 0.608E-02
   0.176E+03 -.962E+02 0.165E+04   -.177E+03 0.968E+02 -.165E+04   0.150E+01 -.470E+00 0.198E+01   0.197E-02 0.234E-02 -.406E-02
   -.685E+02 -.613E+02 -.622E+03   0.692E+02 0.613E+02 0.627E+03   0.333E+00 -.550E-01 -.455E+01   0.201E-02 -.473E-02 0.128E-01
   -.370E+02 -.257E+03 0.685E+03   0.372E+02 0.259E+03 -.689E+03   0.482E+00 -.117E+01 0.231E+01   -.104E-01 -.257E-02 -.182E-03
   -.537E+02 -.241E+02 -.128E+04   0.556E+02 0.241E+02 0.128E+04   -.103E+01 0.514E-01 -.317E+01   -.913E-02 -.203E-02 0.323E-02
   -.242E+03 0.427E+02 0.169E+04   0.243E+03 -.422E+02 -.169E+04   -.428E+00 -.464E+00 0.197E+01   -.297E-02 0.478E-02 -.251E-02
   -.243E+03 -.917E+02 0.275E+02   0.247E+03 0.916E+02 -.272E+02   -.242E+01 0.629E-01 0.193E+00   -.668E-02 0.643E-02 0.125E-02
   0.325E+03 -.190E+03 0.806E+03   -.328E+03 0.192E+03 -.807E+03   0.130E+01 -.110E+01 0.904E-01   -.108E-02 -.112E-01 0.553E-02
   0.192E+03 0.809E+02 -.125E+04   -.193E+03 -.802E+02 0.126E+04   0.279E-01 -.642E-01 -.299E+01   0.218E-02 0.512E-02 0.468E-02
   0.618E+02 -.271E+03 0.636E+03   -.636E+02 0.274E+03 -.637E+03   0.544E+00 -.103E+01 0.121E+01   0.438E-02 0.392E-02 0.696E-02
   -.210E+03 0.555E+02 -.144E+04   0.211E+03 -.543E+02 0.144E+04   -.109E+01 -.129E+01 -.237E+01   0.133E-02 0.300E-02 -.760E-03
   0.213E+03 -.166E+03 -.462E+03   -.213E+03 0.167E+03 0.463E+03   -.494E+00 0.134E+00 -.139E+01   0.798E-02 0.531E-02 0.590E-02
   0.246E+03 -.101E+03 0.141E+04   -.248E+03 0.102E+03 -.142E+04   0.112E+01 -.427E+00 0.298E+01   -.103E-02 0.320E-02 -.466E-02
   0.244E+03 0.647E+02 0.114E+04   -.245E+03 -.661E+02 -.115E+04   0.564E+00 0.101E+01 0.408E+01   0.581E-03 -.411E-02 0.236E-02
   0.121E+03 -.117E+03 -.817E+03   -.122E+03 0.119E+03 0.820E+03   0.159E-01 -.182E+01 -.171E+01   -.160E-02 -.604E-02 0.698E-02
   -.275E+03 -.220E+03 0.372E+03   0.275E+03 0.221E+03 -.376E+03   0.571E-01 -.416E-01 0.273E+01   -.108E-01 -.814E-02 0.362E-02
   -.723E+02 -.279E+03 -.149E+04   0.715E+02 0.282E+03 0.150E+04   0.439E+00 -.245E+01 -.152E+01   -.987E-02 -.337E-02 0.310E-03
   0.296E+02 0.375E+03 0.899E+03   -.299E+02 -.378E+03 -.902E+03   -.359E+00 0.129E+01 0.294E+01   0.851E-03 0.879E-02 0.112E-02
   0.194E+03 -.343E+02 -.115E+04   -.195E+03 0.337E+02 0.116E+04   -.131E+00 0.219E+00 -.244E+01   0.366E-02 0.241E-02 0.234E-02
   -.118E+02 0.112E+03 0.139E+04   0.126E+02 -.113E+03 -.140E+04   -.563E+00 0.121E+01 0.280E+01   0.242E-03 -.139E-02 -.266E-02
   0.251E+03 0.204E+03 -.692E+02   -.255E+03 -.205E+03 0.698E+02   0.292E+01 -.102E+01 0.494E+00   -.408E-02 -.299E-02 0.127E-02
   0.230E+03 0.196E+03 -.440E+03   -.230E+03 -.197E+03 0.441E+03   -.530E+00 0.343E-01 -.137E+01   0.640E-02 -.214E-02 0.522E-02
   0.304E+03 0.303E+03 0.138E+04   -.307E+03 -.306E+03 -.138E+04   0.144E+01 0.118E+01 0.808E+00   -.221E-02 -.376E-02 -.654E-02
   -.305E+03 0.180E+03 0.497E+03   0.306E+03 -.183E+03 -.497E+03   -.144E+01 0.140E+01 0.395E+00   0.480E-02 -.224E-02 0.102E-01
   -.257E+03 -.615E+02 -.147E+04   0.259E+03 0.598E+02 0.147E+04   -.121E+01 0.152E+01 -.126E+01   -.329E-02 -.554E-02 0.227E-02
   -.194E+02 -.118E+03 0.177E+03   0.176E+02 0.117E+03 -.177E+03   0.602E+00 0.191E+01 -.542E+00   -.820E-02 0.580E-02 0.655E-02
   -.528E+02 0.251E+03 -.152E+04   0.517E+02 -.255E+03 0.153E+04   0.409E+00 0.179E+01 -.840E+00   -.746E-02 0.199E-02 -.247E-02
   0.220E+03 -.482E+02 0.115E+04   -.221E+03 0.486E+02 -.115E+04   0.393E+00 -.335E+00 0.409E+01   -.170E-02 0.385E-02 0.418E-02
   0.125E+03 0.108E+03 -.836E+03   -.125E+03 -.109E+03 0.839E+03   0.187E+00 0.138E+01 -.144E+01   0.232E-02 0.271E-02 0.963E-02
 -----------------------------------------------------------------------------------------------
   -.342E+01 -.107E+02 -.338E+02   0.156E-12 -.213E-12 -.284E-11   0.334E+01 0.106E+02 0.333E+02   0.485E-01 0.116E-01 0.486E+00
 
 
 POSITION                                       TOTAL-FORCE (eV/Angst)
 -----------------------------------------------------------------------------------
     12.87128      2.01997      2.16550         0.197457     -0.098810      1.054651
     13.82101      1.59744      4.38150        -0.101382      0.298500      0.650902
      3.62895      5.93303      1.54260         0.999808      0.372391     -0.145632
      5.02033      6.18092      3.49202        -0.211085     -0.082186     -0.090928
      6.51721      1.14910      2.03473         0.746128      0.428205     -0.455049
      7.93172      1.39171      4.00611        -0.601245      0.469611     -0.750845
     16.08224      6.18092      2.46384        -0.303763      0.521019      2.461110
     16.28348      6.18231      5.05071         0.372971      0.047801      0.878259
      2.10894      1.39171      2.97793         0.104276     -0.222555      0.157226
      1.81145      1.39472      5.30364         0.995502     -0.163778      1.045176
      9.59939      6.33441      2.60772         0.619447     -0.742557     -0.448292
     10.84312      6.18092      4.52020        -1.006302     -0.431653     -0.324681
     15.42927      9.39781      1.95483         0.233495      0.165084     -0.842597
     15.98816      0.14272      4.29038        -0.857497     -0.775447      0.100073
      6.04678      6.16789      0.93771        -0.459981      0.062038     -1.625390
      7.17375      4.91558      3.08454         0.487217     -0.201284     -1.276936
      7.84824      4.45756      5.37921        -0.249094      0.567897      0.772688
      8.93728      1.41065      1.43458        -0.274356     -0.081874     -1.760036
     10.08514      0.12638      3.59863         1.533462      0.134364     -1.490252
      1.35096      4.91558      2.05636         0.789440     -0.157250      1.852447
      1.90008      4.80005      4.70132         0.539435      0.568781      1.081504
      4.26235      0.12638      2.57045         0.149825     -0.813003      0.935549
      4.94290      9.31673      4.94331         0.062882      0.156134      0.787985
     12.94558      4.48648      1.80644        -0.192966      0.891187     -0.248167
     12.99653      4.91558      4.11272         0.789601      0.142936     -0.513758
     16.10778      2.61186      3.93703        -1.118652      0.955985     -0.389607
      7.00309      8.46977      0.95564         0.225412      0.188143     -0.737180
      7.17375      7.44626      3.08454         0.514949     -0.418124     -0.089774
      7.93504      7.98906      5.30111        -0.318473     -0.775075      0.978117
     10.72104      3.34968      1.29383        -1.396782      0.501406     -0.552851
     10.08514      2.65705      3.59863         0.333959      0.467164     -1.283017
      1.35096      7.44626      2.05636         0.412909      0.359930      1.749382
      1.90183      7.55891      4.70962         0.263867     -0.479937      1.067310
      4.26235      2.65705      2.57045         0.592044      0.638188      1.150339
      4.90985      2.97527      5.01504         0.105785     -0.033973      0.580052
     12.99653      7.44626      4.11272         0.831826      0.853197     -2.140869
     16.69969      1.55490      5.60010        -0.224167      0.445250      3.117146
      0.00390      1.15836      2.67089         0.740840      0.680960     -1.189717
      8.00634      6.18092      1.40713         1.085315      0.322421     -2.740938
      8.59001      6.18092      4.49167         1.013555      0.083371      1.448461
     10.91773      1.39171      1.92122        -0.449555     -2.695832     -1.291451
     11.72778      1.48667      4.32027         0.418996     -0.204930      2.063764
      1.90178      6.18954      0.51550        -0.023287     -0.034449     -3.780176
      2.76722      6.18092      3.46349         1.579305      0.120792      0.675737
      4.76166      1.39537      1.01688         0.381646      0.107677     -3.529538
      5.67861      1.39171      3.97758         1.055734     -0.118454      1.088871
     13.88615      6.18510      2.59424         0.638826      1.091101     -1.975662
     14.24633      6.19394      5.24309         0.866549      0.066309      2.571059
     12.53046      3.12022      0.38111         1.109033      0.076281     -3.592909
     14.15709      3.31621      3.24362         1.323245     -0.031035      0.419461
      5.26426      7.79215      1.92599        -1.646988      1.121141     -0.528494
      5.96554      7.55639      4.86025        -1.248996      0.584035      1.856230
      8.17565      3.00295      2.44008        -1.234836      1.473945     -0.147686
      8.90067      2.75965      5.28809         0.491558     -0.059298      2.733721
      0.02514      7.79215      3.98236        -0.814784      1.281215      0.436012
     16.38202      7.76351      1.16713        -0.669126      0.512417     -2.931430
      2.37841      3.10124      1.77548        -0.843262     -0.346569     -2.560709
      2.93654      3.00295      4.49645        -0.880881     -0.105739      1.079389
     11.03413      7.80568      3.18214         0.129094      1.387013     -1.493272
     11.79832      7.51067      5.73316        -0.356974      1.330722      3.677429
      5.26426      4.56969      1.92599        -0.645784     -1.896143     -0.187996
      5.90740      4.73822      4.79445        -1.050851     -0.384692      1.983625
     14.06827      0.89730      0.95581         0.268765     -0.618585     -2.726624
     13.99844      9.35889      3.46826        -0.537033     -2.042823      1.027656
      0.02514      4.56969      3.98236        -0.789381     -1.325001     -0.124230
     16.44474      4.72257      1.12761        -1.519070     -2.070387     -3.063044
      8.17565      9.35889      2.44008        -0.108057     -1.413179      0.028156
      8.98436      0.11393      5.32256         0.000598     -0.214644      3.149608
     11.08705      4.56969      2.95417        -1.202998      0.805456      0.227526
     11.70972      4.74222      5.67244        -0.670959     -1.506101      3.633665
      2.38023      9.26345      1.76938        -0.515849      0.026244     -2.626233
      2.93654      9.35889      4.49645        -0.480343      0.239058      1.135683
 -----------------------------------------------------------------------------------
    total drift:                               -0.036385     -0.085882     -0.026430


--------------------------------------------------------------------------------------------------------



  FREE ENERGIE OF THE ION-ELECTRON SYSTEM (eV)
  ---------------------------------------------------
  free  energy   TOTEN  =      -340.54241808 eV

  energy  without entropy=     -339.54446524  energy(sigma->0) =     -340.04344166
 


--------------------------------------------------------------------------------------------------------


    POTLOK:  cpu time    0.3386: real time    0.3389


--------------------------------------------------------------------------------------------------------


     LOOP+:  cpu time  369.8629: real time  370.0182
    4ORBIT:  cpu time    0.0000: real time    0.0000

 total amount of memory used by VASP MPI-rank0    77173. kBytes
=======================================================================

   base      :      30000. kBytes
   nonlr-proj:       2064. kBytes
   fftplans  :       9935. kBytes
   grid      :      16773. kBytes
   one-center:         93. kBytes
   wavefun   :      18308. kBytes
 
  
  
 General timing and accounting informations for this job:
 ========================================================
  
                  Total CPU time used (sec):      373.016
                            User time (sec):      372.574
                          System time (sec):        0.442
                         Elapsed time (sec):      373.413
  
                   Maximum memory used (kb):      213996.
                   Average memory used (kb):           0.
  
                          Minor page faults:       141613
                          Major page faults:            0
                 Voluntary context switches:          178
