<?xml version="1.0" encoding="ISO-8859-1"?>
<modeling>
 <generator>
  <i name="program" type="string">vasp </i>
  <i name="version" type="string">5.4.4.18Apr17-6-g9f103f2a35  </i>
  <i name="subversion" type="string">(build Aug 13 2019 17:33:20) gamma-only         parallel </i>
  <i name="platform" type="string">LinuxIFC </i>
  <i name="date" type="string">2020 05 11 </i>
  <i name="time" type="string">17:53:28 </i>
 </generator>
 <incar>
  <i type="string" name="SYSTEM">"Millerite NiS"</i>
  <i type="string" name="PREC">normal</i>
  <i type="int" name="NSIM">     4</i>
  <i type="int" name="NELM">   100</i>
  <i name="ENCUT">    450.00000000</i>
  <i type="string" name="LREAL">A</i>
  <i type="int" name="ISMEAR">     0</i>
  <i type="int" name="NWRITE">     2</i>
  <i type="logical" name="LWAVE"> F  </i>
  <i type="logical" name="LCHARG"> F  </i>
  <v type="int" name="KPOINT_BSE">    -1     0     0     0</v>
  <i type="int" name="NELM">   100</i>
 </incar>
 <structure name="primitive_cell" >
  <crystal>
   <varray name="basis" >
    <v>      16.88469405       0.00000000       0.00000000 </v>
    <v>       0.00000000       9.57841000       0.00000000 </v>
    <v>       0.00000000       0.00000000      16.16908712 </v>
   </varray>
   <i name="volume">   2615.00256803 </i>
   <varray name="rec_basis" >
    <v>       0.05922524       0.00000000       0.00000000 </v>
    <v>       0.00000000       0.10440146       0.00000000 </v>
    <v>       0.00000000       0.00000000       0.06184641 </v>
   </varray>
  </crystal>
  <varray name="positions" >
   <v>      -0.23769537       0.21088731       0.13392865 </v>
   <v>      -0.16680320       0.09367918       0.05911361 </v>
   <v>      -0.35339478       0.14529695       0.11882039 </v>
   <v>      -0.16154299       0.34621718       0.20060595 </v>
   <v>      -0.25788028       0.32575546       0.02357008 </v>
   <v>      -0.18144768       0.16677456       0.27098016 </v>
   <v>      -0.23329481       0.46839457       0.11172190 </v>
   <v>      -0.30541921       0.15521039       0.26719311 </v>
   <v>      -0.36504364       0.34971162       0.08001887 </v>
   <v>      -0.17093895      -0.02291805       0.21449973 </v>
   <v>      -0.40270525       0.27739995       0.22256260 </v>
   <v>      -0.34336694       0.47708195       0.18270508 </v>
   <v>      -0.08619767      -0.01885473       0.12089935 </v>
   <v>      -0.23027726      -0.48680605       0.25435726 </v>
   <v>      -0.40270525       0.01319395       0.22256260 </v>
   <v>      -0.04601310       0.27268210       0.24349096 </v>
   <v>      -0.47068745       0.14727367       0.08872338 </v>
   <v>       0.00023092       0.12093407       0.16518467 </v>
   <v>      -0.05309718       0.01490016       0.26534434 </v>
   <v>      -0.17758964      -0.35426600       0.16044414 </v>
   <v>      -0.34650079      -0.18507576       0.19680421 </v>
   <v>      -0.23027726      -0.22260005       0.25435726 </v>
   <v>      -0.30648884       0.49509512       0.35081977 </v>
   <v>      -0.02605620       0.49304367       0.06973880 </v>
   <v>       0.48420507       0.31351195       0.15091042 </v>
   <v>      -0.47285588       0.28811164       0.32704962 </v>
   <v>       0.00148905       0.47708195       0.24629439 </v>
   <v>      -0.01095665       0.16233410       0.34634590 </v>
   <v>      -0.35781373      -0.35470305       0.27955828 </v>
   <v>       0.48420507      -0.02291805       0.15091042 </v>
   <v>      -0.04752570      -0.35470305       0.15237965 </v>
   <v>      -0.02977077      -0.18947862       0.07218275 </v>
   <v>       0.46975828       0.14529695       0.24776362 </v>
   <v>      -0.46789911       0.01189464       0.32918117 </v>
   <v>      -0.15625752      -0.35334335       0.32426646 </v>
   <v>      -0.43147404      -0.33867852       0.16127841 </v>
   <v>      -0.30124192      -0.21587503       0.35457554 </v>
   <v>       0.00148905      -0.18648805       0.24629439 </v>
   <v>       0.08001077      -0.48680605       0.12717863 </v>
   <v>      -0.03560686      -0.35455745       0.31236844 </v>
   <v>       0.12490229       0.14529695       0.18417431 </v>
   <v>      -0.49125482      -0.35470305       0.27779368 </v>
   <v>       0.38598348       0.11996803       0.12584050 </v>
   <v>       0.46481383       0.46537568       0.33268463 </v>
   <v>       0.47417723      -0.35470305       0.08702573 </v>
   <v>       0.42486676      -0.48680605       0.19076795 </v>
   <v>       0.14086162       0.32377420       0.10980719 </v>
   <v>       0.10728330       0.14561054       0.32801140 </v>
   <v>       0.41475981      -0.11574393       0.05910286 </v>
   <v>       0.08001077      -0.22260005       0.12717863 </v>
   <v>       0.14096997      -0.03288191       0.10942986 </v>
   <v>       0.46995467      -0.16593055       0.32785472 </v>
   <v>       0.11253277      -0.49886741       0.29075979 </v>
   <v>       0.42486676      -0.22260005       0.19076795 </v>
   <v>       0.17391704       0.31351195       0.27808905 </v>
   <v>       0.11263355      -0.35380310       0.03188171 </v>
   <v>       0.33631719       0.14529695       0.24599902 </v>
   <v>       0.11263661      -0.21083856       0.29127334 </v>
   <v>       0.17391704      -0.02291805       0.27808905 </v>
   <v>       0.34986733       0.49467755       0.29651935 </v>
   <v>       0.31177708       0.47708195       0.11911576 </v>
   <v>       0.16388920      -0.35470305       0.21420436 </v>
   <v>       0.35812171      -0.35606332       0.05799396 </v>
   <v>       0.28201055       0.14567913       0.06289053 </v>
   <v>       0.25243876       0.27739995       0.15897329 </v>
   <v>       0.35331031      -0.21110191       0.30058920 </v>
   <v>       0.25243876       0.01319395       0.15897329 </v>
   <v>       0.31177708      -0.18648805       0.11911576 </v>
   <v>       0.29078718       0.31062297       0.31016242 </v>
   <v>       0.21492553      -0.38058260       0.09540430 </v>
   <v>       0.29274463      -0.02731934       0.30572623 </v>
   <v>       0.29733029      -0.35470305       0.21596896 </v>
  </varray>
 </structure>
 <varray name="primitive_index" >
  <v type="int" >        1 </v>
  <v type="int" >       63 </v>
  <v type="int" >       41 </v>
  <v type="int" >       50 </v>
  <v type="int" >       49 </v>
  <v type="int" >        2 </v>
  <v type="int" >       24 </v>
  <v type="int" >       42 </v>
  <v type="int" >       30 </v>
  <v type="int" >       64 </v>
  <v type="int" >       31 </v>
  <v type="int" >       69 </v>
  <v type="int" >       13 </v>
  <v type="int" >       25 </v>
  <v type="int" >       19 </v>
  <v type="int" >       26 </v>
  <v type="int" >       18 </v>
  <v type="int" >       38 </v>
  <v type="int" >       14 </v>
  <v type="int" >       47 </v>
  <v type="int" >       59 </v>
  <v type="int" >       36 </v>
  <v type="int" >       70 </v>
  <v type="int" >       66 </v>
  <v type="int" >       53 </v>
  <v type="int" >       54 </v>
  <v type="int" >       65 </v>
  <v type="int" >       37 </v>
  <v type="int" >       12 </v>
  <v type="int" >       67 </v>
  <v type="int" >        7 </v>
  <v type="int" >       56 </v>
  <v type="int" >        6 </v>
  <v type="int" >       68 </v>
  <v type="int" >       48 </v>
  <v type="int" >       11 </v>
  <v type="int" >       60 </v>
  <v type="int" >       55 </v>
  <v type="int" >       20 </v>
  <v type="int" >        8 </v>
  <v type="int" >        9 </v>
  <v type="int" >       40 </v>
  <v type="int" >        5 </v>
  <v type="int" >       17 </v>
  <v type="int" >       39 </v>
  <v type="int" >       16 </v>
  <v type="int" >       57 </v>
  <v type="int" >       10 </v>
  <v type="int" >       27 </v>
  <v type="int" >       32 </v>
  <v type="int" >       71 </v>
  <v type="int" >       29 </v>
  <v type="int" >       21 </v>
  <v type="int" >       28 </v>
  <v type="int" >       58 </v>
  <v type="int" >       43 </v>
  <v type="int" >       46 </v>
  <v type="int" >       33 </v>
  <v type="int" >       72 </v>
  <v type="int" >       62 </v>
  <v type="int" >       61 </v>
  <v type="int" >       44 </v>
  <v type="int" >       15 </v>
  <v type="int" >       45 </v>
  <v type="int" >       34 </v>
  <v type="int" >       52 </v>
  <v type="int" >       22 </v>
  <v type="int" >       51 </v>
  <v type="int" >       35 </v>
  <v type="int" >        3 </v>
  <v type="int" >       23 </v>
  <v type="int" >        4 </v>
 </varray>
 <kpoints>
  <generation param="Gamma">
   <v type="int" name="divisions">       1        1        1 </v>
   <v name="usershift">      0.00000000       0.00000000       0.00000000 </v>
   <v name="genvec1">      1.00000000       0.00000000       0.00000000 </v>
   <v name="genvec2">      0.00000000       1.00000000       0.00000000 </v>
   <v name="genvec3">      0.00000000       0.00000000       1.00000000 </v>
   <v name="shift">      0.00000000       0.00000000       0.00000000 </v>
  </generation>
  <varray name="kpointlist" >
   <v>       0.00000000       0.00000000       0.00000000 </v>
  </varray>
  <varray name="weights" >
   <v>       1.00000000 </v>
  </varray>
 </kpoints>
 <parameters>
  <separator name="general" >
   <i type="string" name="SYSTEM">"Millerite NiS"</i>
   <i type="logical" name="LCOMPAT"> F  </i>
  </separator>
  <separator name="electronic" >
   <i type="string" name="PREC">normal</i>
   <i name="ENMAX">    450.00000000</i>
   <i name="ENAUG">    703.44300000</i>
   <i name="EDIFF">      0.00010000</i>
   <i type="int" name="IALGO">    38</i>
   <i type="int" name="IWAVPR">    10</i>
   <i type="int" name="NBANDS">   476</i>
   <i name="NELECT">    792.00000000</i>
   <i type="int" name="TURBO">     0</i>
   <i type="int" name="IRESTART">     0</i>
   <i type="int" name="NREBOOT">     0</i>
   <i type="int" name="NMIN">     0</i>
   <i name="EREF">      0.00000000</i>
   <separator name="electronic smearing" >
    <i type="int" name="ISMEAR">     0</i>
    <i name="SIGMA">      0.20000000</i>
    <i name="KSPACING">      0.50000000</i>
    <i type="logical" name="KGAMMA"> T  </i>
   </separator>
   <separator name="electronic projectors" >
    <i type="logical" name="LREAL"> T  </i>
    <v name="ROPT">     -0.00050000     -0.00050000</v>
    <i type="int" name="LMAXPAW">  -100</i>
    <i type="int" name="LMAXMIX">     2</i>
    <i type="logical" name="NLSPLINE"> F  </i>
   </separator>
   <separator name="electronic startup" >
    <i type="int" name="ISTART">     0</i>
    <i type="int" name="ICHARG">     2</i>
    <i type="int" name="INIWAV">     1</i>
   </separator>
   <separator name="electronic spin" >
    <i type="int" name="ISPIN">     1</i>
    <i type="logical" name="LNONCOLLINEAR"> F  </i>
    <v name="MAGMOM">      1.00000000      1.00000000      1.00000000      1.00000000      1.00000000      1.00000000      1.00000000      1.00000000      1.00000000      1.00000000      1.00000000      1.00000000      1.00000000      1.00000000      1.00000000      1.00000000      1.00000000      1.00000000      1.00000000      1.00000000
      1.00000000      1.00000000      1.00000000      1.00000000      1.00000000      1.00000000      1.00000000      1.00000000      1.00000000      1.00000000      1.00000000      1.00000000      1.00000000      1.00000000      1.00000000      1.00000000      1.00000000      1.00000000      1.00000000      1.00000000
      1.00000000      1.00000000      1.00000000      1.00000000      1.00000000      1.00000000      1.00000000      1.00000000      1.00000000      1.00000000      1.00000000      1.00000000      1.00000000      1.00000000      1.00000000      1.00000000      1.00000000      1.00000000      1.00000000      1.00000000
      1.00000000      1.00000000      1.00000000      1.00000000      1.00000000      1.00000000      1.00000000      1.00000000      1.00000000      1.00000000      1.00000000      1.00000000</v>
    <i name="NUPDOWN">     -1.00000000</i>
    <i type="logical" name="LSORBIT"> F  </i>
    <v name="SAXIS">      0.00000000      0.00000000      1.00000000</v>
    <i type="logical" name="LSPIRAL"> F  </i>
    <v name="QSPIRAL">      0.00000000      0.00000000      0.00000000</v>
    <i type="logical" name="LZEROZ"> F  </i>
   </separator>
   <separator name="electronic exchange-correlation" >
    <i type="logical" name="LASPH"> F  </i>
    <i type="logical" name="LMETAGGA"> F  </i>
   </separator>
   <separator name="electronic convergence" >
    <i type="int" name="NELM">   100</i>
    <i type="int" name="NELMDL">    -5</i>
    <i type="int" name="NELMIN">     2</i>
    <i name="ENINI">    450.00000000</i>
    <separator name="electronic convergence detail" >
     <i type="logical" name="LDIAG"> T  </i>
     <i type="logical" name="LSUBROT"> F  </i>
     <i name="WEIMIN">      0.00000000</i>
     <i name="EBREAK">      0.00000005</i>
     <i name="DEPER">      0.30000000</i>
     <i type="int" name="NRMM">     4</i>
     <i name="TIME">      0.40000000</i>
    </separator>
   </separator>
   <separator name="electronic mixer" >
    <i name="AMIX">      0.40000000</i>
    <i name="BMIX">      1.00000000</i>
    <i name="AMIN">      0.10000000</i>
    <i name="AMIX_MAG">      1.60000000</i>
    <i name="BMIX_MAG">      1.00000000</i>
    <separator name="electronic mixer details" >
     <i type="int" name="IMIX">     4</i>
     <i type="logical" name="MIXFIRST"> F  </i>
     <i type="int" name="MAXMIX">   -45</i>
     <i name="WC">    100.00000000</i>
     <i type="int" name="INIMIX">     1</i>
     <i type="int" name="MIXPRE">     1</i>
     <i type="int" name="MREMOVE">     5</i>
    </separator>
   </separator>
   <separator name="electronic dipolcorrection" >
    <i type="logical" name="LDIPOL"> F  </i>
    <i type="logical" name="LMONO"> F  </i>
    <i type="int" name="IDIPOL">     0</i>
    <i name="EPSILON">      1.00000000</i>
    <v name="DIPOL">   -100.00000000   -100.00000000   -100.00000000</v>
    <i name="EFIELD">      0.00000000</i>
   </separator>
  </separator>
  <separator name="grids" >
   <i type="int" name="NGX">    90</i>
   <i type="int" name="NGY">    50</i>
   <i type="int" name="NGZ">    84</i>
   <i type="int" name="NGXF">   180</i>
   <i type="int" name="NGYF">   100</i>
   <i type="int" name="NGZF">   168</i>
   <i type="logical" name="ADDGRID"> F  </i>
  </separator>
  <separator name="ionic" >
   <i type="int" name="NSW">     0</i>
   <i type="int" name="IBRION">    -1</i>
   <i type="int" name="MDALGO">     0</i>
   <i type="int" name="ISIF">     2</i>
   <i name="PSTRESS">      0.00000000</i>
   <i name="EDIFFG">      0.00100000</i>
   <i type="int" name="NFREE">     0</i>
   <i name="POTIM">      0.50000000</i>
   <i name="SMASS">     -3.00000000</i>
   <i name="SCALEE">      1.00000000</i>
  </separator>
  <separator name="ionic md" >
   <i name="TEBEG">      0.00010000</i>
   <i name="TEEND">      0.00010000</i>
   <i type="int" name="NBLOCK">     1</i>
   <i type="int" name="KBLOCK">     1</i>
   <i type="int" name="NPACO">   256</i>
   <i name="APACO">     16.00000000</i>
  </separator>
  <separator name="symmetry" >
   <i type="int" name="ISYM">     2</i>
   <i name="SYMPREC">      0.00001000</i>
  </separator>
  <separator name="dos" >
   <i type="int" name="LORBIT">     0</i>
   <v name="RWIGS">     -1.00000000     -1.00000000</v>
   <i type="int" name="NEDOS">   301</i>
   <i name="EMIN">     10.00000000</i>
   <i name="EMAX">    -10.00000000</i>
   <i name="EFERMI">      0.00000000</i>
  </separator>
  <separator name="writing" >
   <i type="int" name="NWRITE">     2</i>
   <i type="logical" name="LWAVE"> F  </i>
   <i type="logical" name="LDOWNSAMPLE"> F  </i>
   <i type="logical" name="LCHARG"> F  </i>
   <i type="logical" name="LPARD"> F  </i>
   <i type="logical" name="LVTOT"> F  </i>
   <i type="logical" name="LVHAR"> F  </i>
   <i type="logical" name="LELF"> F  </i>
   <i type="logical" name="LOPTICS"> F  </i>
   <v name="STM">      0.00000000      0.00000000      0.00000000      0.00000000      0.00000000      0.00000000      0.00000000</v>
  </separator>
  <separator name="performance" >
   <i type="int" name="NPAR">     2</i>
   <i type="int" name="NSIM">     4</i>
   <i type="int" name="NBLK">    -1</i>
   <i type="logical" name="LPLANE"> T  </i>
   <i type="logical" name="LSCALAPACK"> T  </i>
   <i type="logical" name="LSCAAWARE"> F  </i>
   <i type="logical" name="LSCALU"> F  </i>
   <i type="logical" name="LASYNC"> F  </i>
   <i type="logical" name="LORBITALREAL"> F  </i>
  </separator>
  <separator name="miscellaneous" >
   <i type="int" name="IDIOT">     3</i>
   <i type="int" name="ISPECIAL">     0</i>
   <i type="logical" name="LMUSIC"> F  </i>
   <v name="POMASS">     58.69000000     32.06600000</v>
   <v name="DARWINR">      0.00000000      0.00000000</v>
   <v name="DARWINV">      1.00000000      1.00000000</v>
   <i type="logical" name="LCORR"> T  </i>
  </separator>
  <i type="logical" name="GGA_COMPAT"> T  </i>
  <i type="logical" name="LBERRY"> F  </i>
  <i type="int" name="ICORELEVEL">     0</i>
  <i type="logical" name="LDAU"> F  </i>
  <i type="int" name="I_CONSTRAINED_M">     0</i>
  <separator name="electronic exchange-correlation" >
   <i type="string" name="GGA">--</i>
   <i type="int" name="VOSKOWN">     0</i>
   <i type="logical" name="LHFCALC"> F  </i>
   <i type="string" name="PRECFOCK"></i>
   <i type="logical" name="LSYMGRAD"> F  </i>
   <i type="logical" name="LHFONE"> F  </i>
   <i type="logical" name="LRHFCALC"> F  </i>
   <i type="logical" name="LTHOMAS"> F  </i>
   <i type="logical" name="LMODELHF"> F  </i>
   <i name="ENCUT4O">     -1.00000000</i>
   <i type="int" name="EXXOEP">     0</i>
   <i type="int" name="FOURORBIT">     0</i>
   <i name="AEXX">      0.00000000</i>
   <i name="HFALPHA">      0.00000000</i>
   <i name="MCALPHA">      0.00000000</i>
   <i name="ALDAX">      1.00000000</i>
   <i name="AGGAX">      1.00000000</i>
   <i name="ALDAC">      1.00000000</i>
   <i name="AGGAC">      1.00000000</i>
   <i type="int" name="NKREDX">     1</i>
   <i type="int" name="NKREDY">     1</i>
   <i type="int" name="NKREDZ">     1</i>
   <i type="logical" name="SHIFTRED"> F  </i>
   <i type="logical" name="ODDONLY"> F  </i>
   <i type="logical" name="EVENONLY"> F  </i>
   <i type="int" name="LMAXFOCK">     0</i>
   <i type="int" name="NMAXFOCKAE">     0</i>
   <i type="logical" name="LFOCKAEDFT"> F  </i>
   <i name="HFSCREEN">      0.00000000</i>
   <i name="HFSCREENC">      0.00000000</i>
   <i type="int" name="NBANDSGWLOW">     0</i>
  </separator>
  <separator name="vdW DFT" >
   <i type="logical" name="LUSE_VDW"> F  </i>
   <i name="Zab_VDW">     -0.84910000</i>
   <i name="PARAM1">      0.12340000</i>
   <i name="PARAM2">      1.00000000</i>
   <i name="PARAM3">      0.00000000</i>
  </separator>
  <separator name="model GW" >
   <i type="int" name="MODEL_GW">     0</i>
   <i name="MODEL_EPS0">     21.79168807</i>
   <i name="MODEL_ALPHA">      1.00000000</i>
  </separator>
  <separator name="linear response parameters" >
   <i type="logical" name="LEPSILON"> F  </i>
   <i type="logical" name="LRPA"> F  </i>
   <i type="logical" name="LNABLA"> F  </i>
   <i type="logical" name="LVEL"> F  </i>
   <i type="int" name="KINTER">     0</i>
   <i name="CSHIFT">      0.10000000</i>
   <i name="OMEGAMAX">     -1.00000000</i>
   <i name="DEG_THRESHOLD">      0.00200000</i>
   <i name="RTIME">     -0.10000000</i>
   <i name="WPLASMAI">      0.00000000</i>
   <v name="DFIELD">      0.00000000      0.00000000      0.00000000</v>
   <v name="WPLASMA">      0.00000000      0.00000000      0.00000000      0.00000000      0.00000000      0.00000000      0.00000000      0.00000000      0.00000000</v>
  </separator>
  <separator name="orbital magnetization" >
   <i type="logical" name="NUCIND"> F  </i>
   <v name="MAGPOS">      0.00000000      0.00000000      0.00000000</v>
   <i type="logical" name="LNICSALL"> T  </i>
   <i type="logical" name="ORBITALMAG"> F  </i>
   <i type="logical" name="LMAGBLOCH"> F  </i>
   <i type="logical" name="LCHIMAG"> F  </i>
   <i type="logical" name="LGAUGE"> T  </i>
   <i type="int" name="MAGATOM">     0</i>
   <v name="MAGDIPOL">      0.00000000      0.00000000      0.00000000</v>
   <v name="AVECCONST">      0.00000000      0.00000000      0.00000000</v>
  </separator>
  <separator name="response functions" >
   <i type="logical" name="LADDER"> F  </i>
   <i type="logical" name="LRPAFORCE"> F  </i>
   <i type="logical" name="LFXC"> F  </i>
   <i type="logical" name="LHARTREE"> T  </i>
   <i type="int" name="IBSE">     0</i>
   <v type="int" name="KPOINT">    -1     0     0     0</v>
   <i type="logical" name="LTCTE"> F  </i>
   <i type="logical" name="LTETE"> F  </i>
   <i type="logical" name="LTRIPLET"> F  </i>
   <i type="logical" name="LFXCEPS"> F  </i>
   <i type="logical" name="LFXHEG"> F  </i>
   <i type="int" name="NATURALO">     2</i>
   <i type="logical" name="L2ORDER"> F  </i>
   <i type="logical" name="LMP2LT"> F  </i>
   <i type="logical" name="LUSEW"> F  </i>
   <i name="ENCUTGW">     -2.00000000</i>
   <i name="ENCUTGWSOFT">     -2.00000000</i>
   <i name="ENCUTLF">     -1.00000000</i>
   <i type="int" name="LMAXMP2">    -1</i>
   <i name="SCISSOR">      0.00000000</i>
   <i type="int" name="NOMEGA">     0</i>
   <i type="int" name="NOMEGAR">     0</i>
   <i type="int" name="NBANDSGW">    -1</i>
   <i type="int" name="NBANDSO">    -1</i>
   <i type="int" name="NBANDSV">    -1</i>
   <i type="int" name="NELM">   100</i>
   <i type="int" name="NELMHF">     1</i>
   <i type="int" name="DIM">     3</i>
   <i type="int" name="ANTIRES">     0</i>
   <i name="OMEGAMAX">    -30.00000000</i>
   <i name="OMEGAMIN">    -30.00000000</i>
   <i name="OMEGATL">   -200.00000000</i>
   <i type="int" name="OMEGAGRID">   140</i>
   <i name="CSHIFT">     -0.10000000</i>
   <i type="logical" name="SELFENERGY"> F  </i>
   <i type="logical" name="LSPECTRAL"> F  </i>
   <i type="logical" name="LSPECTRALGW"> F  </i>
   <i type="logical" name="LSINGLES"> F  </i>
   <i type="logical" name="LFERMIGW"> F  </i>
   <i type="logical" name="ODDONLYGW"> F  </i>
   <i type="logical" name="EVENONLYGW"> F  </i>
   <i type="int" name="NKREDLFX">     1</i>
   <i type="int" name="NKREDLFY">     1</i>
   <i type="int" name="NKREDLFZ">     1</i>
   <i type="int" name="MAXMEM">  2800</i>
   <i type="int" name="TELESCOPE">     0</i>
   <i type="int" name="TAUPAR">     1</i>
   <i type="int" name="OMEGAPAR">    -1</i>
   <i name="LAMBDA">      1.00000000</i>
  </separator>
  <separator name="External order field" >
   <i name="OFIELD_KAPPA">      0.00000000</i>
   <v name="OFIELD_K">      0.00000000      0.00000000      0.00000000</v>
   <i name="OFIELD_Q6_NEAR">      0.00000000</i>
   <i name="OFIELD_Q6_FAR">      0.00000000</i>
   <i name="OFIELD_A">      0.00000000</i>
  </separator>
 </parameters>
 <atominfo>
  <atoms>      72 </atoms>
  <types>       2 </types>
  <array name="atoms" >
   <dimension dim="1">ion</dimension>
   <field type="string">element</field>
   <field type="int">atomtype</field>
   <set>
    <rc><c>Ni</c><c>   1</c></rc>
    <rc><c>Ni</c><c>   1</c></rc>
    <rc><c>Ni</c><c>   1</c></rc>
    <rc><c>Ni</c><c>   1</c></rc>
    <rc><c>Ni</c><c>   1</c></rc>
    <rc><c>Ni</c><c>   1</c></rc>
    <rc><c>Ni</c><c>   1</c></rc>
    <rc><c>Ni</c><c>   1</c></rc>
    <rc><c>Ni</c><c>   1</c></rc>
    <rc><c>Ni</c><c>   1</c></rc>
    <rc><c>Ni</c><c>   1</c></rc>
    <rc><c>Ni</c><c>   1</c></rc>
    <rc><c>Ni</c><c>   1</c></rc>
    <rc><c>Ni</c><c>   1</c></rc>
    <rc><c>Ni</c><c>   1</c></rc>
    <rc><c>Ni</c><c>   1</c></rc>
    <rc><c>Ni</c><c>   1</c></rc>
    <rc><c>Ni</c><c>   1</c></rc>
    <rc><c>Ni</c><c>   1</c></rc>
    <rc><c>Ni</c><c>   1</c></rc>
    <rc><c>Ni</c><c>   1</c></rc>
    <rc><c>Ni</c><c>   1</c></rc>
    <rc><c>Ni</c><c>   1</c></rc>
    <rc><c>Ni</c><c>   1</c></rc>
    <rc><c>Ni</c><c>   1</c></rc>
    <rc><c>Ni</c><c>   1</c></rc>
    <rc><c>Ni</c><c>   1</c></rc>
    <rc><c>Ni</c><c>   1</c></rc>
    <rc><c>Ni</c><c>   1</c></rc>
    <rc><c>Ni</c><c>   1</c></rc>
    <rc><c>Ni</c><c>   1</c></rc>
    <rc><c>Ni</c><c>   1</c></rc>
    <rc><c>Ni</c><c>   1</c></rc>
    <rc><c>Ni</c><c>   1</c></rc>
    <rc><c>Ni</c><c>   1</c></rc>
    <rc><c>Ni</c><c>   1</c></rc>
    <rc><c>S </c><c>   2</c></rc>
    <rc><c>S </c><c>   2</c></rc>
    <rc><c>S </c><c>   2</c></rc>
    <rc><c>S </c><c>   2</c></rc>
    <rc><c>S </c><c>   2</c></rc>
    <rc><c>S </c><c>   2</c></rc>
    <rc><c>S </c><c>   2</c></rc>
    <rc><c>S </c><c>   2</c></rc>
    <rc><c>S </c><c>   2</c></rc>
    <rc><c>S </c><c>   2</c></rc>
    <rc><c>S </c><c>   2</c></rc>
    <rc><c>S </c><c>   2</c></rc>
    <rc><c>S </c><c>   2</c></rc>
    <rc><c>S </c><c>   2</c></rc>
    <rc><c>S </c><c>   2</c></rc>
    <rc><c>S </c><c>   2</c></rc>
    <rc><c>S </c><c>   2</c></rc>
    <rc><c>S </c><c>   2</c></rc>
    <rc><c>S </c><c>   2</c></rc>
    <rc><c>S </c><c>   2</c></rc>
    <rc><c>S </c><c>   2</c></rc>
    <rc><c>S </c><c>   2</c></rc>
    <rc><c>S </c><c>   2</c></rc>
    <rc><c>S </c><c>   2</c></rc>
    <rc><c>S </c><c>   2</c></rc>
    <rc><c>S </c><c>   2</c></rc>
    <rc><c>S </c><c>   2</c></rc>
    <rc><c>S </c><c>   2</c></rc>
    <rc><c>S </c><c>   2</c></rc>
    <rc><c>S </c><c>   2</c></rc>
    <rc><c>S </c><c>   2</c></rc>
    <rc><c>S </c><c>   2</c></rc>
    <rc><c>S </c><c>   2</c></rc>
    <rc><c>S </c><c>   2</c></rc>
    <rc><c>S </c><c>   2</c></rc>
    <rc><c>S </c><c>   2</c></rc>
   </set>
  </array>
  <array name="atomtypes" >
   <dimension dim="1">type</dimension>
   <field type="int">atomspertype</field>
   <field type="string">element</field>
   <field>mass</field>
   <field>valence</field>
   <field type="string">pseudopotential</field>
   <set>
    <rc><c>  36</c><c>Ni</c><c>     58.69000000</c><c>     16.00000000</c><c>  PAW_PBE Ni_pv 06Sep2000               </c></rc>
    <rc><c>  36</c><c>S </c><c>     32.06600000</c><c>      6.00000000</c><c>  PAW_PBE S 06Sep2000                   </c></rc>
   </set>
  </array>
 </atominfo>
 <structure name="initialpos" >
  <crystal>
   <varray name="basis" >
    <v>      16.88469405       0.00000000       0.00000000 </v>
    <v>       0.00000000       9.57841000       0.00000000 </v>
    <v>       0.00000000       0.00000000      16.16908712 </v>
   </varray>
   <i name="volume">   2615.00256803 </i>
   <varray name="rec_basis" >
    <v>       0.05922524       0.00000000       0.00000000 </v>
    <v>       0.00000000       0.10440146       0.00000000 </v>
    <v>       0.00000000       0.00000000       0.06184641 </v>
   </varray>
  </crystal>
  <varray name="positions" >
   <v>       0.76230463       0.21088731       0.13392865 </v>
   <v>       0.81855232       0.16677456       0.27098016 </v>
   <v>       0.21492553       0.61941740       0.09540430 </v>
   <v>       0.29733029       0.64529695       0.21596896 </v>
   <v>       0.38598348       0.11996803       0.12584050 </v>
   <v>       0.46975828       0.14529695       0.24776362 </v>
   <v>       0.95247430       0.64529695       0.15237965 </v>
   <v>       0.96439314       0.64544255       0.31236844 </v>
   <v>       0.12490229       0.14529695       0.18417431 </v>
   <v>       0.10728330       0.14561054       0.32801140 </v>
   <v>       0.56852596       0.66132148       0.16127841 </v>
   <v>       0.64218627       0.64529695       0.27955828 </v>
   <v>       0.91380233       0.98114527       0.12089935 </v>
   <v>       0.94690282       0.01490016       0.26534434 </v>
   <v>       0.35812171       0.64393668       0.05799396 </v>
   <v>       0.42486676       0.51319395       0.19076795 </v>
   <v>       0.46481383       0.46537568       0.33268463 </v>
   <v>       0.52931255       0.14727367       0.08872338 </v>
   <v>       0.59729475       0.01319395       0.22256260 </v>
   <v>       0.08001077       0.51319395       0.12717863 </v>
   <v>       0.11253277       0.50113259       0.29075979 </v>
   <v>       0.25243876       0.01319395       0.15897329 </v>
   <v>       0.29274463       0.97268066       0.30572623 </v>
   <v>       0.76670519       0.46839457       0.11172190 </v>
   <v>       0.76972274       0.51319395       0.25435726 </v>
   <v>       0.95398690       0.27268210       0.24349096 </v>
   <v>       0.41475981       0.88425607       0.05910286 </v>
   <v>       0.42486676       0.77739995       0.19076795 </v>
   <v>       0.46995467       0.83406945       0.32785472 </v>
   <v>       0.63495636       0.34971162       0.08001887 </v>
   <v>       0.59729475       0.27739995       0.22256260 </v>
   <v>       0.08001077       0.77739995       0.12717863 </v>
   <v>       0.11263661       0.78916144       0.29127334 </v>
   <v>       0.25243876       0.27739995       0.15897329 </v>
   <v>       0.29078718       0.31062297       0.31016242 </v>
   <v>       0.76972274       0.77739995       0.25435726 </v>
   <v>       0.98904335       0.16233410       0.34634590 </v>
   <v>       0.00023092       0.12093407       0.16518467 </v>
   <v>       0.47417723       0.64529695       0.08702573 </v>
   <v>       0.50874518       0.64529695       0.27779368 </v>
   <v>       0.64660522       0.14529695       0.11882039 </v>
   <v>       0.69458079       0.15521039       0.26719311 </v>
   <v>       0.11263355       0.64619690       0.03188171 </v>
   <v>       0.16388920       0.64529695       0.21420436 </v>
   <v>       0.28201055       0.14567913       0.06289053 </v>
   <v>       0.33631719       0.14529695       0.24599902 </v>
   <v>       0.82241036       0.64573400       0.16044414 </v>
   <v>       0.84374248       0.64665665       0.32426646 </v>
   <v>       0.74211972       0.32575546       0.02357008 </v>
   <v>       0.83845701       0.34621718       0.20060595 </v>
   <v>       0.31177708       0.81351195       0.11911576 </v>
   <v>       0.35331031       0.78889809       0.30058920 </v>
   <v>       0.48420507       0.31351195       0.15091042 </v>
   <v>       0.52714412       0.28811164       0.32704962 </v>
   <v>       0.00148905       0.81351195       0.24629439 </v>
   <v>       0.97022923       0.81052138       0.07218275 </v>
   <v>       0.14086162       0.32377420       0.10980719 </v>
   <v>       0.17391704       0.31351195       0.27808905 </v>
   <v>       0.65349921       0.81492424       0.19680421 </v>
   <v>       0.69875808       0.78412497       0.35457554 </v>
   <v>       0.31177708       0.47708195       0.11911576 </v>
   <v>       0.34986733       0.49467755       0.29651935 </v>
   <v>       0.83319680       0.09367918       0.05911361 </v>
   <v>       0.82906105       0.97708195       0.21449973 </v>
   <v>       0.00148905       0.47708195       0.24629439 </v>
   <v>       0.97394380       0.49304367       0.06973880 </v>
   <v>       0.48420507       0.97708195       0.15091042 </v>
   <v>       0.53210089       0.01189464       0.32918117 </v>
   <v>       0.65663306       0.47708195       0.18270508 </v>
   <v>       0.69351116       0.49509512       0.35081977 </v>
   <v>       0.14096997       0.96711809       0.10942986 </v>
   <v>       0.17391704       0.97708195       0.27808905 </v>
  </varray>
 </structure>
 <calculation>
  <scstep>
   <time name="dav">    8.55    8.55</time>
   <time name="total">    8.89    8.89</time>
   <energy>
    <i name="alphaZ">   1422.52235994 </i>
    <i name="ewald"> 151881.12552011 </i>
    <i name="hartreedc">-272171.29129426 </i>
    <i name="XCdc">   3682.10365038 </i>
    <i name="pawpsdc"> 112729.53333415 </i>
    <i name="pawaedc">-117641.51188735 </i>
    <i name="eentropy">     -0.47642605 </i>
    <i name="bandstr">  -7015.00872419 </i>
    <i name="atom"> 136002.60505376 </i>
    <i name="e_fr_energy">   8889.60158649 </i>
    <i name="e_wo_entrp">   8890.07801254 </i>
    <i name="e_0_energy">   8889.83979952 </i>
   </energy>
  </scstep>
  <scstep>
   <time name="dav">    7.46    7.46</time>
   <time name="total">    7.46    7.47</time>
   <energy>
    <i name="e_fr_energy">    483.23441710 </i>
    <i name="e_wo_entrp">    483.91384744 </i>
    <i name="e_0_energy">    483.57413227 </i>
   </energy>
  </scstep>
  <scstep>
   <time name="dav">    8.17    8.17</time>
   <time name="total">    8.17    8.17</time>
   <energy>
    <i name="e_fr_energy">   -346.86300385 </i>
    <i name="e_wo_entrp">   -345.79988265 </i>
    <i name="e_0_energy">   -346.33144325 </i>
   </energy>
  </scstep>
  <scstep>
   <time name="dav">    7.78    7.78</time>
   <time name="total">    7.78    7.78</time>
   <energy>
    <i name="e_fr_energy">   -390.09898004 </i>
    <i name="e_wo_entrp">   -389.02250156 </i>
    <i name="e_0_energy">   -389.56074080 </i>
   </energy>
  </scstep>
  <scstep>
   <time name="dav">    8.86    8.86</time>
   <time name="total">    9.14    9.14</time>
   <energy>
    <i name="e_fr_energy">   -391.81130596 </i>
    <i name="e_wo_entrp">   -390.73419987 </i>
    <i name="e_0_energy">   -391.27275291 </i>
   </energy>
  </scstep>
  <scstep>
   <time name="dav">    8.37    8.38</time>
   <time name="total">    8.97    8.97</time>
   <energy>
    <i name="e_fr_energy">   -461.10197124 </i>
    <i name="e_wo_entrp">   -460.44573193 </i>
    <i name="e_0_energy">   -460.77385158 </i>
   </energy>
  </scstep>
  <scstep>
   <time name="dav">    8.07    8.08</time>
   <time name="total">    8.79    8.79</time>
   <energy>
    <i name="e_fr_energy">   -356.86199432 </i>
    <i name="e_wo_entrp">   -355.99950402 </i>
    <i name="e_0_energy">   -356.43074917 </i>
   </energy>
  </scstep>
  <scstep>
   <time name="dav">    9.41    9.41</time>
   <time name="total">   10.01   10.01</time>
   <energy>
    <i name="e_fr_energy">   -387.89272752 </i>
    <i name="e_wo_entrp">   -386.89345666 </i>
    <i name="e_0_energy">   -387.39309209 </i>
   </energy>
  </scstep>
  <scstep>
   <time name="dav">    8.74    8.75</time>
   <time name="total">    9.37    9.38</time>
   <energy>
    <i name="e_fr_energy">   -364.92649437 </i>
    <i name="e_wo_entrp">   -363.87207884 </i>
    <i name="e_0_energy">   -364.39928661 </i>
   </energy>
  </scstep>
  <scstep>
   <time name="dav">    9.09    9.09</time>
   <time name="total">    9.70    9.71</time>
   <energy>
    <i name="e_fr_energy">   -373.43704673 </i>
    <i name="e_wo_entrp">   -372.39656867 </i>
    <i name="e_0_energy">   -372.91680770 </i>
   </energy>
  </scstep>
  <scstep>
   <time name="dav">    9.21    9.22</time>
   <time name="total">    9.81    9.82</time>
   <energy>
    <i name="e_fr_energy">   -358.52051012 </i>
    <i name="e_wo_entrp">   -357.55656790 </i>
    <i name="e_0_energy">   -358.03853901 </i>
   </energy>
  </scstep>
  <scstep>
   <time name="dav">    9.29    9.30</time>
   <time name="total">    9.89    9.89</time>
   <energy>
    <i name="e_fr_energy">   -344.97200607 </i>
    <i name="e_wo_entrp">   -344.06028281 </i>
    <i name="e_0_energy">   -344.51614444 </i>
   </energy>
  </scstep>
  <scstep>
   <time name="dav">    9.38    9.38</time>
   <time name="total">    9.98    9.98</time>
   <energy>
    <i name="e_fr_energy">   -344.38413964 </i>
    <i name="e_wo_entrp">   -343.28496763 </i>
    <i name="e_0_energy">   -343.83455363 </i>
   </energy>
  </scstep>
  <scstep>
   <time name="dav">    8.93    8.93</time>
   <time name="total">    9.53    9.53</time>
   <energy>
    <i name="e_fr_energy">   -342.37388956 </i>
    <i name="e_wo_entrp">   -341.38367232 </i>
    <i name="e_0_energy">   -341.87878094 </i>
   </energy>
  </scstep>
  <scstep>
   <time name="dav">    8.76    8.76</time>
   <time name="total">    9.37    9.37</time>
   <energy>
    <i name="e_fr_energy">   -341.39443562 </i>
    <i name="e_wo_entrp">   -340.44582475 </i>
    <i name="e_0_energy">   -340.92013019 </i>
   </energy>
  </scstep>
  <scstep>
   <time name="dav">    9.27    9.27</time>
   <time name="total">    9.87    9.87</time>
   <energy>
    <i name="e_fr_energy">   -341.06748524 </i>
    <i name="e_wo_entrp">   -340.11319942 </i>
    <i name="e_0_energy">   -340.59034233 </i>
   </energy>
  </scstep>
  <scstep>
   <time name="dav">    9.19    9.20</time>
   <time name="total">    9.80    9.81</time>
   <energy>
    <i name="e_fr_energy">   -340.87390844 </i>
    <i name="e_wo_entrp">   -339.90638819 </i>
    <i name="e_0_energy">   -340.39014832 </i>
   </energy>
  </scstep>
  <scstep>
   <time name="dav">    9.27    9.28</time>
   <time name="total">    9.91    9.91</time>
   <energy>
    <i name="e_fr_energy">   -340.78762492 </i>
    <i name="e_wo_entrp">   -339.78358976 </i>
    <i name="e_0_energy">   -340.28560734 </i>
   </energy>
  </scstep>
  <scstep>
   <time name="dav">    8.92    8.92</time>
   <time name="total">    9.66    9.66</time>
   <energy>
    <i name="e_fr_energy">   -340.65585690 </i>
    <i name="e_wo_entrp">   -339.68111742 </i>
    <i name="e_0_energy">   -340.16848716 </i>
   </energy>
  </scstep>
  <scstep>
   <time name="dav">    8.98    8.98</time>
   <time name="total">    9.66    9.66</time>
   <energy>
    <i name="e_fr_energy">   -340.61112551 </i>
    <i name="e_wo_entrp">   -339.59381457 </i>
    <i name="e_0_energy">   -340.10247004 </i>
   </energy>
  </scstep>
  <scstep>
   <time name="dav">    9.19    9.20</time>
   <time name="total">    9.81    9.81</time>
   <energy>
    <i name="e_fr_energy">   -340.57717581 </i>
    <i name="e_wo_entrp">   -339.58069007 </i>
    <i name="e_0_energy">   -340.07893294 </i>
   </energy>
  </scstep>
  <scstep>
   <time name="dav">    8.35    8.35</time>
   <time name="total">    8.96    8.97</time>
   <energy>
    <i name="e_fr_energy">   -340.56637140 </i>
    <i name="e_wo_entrp">   -339.55655658 </i>
    <i name="e_0_energy">   -340.06146399 </i>
   </energy>
  </scstep>
  <scstep>
   <time name="dav">    8.68    8.69</time>
   <time name="total">    9.30    9.31</time>
   <energy>
    <i name="e_fr_energy">   -340.56240522 </i>
    <i name="e_wo_entrp">   -339.55942369 </i>
    <i name="e_0_energy">   -340.06091445 </i>
   </energy>
  </scstep>
  <scstep>
   <time name="dav">    8.65    8.65</time>
   <time name="total">    9.35    9.36</time>
   <energy>
    <i name="e_fr_energy">   -340.55684867 </i>
    <i name="e_wo_entrp">   -339.55734537 </i>
    <i name="e_0_energy">   -340.05709702 </i>
   </energy>
  </scstep>
  <scstep>
   <time name="dav">    9.27    9.27</time>
   <time name="total">    9.89    9.89</time>
   <energy>
    <i name="e_fr_energy">   -340.54829434 </i>
    <i name="e_wo_entrp">   -339.55328996 </i>
    <i name="e_0_energy">   -340.05079215 </i>
   </energy>
  </scstep>
  <scstep>
   <time name="dav">    9.11    9.11</time>
   <time name="total">    9.73    9.73</time>
   <energy>
    <i name="e_fr_energy">   -340.53913212 </i>
    <i name="e_wo_entrp">   -339.54080002 </i>
    <i name="e_0_energy">   -340.03996607 </i>
   </energy>
  </scstep>
  <scstep>
   <time name="dav">    8.86    8.86</time>
   <time name="total">    9.51    9.51</time>
   <energy>
    <i name="e_fr_energy">   -340.53916775 </i>
    <i name="e_wo_entrp">   -339.54464961 </i>
    <i name="e_0_energy">   -340.04190868 </i>
   </energy>
  </scstep>
  <scstep>
   <time name="dav">    7.76    7.76</time>
   <time name="total">    8.49    8.49</time>
   <energy>
    <i name="e_fr_energy">   -340.53815196 </i>
    <i name="e_wo_entrp">   -339.54086765 </i>
    <i name="e_0_energy">   -340.03950980 </i>
   </energy>
  </scstep>
  <scstep>
   <time name="dav">    8.49    8.49</time>
   <time name="total">    9.12    9.13</time>
   <energy>
    <i name="e_fr_energy">   -340.53831716 </i>
    <i name="e_wo_entrp">   -339.54097293 </i>
    <i name="e_0_energy">   -340.03964505 </i>
   </energy>
  </scstep>
  <scstep>
   <time name="dav">    8.04    8.04</time>
   <time name="total">    8.67    8.67</time>
   <energy>
    <i name="e_fr_energy">   -340.53800952 </i>
    <i name="e_wo_entrp">   -339.53960336 </i>
    <i name="e_0_energy">   -340.03880644 </i>
   </energy>
  </scstep>
  <scstep>
   <time name="dav">    8.27    8.28</time>
   <time name="total">    8.90    8.90</time>
   <energy>
    <i name="e_fr_energy">   -340.53843895 </i>
    <i name="e_wo_entrp">   -339.54038476 </i>
    <i name="e_0_energy">   -340.03941185 </i>
   </energy>
  </scstep>
  <scstep>
   <time name="dav">    7.94    7.94</time>
   <time name="total">    8.77    8.77</time>
   <energy>
    <i name="e_fr_energy">   -340.53884041 </i>
    <i name="e_wo_entrp">   -339.54093375 </i>
    <i name="e_0_energy">   -340.03988708 </i>
   </energy>
  </scstep>
  <scstep>
   <time name="dav">    6.44    6.44</time>
   <time name="total">    7.10    7.10</time>
   <energy>
    <i name="e_fr_energy">   -340.53902725 </i>
    <i name="e_wo_entrp">   -339.54115719 </i>
    <i name="e_0_energy">   -340.04009222 </i>
   </energy>
  </scstep>
  <scstep>
   <time name="dav">    5.16    5.16</time>
   <time name="total">    5.79    5.80</time>
   <energy>
    <i name="e_fr_energy">   -340.53925132 </i>
    <i name="e_wo_entrp">   -339.54135089 </i>
    <i name="e_0_energy">   -340.04030111 </i>
   </energy>
  </scstep>
  <scstep>
   <time name="dav">    5.16    5.16</time>
   <time name="total">    5.79    5.79</time>
   <energy>
    <i name="e_fr_energy">   -340.53949079 </i>
    <i name="e_wo_entrp">   -339.54157304 </i>
    <i name="e_0_energy">   -340.04053192 </i>
   </energy>
  </scstep>
  <scstep>
   <time name="dav">    5.37    5.37</time>
   <time name="total">    6.01    6.01</time>
   <energy>
    <i name="e_fr_energy">   -340.54020612 </i>
    <i name="e_wo_entrp">   -339.54239900 </i>
    <i name="e_0_energy">   -340.04130256 </i>
   </energy>
  </scstep>
  <scstep>
   <time name="dav">    5.33    5.33</time>
   <time name="total">    5.97    5.97</time>
   <energy>
    <i name="e_fr_energy">   -340.54062424 </i>
    <i name="e_wo_entrp">   -339.54279698 </i>
    <i name="e_0_energy">   -340.04171061 </i>
   </energy>
  </scstep>
  <scstep>
   <time name="dav">    5.67    5.67</time>
   <time name="total">    6.32    6.32</time>
   <energy>
    <i name="e_fr_energy">   -340.54125982 </i>
    <i name="e_wo_entrp">   -339.54315383 </i>
    <i name="e_0_energy">   -340.04220683 </i>
   </energy>
  </scstep>
  <scstep>
   <time name="dav">    5.18    5.18</time>
   <time name="total">    5.83    5.83</time>
   <energy>
    <i name="e_fr_energy">   -340.54145226 </i>
    <i name="e_wo_entrp">   -339.54353402 </i>
    <i name="e_0_energy">   -340.04249314 </i>
   </energy>
  </scstep>
  <scstep>
   <time name="dav">    5.39    5.39</time>
   <time name="total">    6.16    6.16</time>
   <energy>
    <i name="e_fr_energy">   -340.54179025 </i>
    <i name="e_wo_entrp">   -339.54374001 </i>
    <i name="e_0_energy">   -340.04276513 </i>
   </energy>
  </scstep>
  <scstep>
   <time name="dav">    4.84    4.84</time>
   <time name="total">    5.77    5.81</time>
   <energy>
    <i name="e_fr_energy">   -340.54204646 </i>
    <i name="e_wo_entrp">   -339.54409125 </i>
    <i name="e_0_energy">   -340.04306886 </i>
   </energy>
  </scstep>
  <scstep>
   <time name="dav">    5.30    5.30</time>
   <time name="total">    5.98    5.98</time>
   <energy>
    <i name="e_fr_energy">   -340.54233715 </i>
    <i name="e_wo_entrp">   -339.54433778 </i>
    <i name="e_0_energy">   -340.04333747 </i>
   </energy>
  </scstep>
  <scstep>
   <time name="dav">    5.16    5.16</time>
   <time name="total">    5.50    5.50</time>
   <energy>
    <i name="alphaZ">   1422.52235994 </i>
    <i name="ewald"> 151881.12552011 </i>
    <i name="hartreedc">-271562.58738930 </i>
    <i name="XCdc">   3653.32315879 </i>
    <i name="pawpsdc"> 140833.76002088 </i>
    <i name="pawaedc">-145826.84430096 </i>
    <i name="eentropy">     -0.99795284 </i>
    <i name="bandstr"> -16743.44888845 </i>
    <i name="atom"> 136002.60505376 </i>
    <i name="e_fr_energy">   -340.54241808 </i>
    <i name="e_wo_entrp">   -339.54446524 </i>
    <i name="e_0_energy">   -340.04344166 </i>
   </energy>
  </scstep>
  <structure>
   <crystal>
    <varray name="basis" >
     <v>      16.88469405       0.00000000       0.00000000 </v>
     <v>       0.00000000       9.57841000       0.00000000 </v>
     <v>       0.00000000       0.00000000      16.16908712 </v>
    </varray>
    <i name="volume">   2615.00256803 </i>
    <varray name="rec_basis" >
     <v>       0.05922524       0.00000000       0.00000000 </v>
     <v>       0.00000000       0.10440146       0.00000000 </v>
     <v>       0.00000000       0.00000000       0.06184641 </v>
    </varray>
   </crystal>
   <varray name="positions" >
    <v>       0.76230463       0.21088731       0.13392865 </v>
    <v>       0.81855232       0.16677456       0.27098016 </v>
    <v>       0.21492553       0.61941740       0.09540430 </v>
    <v>       0.29733029       0.64529695       0.21596896 </v>
    <v>       0.38598348       0.11996803       0.12584050 </v>
    <v>       0.46975828       0.14529695       0.24776362 </v>
    <v>       0.95247430       0.64529695       0.15237965 </v>
    <v>       0.96439314       0.64544255       0.31236844 </v>
    <v>       0.12490229       0.14529695       0.18417431 </v>
    <v>       0.10728330       0.14561054       0.32801140 </v>
    <v>       0.56852596       0.66132148       0.16127841 </v>
    <v>       0.64218627       0.64529695       0.27955828 </v>
    <v>       0.91380233       0.98114527       0.12089935 </v>
    <v>       0.94690282       0.01490016       0.26534434 </v>
    <v>       0.35812171       0.64393668       0.05799396 </v>
    <v>       0.42486676       0.51319395       0.19076795 </v>
    <v>       0.46481383       0.46537568       0.33268463 </v>
    <v>       0.52931255       0.14727367       0.08872338 </v>
    <v>       0.59729475       0.01319395       0.22256260 </v>
    <v>       0.08001077       0.51319395       0.12717863 </v>
    <v>       0.11253277       0.50113259       0.29075979 </v>
    <v>       0.25243876       0.01319395       0.15897329 </v>
    <v>       0.29274463       0.97268066       0.30572623 </v>
    <v>       0.76670519       0.46839457       0.11172190 </v>
    <v>       0.76972274       0.51319395       0.25435726 </v>
    <v>       0.95398690       0.27268210       0.24349096 </v>
    <v>       0.41475981       0.88425607       0.05910286 </v>
    <v>       0.42486676       0.77739995       0.19076795 </v>
    <v>       0.46995467       0.83406945       0.32785472 </v>
    <v>       0.63495636       0.34971162       0.08001887 </v>
    <v>       0.59729475       0.27739995       0.22256260 </v>
    <v>       0.08001077       0.77739995       0.12717863 </v>
    <v>       0.11263661       0.78916144       0.29127334 </v>
    <v>       0.25243876       0.27739995       0.15897329 </v>
    <v>       0.29078718       0.31062297       0.31016242 </v>
    <v>       0.76972274       0.77739995       0.25435726 </v>
    <v>       0.98904335       0.16233410       0.34634590 </v>
    <v>       0.00023092       0.12093407       0.16518467 </v>
    <v>       0.47417723       0.64529695       0.08702573 </v>
    <v>       0.50874518       0.64529695       0.27779368 </v>
    <v>       0.64660522       0.14529695       0.11882039 </v>
    <v>       0.69458079       0.15521039       0.26719311 </v>
    <v>       0.11263355       0.64619690       0.03188171 </v>
    <v>       0.16388920       0.64529695       0.21420436 </v>
    <v>       0.28201055       0.14567913       0.06289053 </v>
    <v>       0.33631719       0.14529695       0.24599902 </v>
    <v>       0.82241036       0.64573400       0.16044414 </v>
    <v>       0.84374248       0.64665665       0.32426646 </v>
    <v>       0.74211972       0.32575546       0.02357008 </v>
    <v>       0.83845701       0.34621718       0.20060595 </v>
    <v>       0.31177708       0.81351195       0.11911576 </v>
    <v>       0.35331031       0.78889809       0.30058920 </v>
    <v>       0.48420507       0.31351195       0.15091042 </v>
    <v>       0.52714412       0.28811164       0.32704962 </v>
    <v>       0.00148905       0.81351195       0.24629439 </v>
    <v>       0.97022923       0.81052138       0.07218275 </v>
    <v>       0.14086162       0.32377420       0.10980719 </v>
    <v>       0.17391704       0.31351195       0.27808905 </v>
    <v>       0.65349921       0.81492424       0.19680421 </v>
    <v>       0.69875808       0.78412497       0.35457554 </v>
    <v>       0.31177708       0.47708195       0.11911576 </v>
    <v>       0.34986733       0.49467755       0.29651935 </v>
    <v>       0.83319680       0.09367918       0.05911361 </v>
    <v>       0.82906105       0.97708195       0.21449973 </v>
    <v>       0.00148905       0.47708195       0.24629439 </v>
    <v>       0.97394380       0.49304367       0.06973880 </v>
    <v>       0.48420507       0.97708195       0.15091042 </v>
    <v>       0.53210089       0.01189464       0.32918117 </v>
    <v>       0.65663306       0.47708195       0.18270508 </v>
    <v>       0.69351116       0.49509512       0.35081977 </v>
    <v>       0.14096997       0.96711809       0.10942986 </v>
    <v>       0.17391704       0.97708195       0.27808905 </v>
   </varray>
  </structure>
  <varray name="forces" >
   <v>       0.19745709      -0.09881031       1.05465055 </v>
   <v>      -0.10138156       0.29849974       0.65090242 </v>
   <v>       0.99980766       0.37239103      -0.14563164 </v>
   <v>      -0.21108524      -0.08218619      -0.09092787 </v>
   <v>       0.74612807       0.42820465      -0.45504866 </v>
   <v>      -0.60124511       0.46961054      -0.75084538 </v>
   <v>      -0.30376327       0.52101852       2.46110980 </v>
   <v>       0.37297146       0.04780138       0.87825940 </v>
   <v>       0.10427606      -0.22255529       0.15722590 </v>
   <v>       0.99550179      -0.16377761       1.04517583 </v>
   <v>       0.61944675      -0.74255682      -0.44829205 </v>
   <v>      -1.00630206      -0.43165313      -0.32468074 </v>
   <v>       0.23349514       0.16508431      -0.84259684 </v>
   <v>      -0.85749695      -0.77544745       0.10007285 </v>
   <v>      -0.45998139       0.06203757      -1.62538963 </v>
   <v>       0.48721735      -0.20128374      -1.27693615 </v>
   <v>      -0.24909396       0.56789670       0.77268783 </v>
   <v>      -0.27435619      -0.08187412      -1.76003557 </v>
   <v>       1.53346201       0.13436415      -1.49025248 </v>
   <v>       0.78943957      -0.15724994       1.85244699 </v>
   <v>       0.53943530       0.56878058       1.08150393 </v>
   <v>       0.14982515      -0.81300320       0.93554937 </v>
   <v>       0.06288211       0.15613405       0.78798534 </v>
   <v>      -0.19296575       0.89118692      -0.24816729 </v>
   <v>       0.78960150       0.14293621      -0.51375847 </v>
   <v>      -1.11865225       0.95598452      -0.38960712 </v>
   <v>       0.22541160       0.18814263      -0.73718015 </v>
   <v>       0.51494919      -0.41812362      -0.08977447 </v>
   <v>      -0.31847260      -0.77507465       0.97811660 </v>
   <v>      -1.39678196       0.50140620      -0.55285147 </v>
   <v>       0.33395921       0.46716363      -1.28301669 </v>
   <v>       0.41290917       0.35992975       1.74938179 </v>
   <v>       0.26386697      -0.47993749       1.06731042 </v>
   <v>       0.59204408       0.63818780       1.15033918 </v>
   <v>       0.10578518      -0.03397333       0.58005239 </v>
   <v>       0.83182613       0.85319675      -2.14086858 </v>
   <v>      -0.22416656       0.44525016       3.11714632 </v>
   <v>       0.74084017       0.68096040      -1.18971700 </v>
   <v>       1.08531457       0.32242093      -2.74093818 </v>
   <v>       1.01355469       0.08337087       1.44846079 </v>
   <v>      -0.44955543      -2.69583231      -1.29145082 </v>
   <v>       0.41899626      -0.20492967       2.06376379 </v>
   <v>      -0.02328670      -0.03444876      -3.78017631 </v>
   <v>       1.57930518       0.12079240       0.67573709 </v>
   <v>       0.38164552       0.10767674      -3.52953825 </v>
   <v>       1.05573357      -0.11845386       1.08887111 </v>
   <v>       0.63882632       1.09110099      -1.97566189 </v>
   <v>       0.86654933       0.06630886       2.57105894 </v>
   <v>       1.10903319       0.07628076      -3.59290905 </v>
   <v>       1.32324502      -0.03103500       0.41946106 </v>
   <v>      -1.64698767       1.12114145      -0.52849357 </v>
   <v>      -1.24899639       0.58403461       1.85623040 </v>
   <v>      -1.23483577       1.47394550      -0.14768621 </v>
   <v>       0.49155848      -0.05929771       2.73372098 </v>
   <v>      -0.81478447       1.28121530       0.43601162 </v>
   <v>      -0.66912560       0.51241717      -2.93143026 </v>
   <v>      -0.84326183      -0.34656905      -2.56070884 </v>
   <v>      -0.88088081      -0.10573886       1.07938924 </v>
   <v>       0.12909429       1.38701319      -1.49327210 </v>
   <v>      -0.35697444       1.33072174       3.67742881 </v>
   <v>      -0.64578413      -1.89614254      -0.18799613 </v>
   <v>      -1.05085116      -0.38469238       1.98362514 </v>
   <v>       0.26876502      -0.61858531      -2.72662353 </v>
   <v>      -0.53703336      -2.04282346       1.02765649 </v>
   <v>      -0.78938069      -1.32500112      -0.12423049 </v>
   <v>      -1.51907029      -2.07038694      -3.06304385 </v>
   <v>      -0.10805663      -1.41317854       0.02815639 </v>
   <v>       0.00059812      -0.21464419       3.14960780 </v>
   <v>      -1.20299765       0.80545624       0.22752566 </v>
   <v>      -0.67095890      -1.50610070       3.63366521 </v>
   <v>      -0.51584889       0.02624418      -2.62623278 </v>
   <v>      -0.48034259       0.23905817       1.13568307 </v>
  </varray>
  <varray name="stress" >
   <v>      77.17324551      -1.05299347       0.07715287 </v>
   <v>      -1.05299347      77.31646535       2.75625139 </v>
   <v>       0.07715287       2.75625160      80.72378592 </v>
  </varray>
  <energy>
   <i name="e_fr_energy">   -340.54241808 </i>
   <i name="e_wo_entrp">   -340.04344166 </i>
   <i name="e_0_energy">     -0.99795284 </i>
  </energy>
  <time name="totalsc">  369.86  370.02</time>
  <eigenvalues>
   <array>
    <dimension dim="1">band</dimension>
    <dimension dim="2">kpoint</dimension>
    <dimension dim="3">spin</dimension>
    <field>eigene</field>
    <field>occ</field>
    <set>
     <set comment="spin 1">
      <set comment="kpoint 1">
       <r>  -65.2313    1.0000 </r>
       <r>  -65.1978    1.0000 </r>
       <r>  -65.0198    1.0000 </r>
       <r>  -65.0165    1.0000 </r>
       <r>  -64.9951    1.0000 </r>
       <r>  -64.9822    1.0000 </r>
       <r>  -64.9587    1.0000 </r>
       <r>  -64.9254    1.0000 </r>
       <r>  -64.9105    1.0000 </r>
       <r>  -64.8727    1.0000 </r>
       <r>  -64.8640    1.0000 </r>
       <r>  -64.8542    1.0000 </r>
       <r>  -64.8307    1.0000 </r>
       <r>  -64.8279    1.0000 </r>
       <r>  -64.7934    1.0000 </r>
       <r>  -64.7700    1.0000 </r>
       <r>  -64.7587    1.0000 </r>
       <r>  -64.7578    1.0000 </r>
       <r>  -64.7394    1.0000 </r>
       <r>  -64.7273    1.0000 </r>
       <r>  -64.7153    1.0000 </r>
       <r>  -64.7142    1.0000 </r>
       <r>  -64.7009    1.0000 </r>
       <r>  -64.6830    1.0000 </r>
       <r>  -64.6744    1.0000 </r>
       <r>  -64.6647    1.0000 </r>
       <r>  -64.6485    1.0000 </r>
       <r>  -64.6455    1.0000 </r>
       <r>  -64.6323    1.0000 </r>
       <r>  -64.6107    1.0000 </r>
       <r>  -64.6074    1.0000 </r>
       <r>  -64.6034    1.0000 </r>
       <r>  -64.6029    1.0000 </r>
       <r>  -64.6007    1.0000 </r>
       <r>  -64.5868    1.0000 </r>
       <r>  -64.5809    1.0000 </r>
       <r>  -64.5748    1.0000 </r>
       <r>  -64.5472    1.0000 </r>
       <r>  -64.5427    1.0000 </r>
       <r>  -64.5410    1.0000 </r>
       <r>  -64.5119    1.0000 </r>
       <r>  -64.5060    1.0000 </r>
       <r>  -64.5055    1.0000 </r>
       <r>  -64.5020    1.0000 </r>
       <r>  -64.4981    1.0000 </r>
       <r>  -64.4867    1.0000 </r>
       <r>  -64.4691    1.0000 </r>
       <r>  -64.4612    1.0000 </r>
       <r>  -64.4523    1.0000 </r>
       <r>  -64.4461    1.0000 </r>
       <r>  -64.4421    1.0000 </r>
       <r>  -64.4333    1.0000 </r>
       <r>  -64.4303    1.0000 </r>
       <r>  -64.4065    1.0000 </r>
       <r>  -64.4013    1.0000 </r>
       <r>  -64.4010    1.0000 </r>
       <r>  -64.3849    1.0000 </r>
       <r>  -64.3807    1.0000 </r>
       <r>  -64.3733    1.0000 </r>
       <r>  -64.3672    1.0000 </r>
       <r>  -64.3377    1.0000 </r>
       <r>  -64.3309    1.0000 </r>
       <r>  -64.3239    1.0000 </r>
       <r>  -64.3155    1.0000 </r>
       <r>  -64.3146    1.0000 </r>
       <r>  -64.3051    1.0000 </r>
       <r>  -64.2976    1.0000 </r>
       <r>  -64.2677    1.0000 </r>
       <r>  -64.2676    1.0000 </r>
       <r>  -64.2538    1.0000 </r>
       <r>  -64.2538    1.0000 </r>
       <r>  -64.2507    1.0000 </r>
       <r>  -64.2357    1.0000 </r>
       <r>  -64.2152    1.0000 </r>
       <r>  -64.2127    1.0000 </r>
       <r>  -64.2085    1.0000 </r>
       <r>  -64.2020    1.0000 </r>
       <r>  -64.1957    1.0000 </r>
       <r>  -64.1822    1.0000 </r>
       <r>  -64.1777    1.0000 </r>
       <r>  -64.1580    1.0000 </r>
       <r>  -64.1481    1.0000 </r>
       <r>  -64.1364    1.0000 </r>
       <r>  -64.1062    1.0000 </r>
       <r>  -64.0998    1.0000 </r>
       <r>  -64.0987    1.0000 </r>
       <r>  -64.0814    1.0000 </r>
       <r>  -64.0677    1.0000 </r>
       <r>  -64.0555    1.0000 </r>
       <r>  -64.0489    1.0000 </r>
       <r>  -64.0120    1.0000 </r>
       <r>  -64.0071    1.0000 </r>
       <r>  -63.9416    1.0000 </r>
       <r>  -63.9222    1.0000 </r>
       <r>  -63.9090    1.0000 </r>
       <r>  -63.8848    1.0000 </r>
       <r>  -63.8308    1.0000 </r>
       <r>  -63.8276    1.0000 </r>
       <r>  -63.8221    1.0000 </r>
       <r>  -63.8129    1.0000 </r>
       <r>  -63.8126    1.0000 </r>
       <r>  -63.6947    1.0000 </r>
       <r>  -63.6512    1.0000 </r>
       <r>  -63.5961    1.0000 </r>
       <r>  -63.5956    1.0000 </r>
       <r>  -63.5053    1.0000 </r>
       <r>  -63.4788    1.0000 </r>
       <r>  -63.3797    1.0000 </r>
       <r>  -16.5994    1.0000 </r>
       <r>  -16.2591    1.0000 </r>
       <r>  -16.0549    1.0000 </r>
       <r>  -15.8980    1.0000 </r>
       <r>  -15.6087    1.0000 </r>
       <r>  -15.4394    1.0000 </r>
       <r>  -15.3535    1.0000 </r>
       <r>  -15.3494    1.0000 </r>
       <r>  -15.1410    1.0000 </r>
       <r>  -15.0695    1.0000 </r>
       <r>  -14.9942    1.0000 </r>
       <r>  -14.9692    1.0000 </r>
       <r>  -14.8709    1.0000 </r>
       <r>  -14.7647    1.0000 </r>
       <r>  -14.6997    1.0000 </r>
       <r>  -14.6783    1.0000 </r>
       <r>  -14.5669    1.0000 </r>
       <r>  -14.5291    1.0000 </r>
       <r>  -14.4707    1.0000 </r>
       <r>  -14.3835    1.0000 </r>
       <r>  -14.3534    1.0000 </r>
       <r>  -14.3277    1.0000 </r>
       <r>  -14.2442    1.0000 </r>
       <r>  -14.0985    1.0000 </r>
       <r>  -14.0473    1.0000 </r>
       <r>  -13.9632    1.0000 </r>
       <r>  -13.7192    1.0000 </r>
       <r>  -13.5901    1.0000 </r>
       <r>  -13.5293    1.0000 </r>
       <r>  -13.4122    1.0000 </r>
       <r>  -13.2865    1.0000 </r>
       <r>  -13.2840    1.0000 </r>
       <r>  -13.2319    1.0000 </r>
       <r>  -12.9877    1.0000 </r>
       <r>  -12.9367    1.0000 </r>
       <r>  -12.8574    1.0000 </r>
       <r>   -8.4189    1.0000 </r>
       <r>   -8.1916    1.0000 </r>
       <r>   -8.0560    1.0000 </r>
       <r>   -7.9603    1.0000 </r>
       <r>   -7.8543    1.0000 </r>
       <r>   -7.7859    1.0000 </r>
       <r>   -7.7762    1.0000 </r>
       <r>   -7.6897    1.0000 </r>
       <r>   -7.6493    1.0000 </r>
       <r>   -7.5364    1.0000 </r>
       <r>   -7.4493    1.0000 </r>
       <r>   -7.4212    1.0000 </r>
       <r>   -7.3833    1.0000 </r>
       <r>   -7.3423    1.0000 </r>
       <r>   -7.3139    1.0000 </r>
       <r>   -7.2706    1.0000 </r>
       <r>   -7.1670    1.0000 </r>
       <r>   -7.1244    1.0000 </r>
       <r>   -7.0819    1.0000 </r>
       <r>   -7.0118    1.0000 </r>
       <r>   -6.9526    1.0000 </r>
       <r>   -6.8423    1.0000 </r>
       <r>   -6.7849    1.0000 </r>
       <r>   -6.7729    1.0000 </r>
       <r>   -6.7137    1.0000 </r>
       <r>   -6.6805    1.0000 </r>
       <r>   -6.6662    1.0000 </r>
       <r>   -6.5893    1.0000 </r>
       <r>   -6.5608    1.0000 </r>
       <r>   -6.4992    1.0000 </r>
       <r>   -6.4268    1.0000 </r>
       <r>   -6.4026    1.0000 </r>
       <r>   -6.3576    1.0000 </r>
       <r>   -6.3403    1.0000 </r>
       <r>   -6.3062    1.0000 </r>
       <r>   -6.2852    1.0000 </r>
       <r>   -6.2025    1.0000 </r>
       <r>   -6.1895    1.0000 </r>
       <r>   -6.1542    1.0000 </r>
       <r>   -6.1403    1.0000 </r>
       <r>   -6.1147    1.0000 </r>
       <r>   -6.1049    1.0000 </r>
       <r>   -6.0241    1.0000 </r>
       <r>   -5.9772    1.0000 </r>
       <r>   -5.9700    1.0000 </r>
       <r>   -5.9359    1.0000 </r>
       <r>   -5.9026    1.0000 </r>
       <r>   -5.8149    1.0000 </r>
       <r>   -5.7904    1.0000 </r>
       <r>   -5.7625    1.0000 </r>
       <r>   -5.7527    1.0000 </r>
       <r>   -5.6993    1.0000 </r>
       <r>   -5.6445    1.0000 </r>
       <r>   -5.6219    1.0000 </r>
       <r>   -5.5637    1.0000 </r>
       <r>   -5.5396    1.0000 </r>
       <r>   -5.5017    1.0000 </r>
       <r>   -5.4680    1.0000 </r>
       <r>   -5.4361    1.0000 </r>
       <r>   -5.4055    1.0000 </r>
       <r>   -5.3641    1.0000 </r>
       <r>   -5.3326    1.0000 </r>
       <r>   -5.3272    1.0000 </r>
       <r>   -5.2917    1.0000 </r>
       <r>   -5.2326    1.0000 </r>
       <r>   -5.2279    1.0000 </r>
       <r>   -5.1956    1.0000 </r>
       <r>   -5.1751    1.0000 </r>
       <r>   -5.1330    1.0000 </r>
       <r>   -5.1062    1.0000 </r>
       <r>   -5.0921    1.0000 </r>
       <r>   -5.0373    1.0000 </r>
       <r>   -5.0106    1.0000 </r>
       <r>   -4.9913    1.0000 </r>
       <r>   -4.9381    1.0000 </r>
       <r>   -4.9138    1.0000 </r>
       <r>   -4.8784    1.0000 </r>
       <r>   -4.8441    1.0000 </r>
       <r>   -4.7949    1.0000 </r>
       <r>   -4.7559    1.0000 </r>
       <r>   -4.6892    1.0000 </r>
       <r>   -4.6581    1.0000 </r>
       <r>   -4.6415    1.0000 </r>
       <r>   -4.6156    1.0000 </r>
       <r>   -4.5823    1.0000 </r>
       <r>   -4.5588    1.0000 </r>
       <r>   -4.5565    1.0000 </r>
       <r>   -4.5114    1.0000 </r>
       <r>   -4.4722    1.0000 </r>
       <r>   -4.3242    1.0000 </r>
       <r>   -4.2638    1.0000 </r>
       <r>   -4.2416    1.0000 </r>
       <r>   -4.1972    1.0000 </r>
       <r>   -4.1731    1.0000 </r>
       <r>   -4.0678    1.0000 </r>
       <r>   -4.0161    1.0000 </r>
       <r>   -3.9984    1.0000 </r>
       <r>   -3.9631    1.0000 </r>
       <r>   -3.9346    1.0000 </r>
       <r>   -3.8240    1.0000 </r>
       <r>   -3.7896    1.0000 </r>
       <r>   -3.7512    1.0000 </r>
       <r>   -3.7026    1.0000 </r>
       <r>   -3.6859    1.0000 </r>
       <r>   -3.6213    1.0000 </r>
       <r>   -3.6021    1.0000 </r>
       <r>   -3.5844    1.0000 </r>
       <r>   -3.5326    1.0000 </r>
       <r>   -3.5277    1.0000 </r>
       <r>   -3.4856    1.0000 </r>
       <r>   -3.4434    1.0000 </r>
       <r>   -3.4122    1.0000 </r>
       <r>   -3.3811    1.0000 </r>
       <r>   -3.3534    1.0000 </r>
       <r>   -3.3303    1.0000 </r>
       <r>   -3.2939    1.0000 </r>
       <r>   -3.2577    1.0000 </r>
       <r>   -3.2454    1.0000 </r>
       <r>   -3.2009    1.0000 </r>
       <r>   -3.1572    1.0000 </r>
       <r>   -3.1395    1.0000 </r>
       <r>   -3.1178    1.0000 </r>
       <r>   -3.0875    1.0000 </r>
       <r>   -3.0610    1.0000 </r>
       <r>   -3.0486    1.0000 </r>
       <r>   -3.0317    1.0000 </r>
       <r>   -3.0167    1.0000 </r>
       <r>   -2.9822    1.0000 </r>
       <r>   -2.9566    1.0000 </r>
       <r>   -2.9501    1.0000 </r>
       <r>   -2.9274    1.0000 </r>
       <r>   -2.8791    1.0000 </r>
       <r>   -2.8691    1.0000 </r>
       <r>   -2.8581    1.0000 </r>
       <r>   -2.8148    1.0000 </r>
       <r>   -2.8118    1.0000 </r>
       <r>   -2.7872    1.0000 </r>
       <r>   -2.7673    1.0000 </r>
       <r>   -2.7581    1.0000 </r>
       <r>   -2.7460    1.0000 </r>
       <r>   -2.7221    1.0000 </r>
       <r>   -2.6877    1.0000 </r>
       <r>   -2.6454    1.0000 </r>
       <r>   -2.6385    1.0000 </r>
       <r>   -2.6150    1.0000 </r>
       <r>   -2.5829    1.0000 </r>
       <r>   -2.5667    1.0000 </r>
       <r>   -2.5497    1.0000 </r>
       <r>   -2.5277    1.0000 </r>
       <r>   -2.5118    1.0000 </r>
       <r>   -2.4901    1.0000 </r>
       <r>   -2.4631    1.0000 </r>
       <r>   -2.4573    1.0000 </r>
       <r>   -2.4480    1.0000 </r>
       <r>   -2.4319    1.0000 </r>
       <r>   -2.4221    1.0000 </r>
       <r>   -2.4031    1.0000 </r>
       <r>   -2.3893    1.0000 </r>
       <r>   -2.3717    1.0000 </r>
       <r>   -2.3566    1.0000 </r>
       <r>   -2.3376    1.0000 </r>
       <r>   -2.3275    1.0000 </r>
       <r>   -2.3067    1.0000 </r>
       <r>   -2.2884    1.0000 </r>
       <r>   -2.2653    1.0000 </r>
       <r>   -2.2488    1.0000 </r>
       <r>   -2.2411    1.0000 </r>
       <r>   -2.2275    1.0000 </r>
       <r>   -2.2081    1.0000 </r>
       <r>   -2.1841    1.0000 </r>
       <r>   -2.1719    1.0000 </r>
       <r>   -2.1634    1.0000 </r>
       <r>   -2.1344    1.0000 </r>
       <r>   -2.1127    1.0000 </r>
       <r>   -2.1081    1.0000 </r>
       <r>   -2.0889    1.0000 </r>
       <r>   -2.0812    1.0000 </r>
       <r>   -2.0744    1.0000 </r>
       <r>   -2.0543    1.0000 </r>
       <r>   -2.0309    1.0000 </r>
       <r>   -2.0240    1.0000 </r>
       <r>   -2.0058    1.0000 </r>
       <r>   -1.9843    1.0000 </r>
       <r>   -1.9628    1.0000 </r>
       <r>   -1.9587    1.0000 </r>
       <r>   -1.9366    1.0000 </r>
       <r>   -1.9182    1.0000 </r>
       <r>   -1.8950    1.0000 </r>
       <r>   -1.8750    1.0000 </r>
       <r>   -1.8712    1.0000 </r>
       <r>   -1.8642    1.0000 </r>
       <r>   -1.8293    1.0000 </r>
       <r>   -1.8235    1.0000 </r>
       <r>   -1.8050    1.0000 </r>
       <r>   -1.7898    1.0000 </r>
       <r>   -1.7870    1.0000 </r>
       <r>   -1.7532    1.0000 </r>
       <r>   -1.7315    1.0000 </r>
       <r>   -1.7249    1.0000 </r>
       <r>   -1.7077    1.0000 </r>
       <r>   -1.6613    1.0000 </r>
       <r>   -1.6448    1.0000 </r>
       <r>   -1.6351    1.0000 </r>
       <r>   -1.6192    1.0000 </r>
       <r>   -1.6033    1.0000 </r>
       <r>   -1.5887    1.0000 </r>
       <r>   -1.5566    1.0000 </r>
       <r>   -1.5400    1.0000 </r>
       <r>   -1.5274    1.0000 </r>
       <r>   -1.5184    1.0000 </r>
       <r>   -1.4866    1.0000 </r>
       <r>   -1.4669    1.0000 </r>
       <r>   -1.4416    1.0000 </r>
       <r>   -1.4189    1.0000 </r>
       <r>   -1.3790    1.0000 </r>
       <r>   -1.3441    1.0000 </r>
       <r>   -1.3375    1.0000 </r>
       <r>   -1.3013    1.0000 </r>
       <r>   -1.2781    1.0000 </r>
       <r>   -1.2708    1.0000 </r>
       <r>   -1.2305    1.0000 </r>
       <r>   -1.2022    1.0000 </r>
       <r>   -1.1864    1.0000 </r>
       <r>   -1.1685    1.0000 </r>
       <r>   -1.1302    1.0000 </r>
       <r>   -1.0995    1.0000 </r>
       <r>   -1.0850    1.0000 </r>
       <r>   -1.0676    1.0000 </r>
       <r>   -1.0404    1.0000 </r>
       <r>   -1.0023    1.0000 </r>
       <r>   -0.9757    1.0000 </r>
       <r>   -0.9447    1.0000 </r>
       <r>   -0.9223    1.0000 </r>
       <r>   -0.8800    1.0000 </r>
       <r>   -0.8108    1.0000 </r>
       <r>   -0.7523    1.0000 </r>
       <r>   -0.7388    1.0000 </r>
       <r>   -0.7006    0.9999 </r>
       <r>   -0.6582    0.9997 </r>
       <r>   -0.6207    0.9992 </r>
       <r>   -0.5837    0.9980 </r>
       <r>   -0.5477    0.9957 </r>
       <r>   -0.5283    0.9936 </r>
       <r>   -0.5015    0.9893 </r>
       <r>   -0.4714    0.9816 </r>
       <r>   -0.4583    0.9770 </r>
       <r>   -0.3903    0.9351 </r>
       <r>   -0.3731    0.9182 </r>
       <r>   -0.3508    0.8917 </r>
       <r>   -0.2855    0.7805 </r>
       <r>   -0.2430    0.6819 </r>
       <r>   -0.1909    0.5417 </r>
       <r>   -0.1032    0.3031 </r>
       <r>   -0.0995    0.2940 </r>
       <r>   -0.0727    0.2322 </r>
       <r>   -0.0555    0.1968 </r>
       <r>   -0.0126    0.1238 </r>
       <r>    0.0332    0.0694 </r>
       <r>    0.0673    0.0426 </r>
       <r>    0.1105    0.0213 </r>
       <r>    0.1364    0.0136 </r>
       <r>    0.1474    0.0111 </r>
       <r>    0.1648    0.0080 </r>
       <r>    0.2647    0.0009 </r>
       <r>    0.3400    0.0001 </r>
       <r>    0.3706    0.0001 </r>
       <r>    0.4037    0.0000 </r>
       <r>    0.4676    0.0000 </r>
       <r>    0.4808    0.0000 </r>
       <r>    0.5306    0.0000 </r>
       <r>    0.5800    0.0000 </r>
       <r>    0.6836    0.0000 </r>
       <r>    0.7138    0.0000 </r>
       <r>    0.7360    0.0000 </r>
       <r>    0.8364    0.0000 </r>
       <r>    0.8911    0.0000 </r>
       <r>    0.9550    0.0000 </r>
       <r>    0.9953    0.0000 </r>
       <r>    1.0373    0.0000 </r>
       <r>    1.0822    0.0000 </r>
       <r>    1.1653    0.0000 </r>
       <r>    1.1878    0.0000 </r>
       <r>    1.2491    0.0000 </r>
       <r>    1.2625    0.0000 </r>
       <r>    1.3625    0.0000 </r>
       <r>    1.4299    0.0000 </r>
       <r>    1.5195    0.0000 </r>
       <r>    1.5603    0.0000 </r>
       <r>    2.0995    0.0000 </r>
       <r>    2.2889    0.0000 </r>
       <r>    2.8070    0.0000 </r>
       <r>    2.8384    0.0000 </r>
       <r>    3.0343    0.0000 </r>
       <r>    3.2946    0.0000 </r>
       <r>    3.4285    0.0000 </r>
       <r>    3.6559    0.0000 </r>
       <r>    3.7691    0.0000 </r>
       <r>    3.8423    0.0000 </r>
       <r>    3.9793    0.0000 </r>
       <r>    4.0159    0.0000 </r>
       <r>    4.0990    0.0000 </r>
       <r>    4.2283    0.0000 </r>
       <r>    4.2636    0.0000 </r>
       <r>    4.3353    0.0000 </r>
       <r>    4.3910    0.0000 </r>
       <r>    4.4221    0.0000 </r>
       <r>    4.4806    0.0000 </r>
       <r>    4.5516    0.0000 </r>
       <r>    4.6940    0.0000 </r>
       <r>    4.7503    0.0000 </r>
       <r>    4.7672    0.0000 </r>
       <r>    4.8214    0.0000 </r>
       <r>    4.8590    0.0000 </r>
       <r>    4.9615    0.0000 </r>
       <r>    4.9776    0.0000 </r>
       <r>    5.0915    0.0000 </r>
       <r>    5.1414    0.0000 </r>
       <r>    5.1777    0.0000 </r>
       <r>    5.2493    0.0000 </r>
       <r>    5.2704    0.0000 </r>
       <r>    5.3163    0.0000 </r>
       <r>    5.3447    0.0000 </r>
       <r>    5.4322    0.0000 </r>
       <r>    5.4665    0.0000 </r>
       <r>    5.5021    0.0000 </r>
       <r>    5.5428    0.0000 </r>
       <r>    5.5913    0.0000 </r>
       <r>    5.6016    0.0000 </r>
       <r>    5.6433    0.0000 </r>
       <r>    5.6991    0.0000 </r>
       <r>    5.7522    0.0000 </r>
       <r>    5.7867    0.0000 </r>
      </set>
     </set>
    </set>
   </array>
  </eigenvalues>
  <separator name="orbital magnetization" >
   <v name="MAGDIPOLOUT">      0.00000000      0.00000000      0.00000000</v>
  </separator>
  <dos>
   <i name="efermi">     -0.17611967 </i>
   <total>
    <array>
     <dimension dim="1">gridpoints</dimension>
     <dimension dim="2">spin</dimension>
     <field>energy</field>
     <field>total</field>
     <field>integrated</field>
     <set>
      <set comment="spin 1">
       <r>   -68.7822     0.0000     0.0000 </r>
       <r>   -68.5218     0.0000     0.0000 </r>
       <r>   -68.2614     0.0000     0.0000 </r>
       <r>   -68.0010     0.0000     0.0000 </r>
       <r>   -67.7406     0.0000     0.0000 </r>
       <r>   -67.4802     0.0000     0.0000 </r>
       <r>   -67.2198     0.0000     0.0000 </r>
       <r>   -66.9594     0.0000     0.0000 </r>
       <r>   -66.6990     0.0000     0.0000 </r>
       <r>   -66.4386     0.0000     0.0000 </r>
       <r>   -66.1782     0.0000     0.0000 </r>
       <r>   -65.9178     0.0000     0.0000 </r>
       <r>   -65.6574     0.0144     0.0038 </r>
       <r>   -65.3970     1.6251     0.4269 </r>
       <r>   -65.1366    17.4306     4.9659 </r>
       <r>   -64.8762    69.6073    23.0915 </r>
       <r>   -64.6158   155.4848    63.5796 </r>
       <r>   -64.3554   210.7646   118.4626 </r>
       <r>   -64.0950   184.2754   166.4477 </r>
       <r>   -63.8346   105.1761   193.8355 </r>
       <r>   -63.5742    54.6891   208.0765 </r>
       <r>   -63.3138    25.9033   214.8217 </r>
       <r>   -63.0534     4.4275   215.9747 </r>
       <r>   -62.7930     0.0972   216.0000 </r>
       <r>   -62.5326     0.0001   216.0000 </r>
       <r>   -62.2722     0.0000   216.0000 </r>
       <r>   -62.0118     0.0000   216.0000 </r>
       <r>   -61.7514     0.0000   216.0000 </r>
       <r>   -61.4910     0.0000   216.0000 </r>
       <r>   -61.2306     0.0000   216.0000 </r>
       <r>   -60.9702     0.0000   216.0000 </r>
       <r>   -60.7098     0.0000   216.0000 </r>
       <r>   -60.4494     0.0000   216.0000 </r>
       <r>   -60.1890     0.0000   216.0000 </r>
       <r>   -59.9286     0.0000   216.0000 </r>
       <r>   -59.6682     0.0000   216.0000 </r>
       <r>   -59.4078     0.0000   216.0000 </r>
       <r>   -59.1474     0.0000   216.0000 </r>
       <r>   -58.8870     0.0000   216.0000 </r>
       <r>   -58.6266     0.0000   216.0000 </r>
       <r>   -58.3662     0.0000   216.0000 </r>
       <r>   -58.1058     0.0000   216.0000 </r>
       <r>   -57.8454     0.0000   216.0000 </r>
       <r>   -57.5850     0.0000   216.0000 </r>
       <r>   -57.3246     0.0000   216.0000 </r>
       <r>   -57.0642     0.0000   216.0000 </r>
       <r>   -56.8038     0.0000   216.0000 </r>
       <r>   -56.5434     0.0000   216.0000 </r>
       <r>   -56.2830     0.0000   216.0000 </r>
       <r>   -56.0226     0.0000   216.0000 </r>
       <r>   -55.7622     0.0000   216.0000 </r>
       <r>   -55.5018     0.0000   216.0000 </r>
       <r>   -55.2414     0.0000   216.0000 </r>
       <r>   -54.9810     0.0000   216.0000 </r>
       <r>   -54.7206     0.0000   216.0000 </r>
       <r>   -54.4602     0.0000   216.0000 </r>
       <r>   -54.1998     0.0000   216.0000 </r>
       <r>   -53.9394     0.0000   216.0000 </r>
       <r>   -53.6790     0.0000   216.0000 </r>
       <r>   -53.4186     0.0000   216.0000 </r>
       <r>   -53.1582     0.0000   216.0000 </r>
       <r>   -52.8978     0.0000   216.0000 </r>
       <r>   -52.6374     0.0000   216.0000 </r>
       <r>   -52.3770     0.0000   216.0000 </r>
       <r>   -52.1166     0.0000   216.0000 </r>
       <r>   -51.8562     0.0000   216.0000 </r>
       <r>   -51.5958     0.0000   216.0000 </r>
       <r>   -51.3354     0.0000   216.0000 </r>
       <r>   -51.0750     0.0000   216.0000 </r>
       <r>   -50.8146     0.0000   216.0000 </r>
       <r>   -50.5542     0.0000   216.0000 </r>
       <r>   -50.2938     0.0000   216.0000 </r>
       <r>   -50.0334     0.0000   216.0000 </r>
       <r>   -49.7730     0.0000   216.0000 </r>
       <r>   -49.5126     0.0000   216.0000 </r>
       <r>   -49.2522     0.0000   216.0000 </r>
       <r>   -48.9918     0.0000   216.0000 </r>
       <r>   -48.7314     0.0000   216.0000 </r>
       <r>   -48.4710     0.0000   216.0000 </r>
       <r>   -48.2106     0.0000   216.0000 </r>
       <r>   -47.9502     0.0000   216.0000 </r>
       <r>   -47.6898     0.0000   216.0000 </r>
       <r>   -47.4294     0.0000   216.0000 </r>
       <r>   -47.1690     0.0000   216.0000 </r>
       <r>   -46.9086     0.0000   216.0000 </r>
       <r>   -46.6482     0.0000   216.0000 </r>
       <r>   -46.3878     0.0000   216.0000 </r>
       <r>   -46.1274     0.0000   216.0000 </r>
       <r>   -45.8670     0.0000   216.0000 </r>
       <r>   -45.6066     0.0000   216.0000 </r>
       <r>   -45.3462     0.0000   216.0000 </r>
       <r>   -45.0858     0.0000   216.0000 </r>
       <r>   -44.8254     0.0000   216.0000 </r>
       <r>   -44.5650     0.0000   216.0000 </r>
       <r>   -44.3046     0.0000   216.0000 </r>
       <r>   -44.0442     0.0000   216.0000 </r>
       <r>   -43.7838     0.0000   216.0000 </r>
       <r>   -43.5234     0.0000   216.0000 </r>
       <r>   -43.2630     0.0000   216.0000 </r>
       <r>   -43.0026     0.0000   216.0000 </r>
       <r>   -42.7422     0.0000   216.0000 </r>
       <r>   -42.4818     0.0000   216.0000 </r>
       <r>   -42.2215     0.0000   216.0000 </r>
       <r>   -41.9611     0.0000   216.0000 </r>
       <r>   -41.7007     0.0000   216.0000 </r>
       <r>   -41.4403     0.0000   216.0000 </r>
       <r>   -41.1799     0.0000   216.0000 </r>
       <r>   -40.9195     0.0000   216.0000 </r>
       <r>   -40.6591     0.0000   216.0000 </r>
       <r>   -40.3987     0.0000   216.0000 </r>
       <r>   -40.1383     0.0000   216.0000 </r>
       <r>   -39.8779     0.0000   216.0000 </r>
       <r>   -39.6175     0.0000   216.0000 </r>
       <r>   -39.3571     0.0000   216.0000 </r>
       <r>   -39.0967     0.0000   216.0000 </r>
       <r>   -38.8363     0.0000   216.0000 </r>
       <r>   -38.5759     0.0000   216.0000 </r>
       <r>   -38.3155     0.0000   216.0000 </r>
       <r>   -38.0551     0.0000   216.0000 </r>
       <r>   -37.7947     0.0000   216.0000 </r>
       <r>   -37.5343     0.0000   216.0000 </r>
       <r>   -37.2739     0.0000   216.0000 </r>
       <r>   -37.0135     0.0000   216.0000 </r>
       <r>   -36.7531     0.0000   216.0000 </r>
       <r>   -36.4927     0.0000   216.0000 </r>
       <r>   -36.2323     0.0000   216.0000 </r>
       <r>   -35.9719     0.0000   216.0000 </r>
       <r>   -35.7115     0.0000   216.0000 </r>
       <r>   -35.4511     0.0000   216.0000 </r>
       <r>   -35.1907     0.0000   216.0000 </r>
       <r>   -34.9303     0.0000   216.0000 </r>
       <r>   -34.6699     0.0000   216.0000 </r>
       <r>   -34.4095     0.0000   216.0000 </r>
       <r>   -34.1491     0.0000   216.0000 </r>
       <r>   -33.8887     0.0000   216.0000 </r>
       <r>   -33.6283     0.0000   216.0000 </r>
       <r>   -33.3679     0.0000   216.0000 </r>
       <r>   -33.1075     0.0000   216.0000 </r>
       <r>   -32.8471     0.0000   216.0000 </r>
       <r>   -32.5867     0.0000   216.0000 </r>
       <r>   -32.3263     0.0000   216.0000 </r>
       <r>   -32.0659     0.0000   216.0000 </r>
       <r>   -31.8055     0.0000   216.0000 </r>
       <r>   -31.5451     0.0000   216.0000 </r>
       <r>   -31.2847     0.0000   216.0000 </r>
       <r>   -31.0243     0.0000   216.0000 </r>
       <r>   -30.7639     0.0000   216.0000 </r>
       <r>   -30.5035     0.0000   216.0000 </r>
       <r>   -30.2431     0.0000   216.0000 </r>
       <r>   -29.9827     0.0000   216.0000 </r>
       <r>   -29.7223     0.0000   216.0000 </r>
       <r>   -29.4619     0.0000   216.0000 </r>
       <r>   -29.2015     0.0000   216.0000 </r>
       <r>   -28.9411     0.0000   216.0000 </r>
       <r>   -28.6807     0.0000   216.0000 </r>
       <r>   -28.4203     0.0000   216.0000 </r>
       <r>   -28.1599     0.0000   216.0000 </r>
       <r>   -27.8995     0.0000   216.0000 </r>
       <r>   -27.6391     0.0000   216.0000 </r>
       <r>   -27.3787     0.0000   216.0000 </r>
       <r>   -27.1183     0.0000   216.0000 </r>
       <r>   -26.8579     0.0000   216.0000 </r>
       <r>   -26.5975     0.0000   216.0000 </r>
       <r>   -26.3371     0.0000   216.0000 </r>
       <r>   -26.0767     0.0000   216.0000 </r>
       <r>   -25.8163     0.0000   216.0000 </r>
       <r>   -25.5559     0.0000   216.0000 </r>
       <r>   -25.2955     0.0000   216.0000 </r>
       <r>   -25.0351     0.0000   216.0000 </r>
       <r>   -24.7747     0.0000   216.0000 </r>
       <r>   -24.5143     0.0000   216.0000 </r>
       <r>   -24.2539     0.0000   216.0000 </r>
       <r>   -23.9935     0.0000   216.0000 </r>
       <r>   -23.7331     0.0000   216.0000 </r>
       <r>   -23.4727     0.0000   216.0000 </r>
       <r>   -23.2123     0.0000   216.0000 </r>
       <r>   -22.9519     0.0000   216.0000 </r>
       <r>   -22.6915     0.0000   216.0000 </r>
       <r>   -22.4311     0.0000   216.0000 </r>
       <r>   -22.1707     0.0000   216.0000 </r>
       <r>   -21.9103     0.0000   216.0000 </r>
       <r>   -21.6499     0.0000   216.0000 </r>
       <r>   -21.3895     0.0000   216.0000 </r>
       <r>   -21.1291     0.0000   216.0000 </r>
       <r>   -20.8687     0.0000   216.0000 </r>
       <r>   -20.6083     0.0000   216.0000 </r>
       <r>   -20.3479     0.0000   216.0000 </r>
       <r>   -20.0875     0.0000   216.0000 </r>
       <r>   -19.8271     0.0000   216.0000 </r>
       <r>   -19.5667     0.0000   216.0000 </r>
       <r>   -19.3063     0.0000   216.0000 </r>
       <r>   -19.0459     0.0000   216.0000 </r>
       <r>   -18.7855     0.0000   216.0000 </r>
       <r>   -18.5251     0.0000   216.0000 </r>
       <r>   -18.2647     0.0000   216.0000 </r>
       <r>   -18.0043     0.0000   216.0000 </r>
       <r>   -17.7439     0.0000   216.0000 </r>
       <r>   -17.4835     0.0000   216.0000 </r>
       <r>   -17.2231     0.0000   216.0000 </r>
       <r>   -16.9627     0.0391   216.0102 </r>
       <r>   -16.7023     1.7601   216.4685 </r>
       <r>   -16.4419     5.6390   217.9369 </r>
       <r>   -16.1815     7.2663   219.8290 </r>
       <r>   -15.9211    10.3983   222.5367 </r>
       <r>   -15.6607     8.6502   224.7893 </r>
       <r>   -15.4003    14.7416   228.6280 </r>
       <r>   -15.1399    20.3147   233.9179 </r>
       <r>   -14.8795    25.5948   240.5828 </r>
       <r>   -14.6191    28.8224   248.0881 </r>
       <r>   -14.3587    32.7261   256.6100 </r>
       <r>   -14.0983    26.5818   263.5318 </r>
       <r>   -13.8379    16.8816   267.9278 </r>
       <r>   -13.5775    14.9268   271.8147 </r>
       <r>   -13.3171    21.9299   277.5253 </r>
       <r>   -13.0567    20.0240   282.7395 </r>
       <r>   -12.7963    15.7232   286.8338 </r>
       <r>   -12.5359     4.3670   287.9710 </r>
       <r>   -12.2755     0.1113   288.0000 </r>
       <r>   -12.0151     0.0002   288.0000 </r>
       <r>   -11.7547     0.0000   288.0000 </r>
       <r>   -11.4943     0.0000   288.0000 </r>
       <r>   -11.2339     0.0000   288.0000 </r>
       <r>   -10.9735     0.0000   288.0000 </r>
       <r>   -10.7131     0.0000   288.0000 </r>
       <r>   -10.4527     0.0000   288.0000 </r>
       <r>   -10.1923     0.0000   288.0000 </r>
       <r>    -9.9319     0.0000   288.0000 </r>
       <r>    -9.6715     0.0000   288.0000 </r>
       <r>    -9.4112     0.0000   288.0000 </r>
       <r>    -9.1508     0.0000   288.0000 </r>
       <r>    -8.8904     0.0033   288.0009 </r>
       <r>    -8.6300     0.5251   288.1376 </r>
       <r>    -8.3696     5.2779   289.5120 </r>
       <r>    -8.1092    11.5813   292.5277 </r>
       <r>    -7.8488    21.6391   298.1625 </r>
       <r>    -7.5884    30.2122   306.0298 </r>
       <r>    -7.3280    36.1155   315.4342 </r>
       <r>    -7.0676    36.3834   324.9084 </r>
       <r>    -6.8072    34.0891   333.7852 </r>
       <r>    -6.5468    43.2628   345.0508 </r>
       <r>    -6.2864    50.0519   358.0843 </r>
       <r>    -6.0260    57.9612   373.1773 </r>
       <r>    -5.7656    53.4824   387.1041 </r>
       <r>    -5.5052    54.5567   401.3106 </r>
       <r>    -5.2448    62.8601   417.6793 </r>
       <r>    -4.9844    63.8943   434.3173 </r>
       <r>    -4.7240    55.9744   448.8930 </r>
       <r>    -4.4636    53.2767   462.7662 </r>
       <r>    -4.2032    37.9867   472.6579 </r>
       <r>    -3.9428    40.5882   483.2271 </r>
       <r>    -3.6824    46.1622   495.2476 </r>
       <r>    -3.4220    59.7862   510.8159 </r>
       <r>    -3.1616    68.4854   528.6495 </r>
       <r>    -2.9012    84.8830   550.7529 </r>
       <r>    -2.6408    93.9808   575.2254 </r>
       <r>    -2.3804   109.5572   603.7540 </r>
       <r>    -2.1200   123.3749   635.8808 </r>
       <r>    -1.8596   122.9195   667.8889 </r>
       <r>    -1.5992   110.3948   696.6356 </r>
       <r>    -1.3388    91.2110   720.3869 </r>
       <r>    -1.0784    78.5077   740.8303 </r>
       <r>    -0.8180    61.8799   756.9437 </r>
       <r>    -0.5576    55.4392   771.3801 </r>
       <r>    -0.2972    56.2010   786.0148 </r>
       <r>    -0.0368    51.0452   799.3069 </r>
       <r>     0.2236    52.4990   812.9776 </r>
       <r>     0.4840    43.1492   824.2136 </r>
       <r>     0.7444    38.0515   834.1222 </r>
       <r>     1.0048    36.2875   843.5715 </r>
       <r>     1.2652    38.0845   853.4886 </r>
       <r>     1.5256    28.6541   860.9501 </r>
       <r>     1.7860    11.1062   863.8422 </r>
       <r>     2.0464     3.6523   864.7932 </r>
       <r>     2.3068     8.3160   866.9587 </r>
       <r>     2.5672     4.3675   868.0960 </r>
       <r>     2.8276     8.0783   870.1996 </r>
       <r>     3.0880    12.0282   873.3318 </r>
       <r>     3.3484     9.7630   875.8740 </r>
       <r>     3.6088    11.5412   878.8793 </r>
       <r>     3.8692    17.3462   883.3963 </r>
       <r>     4.1296    23.4485   889.5023 </r>
       <r>     4.3900    29.8238   897.2684 </r>
       <r>     4.6504    30.2353   905.1416 </r>
       <r>     4.9108    33.2770   913.8069 </r>
       <r>     5.1712    35.0105   922.9236 </r>
       <r>     5.4316    42.6569   934.0315 </r>
       <r>     5.6920    44.9229   945.7294 </r>
       <r>     5.9524    22.0450   951.4699 </r>
       <r>     6.2128     2.0202   951.9959 </r>
       <r>     6.4732     0.0157   952.0000 </r>
       <r>     6.7336     0.0000   952.0000 </r>
       <r>     6.9940     0.0000   952.0000 </r>
       <r>     7.2544     0.0000   952.0000 </r>
       <r>     7.5148     0.0000   952.0000 </r>
       <r>     7.7752     0.0000   952.0000 </r>
       <r>     8.0356     0.0000   952.0000 </r>
       <r>     8.2960     0.0000   952.0000 </r>
       <r>     8.5564     0.0000   952.0000 </r>
       <r>     8.8168     0.0000   952.0000 </r>
       <r>     9.0772     0.0000   952.0000 </r>
       <r>     9.3376     0.0000   952.0000 </r>
      </set>
     </set>
    </array>
   </total>
  </dos>
 </calculation>
 <structure name="finalpos" >
  <crystal>
   <varray name="basis" >
    <v>      16.88469405       0.00000000       0.00000000 </v>
    <v>       0.00000000       9.57841000       0.00000000 </v>
    <v>       0.00000000       0.00000000      16.16908712 </v>
   </varray>
   <i name="volume">   2615.00256803 </i>
   <varray name="rec_basis" >
    <v>       0.05922524       0.00000000       0.00000000 </v>
    <v>       0.00000000       0.10440146       0.00000000 </v>
    <v>       0.00000000       0.00000000       0.06184641 </v>
   </varray>
  </crystal>
  <varray name="positions" >
   <v>       0.76230463       0.21088731       0.13392865 </v>
   <v>       0.81855232       0.16677456       0.27098016 </v>
   <v>       0.21492553       0.61941740       0.09540430 </v>
   <v>       0.29733029       0.64529695       0.21596896 </v>
   <v>       0.38598348       0.11996803       0.12584050 </v>
   <v>       0.46975828       0.14529695       0.24776362 </v>
   <v>       0.95247430       0.64529695       0.15237965 </v>
   <v>       0.96439314       0.64544255       0.31236844 </v>
   <v>       0.12490229       0.14529695       0.18417431 </v>
   <v>       0.10728330       0.14561054       0.32801140 </v>
   <v>       0.56852596       0.66132148       0.16127841 </v>
   <v>       0.64218627       0.64529695       0.27955828 </v>
   <v>       0.91380233       0.98114527       0.12089935 </v>
   <v>       0.94690282       0.01490016       0.26534434 </v>
   <v>       0.35812171       0.64393668       0.05799396 </v>
   <v>       0.42486676       0.51319395       0.19076795 </v>
   <v>       0.46481383       0.46537568       0.33268463 </v>
   <v>       0.52931255       0.14727367       0.08872338 </v>
   <v>       0.59729475       0.01319395       0.22256260 </v>
   <v>       0.08001077       0.51319395       0.12717863 </v>
   <v>       0.11253277       0.50113259       0.29075979 </v>
   <v>       0.25243876       0.01319395       0.15897329 </v>
   <v>       0.29274463       0.97268066       0.30572623 </v>
   <v>       0.76670519       0.46839457       0.11172190 </v>
   <v>       0.76972274       0.51319395       0.25435726 </v>
   <v>       0.95398690       0.27268210       0.24349096 </v>
   <v>       0.41475981       0.88425607       0.05910286 </v>
   <v>       0.42486676       0.77739995       0.19076795 </v>
   <v>       0.46995467       0.83406945       0.32785472 </v>
   <v>       0.63495636       0.34971162       0.08001887 </v>
   <v>       0.59729475       0.27739995       0.22256260 </v>
   <v>       0.08001077       0.77739995       0.12717863 </v>
   <v>       0.11263661       0.78916144       0.29127334 </v>
   <v>       0.25243876       0.27739995       0.15897329 </v>
   <v>       0.29078718       0.31062297       0.31016242 </v>
   <v>       0.76972274       0.77739995       0.25435726 </v>
   <v>       0.98904335       0.16233410       0.34634590 </v>
   <v>       0.00023092       0.12093407       0.16518467 </v>
   <v>       0.47417723       0.64529695       0.08702573 </v>
   <v>       0.50874518       0.64529695       0.27779368 </v>
   <v>       0.64660522       0.14529695       0.11882039 </v>
   <v>       0.69458079       0.15521039       0.26719311 </v>
   <v>       0.11263355       0.64619690       0.03188171 </v>
   <v>       0.16388920       0.64529695       0.21420436 </v>
   <v>       0.28201055       0.14567913       0.06289053 </v>
   <v>       0.33631719       0.14529695       0.24599902 </v>
   <v>       0.82241036       0.64573400       0.16044414 </v>
   <v>       0.84374248       0.64665665       0.32426646 </v>
   <v>       0.74211972       0.32575546       0.02357008 </v>
   <v>       0.83845701       0.34621718       0.20060595 </v>
   <v>       0.31177708       0.81351195       0.11911576 </v>
   <v>       0.35331031       0.78889809       0.30058920 </v>
   <v>       0.48420507       0.31351195       0.15091042 </v>
   <v>       0.52714412       0.28811164       0.32704962 </v>
   <v>       0.00148905       0.81351195       0.24629439 </v>
   <v>       0.97022923       0.81052138       0.07218275 </v>
   <v>       0.14086162       0.32377420       0.10980719 </v>
   <v>       0.17391704       0.31351195       0.27808905 </v>
   <v>       0.65349921       0.81492424       0.19680421 </v>
   <v>       0.69875808       0.78412497       0.35457554 </v>
   <v>       0.31177708       0.47708195       0.11911576 </v>
   <v>       0.34986733       0.49467755       0.29651935 </v>
   <v>       0.83319680       0.09367918       0.05911361 </v>
   <v>       0.82906105       0.97708195       0.21449973 </v>
   <v>       0.00148905       0.47708195       0.24629439 </v>
   <v>       0.97394380       0.49304367       0.06973880 </v>
   <v>       0.48420507       0.97708195       0.15091042 </v>
   <v>       0.53210089       0.01189464       0.32918117 </v>
   <v>       0.65663306       0.47708195       0.18270508 </v>
   <v>       0.69351116       0.49509512       0.35081977 </v>
   <v>       0.14096997       0.96711809       0.10942986 </v>
   <v>       0.17391704       0.97708195       0.27808905 </v>
  </varray>
 </structure>
</modeling>
