  72  72   0   0
  0.3631948E+02  0.1688469E-08  0.9578410E-09  0.1616909E-08  0.5000000E-15
  1.000000000000000E-004
  CAR 
 "Millerite NiS"                         
      9.13904565    -67.93566060  301     -0.30966988      1.00000000
    -67.936  0.0000E+00  0.0000E+00
    -67.679  0.0000E+00  0.0000E+00
    -67.422  0.0000E+00  0.0000E+00
    -67.165  0.0000E+00  0.0000E+00
    -66.908  0.0000E+00  0.0000E+00
    -66.651  0.0000E+00  0.0000E+00
    -66.394  0.0000E+00  0.0000E+00
    -66.137  0.0000E+00  0.0000E+00
    -65.880  0.0000E+00  0.0000E+00
    -65.623  0.0000E+00  0.0000E+00
    -65.367  0.5874E-09  0.1509E-09
    -65.110  0.3265E-04  0.8388E-05
    -64.853  0.8620E-01  0.2215E-01
    -64.596  0.1272E+02  0.3291E+01
    -64.339  0.1429E+03  0.4001E+02
    -64.082  0.2085E+03  0.9357E+02
    -63.825  0.1266E+03  0.1261E+03
    -63.568  0.1398E+03  0.1620E+03
    -63.311  0.9841E+02  0.1873E+03
    -63.054  0.6053E+02  0.2029E+03
    -62.797  0.4313E+02  0.2139E+03
    -62.540  0.7852E+01  0.2160E+03
    -62.284  0.1665E+00  0.2160E+03
    -62.027  0.2298E-03  0.2160E+03
    -61.770  0.1512E-07  0.2160E+03
    -61.513  0.4148E-13  0.2160E+03
    -61.256  0.0000E+00  0.2160E+03
    -60.999  0.0000E+00  0.2160E+03
    -60.742  0.0000E+00  0.2160E+03
    -60.485  0.0000E+00  0.2160E+03
    -60.228  0.0000E+00  0.2160E+03
    -59.971  0.0000E+00  0.2160E+03
    -59.714  0.0000E+00  0.2160E+03
    -59.457  0.0000E+00  0.2160E+03
    -59.201  0.0000E+00  0.2160E+03
    -58.944  0.0000E+00  0.2160E+03
    -58.687  0.0000E+00  0.2160E+03
    -58.430  0.0000E+00  0.2160E+03
    -58.173  0.0000E+00  0.2160E+03
    -57.916  0.0000E+00  0.2160E+03
    -57.659  0.0000E+00  0.2160E+03
    -57.402  0.0000E+00  0.2160E+03
    -57.145  0.0000E+00  0.2160E+03
    -56.888  0.0000E+00  0.2160E+03
    -56.631  0.0000E+00  0.2160E+03
    -56.374  0.0000E+00  0.2160E+03
    -56.118  0.0000E+00  0.2160E+03
    -55.861  0.0000E+00  0.2160E+03
    -55.604  0.0000E+00  0.2160E+03
    -55.347  0.0000E+00  0.2160E+03
    -55.090  0.0000E+00  0.2160E+03
    -54.833  0.0000E+00  0.2160E+03
    -54.576  0.0000E+00  0.2160E+03
    -54.319  0.0000E+00  0.2160E+03
    -54.062  0.0000E+00  0.2160E+03
    -53.805  0.0000E+00  0.2160E+03
    -53.548  0.0000E+00  0.2160E+03
    -53.291  0.0000E+00  0.2160E+03
    -53.035  0.0000E+00  0.2160E+03
    -52.778  0.0000E+00  0.2160E+03
    -52.521  0.0000E+00  0.2160E+03
    -52.264  0.0000E+00  0.2160E+03
    -52.007  0.0000E+00  0.2160E+03
    -51.750  0.0000E+00  0.2160E+03
    -51.493  0.0000E+00  0.2160E+03
    -51.236  0.0000E+00  0.2160E+03
    -50.979  0.0000E+00  0.2160E+03
    -50.722  0.0000E+00  0.2160E+03
    -50.465  0.0000E+00  0.2160E+03
    -50.208  0.0000E+00  0.2160E+03
    -49.952  0.0000E+00  0.2160E+03
    -49.695  0.0000E+00  0.2160E+03
    -49.438  0.0000E+00  0.2160E+03
    -49.181  0.0000E+00  0.2160E+03
    -48.924  0.0000E+00  0.2160E+03
    -48.667  0.0000E+00  0.2160E+03
    -48.410  0.0000E+00  0.2160E+03
    -48.153  0.0000E+00  0.2160E+03
    -47.896  0.0000E+00  0.2160E+03
    -47.639  0.0000E+00  0.2160E+03
    -47.382  0.0000E+00  0.2160E+03
    -47.125  0.0000E+00  0.2160E+03
    -46.869  0.0000E+00  0.2160E+03
    -46.612  0.0000E+00  0.2160E+03
    -46.355  0.0000E+00  0.2160E+03
    -46.098  0.0000E+00  0.2160E+03
    -45.841  0.0000E+00  0.2160E+03
    -45.584  0.0000E+00  0.2160E+03
    -45.327  0.0000E+00  0.2160E+03
    -45.070  0.0000E+00  0.2160E+03
    -44.813  0.0000E+00  0.2160E+03
    -44.556  0.0000E+00  0.2160E+03
    -44.299  0.0000E+00  0.2160E+03
    -44.043  0.0000E+00  0.2160E+03
    -43.786  0.0000E+00  0.2160E+03
    -43.529  0.0000E+00  0.2160E+03
    -43.272  0.0000E+00  0.2160E+03
    -43.015  0.0000E+00  0.2160E+03
    -42.758  0.0000E+00  0.2160E+03
    -42.501  0.0000E+00  0.2160E+03
    -42.244  0.0000E+00  0.2160E+03
    -41.987  0.0000E+00  0.2160E+03
    -41.730  0.0000E+00  0.2160E+03
    -41.473  0.0000E+00  0.2160E+03
    -41.216  0.0000E+00  0.2160E+03
    -40.960  0.0000E+00  0.2160E+03
    -40.703  0.0000E+00  0.2160E+03
    -40.446  0.0000E+00  0.2160E+03
    -40.189  0.0000E+00  0.2160E+03
    -39.932  0.0000E+00  0.2160E+03
    -39.675  0.0000E+00  0.2160E+03
    -39.418  0.0000E+00  0.2160E+03
    -39.161  0.0000E+00  0.2160E+03
    -38.904  0.0000E+00  0.2160E+03
    -38.647  0.0000E+00  0.2160E+03
    -38.390  0.0000E+00  0.2160E+03
    -38.133  0.0000E+00  0.2160E+03
    -37.877  0.0000E+00  0.2160E+03
    -37.620  0.0000E+00  0.2160E+03
    -37.363  0.0000E+00  0.2160E+03
    -37.106  0.0000E+00  0.2160E+03
    -36.849  0.0000E+00  0.2160E+03
    -36.592  0.0000E+00  0.2160E+03
    -36.335  0.0000E+00  0.2160E+03
    -36.078  0.0000E+00  0.2160E+03
    -35.821  0.0000E+00  0.2160E+03
    -35.564  0.0000E+00  0.2160E+03
    -35.307  0.0000E+00  0.2160E+03
    -35.050  0.0000E+00  0.2160E+03
    -34.794  0.0000E+00  0.2160E+03
    -34.537  0.0000E+00  0.2160E+03
    -34.280  0.0000E+00  0.2160E+03
    -34.023  0.0000E+00  0.2160E+03
    -33.766  0.0000E+00  0.2160E+03
    -33.509  0.0000E+00  0.2160E+03
    -33.252  0.0000E+00  0.2160E+03
    -32.995  0.0000E+00  0.2160E+03
    -32.738  0.0000E+00  0.2160E+03
    -32.481  0.0000E+00  0.2160E+03
    -32.224  0.0000E+00  0.2160E+03
    -31.967  0.0000E+00  0.2160E+03
    -31.711  0.0000E+00  0.2160E+03
    -31.454  0.0000E+00  0.2160E+03
    -31.197  0.0000E+00  0.2160E+03
    -30.940  0.0000E+00  0.2160E+03
    -30.683  0.0000E+00  0.2160E+03
    -30.426  0.0000E+00  0.2160E+03
    -30.169  0.0000E+00  0.2160E+03
    -29.912  0.0000E+00  0.2160E+03
    -29.655  0.0000E+00  0.2160E+03
    -29.398  0.0000E+00  0.2160E+03
    -29.141  0.0000E+00  0.2160E+03
    -28.884  0.0000E+00  0.2160E+03
    -28.628  0.0000E+00  0.2160E+03
    -28.371  0.0000E+00  0.2160E+03
    -28.114  0.0000E+00  0.2160E+03
    -27.857  0.0000E+00  0.2160E+03
    -27.600  0.0000E+00  0.2160E+03
    -27.343  0.0000E+00  0.2160E+03
    -27.086  0.0000E+00  0.2160E+03
    -26.829  0.0000E+00  0.2160E+03
    -26.572  0.0000E+00  0.2160E+03
    -26.315  0.0000E+00  0.2160E+03
    -26.058  0.0000E+00  0.2160E+03
    -25.801  0.0000E+00  0.2160E+03
    -25.545  0.0000E+00  0.2160E+03
    -25.288  0.0000E+00  0.2160E+03
    -25.031  0.0000E+00  0.2160E+03
    -24.774  0.0000E+00  0.2160E+03
    -24.517  0.0000E+00  0.2160E+03
    -24.260  0.0000E+00  0.2160E+03
    -24.003  0.0000E+00  0.2160E+03
    -23.746  0.0000E+00  0.2160E+03
    -23.489  0.0000E+00  0.2160E+03
    -23.232  0.0000E+00  0.2160E+03
    -22.975  0.0000E+00  0.2160E+03
    -22.718  0.0000E+00  0.2160E+03
    -22.462  0.0000E+00  0.2160E+03
    -22.205  0.0000E+00  0.2160E+03
    -21.948  0.0000E+00  0.2160E+03
    -21.691  0.0000E+00  0.2160E+03
    -21.434  0.0000E+00  0.2160E+03
    -21.177  0.0000E+00  0.2160E+03
    -20.920  0.0000E+00  0.2160E+03
    -20.663  0.0000E+00  0.2160E+03
    -20.406  0.0000E+00  0.2160E+03
    -20.149  0.0000E+00  0.2160E+03
    -19.892  0.0000E+00  0.2160E+03
    -19.636  0.0000E+00  0.2160E+03
    -19.379  0.0000E+00  0.2160E+03
    -19.122  0.0000E+00  0.2160E+03
    -18.865  0.0000E+00  0.2160E+03
    -18.608  0.0000E+00  0.2160E+03
    -18.351  0.0000E+00  0.2160E+03
    -18.094  0.0000E+00  0.2160E+03
    -17.837  0.0000E+00  0.2160E+03
    -17.580  0.0000E+00  0.2160E+03
    -17.323  0.0000E+00  0.2160E+03
    -17.066  0.0000E+00  0.2160E+03
    -16.809  0.0000E+00  0.2160E+03
    -16.553  0.0000E+00  0.2160E+03
    -16.296  0.3565E-12  0.2160E+03
    -16.039  0.6783E-07  0.2160E+03
    -15.782  0.5213E-03  0.2160E+03
    -15.525  0.1762E+00  0.2160E+03
    -15.268  0.3371E+01  0.2169E+03
    -15.011  0.9049E+01  0.2192E+03
    -14.754  0.1005E+02  0.2218E+03
    -14.497  0.1069E+02  0.2246E+03
    -14.240  0.1938E+02  0.2295E+03
    -13.983  0.2949E+02  0.2371E+03
    -13.726  0.3010E+02  0.2449E+03
    -13.470  0.2728E+02  0.2519E+03
    -13.213  0.2323E+02  0.2578E+03
    -12.956  0.2277E+02  0.2637E+03
    -12.699  0.2265E+02  0.2695E+03
    -12.442  0.2388E+02  0.2756E+03
    -12.185  0.2150E+02  0.2812E+03
    -11.928  0.1767E+02  0.2857E+03
    -11.671  0.8175E+01  0.2878E+03
    -11.414  0.7990E+00  0.2880E+03
    -11.157  0.6593E-02  0.2880E+03
    -10.900  0.2723E-05  0.2880E+03
    -10.643  0.4718E-10  0.2880E+03
    -10.387  0.0000E+00  0.2880E+03
    -10.130  0.0000E+00  0.2880E+03
     -9.873  0.0000E+00  0.2880E+03
     -9.616  0.0000E+00  0.2880E+03
     -9.359  0.0000E+00  0.2880E+03
     -9.102  0.0000E+00  0.2880E+03
     -8.845  0.0000E+00  0.2880E+03
     -8.588  0.0000E+00  0.2880E+03
     -8.331  0.0000E+00  0.2880E+03
     -8.074  0.1850E-12  0.2880E+03
     -7.817  0.4711E-07  0.2880E+03
     -7.560  0.5078E-03  0.2880E+03
     -7.304  0.2590E+00  0.2881E+03
     -7.047  0.7993E+01  0.2901E+03
     -6.790  0.2335E+02  0.2961E+03
     -6.533  0.2122E+02  0.3016E+03
     -6.276  0.3753E+02  0.3112E+03
     -6.019  0.4045E+02  0.3216E+03
     -5.762  0.4470E+02  0.3331E+03
     -5.505  0.4724E+02  0.3452E+03
     -5.248  0.4784E+02  0.3575E+03
     -4.991  0.4305E+02  0.3686E+03
     -4.734  0.4704E+02  0.3807E+03
     -4.477  0.5861E+02  0.3957E+03
     -4.221  0.4984E+02  0.4085E+03
     -3.964  0.6381E+02  0.4249E+03
     -3.707  0.6678E+02  0.4421E+03
     -3.450  0.5934E+02  0.4573E+03
     -3.193  0.5766E+02  0.4721E+03
     -2.936  0.5773E+02  0.4870E+03
     -2.679  0.6521E+02  0.5037E+03
     -2.422  0.9199E+02  0.5274E+03
     -2.165  0.1270E+03  0.5600E+03
     -1.908  0.1454E+03  0.5973E+03
     -1.651  0.1625E+03  0.6391E+03
     -1.394  0.1512E+03  0.6780E+03
     -1.138  0.1245E+03  0.7100E+03
     -0.881  0.1149E+03  0.7395E+03
     -0.624  0.1040E+03  0.7662E+03
     -0.367  0.8454E+02  0.7879E+03
     -0.110  0.6463E+02  0.8045E+03
      0.147  0.5390E+02  0.8184E+03
      0.404  0.5302E+02  0.8320E+03
      0.661  0.5542E+02  0.8462E+03
      0.918  0.6086E+02  0.8619E+03
      1.175  0.3771E+02  0.8716E+03
      1.432  0.1075E+02  0.8743E+03
      1.688  0.9519E+01  0.8768E+03
      1.945  0.5232E+01  0.8781E+03
      2.202  0.4996E+01  0.8794E+03
      2.459  0.5757E+01  0.8809E+03
      2.716  0.8543E+01  0.8831E+03
      2.973  0.4262E+01  0.8842E+03
      3.230  0.6889E+01  0.8859E+03
      3.487  0.1729E+02  0.8904E+03
      3.744  0.1583E+02  0.8944E+03
      4.001  0.1901E+02  0.8993E+03
      4.258  0.3203E+02  0.9076E+03
      4.515  0.3103E+02  0.9155E+03
      4.771  0.3159E+02  0.9236E+03
      5.028  0.2994E+02  0.9313E+03
      5.285  0.3361E+02  0.9400E+03
      5.542  0.4694E+02  0.9520E+03
      5.799  0.2802E+02  0.9592E+03
      6.056  0.2956E+01  0.9600E+03
      6.313  0.2750E-01  0.9600E+03
      6.570  0.1369E-04  0.9600E+03
      6.827  0.2965E-09  0.9600E+03
      7.084  0.0000E+00  0.9600E+03
      7.341  0.0000E+00  0.9600E+03
      7.598  0.0000E+00  0.9600E+03
      7.854  0.0000E+00  0.9600E+03
      8.111  0.0000E+00  0.9600E+03
      8.368  0.0000E+00  0.9600E+03
      8.625  0.0000E+00  0.9600E+03
      8.882  0.0000E+00  0.9600E+03
      9.139  0.0000E+00  0.9600E+03
