"Millerite NiS"                         
           1
     8.700731   -4.005399    0.000000
     0.000000   11.452784    0.000000
     0.000000    0.000000   20.200895
   Ni   S 
    38    38
Direct configuration=     1
   0.63793591  0.42904558  0.05063180
   0.72899292  0.61115959  0.17454288
   0.82004993  0.79327361  0.29845396
   0.91110694  0.97538762  0.42236504
   0.45636426  0.06590227  0.25715026
   0.54742127  0.24801628  0.38106134
   0.63847827  0.43013030  0.50497242
   0.27425024  0.70167424  0.00932811
   0.36530725  0.88378825  0.13323919
   0.00162158  0.15641692  0.09193549
   0.09267859  0.33853093  0.21584657
   0.18373560  0.52064495  0.33975765
   0.27479261  0.70275896  0.46366873
   0.68605153  0.26107081  0.11610790
   0.77710854  0.44318482  0.24001898
   0.86816554  0.62529884  0.36393006
   0.95922255  0.80741285  0.48784114
   0.59553688  0.08004151  0.44653744
   0.32236586  0.53369947  0.07480421
   0.41342287  0.71581348  0.19871529
   0.50447988  0.89792750  0.32262637
   0.14079421  0.17055616  0.28132267
   0.23185121  0.35267018  0.40523375
   0.04973720  0.98844215  0.15741159
   0.95868019  0.80632813  0.03350052
   0.08425593  0.79327361  0.29845396
   0.17531294  0.97538762  0.42236504
   0.90214191  0.42904558  0.05063180
   0.99319892  0.61115959  0.17454288
   0.72057026  0.06590227  0.25715026
   0.81162727  0.24801628  0.38106134
   0.90268427  0.43013030  0.50497242
   0.53845624  0.70167424  0.00932811
   0.62951325  0.88378825  0.13323919
   0.26582758  0.15641692  0.09193549
   0.35688459  0.33853093  0.21584657
   0.44794160  0.52064495  0.33975765
   0.53899861  0.70275896  0.46366873
   0.01340710  0.57935194  0.28912585
   0.10446410  0.76146596  0.41303693
   0.83129308  0.21512391  0.04130369
   0.92235009  0.39723793  0.16521477
   0.74077844  0.03409462  0.37173324
   0.83183544  0.21620863  0.49564431
   0.46760741  0.48775257  0.00000000
   0.55866442  0.66986659  0.12391108
   0.64972143  0.85198060  0.24782216
   0.28603576  0.12460926  0.20651846
   0.37709277  0.30672328  0.33042954
   0.46814977  0.48883730  0.45434062
   0.19497875  0.94249525  0.08260739
   0.13425249  0.15747274  0.45357320
   0.04319549  0.97535872  0.32966212
   0.86108147  0.61113069  0.08183996
   0.95213848  0.79324471  0.20575104
   0.58845281  0.06587337  0.16444735
   0.67950982  0.24798738  0.28835843
   0.77056683  0.43010140  0.41226950
   0.49739580  0.88375935  0.04053627
   0.22476714  0.33850203  0.12314366
   0.31582415  0.52061604  0.24705473
   0.40688116  0.70273006  0.37096581
   0.49793816  0.88484407  0.49487689
   0.49486308  0.21512391  0.04130369
   0.58592009  0.39723793  0.16521477
   0.67697710  0.57935194  0.28912585
   0.76803410  0.76146596  0.41303693
   0.40434844  0.03409462  0.37173324
   0.49540544  0.21620863  0.49564431
   0.13117741  0.48775257  0.00000000
   0.22223442  0.66986659  0.12391108
   0.31329143  0.85198060  0.24782216
   0.04066277  0.30672328  0.33042954
   0.13171977  0.48883730  0.45434062
   0.94960576  0.12460926  0.20651846
   0.85854875  0.94249525  0.08260739
