LAMMPS (5 Jun 2019)
OMP_NUM_THREADS environment is not set. Defaulting to 1 thread. (../comm.cpp:88)
  using 1 OpenMP thread(s) per MPI task
Reading data file ...
  triclinic box = (0 0 0) to (11.2565 9.57841 17.1925) with tilt (0 0 0)
  1 by 1 by 1 MPI processor grid
  reading atoms ...
  52 atoms
  read_data CPU = 0.00073709 secs
20 atoms in group bulk
WARNING: Using 'neigh_modify every 1 delay 0 check yes' setting during minimization (../min.cpp:168)
Neighbor list info ...
  update every 1 steps, delay 0 steps, check yes
  max neighbors/atom: 2000, page size: 100000
  master list distance cutoff = 8.5
  ghost atom cutoff = 8.5
  binsize = 4.25, bins = 3 3 5
  1 neighbor lists, perpetual/occasional/extra = 1 0 0
  (1) pair eam/alloy, perpetual
      attributes: half, newton on
      pair build: half/bin/newton/tri
      stencil: half/bin/3d/newton/tri
      bin: standard
Setting up cg style minimization ...
  Unit style    : metal
  Current step  : 0
Per MPI rank memory allocation (min/avg/max) = 4.101 | 4.101 | 4.101 Mbytes
Step Temp E_pair E_mol TotEng Press 
       0            0   -214.51347            0   -214.51347    -103984.1 
      81            0   -236.72664            0   -236.72664   -14651.648 
Loop time of 0.0324354 on 1 procs for 81 steps with 52 atoms

99.5% CPU use with 1 MPI tasks x 1 OpenMP threads

Minimization stats:
  Stopping criterion = energy tolerance
  Energy initial, next-to-last, final = 
        -214.513470913     -236.724926714      -236.72663723
  Force two-norm initial, final = 12.2584 0.142209
  Force max component initial, final = 3.36435 0.0573475
  Final line search alpha, max atom move = 0.528804 0.0303256
  Iterations, force evaluations = 81 122

MPI task timing breakdown:
Section |  min time  |  avg time  |  max time  |%varavg| %total
---------------------------------------------------------------
Pair    | 0.029226   | 0.029226   | 0.029226   |   0.0 | 90.10
Neigh   | 0.0015473  | 0.0015473  | 0.0015473  |   0.0 |  4.77
Comm    | 0.00087057 | 0.00087057 | 0.00087057 |   0.0 |  2.68
Output  | 0          | 0          | 0          |   0.0 |  0.00
Modify  | 5.646e-05  | 5.646e-05  | 5.646e-05  |   0.0 |  0.17
Other   |            | 0.0007354  |            |       |  2.27

Nlocal:    52 ave 52 max 52 min
Histogram: 1 0 0 0 0 0 0 0 0 0
Nghost:    704 ave 704 max 704 min
Histogram: 1 0 0 0 0 0 0 0 0 0
Neighs:    2585 ave 2585 max 2585 min
Histogram: 1 0 0 0 0 0 0 0 0 0

Total # of neighbors = 2585
Ave neighs/atom = 49.7115
Neighbor list builds = 5
Dangerous builds = 0
System init for write_data ...
Total wall time: 0:00:00
