<?xml version="1.0" encoding="ISO-8859-1"?>
<modeling>
 <generator>
  <i name="program" type="string">vasp </i>
  <i name="version" type="string">6.1.0  </i>
  <i name="subversion" type="string">28Jan20 (build Mar 31 2020 17:42:31) gamma-only                       parallel </i>
  <i name="platform" type="string">LinuxIFC </i>
  <i name="date" type="string">2020 04 12 </i>
  <i name="time" type="string">18:24:46 </i>
 </generator>
 <incar>
  <i type="string" name="SYSTEM">"Millerite NiS"</i>
  <i type="int" name="NSIM">     4</i>
  <i type="int" name="NELM">   100</i>
  <i name="ENCUT">    450.00000000</i>
  <i type="string" name="LREAL">A</i>
  <i type="int" name="ISMEAR">     0</i>
  <i type="int" name="NWRITE">     2</i>
  <i type="logical" name="LWAVE"> F  </i>
  <i type="logical" name="LCHARG"> F  </i>
  <i type="int" name="NCORE">     6</i>
  <i type="int" name="NELM">   100</i>
 </incar>
 <structure name="primitive_cell" >
  <crystal>
   <varray name="basis" >
    <v>       9.42510255       3.57329804       0.00000000 </v>
    <v>       0.00000000      10.07973298       0.00000000 </v>
    <v>       0.00000000       0.00000000      20.68350356 </v>
   </varray>
   <i name="volume">   1964.98490008 </i>
   <varray name="rec_basis" >
    <v>       0.10609964       0.00000000       0.00000000 </v>
    <v>      -0.03761267       0.09920898       0.00000000 </v>
    <v>       0.00000000       0.00000000       0.04834771 </v>
   </varray>
  </crystal>
  <varray name="positions" >
   <v>       0.39705889       0.79495179       0.11816221 </v>
   <v>       0.54732740       0.64468328       0.24509923 </v>
   <v>       0.69759592       0.49441477       0.37203625 </v>
   <v>       0.84786443       0.34414625       0.49897328 </v>
   <v>       0.11381506       0.41152895       0.16047455 </v>
   <v>       0.26408357       0.26126044       0.28741157 </v>
   <v>       0.41435209       0.11099193       0.41434860 </v>
   <v>       0.96354655       0.56179747       0.03353752 </v>
   <v>       0.13110826       0.72756909       0.45666094 </v>
   <v>       0.68030272       0.17837463       0.07584987 </v>
   <v>       0.83057123       0.02810612       0.20278689 </v>
   <v>       0.98083974       0.87783760       0.32972391 </v>
   <v>       0.35735705       0.57044763       0.08462468 </v>
   <v>       0.50762556       0.42017912       0.21156171 </v>
   <v>       0.65789407       0.26991061       0.33849873 </v>
   <v>       0.80816258       0.11964210       0.46543576 </v>
   <v>       0.07411322       0.18702480       0.12693702 </v>
   <v>       0.22438173       0.03675628       0.25387405 </v>
   <v>       0.37465024       0.88648777       0.38081107 </v>
   <v>       0.52491876       0.73621926       0.50774810 </v>
   <v>       0.92384471       0.33729331       0.00000000 </v>
   <v>       0.09140641       0.50306493       0.42312341 </v>
   <v>       0.64060088       0.95387047       0.04231234 </v>
   <v>       0.79086939       0.80360196       0.16924937 </v>
   <v>       0.94113790       0.65333345       0.29618639 </v>
   <v>       0.03266674       0.15934394       0.43189823 </v>
   <v>       0.73212972       0.45988096       0.17802418 </v>
   <v>       0.88239823       0.30961245       0.30496121 </v>
   <v>       0.29861738       0.22672664       0.09339950 </v>
   <v>       0.44888589       0.07645813       0.22033653 </v>
   <v>       0.59915440       0.92618961       0.34727355 </v>
   <v>       0.74942291       0.77592110       0.47421057 </v>
   <v>       0.01537355       0.84330380       0.13571184 </v>
   <v>       0.16564206       0.69303529       0.26264887 </v>
   <v>       0.31591057       0.54276678       0.38958589 </v>
   <v>       0.46617908       0.39249826       0.51652292 </v>
   <v>       0.03660483       0.95519385       0.48928282 </v>
   <v>       0.58579929       0.40599939       0.10847175 </v>
   <v>       0.73606780       0.25573088       0.23540877 </v>
   <v>       0.88633632       0.10546237       0.36234580 </v>
   <v>       0.15228695       0.17284506       0.02384707 </v>
   <v>       0.30255546       0.02257655       0.15078409 </v>
   <v>       0.45282398       0.87230804       0.27772111 </v>
   <v>       0.60309249       0.72203953       0.40465814 </v>
   <v>       0.01931163       0.63915371       0.19309643 </v>
   <v>       0.16958015       0.48888520       0.32003346 </v>
   <v>       0.31984866       0.33861669       0.44697048 </v>
   <v>       0.86904312       0.78942223       0.06615941 </v>
   <v>       0.48608562       0.84214307       0.02424015 </v>
   <v>       0.63635413       0.69187455       0.15117717 </v>
   <v>       0.78662264       0.54160604       0.27811420 </v>
   <v>       0.93689115       0.39133753       0.40505122 </v>
   <v>       0.20284179       0.45872023       0.06655249 </v>
   <v>       0.35311030       0.30845172       0.19348951 </v>
   <v>       0.50337881       0.15818320       0.32042654 </v>
   <v>       0.65364732       0.00791469       0.44736356 </v>
   <v>       0.06986647       0.92502888       0.23580185 </v>
   <v>       0.22013498       0.77476037       0.36273888 </v>
   <v>       0.37040349       0.62449185       0.48967590 </v>
   <v>       0.91959796       0.07529739       0.10886483 </v>
   <v>       0.20021045       0.79158823       0.06694557 </v>
   <v>       0.35047896       0.64131972       0.19388259 </v>
   <v>       0.50074747       0.49105121       0.32081962 </v>
   <v>       0.65101599       0.34078269       0.44775664 </v>
   <v>       0.06723513       0.25789688       0.23619494 </v>
   <v>       0.21750365       0.10762837       0.36313196 </v>
   <v>       0.36777216       0.95735986       0.49006899 </v>
   <v>       0.91696662       0.40816539       0.10925791 </v>
   <v>       0.48345428       0.17501107       0.02463323 </v>
   <v>       0.63372279       0.02474256       0.15157025 </v>
   <v>       0.78399130       0.87447404       0.27850728 </v>
   <v>       0.93425982       0.72420553       0.40544430 </v>
  </varray>
 </structure>
 <varray name="primitive_index" >
  <v type="int" >        1 </v>
  <v type="int" >        2 </v>
  <v type="int" >        3 </v>
  <v type="int" >        4 </v>
  <v type="int" >        5 </v>
  <v type="int" >        6 </v>
  <v type="int" >        7 </v>
  <v type="int" >        8 </v>
  <v type="int" >        9 </v>
  <v type="int" >       10 </v>
  <v type="int" >       11 </v>
  <v type="int" >       12 </v>
  <v type="int" >       13 </v>
  <v type="int" >       14 </v>
  <v type="int" >       15 </v>
  <v type="int" >       16 </v>
  <v type="int" >       17 </v>
  <v type="int" >       18 </v>
  <v type="int" >       19 </v>
  <v type="int" >       20 </v>
  <v type="int" >       21 </v>
  <v type="int" >       22 </v>
  <v type="int" >       23 </v>
  <v type="int" >       24 </v>
  <v type="int" >       25 </v>
  <v type="int" >       26 </v>
  <v type="int" >       27 </v>
  <v type="int" >       28 </v>
  <v type="int" >       29 </v>
  <v type="int" >       30 </v>
  <v type="int" >       31 </v>
  <v type="int" >       32 </v>
  <v type="int" >       33 </v>
  <v type="int" >       34 </v>
  <v type="int" >       35 </v>
  <v type="int" >       36 </v>
  <v type="int" >       37 </v>
  <v type="int" >       38 </v>
  <v type="int" >       39 </v>
  <v type="int" >       40 </v>
  <v type="int" >       41 </v>
  <v type="int" >       42 </v>
  <v type="int" >       43 </v>
  <v type="int" >       44 </v>
  <v type="int" >       45 </v>
  <v type="int" >       46 </v>
  <v type="int" >       47 </v>
  <v type="int" >       48 </v>
  <v type="int" >       49 </v>
  <v type="int" >       50 </v>
  <v type="int" >       51 </v>
  <v type="int" >       52 </v>
  <v type="int" >       53 </v>
  <v type="int" >       54 </v>
  <v type="int" >       55 </v>
  <v type="int" >       56 </v>
  <v type="int" >       57 </v>
  <v type="int" >       58 </v>
  <v type="int" >       59 </v>
  <v type="int" >       60 </v>
  <v type="int" >       61 </v>
  <v type="int" >       62 </v>
  <v type="int" >       63 </v>
  <v type="int" >       64 </v>
  <v type="int" >       65 </v>
  <v type="int" >       66 </v>
  <v type="int" >       67 </v>
  <v type="int" >       68 </v>
  <v type="int" >       69 </v>
  <v type="int" >       70 </v>
  <v type="int" >       71 </v>
  <v type="int" >       72 </v>
 </varray>
 <kpoints>
  <generation param="Gamma">
   <v type="int" name="divisions">       1        1        1 </v>
   <v name="usershift">      0.00000000       0.00000000       0.00000000 </v>
   <v name="genvec1">      1.00000000       0.00000000       0.00000000 </v>
   <v name="genvec2">     -0.00000000       1.00000000       0.00000000 </v>
   <v name="genvec3">      0.00000000       0.00000000       1.00000000 </v>
   <v name="shift">      0.00000000       0.00000000       0.00000000 </v>
  </generation>
  <varray name="kpointlist" >
   <v>       0.00000000       0.00000000       0.00000000 </v>
  </varray>
  <varray name="weights" >
   <v>       1.00000000 </v>
  </varray>
 </kpoints>
 <parameters>
  <separator name="general" >
   <i type="string" name="SYSTEM">"Millerite NiS"</i>
   <i type="logical" name="LCOMPAT"> F  </i>
  </separator>
  <separator name="electronic" >
   <i type="string" name="PREC">normal</i>
   <i name="ENMAX">    450.00000000</i>
   <i name="ENAUG">    703.44300000</i>
   <i name="EDIFF">      0.00010000</i>
   <i type="int" name="IALGO">    38</i>
   <i type="int" name="IWAVPR">    10</i>
   <i type="int" name="NBANDS">   480</i>
   <i type="int" name="NBANDSLOW">    -1</i>
   <i type="int" name="NBANDSHIGH">    -1</i>
   <i name="NELECT">    792.00000000</i>
   <i type="int" name="TURBO">     0</i>
   <i type="int" name="IRESTART">     0</i>
   <i type="int" name="NREBOOT">     0</i>
   <i type="int" name="NMIN">     0</i>
   <i name="EREF">      0.00000000</i>
   <separator name="electronic smearing" >
    <i type="int" name="ISMEAR">     0</i>
    <i name="SIGMA">      0.20000000</i>
    <i name="KSPACING">      0.50000000</i>
    <i type="logical" name="KGAMMA"> T  </i>
    <i type="logical" name="KBLOWUP"> T  </i>
   </separator>
   <separator name="electronic projectors" >
    <i type="logical" name="LREAL"> T  </i>
    <v name="ROPT">     -0.00050000     -0.00050000</v>
    <i type="int" name="LMAXPAW">  -100</i>
    <i type="int" name="LMAXMIX">     2</i>
    <i type="logical" name="NLSPLINE"> F  </i>
   </separator>
   <separator name="electronic startup" >
    <i type="int" name="ISTART">     0</i>
    <i type="int" name="ICHARG">     2</i>
    <i type="int" name="INIWAV">     1</i>
   </separator>
   <separator name="electronic spin" >
    <i type="int" name="ISPIN">     1</i>
    <i type="logical" name="LNONCOLLINEAR"> F  </i>
    <v name="MAGMOM">      1.00000000      1.00000000      1.00000000      1.00000000      1.00000000      1.00000000      1.00000000      1.00000000      1.00000000      1.00000000      1.00000000      1.00000000      1.00000000      1.00000000      1.00000000      1.00000000      1.00000000      1.00000000      1.00000000      1.00000000
      1.00000000      1.00000000      1.00000000      1.00000000      1.00000000      1.00000000      1.00000000      1.00000000      1.00000000      1.00000000      1.00000000      1.00000000      1.00000000      1.00000000      1.00000000      1.00000000      1.00000000      1.00000000      1.00000000      1.00000000
      1.00000000      1.00000000      1.00000000      1.00000000      1.00000000      1.00000000      1.00000000      1.00000000      1.00000000      1.00000000      1.00000000      1.00000000      1.00000000      1.00000000      1.00000000      1.00000000      1.00000000      1.00000000      1.00000000      1.00000000
      1.00000000      1.00000000      1.00000000      1.00000000      1.00000000      1.00000000      1.00000000      1.00000000      1.00000000      1.00000000      1.00000000      1.00000000</v>
    <i name="NUPDOWN">     -1.00000000</i>
    <i type="logical" name="LSORBIT"> F  </i>
    <v name="SAXIS">      0.00000000      0.00000000      1.00000000</v>
    <i type="logical" name="LSPIRAL"> F  </i>
    <v name="QSPIRAL">      0.00000000      0.00000000      0.00000000</v>
    <i type="logical" name="LZEROZ"> F  </i>
   </separator>
   <separator name="electronic exchange-correlation" >
    <i type="logical" name="LASPH"> F  </i>
    <i type="logical" name="LMETAGGA"> F  </i>
   </separator>
   <separator name="electronic convergence" >
    <i type="int" name="NELM">   100</i>
    <i type="int" name="NELMDL">    -5</i>
    <i type="int" name="NELMIN">     2</i>
    <i name="ENINI">    450.00000000</i>
    <separator name="electronic convergence detail" >
     <i type="logical" name="LDIAG"> T  </i>
     <i type="logical" name="LSUBROT"> F  </i>
     <i name="WEIMIN">      0.00000000</i>
     <i name="EBREAK">      0.00000005</i>
     <i name="DEPER">      0.30000000</i>
     <i type="int" name="NRMM">     4</i>
     <i name="TIME">      0.40000000</i>
    </separator>
   </separator>
   <separator name="electronic mixer" >
    <i name="AMIX">      0.40000000</i>
    <i name="BMIX">      1.00000000</i>
    <i name="AMIN">      0.10000000</i>
    <i name="AMIX_MAG">      1.60000000</i>
    <i name="BMIX_MAG">      1.00000000</i>
    <separator name="electronic mixer details" >
     <i type="int" name="IMIX">     4</i>
     <i type="logical" name="MIXFIRST"> F  </i>
     <i type="int" name="MAXMIX">   -45</i>
     <i name="WC">    100.00000000</i>
     <i type="int" name="INIMIX">     1</i>
     <i type="int" name="MIXPRE">     1</i>
     <i type="int" name="MREMOVE">     5</i>
    </separator>
   </separator>
   <separator name="electronic dipolcorrection" >
    <i type="logical" name="LDIPOL"> F  </i>
    <i type="logical" name="LMONO"> F  </i>
    <i type="int" name="IDIPOL">     0</i>
    <i name="EPSILON">      1.00000000</i>
    <v name="DIPOL">   -100.00000000   -100.00000000   -100.00000000</v>
    <i name="EFIELD">      0.00000000</i>
   </separator>
  </separator>
  <separator name="grids" >
   <i type="int" name="NGX">    54</i>
   <i type="int" name="NGY">    54</i>
   <i type="int" name="NGZ">   108</i>
   <i type="int" name="NGXF">   108</i>
   <i type="int" name="NGYF">   108</i>
   <i type="int" name="NGZF">   216</i>
   <i type="logical" name="ADDGRID"> F  </i>
  </separator>
  <separator name="ionic" >
   <i type="int" name="NSW">     0</i>
   <i type="int" name="IBRION">    -1</i>
   <i type="int" name="MDALGO">     0</i>
   <i type="int" name="ISIF">     2</i>
   <i name="PSTRESS">      0.00000000</i>
   <i name="EDIFFG">      0.00100000</i>
   <i type="int" name="NFREE">     0</i>
   <i name="POTIM">      0.50000000</i>
   <i name="SMASS">     -3.00000000</i>
   <i name="SCALEE">      1.00000000</i>
  </separator>
  <separator name="ionic md" >
   <i name="TEBEG">      0.00010000</i>
   <i name="TEEND">      0.00010000</i>
   <i type="int" name="NBLOCK">     1</i>
   <i type="int" name="KBLOCK">     1</i>
   <i type="int" name="NPACO">   256</i>
   <i name="APACO">     16.00000000</i>
  </separator>
  <separator name="symmetry" >
   <i type="int" name="ISYM">     2</i>
   <i name="SYMPREC">      0.00001000</i>
  </separator>
  <separator name="dos" >
   <i type="int" name="LORBIT">     0</i>
   <v name="RWIGS">     -1.00000000     -1.00000000</v>
   <i type="int" name="NEDOS">   301</i>
   <i name="EMIN">     10.00000000</i>
   <i name="EMAX">    -10.00000000</i>
   <i name="EFERMI">      0.00000000</i>
  </separator>
  <separator name="writing" >
   <i type="int" name="NWRITE">     2</i>
   <i type="logical" name="LWAVE"> F  </i>
   <i type="logical" name="LDOWNSAMPLE"> F  </i>
   <i type="logical" name="LCHARG"> F  </i>
   <i type="logical" name="LPARD"> F  </i>
   <i type="logical" name="LVTOT"> F  </i>
   <i type="logical" name="LVHAR"> F  </i>
   <i type="logical" name="LELF"> F  </i>
   <i type="logical" name="LOPTICS"> F  </i>
   <v name="STM">      0.00000000      0.00000000      0.00000000      0.00000000      0.00000000      0.00000000      0.00000000</v>
  </separator>
  <separator name="performance" >
   <i type="int" name="NPAR">     8</i>
   <i type="int" name="NSIM">     4</i>
   <i type="int" name="NBLK">    -1</i>
   <i type="logical" name="LPLANE"> T  </i>
   <i type="logical" name="LSCALAPACK"> T  </i>
   <i type="logical" name="LSCAAWARE"> F  </i>
   <i type="logical" name="LSCALU"> F  </i>
   <i type="logical" name="LASYNC"> F  </i>
   <i type="logical" name="LORBITALREAL"> F  </i>
  </separator>
  <separator name="miscellaneous" >
   <i type="int" name="IDIOT">     3</i>
   <i type="int" name="PHON_NSTRUCT">    -1</i>
   <i type="logical" name="LMUSIC"> F  </i>
   <v name="POMASS">     58.69000000     32.06600000</v>
   <v name="DARWINR">      0.00000000      0.00000000</v>
   <v name="DARWINV">      1.00000000      1.00000000</v>
   <i type="logical" name="LCORR"> T  </i>
  </separator>
  <i type="logical" name="GGA_COMPAT"> T  </i>
  <i type="logical" name="LBERRY"> F  </i>
  <i type="int" name="ICORELEVEL">     0</i>
  <i type="logical" name="LDAU"> F  </i>
  <i type="int" name="I_CONSTRAINED_M">     0</i>
  <separator name="electronic exchange-correlation" >
   <i type="string" name="GGA">--</i>
   <i type="int" name="VOSKOWN">     0</i>
   <i type="logical" name="LHFCALC"> F  </i>
   <i type="string" name="PRECFOCK"></i>
   <i type="logical" name="LSYMGRAD"> F  </i>
   <i type="logical" name="LHFONE"> F  </i>
   <i type="logical" name="LRHFCALC"> F  </i>
   <i type="logical" name="LTHOMAS"> F  </i>
   <i type="logical" name="LMODELHF"> F  </i>
   <i type="logical" name="LFOCKACE"> F  </i>
   <i name="ENCUT4O">     -1.00000000</i>
   <i type="int" name="EXXOEP">     0</i>
   <i type="int" name="FOURORBIT">     0</i>
   <i name="AEXX">      0.00000000</i>
   <i name="HFALPHA">      0.00000000</i>
   <i name="MCALPHA">      0.00000000</i>
   <i name="ALDAX">      1.00000000</i>
   <i name="AGGAX">      1.00000000</i>
   <i name="ALDAC">      1.00000000</i>
   <i name="AGGAC">      1.00000000</i>
   <i type="int" name="NKREDX">     1</i>
   <i type="int" name="NKREDY">     1</i>
   <i type="int" name="NKREDZ">     1</i>
   <i type="logical" name="SHIFTRED"> F  </i>
   <i type="logical" name="ODDONLY"> F  </i>
   <i type="logical" name="EVENONLY"> F  </i>
   <i type="int" name="LMAXFOCK">     0</i>
   <i type="int" name="NMAXFOCKAE">     0</i>
   <i type="logical" name="LFOCKAEDFT"> F  </i>
   <i name="HFSCREEN">      0.00000000</i>
   <i name="HFSCREENC">      0.00000000</i>
   <i type="int" name="NBANDSGWLOW">     0</i>
  </separator>
  <separator name="vdW DFT" >
   <i type="logical" name="LUSE_VDW"> F  </i>
   <i name="Zab_VDW">     -0.84910000</i>
   <i name="PARAM1">      0.12340000</i>
   <i name="PARAM2">      1.00000000</i>
   <i name="PARAM3">      0.00000000</i>
  </separator>
  <separator name="model GW" >
   <i type="int" name="MODEL_GW">     0</i>
   <i name="MODEL_EPS0">     16.37487417</i>
   <i name="MODEL_ALPHA">      1.00000000</i>
  </separator>
  <separator name="linear response parameters" >
   <i type="logical" name="LEPSILON"> F  </i>
   <i type="logical" name="LRPA"> F  </i>
   <i type="logical" name="LNABLA"> F  </i>
   <i type="logical" name="LVEL"> F  </i>
   <i type="int" name="KINTER">     0</i>
   <i name="CSHIFT">      0.10000000</i>
   <i name="OMEGAMAX">     -1.00000000</i>
   <i name="DEG_THRESHOLD">      0.00200000</i>
   <i name="RTIME">     -0.10000000</i>
   <i name="WPLASMAI">      0.00000000</i>
   <v name="DFIELD">      0.00000000      0.00000000      0.00000000</v>
   <v name="WPLASMA">      0.00000000      0.00000000      0.00000000      0.00000000      0.00000000      0.00000000      0.00000000      0.00000000      0.00000000</v>
  </separator>
  <separator name="orbital magnetization" >
   <i type="logical" name="NUCIND"> F  </i>
   <v name="MAGPOS">      0.00000000      0.00000000      0.00000000</v>
   <i type="logical" name="LNICSALL"> T  </i>
   <i type="logical" name="ORBITALMAG"> F  </i>
   <i type="logical" name="LMAGBLOCH"> F  </i>
   <i type="logical" name="LCHIMAG"> F  </i>
   <i type="logical" name="LGAUGE"> T  </i>
   <i type="int" name="MAGATOM">     0</i>
   <v name="MAGDIPOL">      0.00000000      0.00000000      0.00000000</v>
   <v name="AVECCONST">      0.00000000      0.00000000      0.00000000</v>
  </separator>
  <separator name="response functions" >
   <i type="logical" name="LFINITE_TEMPERATURE"> F  </i>
   <i type="logical" name="LADDER"> F  </i>
   <i type="logical" name="LRPAFORCE"> F  </i>
   <i type="logical" name="LFXC"> F  </i>
   <i type="logical" name="LHARTREE"> T  </i>
   <i type="int" name="IBSE">     0</i>
   <v type="int" name="KPOINT">    -1     0     0     0</v>
   <i type="logical" name="LTCTC"> F  </i>
   <i type="logical" name="LTCTE"> F  </i>
   <i type="logical" name="LTETE"> F  </i>
   <i type="logical" name="LTRIPLET"> F  </i>
   <i type="logical" name="LFXCEPS"> F  </i>
   <i type="logical" name="LFXHEG"> F  </i>
   <i type="int" name="NATURALO">     2</i>
   <i type="logical" name="LHOLEGF"> F  </i>
   <i type="logical" name="L2ORDER"> F  </i>
   <i type="logical" name="LDMP1"> F  </i>
   <i type="logical" name="LMP2LT"> F  </i>
   <i type="logical" name="LSMP2LT"> F  </i>
   <i type="logical" name="LGWLF"> F  </i>
   <i name="ENCUTGW">     -2.00000000</i>
   <i name="ENCUTGWSOFT">     -2.00000000</i>
   <i name="ENCUTLF">     -1.00000000</i>
   <i type="logical" name="LESF_SPLINES"> F  </i>
   <i type="int" name="LMAXMP2">    -1</i>
   <i name="SCISSOR">      0.00000000</i>
   <i type="int" name="NOMEGA">     0</i>
   <i type="int" name="NOMEGAR">     0</i>
   <i type="int" name="NBANDSGW">    -1</i>
   <i type="int" name="NBANDSO">    -1</i>
   <i type="int" name="NBANDSV">    -1</i>
   <i type="int" name="NELM">   100</i>
   <i type="int" name="NELMHF">     1</i>
   <i type="int" name="DIM">     3</i>
   <i type="int" name="IESPILON">     4</i>
   <i type="int" name="ANTIRES">     0</i>
   <i name="OMEGAMAX">    -30.00000000</i>
   <i name="OMEGAMIN">    -30.00000000</i>
   <i name="OMEGATL">   -200.00000000</i>
   <i type="int" name="OMEGAGRID">     0</i>
   <i name="CSHIFT">     -0.10000000</i>
   <i type="logical" name="LSELFENERGY"> F  </i>
   <i type="logical" name="LSPECTRAL"> F  </i>
   <i type="logical" name="LSPECTRALGW"> F  </i>
   <i type="logical" name="LSINGLES"> F  </i>
   <i type="logical" name="LFERMIGW"> F  </i>
   <i type="logical" name="ODDONLYGW"> F  </i>
   <i type="logical" name="EVENONLYGW"> F  </i>
   <i type="int" name="NKREDLFX">     1</i>
   <i type="int" name="NKREDLFY">     1</i>
   <i type="int" name="NKREDLFZ">     1</i>
   <i type="int" name="MAXMEM">  2800</i>
   <i type="int" name="TELESCOPE">     0</i>
   <i type="int" name="NTAUPAR">    -1</i>
   <i type="int" name="NOMEGAPAR">    -1</i>
   <i name="LAMBDA">      1.00000000</i>
  </separator>
  <separator name="External order field" >
   <i name="OFIELD_KAPPA">      0.00000000</i>
   <v name="OFIELD_K">      0.00000000      0.00000000      0.00000000</v>
   <i name="OFIELD_Q6_NEAR">      0.00000000</i>
   <i name="OFIELD_Q6_FAR">      0.00000000</i>
   <i name="OFIELD_A">      0.00000000</i>
  </separator>
 </parameters>
 <atominfo>
  <atoms>      72 </atoms>
  <types>       2 </types>
  <array name="atoms" >
   <dimension dim="1">ion</dimension>
   <field type="string">element</field>
   <field type="int">atomtype</field>
   <set>
    <rc><c>Ni</c><c>   1</c></rc>
    <rc><c>Ni</c><c>   1</c></rc>
    <rc><c>Ni</c><c>   1</c></rc>
    <rc><c>Ni</c><c>   1</c></rc>
    <rc><c>Ni</c><c>   1</c></rc>
    <rc><c>Ni</c><c>   1</c></rc>
    <rc><c>Ni</c><c>   1</c></rc>
    <rc><c>Ni</c><c>   1</c></rc>
    <rc><c>Ni</c><c>   1</c></rc>
    <rc><c>Ni</c><c>   1</c></rc>
    <rc><c>Ni</c><c>   1</c></rc>
    <rc><c>Ni</c><c>   1</c></rc>
    <rc><c>Ni</c><c>   1</c></rc>
    <rc><c>Ni</c><c>   1</c></rc>
    <rc><c>Ni</c><c>   1</c></rc>
    <rc><c>Ni</c><c>   1</c></rc>
    <rc><c>Ni</c><c>   1</c></rc>
    <rc><c>Ni</c><c>   1</c></rc>
    <rc><c>Ni</c><c>   1</c></rc>
    <rc><c>Ni</c><c>   1</c></rc>
    <rc><c>Ni</c><c>   1</c></rc>
    <rc><c>Ni</c><c>   1</c></rc>
    <rc><c>Ni</c><c>   1</c></rc>
    <rc><c>Ni</c><c>   1</c></rc>
    <rc><c>Ni</c><c>   1</c></rc>
    <rc><c>Ni</c><c>   1</c></rc>
    <rc><c>Ni</c><c>   1</c></rc>
    <rc><c>Ni</c><c>   1</c></rc>
    <rc><c>Ni</c><c>   1</c></rc>
    <rc><c>Ni</c><c>   1</c></rc>
    <rc><c>Ni</c><c>   1</c></rc>
    <rc><c>Ni</c><c>   1</c></rc>
    <rc><c>Ni</c><c>   1</c></rc>
    <rc><c>Ni</c><c>   1</c></rc>
    <rc><c>Ni</c><c>   1</c></rc>
    <rc><c>Ni</c><c>   1</c></rc>
    <rc><c>S </c><c>   2</c></rc>
    <rc><c>S </c><c>   2</c></rc>
    <rc><c>S </c><c>   2</c></rc>
    <rc><c>S </c><c>   2</c></rc>
    <rc><c>S </c><c>   2</c></rc>
    <rc><c>S </c><c>   2</c></rc>
    <rc><c>S </c><c>   2</c></rc>
    <rc><c>S </c><c>   2</c></rc>
    <rc><c>S </c><c>   2</c></rc>
    <rc><c>S </c><c>   2</c></rc>
    <rc><c>S </c><c>   2</c></rc>
    <rc><c>S </c><c>   2</c></rc>
    <rc><c>S </c><c>   2</c></rc>
    <rc><c>S </c><c>   2</c></rc>
    <rc><c>S </c><c>   2</c></rc>
    <rc><c>S </c><c>   2</c></rc>
    <rc><c>S </c><c>   2</c></rc>
    <rc><c>S </c><c>   2</c></rc>
    <rc><c>S </c><c>   2</c></rc>
    <rc><c>S </c><c>   2</c></rc>
    <rc><c>S </c><c>   2</c></rc>
    <rc><c>S </c><c>   2</c></rc>
    <rc><c>S </c><c>   2</c></rc>
    <rc><c>S </c><c>   2</c></rc>
    <rc><c>S </c><c>   2</c></rc>
    <rc><c>S </c><c>   2</c></rc>
    <rc><c>S </c><c>   2</c></rc>
    <rc><c>S </c><c>   2</c></rc>
    <rc><c>S </c><c>   2</c></rc>
    <rc><c>S </c><c>   2</c></rc>
    <rc><c>S </c><c>   2</c></rc>
    <rc><c>S </c><c>   2</c></rc>
    <rc><c>S </c><c>   2</c></rc>
    <rc><c>S </c><c>   2</c></rc>
    <rc><c>S </c><c>   2</c></rc>
    <rc><c>S </c><c>   2</c></rc>
   </set>
  </array>
  <array name="atomtypes" >
   <dimension dim="1">type</dimension>
   <field type="int">atomspertype</field>
   <field type="string">element</field>
   <field>mass</field>
   <field>valence</field>
   <field type="string">pseudopotential</field>
   <set>
    <rc><c>  36</c><c>Ni</c><c>     58.69000000</c><c>     16.00000000</c><c>  PAW_PBE Ni_pv 06Sep2000               </c></rc>
    <rc><c>  36</c><c>S </c><c>     32.06600000</c><c>      6.00000000</c><c>  PAW_PBE S 06Sep2000                   </c></rc>
   </set>
  </array>
 </atominfo>
 <structure name="initialpos" >
  <crystal>
   <varray name="basis" >
    <v>       9.42510255       3.57329804       0.00000000 </v>
    <v>       0.00000000      10.07973298       0.00000000 </v>
    <v>       0.00000000       0.00000000      20.68350356 </v>
   </varray>
   <i name="volume">   1964.98490008 </i>
   <varray name="rec_basis" >
    <v>       0.10609964       0.00000000       0.00000000 </v>
    <v>      -0.03761267       0.09920898       0.00000000 </v>
    <v>       0.00000000       0.00000000       0.04834771 </v>
   </varray>
  </crystal>
  <varray name="positions" >
   <v>       0.39705889       0.79495179       0.11816221 </v>
   <v>       0.54732740       0.64468328       0.24509923 </v>
   <v>       0.69759592       0.49441477       0.37203625 </v>
   <v>       0.84786443       0.34414625       0.49897328 </v>
   <v>       0.11381506       0.41152895       0.16047455 </v>
   <v>       0.26408357       0.26126044       0.28741157 </v>
   <v>       0.41435209       0.11099193       0.41434860 </v>
   <v>       0.96354655       0.56179747       0.03353752 </v>
   <v>       0.13110826       0.72756909       0.45666094 </v>
   <v>       0.68030272       0.17837463       0.07584987 </v>
   <v>       0.83057123       0.02810612       0.20278689 </v>
   <v>       0.98083974       0.87783760       0.32972391 </v>
   <v>       0.35735705       0.57044763       0.08462468 </v>
   <v>       0.50762556       0.42017912       0.21156171 </v>
   <v>       0.65789407       0.26991061       0.33849873 </v>
   <v>       0.80816258       0.11964210       0.46543576 </v>
   <v>       0.07411322       0.18702480       0.12693702 </v>
   <v>       0.22438173       0.03675628       0.25387405 </v>
   <v>       0.37465024       0.88648777       0.38081107 </v>
   <v>       0.52491876       0.73621926       0.50774810 </v>
   <v>       0.92384471       0.33729331       0.00000000 </v>
   <v>       0.09140641       0.50306493       0.42312341 </v>
   <v>       0.64060088       0.95387047       0.04231234 </v>
   <v>       0.79086939       0.80360196       0.16924937 </v>
   <v>       0.94113790       0.65333345       0.29618639 </v>
   <v>       0.03266674       0.15934394       0.43189823 </v>
   <v>       0.73212972       0.45988096       0.17802418 </v>
   <v>       0.88239823       0.30961245       0.30496121 </v>
   <v>       0.29861738       0.22672664       0.09339950 </v>
   <v>       0.44888589       0.07645813       0.22033653 </v>
   <v>       0.59915440       0.92618961       0.34727355 </v>
   <v>       0.74942291       0.77592110       0.47421057 </v>
   <v>       0.01537355       0.84330380       0.13571184 </v>
   <v>       0.16564206       0.69303529       0.26264887 </v>
   <v>       0.31591057       0.54276678       0.38958589 </v>
   <v>       0.46617908       0.39249826       0.51652292 </v>
   <v>       0.03660483       0.95519385       0.48928282 </v>
   <v>       0.58579929       0.40599939       0.10847175 </v>
   <v>       0.73606780       0.25573088       0.23540877 </v>
   <v>       0.88633632       0.10546237       0.36234580 </v>
   <v>       0.15228695       0.17284506       0.02384707 </v>
   <v>       0.30255546       0.02257655       0.15078409 </v>
   <v>       0.45282398       0.87230804       0.27772111 </v>
   <v>       0.60309249       0.72203953       0.40465814 </v>
   <v>       0.01931163       0.63915371       0.19309643 </v>
   <v>       0.16958015       0.48888520       0.32003346 </v>
   <v>       0.31984866       0.33861669       0.44697048 </v>
   <v>       0.86904312       0.78942223       0.06615941 </v>
   <v>       0.48608562       0.84214307       0.02424015 </v>
   <v>       0.63635413       0.69187455       0.15117717 </v>
   <v>       0.78662264       0.54160604       0.27811420 </v>
   <v>       0.93689115       0.39133753       0.40505122 </v>
   <v>       0.20284179       0.45872023       0.06655249 </v>
   <v>       0.35311030       0.30845172       0.19348951 </v>
   <v>       0.50337881       0.15818320       0.32042654 </v>
   <v>       0.65364732       0.00791469       0.44736356 </v>
   <v>       0.06986647       0.92502888       0.23580185 </v>
   <v>       0.22013498       0.77476037       0.36273888 </v>
   <v>       0.37040349       0.62449185       0.48967590 </v>
   <v>       0.91959796       0.07529739       0.10886483 </v>
   <v>       0.20021045       0.79158823       0.06694557 </v>
   <v>       0.35047896       0.64131972       0.19388259 </v>
   <v>       0.50074747       0.49105121       0.32081962 </v>
   <v>       0.65101599       0.34078269       0.44775664 </v>
   <v>       0.06723513       0.25789688       0.23619494 </v>
   <v>       0.21750365       0.10762837       0.36313196 </v>
   <v>       0.36777216       0.95735986       0.49006899 </v>
   <v>       0.91696662       0.40816539       0.10925791 </v>
   <v>       0.48345428       0.17501107       0.02463323 </v>
   <v>       0.63372279       0.02474256       0.15157025 </v>
   <v>       0.78399130       0.87447404       0.27850728 </v>
   <v>       0.93425982       0.72420553       0.40544430 </v>
  </varray>
 </structure>
 <calculation>
  <scstep>
   <time name="dav">    2.02    2.02</time>
   <time name="total">    2.08    2.10</time>
   <energy>
    <i name="alphaZ">   1893.09323658 </i>
    <i name="ewald"> 168280.39839269 </i>
    <i name="hartreedc">-290851.90724069 </i>
    <i name="XCdc">   3652.63022329 </i>
    <i name="pawpsdc"> 112729.53333415 </i>
    <i name="pawaedc">-117641.51188735 </i>
    <i name="eentropy">     -0.39623080 </i>
    <i name="bandstr">  -4339.84505607 </i>
    <i name="atom"> 136002.60505376 </i>
    <i name="e_fr_energy">   9724.59982557 </i>
    <i name="e_wo_entrp">   9724.99605636 </i>
    <i name="e_0_energy">   9724.79794096 </i>
   </energy>
  </scstep>
  <scstep>
   <time name="dav">    1.79    1.80</time>
   <time name="total">    1.79    1.80</time>
   <energy>
    <i name="e_fr_energy">    593.99525121 </i>
    <i name="e_wo_entrp">    594.71716073 </i>
    <i name="e_0_energy">    594.35620597 </i>
   </energy>
  </scstep>
  <scstep>
   <time name="dav">    1.90    1.91</time>
   <time name="total">    1.91    1.91</time>
   <energy>
    <i name="e_fr_energy">   -344.88586634 </i>
    <i name="e_wo_entrp">   -343.61405439 </i>
    <i name="e_0_energy">   -344.24996036 </i>
   </energy>
  </scstep>
  <scstep>
   <time name="dav">    1.93    1.93</time>
   <time name="total">    1.93    1.93</time>
   <energy>
    <i name="e_fr_energy">   -404.37703954 </i>
    <i name="e_wo_entrp">   -403.04959094 </i>
    <i name="e_0_energy">   -403.71331524 </i>
   </energy>
  </scstep>
  <scstep>
   <time name="dav">    2.09    2.10</time>
   <time name="total">    2.14    2.14</time>
   <energy>
    <i name="e_fr_energy">   -406.81065888 </i>
    <i name="e_wo_entrp">   -405.48109687 </i>
    <i name="e_0_energy">   -406.14587788 </i>
   </energy>
  </scstep>
  <scstep>
   <time name="dav">    1.96    1.97</time>
   <time name="total">    2.05    2.06</time>
   <energy>
    <i name="e_fr_energy">   -486.83642165 </i>
    <i name="e_wo_entrp">   -486.03708968 </i>
    <i name="e_0_energy">   -486.43675567 </i>
   </energy>
  </scstep>
  <scstep>
   <time name="dav">    1.94    1.94</time>
   <time name="total">    2.02    2.03</time>
   <energy>
    <i name="e_fr_energy">   -374.16353621 </i>
    <i name="e_wo_entrp">   -373.19494703 </i>
    <i name="e_0_energy">   -373.67924162 </i>
   </energy>
  </scstep>
  <scstep>
   <time name="dav">    2.11    2.11</time>
   <time name="total">    2.20    2.20</time>
   <energy>
    <i name="e_fr_energy">   -509.08883784 </i>
    <i name="e_wo_entrp">   -508.36074027 </i>
    <i name="e_0_energy">   -508.72478905 </i>
   </energy>
  </scstep>
  <scstep>
   <time name="dav">    2.04    2.04</time>
   <time name="total">    2.13    2.14</time>
   <energy>
    <i name="e_fr_energy">   -375.45269269 </i>
    <i name="e_wo_entrp">   -374.38579934 </i>
    <i name="e_0_energy">   -374.91924602 </i>
   </energy>
  </scstep>
  <scstep>
   <time name="dav">    2.34    2.35</time>
   <time name="total">    2.43    2.44</time>
   <energy>
    <i name="e_fr_energy">   -374.67362797 </i>
    <i name="e_wo_entrp">   -373.25895003 </i>
    <i name="e_0_energy">   -373.96628900 </i>
   </energy>
  </scstep>
  <scstep>
   <time name="dav">    2.23    2.23</time>
   <time name="total">    2.32    2.32</time>
   <energy>
    <i name="e_fr_energy">   -377.74736445 </i>
    <i name="e_wo_entrp">   -376.65932988 </i>
    <i name="e_0_energy">   -377.20334717 </i>
   </energy>
  </scstep>
  <scstep>
   <time name="dav">    2.23    2.24</time>
   <time name="total">    2.32    2.33</time>
   <energy>
    <i name="e_fr_energy">   -367.86065792 </i>
    <i name="e_wo_entrp">   -366.65566401 </i>
    <i name="e_0_energy">   -367.25816096 </i>
   </energy>
  </scstep>
  <scstep>
   <time name="dav">    2.16    2.17</time>
   <time name="total">    2.25    2.26</time>
   <energy>
    <i name="e_fr_energy">   -365.28401000 </i>
    <i name="e_wo_entrp">   -364.37929065 </i>
    <i name="e_0_energy">   -364.83165033 </i>
   </energy>
  </scstep>
  <scstep>
   <time name="dav">    2.18    2.18</time>
   <time name="total">    2.27    2.27</time>
   <energy>
    <i name="e_fr_energy">   -361.13151442 </i>
    <i name="e_wo_entrp">   -360.09226358 </i>
    <i name="e_0_energy">   -360.61188900 </i>
   </energy>
  </scstep>
  <scstep>
   <time name="dav">    2.20    2.20</time>
   <time name="total">    2.28    2.29</time>
   <energy>
    <i name="e_fr_energy">   -360.20433954 </i>
    <i name="e_wo_entrp">   -359.20921892 </i>
    <i name="e_0_energy">   -359.70677923 </i>
   </energy>
  </scstep>
  <scstep>
   <time name="dav">    2.03    2.03</time>
   <time name="total">    2.12    2.13</time>
   <energy>
    <i name="e_fr_energy">   -358.51831303 </i>
    <i name="e_wo_entrp">   -357.51100947 </i>
    <i name="e_0_energy">   -358.01466125 </i>
   </energy>
  </scstep>
  <scstep>
   <time name="dav">    2.22    2.23</time>
   <time name="total">    2.31    2.32</time>
   <energy>
    <i name="e_fr_energy">   -357.95587006 </i>
    <i name="e_wo_entrp">   -356.90231128 </i>
    <i name="e_0_energy">   -357.42909067 </i>
   </energy>
  </scstep>
  <scstep>
   <time name="dav">    2.20    2.21</time>
   <time name="total">    2.29    2.30</time>
   <energy>
    <i name="e_fr_energy">   -357.70058006 </i>
    <i name="e_wo_entrp">   -356.66020291 </i>
    <i name="e_0_energy">   -357.18039149 </i>
   </energy>
  </scstep>
  <scstep>
   <time name="dav">    2.21    2.22</time>
   <time name="total">    2.30    2.31</time>
   <energy>
    <i name="e_fr_energy">   -357.54103627 </i>
    <i name="e_wo_entrp">   -356.44849331 </i>
    <i name="e_0_energy">   -356.99476479 </i>
   </energy>
  </scstep>
  <scstep>
   <time name="dav">    2.18    2.19</time>
   <time name="total">    2.28    2.28</time>
   <energy>
    <i name="e_fr_energy">   -357.35836556 </i>
    <i name="e_wo_entrp">   -356.28138848 </i>
    <i name="e_0_energy">   -356.81987702 </i>
   </energy>
  </scstep>
  <scstep>
   <time name="dav">    2.15    2.16</time>
   <time name="total">    2.24    2.25</time>
   <energy>
    <i name="e_fr_energy">   -357.22681815 </i>
    <i name="e_wo_entrp">   -356.10623132 </i>
    <i name="e_0_energy">   -356.66652473 </i>
   </energy>
  </scstep>
  <scstep>
   <time name="dav">    2.18    2.19</time>
   <time name="total">    2.27    2.28</time>
   <energy>
    <i name="e_fr_energy">   -357.23946798 </i>
    <i name="e_wo_entrp">   -356.11367021 </i>
    <i name="e_0_energy">   -356.67656909 </i>
   </energy>
  </scstep>
  <scstep>
   <time name="dav">    2.20    2.20</time>
   <time name="total">    2.29    2.30</time>
   <energy>
    <i name="e_fr_energy">   -357.17083211 </i>
    <i name="e_wo_entrp">   -356.04559947 </i>
    <i name="e_0_energy">   -356.60821579 </i>
   </energy>
  </scstep>
  <scstep>
   <time name="dav">    2.19    2.20</time>
   <time name="total">    2.28    2.29</time>
   <energy>
    <i name="e_fr_energy">   -357.18048323 </i>
    <i name="e_wo_entrp">   -356.04477792 </i>
    <i name="e_0_energy">   -356.61263058 </i>
   </energy>
  </scstep>
  <scstep>
   <time name="dav">    2.05    2.06</time>
   <time name="total">    2.14    2.15</time>
   <energy>
    <i name="e_fr_energy">   -357.15805791 </i>
    <i name="e_wo_entrp">   -356.02516832 </i>
    <i name="e_0_energy">   -356.59161311 </i>
   </energy>
  </scstep>
  <scstep>
   <time name="dav">    2.17    2.18</time>
   <time name="total">    2.27    2.27</time>
   <energy>
    <i name="e_fr_energy">   -357.14264548 </i>
    <i name="e_wo_entrp">   -356.01543095 </i>
    <i name="e_0_energy">   -356.57903822 </i>
   </energy>
  </scstep>
  <scstep>
   <time name="dav">    2.38    2.39</time>
   <time name="total">    2.47    2.48</time>
   <energy>
    <i name="e_fr_energy">   -357.12669261 </i>
    <i name="e_wo_entrp">   -356.01992553 </i>
    <i name="e_0_energy">   -356.57330907 </i>
   </energy>
  </scstep>
  <scstep>
   <time name="dav">    2.13    2.13</time>
   <time name="total">    2.22    2.23</time>
   <energy>
    <i name="e_fr_energy">   -357.12718637 </i>
    <i name="e_wo_entrp">   -356.01883575 </i>
    <i name="e_0_energy">   -356.57301106 </i>
   </energy>
  </scstep>
  <scstep>
   <time name="dav">    2.04    2.05</time>
   <time name="total">    2.14    2.14</time>
   <energy>
    <i name="e_fr_energy">   -357.12098570 </i>
    <i name="e_wo_entrp">   -356.00924281 </i>
    <i name="e_0_energy">   -356.56511425 </i>
   </energy>
  </scstep>
  <scstep>
   <time name="dav">    2.19    2.20</time>
   <time name="total">    2.29    2.30</time>
   <energy>
    <i name="e_fr_energy">   -357.11999928 </i>
    <i name="e_wo_entrp">   -356.01264302 </i>
    <i name="e_0_energy">   -356.56632115 </i>
   </energy>
  </scstep>
  <scstep>
   <time name="dav">    2.08    2.08</time>
   <time name="total">    2.17    2.17</time>
   <energy>
    <i name="e_fr_energy">   -357.11856617 </i>
    <i name="e_wo_entrp">   -356.01093592 </i>
    <i name="e_0_energy">   -356.56475105 </i>
   </energy>
  </scstep>
  <scstep>
   <time name="dav">    1.93    1.94</time>
   <time name="total">    2.02    2.03</time>
   <energy>
    <i name="e_fr_energy">   -357.11861080 </i>
    <i name="e_wo_entrp">   -356.01228900 </i>
    <i name="e_0_energy">   -356.56544990 </i>
   </energy>
  </scstep>
  <scstep>
   <time name="dav">    1.70    1.70</time>
   <time name="total">    1.75    1.75</time>
   <energy>
    <i name="alphaZ">   1893.09323658 </i>
    <i name="ewald"> 168280.39839269 </i>
    <i name="hartreedc">-290127.58264511 </i>
    <i name="XCdc">   3623.20710976 </i>
    <i name="pawpsdc"> 130700.00095134 </i>
    <i name="pawaedc">-135670.25325109 </i>
    <i name="eentropy">     -1.10542432 </i>
    <i name="bandstr"> -15057.48206633 </i>
    <i name="atom"> 136002.60505376 </i>
    <i name="e_fr_energy">   -357.11864272 </i>
    <i name="e_wo_entrp">   -356.01321840 </i>
    <i name="e_0_energy">   -356.56593056 </i>
   </energy>
  </scstep>
  <structure>
   <crystal>
    <varray name="basis" >
     <v>       9.42510255       3.57329804       0.00000000 </v>
     <v>       0.00000000      10.07973298       0.00000000 </v>
     <v>       0.00000000       0.00000000      20.68350356 </v>
    </varray>
    <i name="volume">   1964.98490008 </i>
    <varray name="rec_basis" >
     <v>       0.10609964       0.00000000       0.00000000 </v>
     <v>      -0.03761267       0.09920898       0.00000000 </v>
     <v>       0.00000000       0.00000000       0.04834771 </v>
    </varray>
   </crystal>
   <varray name="positions" >
    <v>       0.39705889       0.79495179       0.11816221 </v>
    <v>       0.54732740       0.64468328       0.24509923 </v>
    <v>       0.69759592       0.49441477       0.37203625 </v>
    <v>       0.84786443       0.34414625       0.49897328 </v>
    <v>       0.11381506       0.41152895       0.16047455 </v>
    <v>       0.26408357       0.26126044       0.28741157 </v>
    <v>       0.41435209       0.11099193       0.41434860 </v>
    <v>       0.96354655       0.56179747       0.03353752 </v>
    <v>       0.13110826       0.72756909       0.45666094 </v>
    <v>       0.68030272       0.17837463       0.07584987 </v>
    <v>       0.83057123       0.02810612       0.20278689 </v>
    <v>       0.98083974       0.87783760       0.32972391 </v>
    <v>       0.35735705       0.57044763       0.08462468 </v>
    <v>       0.50762556       0.42017912       0.21156171 </v>
    <v>       0.65789407       0.26991061       0.33849873 </v>
    <v>       0.80816258       0.11964210       0.46543576 </v>
    <v>       0.07411322       0.18702480       0.12693702 </v>
    <v>       0.22438173       0.03675628       0.25387405 </v>
    <v>       0.37465024       0.88648777       0.38081107 </v>
    <v>       0.52491876       0.73621926       0.50774810 </v>
    <v>       0.92384471       0.33729331       0.00000000 </v>
    <v>       0.09140641       0.50306493       0.42312341 </v>
    <v>       0.64060088       0.95387047       0.04231234 </v>
    <v>       0.79086939       0.80360196       0.16924937 </v>
    <v>       0.94113790       0.65333345       0.29618639 </v>
    <v>       0.03266674       0.15934394       0.43189823 </v>
    <v>       0.73212972       0.45988096       0.17802418 </v>
    <v>       0.88239823       0.30961245       0.30496121 </v>
    <v>       0.29861738       0.22672664       0.09339950 </v>
    <v>       0.44888589       0.07645813       0.22033653 </v>
    <v>       0.59915440       0.92618961       0.34727355 </v>
    <v>       0.74942291       0.77592110       0.47421057 </v>
    <v>       0.01537355       0.84330380       0.13571184 </v>
    <v>       0.16564206       0.69303529       0.26264887 </v>
    <v>       0.31591057       0.54276678       0.38958589 </v>
    <v>       0.46617908       0.39249826       0.51652292 </v>
    <v>       0.03660483       0.95519385       0.48928282 </v>
    <v>       0.58579929       0.40599939       0.10847175 </v>
    <v>       0.73606780       0.25573088       0.23540877 </v>
    <v>       0.88633632       0.10546237       0.36234580 </v>
    <v>       0.15228695       0.17284506       0.02384707 </v>
    <v>       0.30255546       0.02257655       0.15078409 </v>
    <v>       0.45282398       0.87230804       0.27772111 </v>
    <v>       0.60309249       0.72203953       0.40465814 </v>
    <v>       0.01931163       0.63915371       0.19309643 </v>
    <v>       0.16958015       0.48888520       0.32003346 </v>
    <v>       0.31984866       0.33861669       0.44697048 </v>
    <v>       0.86904312       0.78942223       0.06615941 </v>
    <v>       0.48608562       0.84214307       0.02424015 </v>
    <v>       0.63635413       0.69187455       0.15117717 </v>
    <v>       0.78662264       0.54160604       0.27811420 </v>
    <v>       0.93689115       0.39133753       0.40505122 </v>
    <v>       0.20284179       0.45872023       0.06655249 </v>
    <v>       0.35311030       0.30845172       0.19348951 </v>
    <v>       0.50337881       0.15818320       0.32042654 </v>
    <v>       0.65364732       0.00791469       0.44736356 </v>
    <v>       0.06986647       0.92502888       0.23580185 </v>
    <v>       0.22013498       0.77476037       0.36273888 </v>
    <v>       0.37040349       0.62449185       0.48967590 </v>
    <v>       0.91959796       0.07529739       0.10886483 </v>
    <v>       0.20021045       0.79158823       0.06694557 </v>
    <v>       0.35047896       0.64131972       0.19388259 </v>
    <v>       0.50074747       0.49105121       0.32081962 </v>
    <v>       0.65101599       0.34078269       0.44775664 </v>
    <v>       0.06723513       0.25789688       0.23619494 </v>
    <v>       0.21750365       0.10762837       0.36313196 </v>
    <v>       0.36777216       0.95735986       0.49006899 </v>
    <v>       0.91696662       0.40816539       0.10925791 </v>
    <v>       0.48345428       0.17501107       0.02463323 </v>
    <v>       0.63372279       0.02474256       0.15157025 </v>
    <v>       0.78399130       0.87447404       0.27850728 </v>
    <v>       0.93425982       0.72420553       0.40544430 </v>
   </varray>
  </structure>
  <varray name="forces" >
   <v>       0.10523914      -0.20080372      -0.72127849 </v>
   <v>      -0.00246783      -0.02870618      -0.06272441 </v>
   <v>       0.02100022       0.01268066       0.19326966 </v>
   <v>      -0.58573559      -0.12194678      -1.68935881 </v>
   <v>       0.03467794       0.17714209      -0.17308542 </v>
   <v>      -0.06270140      -0.16658027      -0.04330973 </v>
   <v>       0.10223611      -0.13582728       0.56514726 </v>
   <v>       0.21492049      -0.20257776       1.39443983 </v>
   <v>       0.07253440       0.71400602      -0.47735288 </v>
   <v>      -0.61294284      -0.21653305       0.57678483 </v>
   <v>       0.00728994       0.15118131      -0.04762312 </v>
   <v>       0.02913521      -0.15938372      -0.00920124 </v>
   <v>      -0.61526070       0.04234248       0.58851546 </v>
   <v>       0.18367154      -0.04332262      -0.19983063 </v>
   <v>       0.17449902      -0.09013765      -0.00539051 </v>
   <v>       0.28382929      -0.62450360      -0.73014597 </v>
   <v>      -0.03762095      -0.00911047      -0.38906807 </v>
   <v>       0.00012861       0.03939209       0.00179661 </v>
   <v>       0.06288983      -0.03535141       0.49658874 </v>
   <v>      -1.06472123       0.40606657      -1.62337477 </v>
   <v>       1.67956550       0.16187463       1.86571333 </v>
   <v>      -0.18653677      -0.36771457      -0.60631558 </v>
   <v>      -0.96883768      -0.30136315       0.60940195 </v>
   <v>      -0.00931967      -0.16150140      -0.06977078 </v>
   <v>       0.09112577      -0.03032458       0.04770154 </v>
   <v>      -0.21218880      -0.78206625      -0.42094725 </v>
   <v>      -0.31701113       0.28313077      -0.28484187 </v>
   <v>      -0.08482062      -0.09835946       0.02225249 </v>
   <v>      -0.16396949       0.21293958      -0.55707632 </v>
   <v>      -0.07963401       0.06566620      -0.15078917 </v>
   <v>       0.13373457       0.03137295       0.14303552 </v>
   <v>      -0.64889465       0.49019000      -1.72817100 </v>
   <v>       0.00237350       0.08940995      -0.45736274 </v>
   <v>      -0.04744474       0.00274521      -0.00941763 </v>
   <v>      -0.06333950      -0.03501162       0.35521386 </v>
   <v>      -0.34621632       0.71558034      -2.03469571 </v>
   <v>      -0.59376343       1.02674763       0.34916962 </v>
   <v>      -0.35264074      -0.30356897      -0.81697384 </v>
   <v>      -0.02832868       0.04813099       0.08240843 </v>
   <v>      -0.07102170       0.27529703       0.03399795 </v>
   <v>      -1.35584003       0.16975592      -0.13995799 </v>
   <v>       0.04317366       0.09745536      -0.20841263 </v>
   <v>       0.04884373      -0.00490306       0.20424427 </v>
   <v>       0.44163207       0.12300408       1.06269226 </v>
   <v>      -0.02127085       0.15749771      -0.06291070 </v>
   <v>       0.16929001       0.21972233       0.01297689 </v>
   <v>      -0.02058059       0.71073477       1.11606947 </v>
   <v>      -0.31632498      -0.75686938      -0.92820021 </v>
   <v>       0.50505283       0.34715269       0.41506236 </v>
   <v>      -0.16300482       0.09443848       0.51472602 </v>
   <v>       0.14876810      -0.03003531      -0.00853151 </v>
   <v>       0.43716755      -0.19044341       1.49686421 </v>
   <v>       0.01296010       0.46520543      -0.22581143 </v>
   <v>      -0.02084240      -0.16405052       0.07089875 </v>
   <v>      -0.02964719      -0.05989148       0.08559235 </v>
   <v>       0.29606927      -0.43595630       0.73921567 </v>
   <v>       0.06400723      -0.02636612       0.09337948 </v>
   <v>       0.02489693      -0.23622318      -0.07645791 </v>
   <v>      -0.07691825      -0.60521223       0.76094001 </v>
   <v>      -0.54869530       0.34852867       0.03392706 </v>
   <v>       0.73141448      -0.50858654       0.24812077 </v>
   <v>       0.39185150       0.36866900      -0.13476148 </v>
   <v>       0.06058570       0.16325079      -0.16589137 </v>
   <v>       0.43201430      -0.07196901       1.60174418 </v>
   <v>       0.05400739       0.10273327      -0.17173795 </v>
   <v>       0.07084681       0.12475706       0.16705717 </v>
   <v>       0.33617605      -0.40395670      -0.54362994 </v>
   <v>      -0.25886350       0.08331923      -1.34233051 </v>
   <v>       1.37027035      -0.52123264       0.48889935 </v>
   <v>       0.58846313      -0.12705026      -0.08951569 </v>
   <v>       0.14178057       0.07433543      -0.16546289 </v>
   <v>       0.39928351      -0.33901609       1.13387081 </v>
  </varray>
  <varray name="stress" >
   <v>     -28.50596787       2.71032263      -7.50529813 </v>
   <v>       2.71032277     -20.94431885       4.94491305 </v>
   <v>      -7.50529810       4.94491326     -19.45447250 </v>
  </varray>
  <energy>
   <i name="e_fr_energy">   -357.11864272 </i>
   <i name="e_wo_entrp">   -356.01321840 </i>
   <i name="e_0_energy">   -356.56593056 </i>
  </energy>
  <time name="totalsc">   73.61   73.88</time>
  <eigenvalues>
   <array>
    <dimension dim="1">band</dimension>
    <dimension dim="2">kpoint</dimension>
    <dimension dim="3">spin</dimension>
    <field>eigene</field>
    <field>occ</field>
    <set>
     <set comment="spin 1">
      <set comment="kpoint 1">
       <r>  -62.7294    1.0000 </r>
       <r>  -62.7291    1.0000 </r>
       <r>  -62.7269    1.0000 </r>
       <r>  -62.7166    1.0000 </r>
       <r>  -62.7106    1.0000 </r>
       <r>  -62.7067    1.0000 </r>
       <r>  -62.7026    1.0000 </r>
       <r>  -62.7016    1.0000 </r>
       <r>  -62.6947    1.0000 </r>
       <r>  -62.6928    1.0000 </r>
       <r>  -62.6872    1.0000 </r>
       <r>  -62.6821    1.0000 </r>
       <r>  -62.6807    1.0000 </r>
       <r>  -62.6786    1.0000 </r>
       <r>  -62.6715    1.0000 </r>
       <r>  -62.6698    1.0000 </r>
       <r>  -62.6693    1.0000 </r>
       <r>  -62.6665    1.0000 </r>
       <r>  -62.6626    1.0000 </r>
       <r>  -62.6591    1.0000 </r>
       <r>  -62.6586    1.0000 </r>
       <r>  -62.6483    1.0000 </r>
       <r>  -62.6481    1.0000 </r>
       <r>  -62.6481    1.0000 </r>
       <r>  -62.6439    1.0000 </r>
       <r>  -62.6417    1.0000 </r>
       <r>  -62.6416    1.0000 </r>
       <r>  -62.6409    1.0000 </r>
       <r>  -62.6333    1.0000 </r>
       <r>  -62.6317    1.0000 </r>
       <r>  -62.6205    1.0000 </r>
       <r>  -62.6196    1.0000 </r>
       <r>  -62.6186    1.0000 </r>
       <r>  -62.6180    1.0000 </r>
       <r>  -62.6157    1.0000 </r>
       <r>  -62.6128    1.0000 </r>
       <r>  -62.6065    1.0000 </r>
       <r>  -62.5989    1.0000 </r>
       <r>  -62.5956    1.0000 </r>
       <r>  -62.5908    1.0000 </r>
       <r>  -62.5850    1.0000 </r>
       <r>  -62.5835    1.0000 </r>
       <r>  -62.5732    1.0000 </r>
       <r>  -62.5637    1.0000 </r>
       <r>  -62.5614    1.0000 </r>
       <r>  -62.5565    1.0000 </r>
       <r>  -62.5508    1.0000 </r>
       <r>  -62.5467    1.0000 </r>
       <r>  -62.5464    1.0000 </r>
       <r>  -62.5155    1.0000 </r>
       <r>  -62.5087    1.0000 </r>
       <r>  -62.4979    1.0000 </r>
       <r>  -62.4950    1.0000 </r>
       <r>  -62.4899    1.0000 </r>
       <r>  -62.4856    1.0000 </r>
       <r>  -62.4843    1.0000 </r>
       <r>  -62.4808    1.0000 </r>
       <r>  -62.4779    1.0000 </r>
       <r>  -62.4744    1.0000 </r>
       <r>  -62.4458    1.0000 </r>
       <r>  -62.4442    1.0000 </r>
       <r>  -62.4359    1.0000 </r>
       <r>  -62.4350    1.0000 </r>
       <r>  -62.4284    1.0000 </r>
       <r>  -62.4265    1.0000 </r>
       <r>  -62.4240    1.0000 </r>
       <r>  -62.4051    1.0000 </r>
       <r>  -62.3870    1.0000 </r>
       <r>  -62.3825    1.0000 </r>
       <r>  -62.3611    1.0000 </r>
       <r>  -62.3587    1.0000 </r>
       <r>  -62.3383    1.0000 </r>
       <r>  -62.3233    1.0000 </r>
       <r>  -62.3108    1.0000 </r>
       <r>  -62.3043    1.0000 </r>
       <r>  -62.2888    1.0000 </r>
       <r>  -62.2831    1.0000 </r>
       <r>  -62.2810    1.0000 </r>
       <r>  -62.2591    1.0000 </r>
       <r>  -62.2375    1.0000 </r>
       <r>  -62.2160    1.0000 </r>
       <r>  -62.1829    1.0000 </r>
       <r>  -62.1734    1.0000 </r>
       <r>  -62.1701    1.0000 </r>
       <r>  -62.1509    1.0000 </r>
       <r>  -62.1422    1.0000 </r>
       <r>  -62.0989    1.0000 </r>
       <r>  -62.0075    1.0000 </r>
       <r>  -61.9741    1.0000 </r>
       <r>  -61.9355    1.0000 </r>
       <r>  -61.8710    1.0000 </r>
       <r>  -61.8614    1.0000 </r>
       <r>  -61.8563    1.0000 </r>
       <r>  -61.8113    1.0000 </r>
       <r>  -61.7977    1.0000 </r>
       <r>  -61.7763    1.0000 </r>
       <r>  -61.7710    1.0000 </r>
       <r>  -61.7674    1.0000 </r>
       <r>  -61.7607    1.0000 </r>
       <r>  -61.6302    1.0000 </r>
       <r>  -61.6294    1.0000 </r>
       <r>  -61.6228    1.0000 </r>
       <r>  -61.5234    1.0000 </r>
       <r>  -61.4955    1.0000 </r>
       <r>  -61.4577    1.0000 </r>
       <r>  -61.3251    1.0000 </r>
       <r>  -61.3168    1.0000 </r>
       <r>  -61.1157    1.0000 </r>
       <r>  -14.0209    1.0000 </r>
       <r>  -13.3706    1.0000 </r>
       <r>  -13.1908    1.0000 </r>
       <r>  -13.1761    1.0000 </r>
       <r>  -13.0314    1.0000 </r>
       <r>  -13.0085    1.0000 </r>
       <r>  -12.8055    1.0000 </r>
       <r>  -12.7773    1.0000 </r>
       <r>  -12.6667    1.0000 </r>
       <r>  -12.6252    1.0000 </r>
       <r>  -12.6141    1.0000 </r>
       <r>  -12.5357    1.0000 </r>
       <r>  -12.4986    1.0000 </r>
       <r>  -12.3580    1.0000 </r>
       <r>  -12.2550    1.0000 </r>
       <r>  -12.1862    1.0000 </r>
       <r>  -12.1653    1.0000 </r>
       <r>  -12.1006    1.0000 </r>
       <r>  -12.0905    1.0000 </r>
       <r>  -12.0248    1.0000 </r>
       <r>  -11.9940    1.0000 </r>
       <r>  -11.8860    1.0000 </r>
       <r>  -11.8385    1.0000 </r>
       <r>  -11.7939    1.0000 </r>
       <r>  -11.7399    1.0000 </r>
       <r>  -11.6948    1.0000 </r>
       <r>  -11.6305    1.0000 </r>
       <r>  -11.5313    1.0000 </r>
       <r>  -11.5056    1.0000 </r>
       <r>  -11.3180    1.0000 </r>
       <r>  -11.2729    1.0000 </r>
       <r>  -11.1820    1.0000 </r>
       <r>  -11.0279    1.0000 </r>
       <r>  -11.0072    1.0000 </r>
       <r>  -10.7987    1.0000 </r>
       <r>  -10.3427    1.0000 </r>
       <r>   -5.7700    1.0000 </r>
       <r>   -5.7115    1.0000 </r>
       <r>   -5.6731    1.0000 </r>
       <r>   -5.4199    1.0000 </r>
       <r>   -5.4123    1.0000 </r>
       <r>   -5.2052    1.0000 </r>
       <r>   -5.1904    1.0000 </r>
       <r>   -5.1521    1.0000 </r>
       <r>   -5.1210    1.0000 </r>
       <r>   -4.9868    1.0000 </r>
       <r>   -4.9478    1.0000 </r>
       <r>   -4.9246    1.0000 </r>
       <r>   -4.8870    1.0000 </r>
       <r>   -4.8610    1.0000 </r>
       <r>   -4.8116    1.0000 </r>
       <r>   -4.7868    1.0000 </r>
       <r>   -4.7618    1.0000 </r>
       <r>   -4.7309    1.0000 </r>
       <r>   -4.6673    1.0000 </r>
       <r>   -4.6010    1.0000 </r>
       <r>   -4.5438    1.0000 </r>
       <r>   -4.5340    1.0000 </r>
       <r>   -4.5161    1.0000 </r>
       <r>   -4.4802    1.0000 </r>
       <r>   -4.4376    1.0000 </r>
       <r>   -4.3855    1.0000 </r>
       <r>   -4.3614    1.0000 </r>
       <r>   -4.3514    1.0000 </r>
       <r>   -4.2890    1.0000 </r>
       <r>   -4.1516    1.0000 </r>
       <r>   -4.1117    1.0000 </r>
       <r>   -4.0394    1.0000 </r>
       <r>   -4.0043    1.0000 </r>
       <r>   -3.9714    1.0000 </r>
       <r>   -3.8928    1.0000 </r>
       <r>   -3.8300    1.0000 </r>
       <r>   -3.8071    1.0000 </r>
       <r>   -3.7689    1.0000 </r>
       <r>   -3.7136    1.0000 </r>
       <r>   -3.6624    1.0000 </r>
       <r>   -3.5822    1.0000 </r>
       <r>   -3.5568    1.0000 </r>
       <r>   -3.4905    1.0000 </r>
       <r>   -3.4553    1.0000 </r>
       <r>   -3.3770    1.0000 </r>
       <r>   -3.3561    1.0000 </r>
       <r>   -3.2500    1.0000 </r>
       <r>   -3.2204    1.0000 </r>
       <r>   -3.1967    1.0000 </r>
       <r>   -3.1772    1.0000 </r>
       <r>   -3.1618    1.0000 </r>
       <r>   -3.1044    1.0000 </r>
       <r>   -3.1006    1.0000 </r>
       <r>   -3.0935    1.0000 </r>
       <r>   -3.0530    1.0000 </r>
       <r>   -3.0268    1.0000 </r>
       <r>   -2.9952    1.0000 </r>
       <r>   -2.9612    1.0000 </r>
       <r>   -2.9347    1.0000 </r>
       <r>   -2.9135    1.0000 </r>
       <r>   -2.9026    1.0000 </r>
       <r>   -2.8904    1.0000 </r>
       <r>   -2.8655    1.0000 </r>
       <r>   -2.8384    1.0000 </r>
       <r>   -2.8131    1.0000 </r>
       <r>   -2.7551    1.0000 </r>
       <r>   -2.7391    1.0000 </r>
       <r>   -2.7076    1.0000 </r>
       <r>   -2.6834    1.0000 </r>
       <r>   -2.6420    1.0000 </r>
       <r>   -2.6358    1.0000 </r>
       <r>   -2.6173    1.0000 </r>
       <r>   -2.5662    1.0000 </r>
       <r>   -2.5546    1.0000 </r>
       <r>   -2.5301    1.0000 </r>
       <r>   -2.5146    1.0000 </r>
       <r>   -2.5021    1.0000 </r>
       <r>   -2.4613    1.0000 </r>
       <r>   -2.4540    1.0000 </r>
       <r>   -2.4155    1.0000 </r>
       <r>   -2.3852    1.0000 </r>
       <r>   -2.3610    1.0000 </r>
       <r>   -2.3313    1.0000 </r>
       <r>   -2.2947    1.0000 </r>
       <r>   -2.2737    1.0000 </r>
       <r>   -2.2217    1.0000 </r>
       <r>   -2.2045    1.0000 </r>
       <r>   -2.1377    1.0000 </r>
       <r>   -2.1306    1.0000 </r>
       <r>   -2.0943    1.0000 </r>
       <r>   -2.0276    1.0000 </r>
       <r>   -2.0213    1.0000 </r>
       <r>   -1.9867    1.0000 </r>
       <r>   -1.9112    1.0000 </r>
       <r>   -1.8205    1.0000 </r>
       <r>   -1.7963    1.0000 </r>
       <r>   -1.7706    1.0000 </r>
       <r>   -1.7320    1.0000 </r>
       <r>   -1.6858    1.0000 </r>
       <r>   -1.6291    1.0000 </r>
       <r>   -1.6184    1.0000 </r>
       <r>   -1.5597    1.0000 </r>
       <r>   -1.5016    1.0000 </r>
       <r>   -1.4400    1.0000 </r>
       <r>   -1.4287    1.0000 </r>
       <r>   -1.3770    1.0000 </r>
       <r>   -1.3538    1.0000 </r>
       <r>   -1.3331    1.0000 </r>
       <r>   -1.2960    1.0000 </r>
       <r>   -1.2375    1.0000 </r>
       <r>   -1.2196    1.0000 </r>
       <r>   -1.1668    1.0000 </r>
       <r>   -1.1491    1.0000 </r>
       <r>   -1.1233    1.0000 </r>
       <r>   -1.0706    1.0000 </r>
       <r>   -1.0584    1.0000 </r>
       <r>   -1.0287    1.0000 </r>
       <r>   -1.0082    1.0000 </r>
       <r>   -0.9938    1.0000 </r>
       <r>   -0.9602    1.0000 </r>
       <r>   -0.9426    1.0000 </r>
       <r>   -0.9209    1.0000 </r>
       <r>   -0.9109    1.0000 </r>
       <r>   -0.8875    1.0000 </r>
       <r>   -0.8455    1.0000 </r>
       <r>   -0.8439    1.0000 </r>
       <r>   -0.8140    1.0000 </r>
       <r>   -0.7949    1.0000 </r>
       <r>   -0.7897    1.0000 </r>
       <r>   -0.7718    1.0000 </r>
       <r>   -0.7307    1.0000 </r>
       <r>   -0.7248    1.0000 </r>
       <r>   -0.7112    1.0000 </r>
       <r>   -0.7042    1.0000 </r>
       <r>   -0.6493    1.0000 </r>
       <r>   -0.6449    1.0000 </r>
       <r>   -0.6318    1.0000 </r>
       <r>   -0.6154    1.0000 </r>
       <r>   -0.5927    1.0000 </r>
       <r>   -0.5652    1.0000 </r>
       <r>   -0.5507    1.0000 </r>
       <r>   -0.5144    1.0000 </r>
       <r>   -0.5087    1.0000 </r>
       <r>   -0.5014    1.0000 </r>
       <r>   -0.4834    1.0000 </r>
       <r>   -0.4671    1.0000 </r>
       <r>   -0.4486    1.0000 </r>
       <r>   -0.4321    1.0000 </r>
       <r>   -0.4255    1.0000 </r>
       <r>   -0.4066    1.0000 </r>
       <r>   -0.3990    1.0000 </r>
       <r>   -0.3886    1.0000 </r>
       <r>   -0.3866    1.0000 </r>
       <r>   -0.3669    1.0000 </r>
       <r>   -0.3513    1.0000 </r>
       <r>   -0.3431    1.0000 </r>
       <r>   -0.3396    1.0000 </r>
       <r>   -0.3259    1.0000 </r>
       <r>   -0.3239    1.0000 </r>
       <r>   -0.3193    1.0000 </r>
       <r>   -0.2947    1.0000 </r>
       <r>   -0.2869    1.0000 </r>
       <r>   -0.2759    1.0000 </r>
       <r>   -0.2560    1.0000 </r>
       <r>   -0.2501    1.0000 </r>
       <r>   -0.2436    1.0000 </r>
       <r>   -0.2292    1.0000 </r>
       <r>   -0.2118    1.0000 </r>
       <r>   -0.2059    1.0000 </r>
       <r>   -0.1895    1.0000 </r>
       <r>   -0.1835    1.0000 </r>
       <r>   -0.1804    1.0000 </r>
       <r>   -0.1733    1.0000 </r>
       <r>   -0.1501    1.0000 </r>
       <r>   -0.1469    1.0000 </r>
       <r>   -0.1389    1.0000 </r>
       <r>   -0.1310    1.0000 </r>
       <r>   -0.1154    1.0000 </r>
       <r>   -0.1013    1.0000 </r>
       <r>   -0.0958    1.0000 </r>
       <r>   -0.0842    1.0000 </r>
       <r>   -0.0749    1.0000 </r>
       <r>   -0.0659    1.0000 </r>
       <r>   -0.0524    1.0000 </r>
       <r>   -0.0375    1.0000 </r>
       <r>   -0.0200    1.0000 </r>
       <r>   -0.0113    1.0000 </r>
       <r>   -0.0068    1.0000 </r>
       <r>    0.0016    1.0000 </r>
       <r>    0.0217    1.0000 </r>
       <r>    0.0323    1.0000 </r>
       <r>    0.0393    1.0000 </r>
       <r>    0.0522    1.0000 </r>
       <r>    0.0552    1.0000 </r>
       <r>    0.0640    1.0000 </r>
       <r>    0.0717    1.0000 </r>
       <r>    0.0931    1.0000 </r>
       <r>    0.0998    1.0000 </r>
       <r>    0.1089    1.0000 </r>
       <r>    0.1299    1.0000 </r>
       <r>    0.1435    1.0000 </r>
       <r>    0.1595    1.0000 </r>
       <r>    0.1783    1.0000 </r>
       <r>    0.1954    1.0000 </r>
       <r>    0.2128    1.0000 </r>
       <r>    0.2233    1.0000 </r>
       <r>    0.2421    1.0000 </r>
       <r>    0.2597    1.0000 </r>
       <r>    0.2709    1.0000 </r>
       <r>    0.2917    1.0000 </r>
       <r>    0.3164    1.0000 </r>
       <r>    0.3446    1.0000 </r>
       <r>    0.3625    1.0000 </r>
       <r>    0.3705    1.0000 </r>
       <r>    0.3955    1.0000 </r>
       <r>    0.4229    1.0000 </r>
       <r>    0.4461    1.0000 </r>
       <r>    0.4603    1.0000 </r>
       <r>    0.4977    1.0000 </r>
       <r>    0.5089    1.0000 </r>
       <r>    0.5322    1.0000 </r>
       <r>    0.5405    1.0000 </r>
       <r>    0.5507    1.0000 </r>
       <r>    0.5749    1.0000 </r>
       <r>    0.5894    1.0000 </r>
       <r>    0.6064    1.0000 </r>
       <r>    0.6473    1.0000 </r>
       <r>    0.6519    1.0000 </r>
       <r>    0.6759    1.0000 </r>
       <r>    0.6918    1.0000 </r>
       <r>    0.7415    1.0000 </r>
       <r>    0.7492    1.0000 </r>
       <r>    0.7590    1.0000 </r>
       <r>    0.8072    1.0000 </r>
       <r>    0.8285    1.0000 </r>
       <r>    0.8489    1.0000 </r>
       <r>    0.8621    1.0000 </r>
       <r>    0.9181    0.9999 </r>
       <r>    0.9505    0.9998 </r>
       <r>    0.9768    0.9995 </r>
       <r>    0.9977    0.9992 </r>
       <r>    1.0425    0.9979 </r>
       <r>    1.0895    0.9942 </r>
       <r>    1.1564    0.9798 </r>
       <r>    1.1683    0.9754 </r>
       <r>    1.2500    0.9175 </r>
       <r>    1.2726    0.8903 </r>
       <r>    1.2808    0.8791 </r>
       <r>    1.2915    0.8633 </r>
       <r>    1.3501    0.7519 </r>
       <r>    1.3883    0.6593 </r>
       <r>    1.4309    0.5433 </r>
       <r>    1.4785    0.4101 </r>
       <r>    1.4878    0.3846 </r>
       <r>    1.5231    0.2935 </r>
       <r>    1.5782    0.1757 </r>
       <r>    1.6130    0.1192 </r>
       <r>    1.6452    0.0799 </r>
       <r>    1.7034    0.0346 </r>
       <r>    1.7338    0.0210 </r>
       <r>    1.7559    0.0143 </r>
       <r>    1.7906    0.0075 </r>
       <r>    1.8108    0.0050 </r>
       <r>    1.8522    0.0021 </r>
       <r>    1.8789    0.0011 </r>
       <r>    1.9045    0.0006 </r>
       <r>    1.9392    0.0002 </r>
       <r>    1.9818    0.0001 </r>
       <r>    2.0155    0.0000 </r>
       <r>    2.0515    0.0000 </r>
       <r>    2.0980    0.0000 </r>
       <r>    2.1239    0.0000 </r>
       <r>    2.1329    0.0000 </r>
       <r>    2.1627    0.0000 </r>
       <r>    2.2142    0.0000 </r>
       <r>    2.2488    0.0000 </r>
       <r>    2.2835    0.0000 </r>
       <r>    2.3195    0.0000 </r>
       <r>    2.3387    0.0000 </r>
       <r>    2.3648    0.0000 </r>
       <r>    2.3894    0.0000 </r>
       <r>    2.4367    0.0000 </r>
       <r>    2.4493    0.0000 </r>
       <r>    2.4844    0.0000 </r>
       <r>    2.5328    0.0000 </r>
       <r>    2.5602    0.0000 </r>
       <r>    2.6273    0.0000 </r>
       <r>    2.6665    0.0000 </r>
       <r>    2.8552    0.0000 </r>
       <r>    2.9878    0.0000 </r>
       <r>    3.5168    0.0000 </r>
       <r>    3.8822    0.0000 </r>
       <r>    4.2593    0.0000 </r>
       <r>    4.5059    0.0000 </r>
       <r>    4.6105    0.0000 </r>
       <r>    4.7835    0.0000 </r>
       <r>    4.8713    0.0000 </r>
       <r>    5.0348    0.0000 </r>
       <r>    5.1352    0.0000 </r>
       <r>    5.3842    0.0000 </r>
       <r>    5.4779    0.0000 </r>
       <r>    5.5839    0.0000 </r>
       <r>    5.6040    0.0000 </r>
       <r>    5.6854    0.0000 </r>
       <r>    5.8328    0.0000 </r>
       <r>    5.8568    0.0000 </r>
       <r>    5.9281    0.0000 </r>
       <r>    6.0071    0.0000 </r>
       <r>    6.1194    0.0000 </r>
       <r>    6.2166    0.0000 </r>
       <r>    6.2833    0.0000 </r>
       <r>    6.3120    0.0000 </r>
       <r>    6.3557    0.0000 </r>
       <r>    6.4130    0.0000 </r>
       <r>    6.4659    0.0000 </r>
       <r>    6.5408    0.0000 </r>
       <r>    6.6305    0.0000 </r>
       <r>    6.7451    0.0000 </r>
       <r>    6.7843    0.0000 </r>
       <r>    6.8402    0.0000 </r>
       <r>    6.9011    0.0000 </r>
       <r>    6.9134    0.0000 </r>
       <r>    7.0031    0.0000 </r>
       <r>    7.0614    0.0000 </r>
       <r>    7.0828    0.0000 </r>
       <r>    7.1212    0.0000 </r>
       <r>    7.1312    0.0000 </r>
       <r>    7.2353    0.0000 </r>
       <r>    7.3036    0.0000 </r>
       <r>    7.3190    0.0000 </r>
       <r>    7.3964    0.0000 </r>
       <r>    7.4170    0.0000 </r>
       <r>    7.4231    0.0000 </r>
       <r>    7.4851    0.0000 </r>
       <r>    7.5317    0.0000 </r>
       <r>    7.6311    0.0000 </r>
      </set>
     </set>
    </set>
   </array>
  </eigenvalues>
  <separator name="orbital magnetization" >
   <v name="MAGDIPOLOUT">      0.00000000      0.00000000      0.00000000</v>
  </separator>
  <dos>
   <i name="efermi">      1.44634128 </i>
   <total>
    <array>
     <dimension dim="1">gridpoints</dimension>
     <dimension dim="2">spin</dimension>
     <field>energy</field>
     <field>total</field>
     <field>integrated</field>
     <set>
      <set comment="spin 1">
       <r>   -66.2475     0.0000     0.0000 </r>
       <r>   -65.9895     0.0000     0.0000 </r>
       <r>   -65.7315     0.0000     0.0000 </r>
       <r>   -65.4735     0.0000     0.0000 </r>
       <r>   -65.2155     0.0000     0.0000 </r>
       <r>   -64.9575     0.0000     0.0000 </r>
       <r>   -64.6995     0.0000     0.0000 </r>
       <r>   -64.4415     0.0000     0.0000 </r>
       <r>   -64.1835     0.0000     0.0000 </r>
       <r>   -63.9256     0.0000     0.0000 </r>
       <r>   -63.6676     0.0000     0.0000 </r>
       <r>   -63.4096     0.0000     0.0000 </r>
       <r>   -63.1516     0.1222     0.0315 </r>
       <r>   -62.8936    17.8710     4.6420 </r>
       <r>   -62.6356   196.3249    55.2916 </r>
       <r>   -62.3776   289.6219   130.0107 </r>
       <r>   -62.1196   143.7847   167.1055 </r>
       <r>   -61.8617    69.8839   185.1348 </r>
       <r>   -61.6037    62.6241   201.2911 </r>
       <r>   -61.3457    36.6515   210.7467 </r>
       <r>   -61.0877    16.2660   214.9432 </r>
       <r>   -60.8297     3.9250   215.9558 </r>
       <r>   -60.5717     0.1709   215.9999 </r>
       <r>   -60.3137     0.0005   216.0000 </r>
       <r>   -60.0557     0.0000   216.0000 </r>
       <r>   -59.7977     0.0000   216.0000 </r>
       <r>   -59.5398     0.0000   216.0000 </r>
       <r>   -59.2818     0.0000   216.0000 </r>
       <r>   -59.0238     0.0000   216.0000 </r>
       <r>   -58.7658     0.0000   216.0000 </r>
       <r>   -58.5078     0.0000   216.0000 </r>
       <r>   -58.2498     0.0000   216.0000 </r>
       <r>   -57.9918     0.0000   216.0000 </r>
       <r>   -57.7338     0.0000   216.0000 </r>
       <r>   -57.4758     0.0000   216.0000 </r>
       <r>   -57.2179     0.0000   216.0000 </r>
       <r>   -56.9599     0.0000   216.0000 </r>
       <r>   -56.7019     0.0000   216.0000 </r>
       <r>   -56.4439     0.0000   216.0000 </r>
       <r>   -56.1859     0.0000   216.0000 </r>
       <r>   -55.9279     0.0000   216.0000 </r>
       <r>   -55.6699     0.0000   216.0000 </r>
       <r>   -55.4119     0.0000   216.0000 </r>
       <r>   -55.1540     0.0000   216.0000 </r>
       <r>   -54.8960     0.0000   216.0000 </r>
       <r>   -54.6380     0.0000   216.0000 </r>
       <r>   -54.3800     0.0000   216.0000 </r>
       <r>   -54.1220     0.0000   216.0000 </r>
       <r>   -53.8640     0.0000   216.0000 </r>
       <r>   -53.6060     0.0000   216.0000 </r>
       <r>   -53.3480     0.0000   216.0000 </r>
       <r>   -53.0900     0.0000   216.0000 </r>
       <r>   -52.8321     0.0000   216.0000 </r>
       <r>   -52.5741     0.0000   216.0000 </r>
       <r>   -52.3161     0.0000   216.0000 </r>
       <r>   -52.0581     0.0000   216.0000 </r>
       <r>   -51.8001     0.0000   216.0000 </r>
       <r>   -51.5421     0.0000   216.0000 </r>
       <r>   -51.2841     0.0000   216.0000 </r>
       <r>   -51.0261     0.0000   216.0000 </r>
       <r>   -50.7681     0.0000   216.0000 </r>
       <r>   -50.5102     0.0000   216.0000 </r>
       <r>   -50.2522     0.0000   216.0000 </r>
       <r>   -49.9942     0.0000   216.0000 </r>
       <r>   -49.7362     0.0000   216.0000 </r>
       <r>   -49.4782     0.0000   216.0000 </r>
       <r>   -49.2202     0.0000   216.0000 </r>
       <r>   -48.9622     0.0000   216.0000 </r>
       <r>   -48.7042     0.0000   216.0000 </r>
       <r>   -48.4462     0.0000   216.0000 </r>
       <r>   -48.1883     0.0000   216.0000 </r>
       <r>   -47.9303     0.0000   216.0000 </r>
       <r>   -47.6723     0.0000   216.0000 </r>
       <r>   -47.4143     0.0000   216.0000 </r>
       <r>   -47.1563     0.0000   216.0000 </r>
       <r>   -46.8983     0.0000   216.0000 </r>
       <r>   -46.6403     0.0000   216.0000 </r>
       <r>   -46.3823     0.0000   216.0000 </r>
       <r>   -46.1244     0.0000   216.0000 </r>
       <r>   -45.8664     0.0000   216.0000 </r>
       <r>   -45.6084     0.0000   216.0000 </r>
       <r>   -45.3504     0.0000   216.0000 </r>
       <r>   -45.0924     0.0000   216.0000 </r>
       <r>   -44.8344     0.0000   216.0000 </r>
       <r>   -44.5764     0.0000   216.0000 </r>
       <r>   -44.3184     0.0000   216.0000 </r>
       <r>   -44.0604     0.0000   216.0000 </r>
       <r>   -43.8025     0.0000   216.0000 </r>
       <r>   -43.5445     0.0000   216.0000 </r>
       <r>   -43.2865     0.0000   216.0000 </r>
       <r>   -43.0285     0.0000   216.0000 </r>
       <r>   -42.7705     0.0000   216.0000 </r>
       <r>   -42.5125     0.0000   216.0000 </r>
       <r>   -42.2545     0.0000   216.0000 </r>
       <r>   -41.9965     0.0000   216.0000 </r>
       <r>   -41.7385     0.0000   216.0000 </r>
       <r>   -41.4806     0.0000   216.0000 </r>
       <r>   -41.2226     0.0000   216.0000 </r>
       <r>   -40.9646     0.0000   216.0000 </r>
       <r>   -40.7066     0.0000   216.0000 </r>
       <r>   -40.4486     0.0000   216.0000 </r>
       <r>   -40.1906     0.0000   216.0000 </r>
       <r>   -39.9326     0.0000   216.0000 </r>
       <r>   -39.6746     0.0000   216.0000 </r>
       <r>   -39.4167     0.0000   216.0000 </r>
       <r>   -39.1587     0.0000   216.0000 </r>
       <r>   -38.9007     0.0000   216.0000 </r>
       <r>   -38.6427     0.0000   216.0000 </r>
       <r>   -38.3847     0.0000   216.0000 </r>
       <r>   -38.1267     0.0000   216.0000 </r>
       <r>   -37.8687     0.0000   216.0000 </r>
       <r>   -37.6107     0.0000   216.0000 </r>
       <r>   -37.3527     0.0000   216.0000 </r>
       <r>   -37.0948     0.0000   216.0000 </r>
       <r>   -36.8368     0.0000   216.0000 </r>
       <r>   -36.5788     0.0000   216.0000 </r>
       <r>   -36.3208     0.0000   216.0000 </r>
       <r>   -36.0628     0.0000   216.0000 </r>
       <r>   -35.8048     0.0000   216.0000 </r>
       <r>   -35.5468     0.0000   216.0000 </r>
       <r>   -35.2888     0.0000   216.0000 </r>
       <r>   -35.0308     0.0000   216.0000 </r>
       <r>   -34.7729     0.0000   216.0000 </r>
       <r>   -34.5149     0.0000   216.0000 </r>
       <r>   -34.2569     0.0000   216.0000 </r>
       <r>   -33.9989     0.0000   216.0000 </r>
       <r>   -33.7409     0.0000   216.0000 </r>
       <r>   -33.4829     0.0000   216.0000 </r>
       <r>   -33.2249     0.0000   216.0000 </r>
       <r>   -32.9669     0.0000   216.0000 </r>
       <r>   -32.7089     0.0000   216.0000 </r>
       <r>   -32.4510     0.0000   216.0000 </r>
       <r>   -32.1930     0.0000   216.0000 </r>
       <r>   -31.9350     0.0000   216.0000 </r>
       <r>   -31.6770     0.0000   216.0000 </r>
       <r>   -31.4190     0.0000   216.0000 </r>
       <r>   -31.1610     0.0000   216.0000 </r>
       <r>   -30.9030     0.0000   216.0000 </r>
       <r>   -30.6450     0.0000   216.0000 </r>
       <r>   -30.3871     0.0000   216.0000 </r>
       <r>   -30.1291     0.0000   216.0000 </r>
       <r>   -29.8711     0.0000   216.0000 </r>
       <r>   -29.6131     0.0000   216.0000 </r>
       <r>   -29.3551     0.0000   216.0000 </r>
       <r>   -29.0971     0.0000   216.0000 </r>
       <r>   -28.8391     0.0000   216.0000 </r>
       <r>   -28.5811     0.0000   216.0000 </r>
       <r>   -28.3231     0.0000   216.0000 </r>
       <r>   -28.0652     0.0000   216.0000 </r>
       <r>   -27.8072     0.0000   216.0000 </r>
       <r>   -27.5492     0.0000   216.0000 </r>
       <r>   -27.2912     0.0000   216.0000 </r>
       <r>   -27.0332     0.0000   216.0000 </r>
       <r>   -26.7752     0.0000   216.0000 </r>
       <r>   -26.5172     0.0000   216.0000 </r>
       <r>   -26.2592     0.0000   216.0000 </r>
       <r>   -26.0012     0.0000   216.0000 </r>
       <r>   -25.7433     0.0000   216.0000 </r>
       <r>   -25.4853     0.0000   216.0000 </r>
       <r>   -25.2273     0.0000   216.0000 </r>
       <r>   -24.9693     0.0000   216.0000 </r>
       <r>   -24.7113     0.0000   216.0000 </r>
       <r>   -24.4533     0.0000   216.0000 </r>
       <r>   -24.1953     0.0000   216.0000 </r>
       <r>   -23.9373     0.0000   216.0000 </r>
       <r>   -23.6794     0.0000   216.0000 </r>
       <r>   -23.4214     0.0000   216.0000 </r>
       <r>   -23.1634     0.0000   216.0000 </r>
       <r>   -22.9054     0.0000   216.0000 </r>
       <r>   -22.6474     0.0000   216.0000 </r>
       <r>   -22.3894     0.0000   216.0000 </r>
       <r>   -22.1314     0.0000   216.0000 </r>
       <r>   -21.8734     0.0000   216.0000 </r>
       <r>   -21.6154     0.0000   216.0000 </r>
       <r>   -21.3575     0.0000   216.0000 </r>
       <r>   -21.0995     0.0000   216.0000 </r>
       <r>   -20.8415     0.0000   216.0000 </r>
       <r>   -20.5835     0.0000   216.0000 </r>
       <r>   -20.3255     0.0000   216.0000 </r>
       <r>   -20.0675     0.0000   216.0000 </r>
       <r>   -19.8095     0.0000   216.0000 </r>
       <r>   -19.5515     0.0000   216.0000 </r>
       <r>   -19.2935     0.0000   216.0000 </r>
       <r>   -19.0356     0.0000   216.0000 </r>
       <r>   -18.7776     0.0000   216.0000 </r>
       <r>   -18.5196     0.0000   216.0000 </r>
       <r>   -18.2616     0.0000   216.0000 </r>
       <r>   -18.0036     0.0000   216.0000 </r>
       <r>   -17.7456     0.0000   216.0000 </r>
       <r>   -17.4876     0.0000   216.0000 </r>
       <r>   -17.2296     0.0000   216.0000 </r>
       <r>   -16.9716     0.0000   216.0000 </r>
       <r>   -16.7137     0.0000   216.0000 </r>
       <r>   -16.4557     0.0000   216.0000 </r>
       <r>   -16.1977     0.0000   216.0000 </r>
       <r>   -15.9397     0.0000   216.0000 </r>
       <r>   -15.6817     0.0000   216.0000 </r>
       <r>   -15.4237     0.0000   216.0000 </r>
       <r>   -15.1657     0.0000   216.0000 </r>
       <r>   -14.9077     0.0000   216.0000 </r>
       <r>   -14.6498     0.0000   216.0000 </r>
       <r>   -14.3918     0.0338   216.0087 </r>
       <r>   -14.1338     1.6125   216.4247 </r>
       <r>   -13.8758     4.9256   217.6955 </r>
       <r>   -13.6178     1.4922   218.0804 </r>
       <r>   -13.3598     5.5802   219.5201 </r>
       <r>   -13.1018    17.3772   224.0032 </r>
       <r>   -12.8438    21.0875   229.4435 </r>
       <r>   -12.5858    28.9223   236.9052 </r>
       <r>   -12.3279    28.0058   244.1303 </r>
       <r>   -12.0699    33.8348   252.8593 </r>
       <r>   -11.8119    36.5995   262.3016 </r>
       <r>   -11.5539    31.7981   270.5051 </r>
       <r>   -11.2959    22.2910   276.2560 </r>
       <r>   -11.0379    19.9726   281.4087 </r>
       <r>   -10.7799    13.5911   284.9150 </r>
       <r>   -10.5219     4.8018   286.1538 </r>
       <r>   -10.2639     4.9172   287.4224 </r>
       <r>   -10.0060     2.1721   287.9828 </r>
       <r>    -9.7480     0.0668   288.0000 </r>
       <r>    -9.4900     0.0001   288.0000 </r>
       <r>    -9.2320     0.0000   288.0000 </r>
       <r>    -8.9740     0.0000   288.0000 </r>
       <r>    -8.7160     0.0000   288.0000 </r>
       <r>    -8.4580     0.0000   288.0000 </r>
       <r>    -8.2000     0.0000   288.0000 </r>
       <r>    -7.9421     0.0000   288.0000 </r>
       <r>    -7.6841     0.0000   288.0000 </r>
       <r>    -7.4261     0.0000   288.0000 </r>
       <r>    -7.1681     0.0000   288.0000 </r>
       <r>    -6.9101     0.0000   288.0000 </r>
       <r>    -6.6521     0.0000   288.0000 </r>
       <r>    -6.3941     0.0000   288.0000 </r>
       <r>    -6.1361     0.0518   288.0134 </r>
       <r>    -5.8781     3.1749   288.8325 </r>
       <r>    -5.6202    15.3385   292.7896 </r>
       <r>    -5.3622    17.4076   297.2806 </r>
       <r>    -5.1042    27.8587   304.4678 </r>
       <r>    -4.8462    43.3875   315.6613 </r>
       <r>    -4.5882    50.7581   328.7563 </r>
       <r>    -4.3302    49.3361   341.4844 </r>
       <r>    -4.0722    35.7590   350.7099 </r>
       <r>    -3.8142    38.2346   360.5739 </r>
       <r>    -3.5562    39.2512   370.7003 </r>
       <r>    -3.2983    41.4100   381.3836 </r>
       <r>    -3.0403    64.2508   397.9596 </r>
       <r>    -2.7823    77.3373   417.9117 </r>
       <r>    -2.5243    77.1832   437.8241 </r>
       <r>    -2.2663    71.3658   456.2357 </r>
       <r>    -2.0083    54.5517   470.3094 </r>
       <r>    -1.7503    44.8341   481.8761 </r>
       <r>    -1.4923    47.2091   494.0555 </r>
       <r>    -1.2343    55.0495   508.2576 </r>
       <r>    -0.9764    72.7662   527.0305 </r>
       <r>    -0.7184    96.4806   551.9214 </r>
       <r>    -0.4604   120.3398   582.9677 </r>
       <r>    -0.2024   168.5508   626.4519 </r>
       <r>     0.0556   177.8651   672.3390 </r>
       <r>     0.3136   135.8929   707.3978 </r>
       <r>     0.5716   102.7190   733.8981 </r>
       <r>     0.8296    86.9773   756.3373 </r>
       <r>     1.0875    62.3266   772.4168 </r>
       <r>     1.3455    54.1620   786.3900 </r>
       <r>     1.6035    55.1964   800.6300 </r>
       <r>     1.8615    58.4658   815.7135 </r>
       <r>     2.1195    60.7929   831.3974 </r>
       <r>     2.3775    61.9222   847.3726 </r>
       <r>     2.6355    49.2854   860.0877 </r>
       <r>     2.8935    21.0312   865.5135 </r>
       <r>     3.1515     8.5748   867.7257 </r>
       <r>     3.4094     2.7905   868.4456 </r>
       <r>     3.6674     5.4130   869.8421 </r>
       <r>     3.9254     5.4755   871.2547 </r>
       <r>     4.1834     5.1504   872.5835 </r>
       <r>     4.4414     8.2043   874.7001 </r>
       <r>     4.6994    13.1508   878.0928 </r>
       <r>     4.9574    15.2150   882.0181 </r>
       <r>     5.2154    13.5825   885.5222 </r>
       <r>     5.4734    14.9155   889.3703 </r>
       <r>     5.7313    24.0418   895.5728 </r>
       <r>     5.9893    25.3558   902.1143 </r>
       <r>     6.2473    26.6207   908.9821 </r>
       <r>     6.5053    32.7179   917.4229 </r>
       <r>     6.7633    28.7562   924.8417 </r>
       <r>     7.0213    37.4253   934.4970 </r>
       <r>     7.2793    41.6734   945.2483 </r>
       <r>     7.5373    39.4617   955.4289 </r>
       <r>     7.7952    16.3286   959.6415 </r>
       <r>     8.0532     1.3773   959.9969 </r>
       <r>     8.3112     0.0122   960.0000 </r>
       <r>     8.5692     0.0000   960.0000 </r>
       <r>     8.8272     0.0000   960.0000 </r>
       <r>     9.0852     0.0000   960.0000 </r>
       <r>     9.3432     0.0000   960.0000 </r>
       <r>     9.6012     0.0000   960.0000 </r>
       <r>     9.8592     0.0000   960.0000 </r>
       <r>    10.1171     0.0000   960.0000 </r>
       <r>    10.3751     0.0000   960.0000 </r>
       <r>    10.6331     0.0000   960.0000 </r>
       <r>    10.8911     0.0000   960.0000 </r>
       <r>    11.1491     0.0000   960.0000 </r>
      </set>
     </set>
    </array>
   </total>
  </dos>
 </calculation>
 <structure name="finalpos" >
  <crystal>
   <varray name="basis" >
    <v>       9.42510255       3.57329804       0.00000000 </v>
    <v>       0.00000000      10.07973298       0.00000000 </v>
    <v>       0.00000000       0.00000000      20.68350356 </v>
   </varray>
   <i name="volume">   1964.98490008 </i>
   <varray name="rec_basis" >
    <v>       0.10609964       0.00000000       0.00000000 </v>
    <v>      -0.03761267       0.09920898       0.00000000 </v>
    <v>       0.00000000       0.00000000       0.04834771 </v>
   </varray>
  </crystal>
  <varray name="positions" >
   <v>       0.39705889       0.79495179       0.11816221 </v>
   <v>       0.54732740       0.64468328       0.24509923 </v>
   <v>       0.69759592       0.49441477       0.37203625 </v>
   <v>       0.84786443       0.34414625       0.49897328 </v>
   <v>       0.11381506       0.41152895       0.16047455 </v>
   <v>       0.26408357       0.26126044       0.28741157 </v>
   <v>       0.41435209       0.11099193       0.41434860 </v>
   <v>       0.96354655       0.56179747       0.03353752 </v>
   <v>       0.13110826       0.72756909       0.45666094 </v>
   <v>       0.68030272       0.17837463       0.07584987 </v>
   <v>       0.83057123       0.02810612       0.20278689 </v>
   <v>       0.98083974       0.87783760       0.32972391 </v>
   <v>       0.35735705       0.57044763       0.08462468 </v>
   <v>       0.50762556       0.42017912       0.21156171 </v>
   <v>       0.65789407       0.26991061       0.33849873 </v>
   <v>       0.80816258       0.11964210       0.46543576 </v>
   <v>       0.07411322       0.18702480       0.12693702 </v>
   <v>       0.22438173       0.03675628       0.25387405 </v>
   <v>       0.37465024       0.88648777       0.38081107 </v>
   <v>       0.52491876       0.73621926       0.50774810 </v>
   <v>       0.92384471       0.33729331       0.00000000 </v>
   <v>       0.09140641       0.50306493       0.42312341 </v>
   <v>       0.64060088       0.95387047       0.04231234 </v>
   <v>       0.79086939       0.80360196       0.16924937 </v>
   <v>       0.94113790       0.65333345       0.29618639 </v>
   <v>       0.03266674       0.15934394       0.43189823 </v>
   <v>       0.73212972       0.45988096       0.17802418 </v>
   <v>       0.88239823       0.30961245       0.30496121 </v>
   <v>       0.29861738       0.22672664       0.09339950 </v>
   <v>       0.44888589       0.07645813       0.22033653 </v>
   <v>       0.59915440       0.92618961       0.34727355 </v>
   <v>       0.74942291       0.77592110       0.47421057 </v>
   <v>       0.01537355       0.84330380       0.13571184 </v>
   <v>       0.16564206       0.69303529       0.26264887 </v>
   <v>       0.31591057       0.54276678       0.38958589 </v>
   <v>       0.46617908       0.39249826       0.51652292 </v>
   <v>       0.03660483       0.95519385       0.48928282 </v>
   <v>       0.58579929       0.40599939       0.10847175 </v>
   <v>       0.73606780       0.25573088       0.23540877 </v>
   <v>       0.88633632       0.10546237       0.36234580 </v>
   <v>       0.15228695       0.17284506       0.02384707 </v>
   <v>       0.30255546       0.02257655       0.15078409 </v>
   <v>       0.45282398       0.87230804       0.27772111 </v>
   <v>       0.60309249       0.72203953       0.40465814 </v>
   <v>       0.01931163       0.63915371       0.19309643 </v>
   <v>       0.16958015       0.48888520       0.32003346 </v>
   <v>       0.31984866       0.33861669       0.44697048 </v>
   <v>       0.86904312       0.78942223       0.06615941 </v>
   <v>       0.48608562       0.84214307       0.02424015 </v>
   <v>       0.63635413       0.69187455       0.15117717 </v>
   <v>       0.78662264       0.54160604       0.27811420 </v>
   <v>       0.93689115       0.39133753       0.40505122 </v>
   <v>       0.20284179       0.45872023       0.06655249 </v>
   <v>       0.35311030       0.30845172       0.19348951 </v>
   <v>       0.50337881       0.15818320       0.32042654 </v>
   <v>       0.65364732       0.00791469       0.44736356 </v>
   <v>       0.06986647       0.92502888       0.23580185 </v>
   <v>       0.22013498       0.77476037       0.36273888 </v>
   <v>       0.37040349       0.62449185       0.48967590 </v>
   <v>       0.91959796       0.07529739       0.10886483 </v>
   <v>       0.20021045       0.79158823       0.06694557 </v>
   <v>       0.35047896       0.64131972       0.19388259 </v>
   <v>       0.50074747       0.49105121       0.32081962 </v>
   <v>       0.65101599       0.34078269       0.44775664 </v>
   <v>       0.06723513       0.25789688       0.23619494 </v>
   <v>       0.21750365       0.10762837       0.36313196 </v>
   <v>       0.36777216       0.95735986       0.49006899 </v>
   <v>       0.91696662       0.40816539       0.10925791 </v>
   <v>       0.48345428       0.17501107       0.02463323 </v>
   <v>       0.63372279       0.02474256       0.15157025 </v>
   <v>       0.78399130       0.87447404       0.27850728 </v>
   <v>       0.93425982       0.72420553       0.40544430 </v>
  </varray>
 </structure>
</modeling>
