 vasp.6.1.0 28Jan20 (build Mar 31 2020 17:42:31) gamma-only                     
  
 executed on             LinuxIFC date 2020.04.12  18:37:40
 running on   48 total cores
 distrk:  each k-point on   48 cores,    1 groups
 distr:  one band on NCORE=   6 cores,    8 groups


--------------------------------------------------------------------------------------------------------


 INCAR:
 POTCAR:    PAW_PBE Ni_pv 06Sep2000               
 POTCAR:    PAW_PBE S 06Sep2000                   
 POTCAR:    PAW_PBE Ni_pv 06Sep2000               
   VRHFIN =Ni:                                                                                      
   LEXCH  = PE                                                                                      
   EATOM  =  3501.1230 eV,  257.3253 Ry                                                             
                                                                                                    
   TITEL  = PAW_PBE Ni_pv 06Sep2000                                                                 
   LULTRA =        F    use ultrasoft PP ?                                                          
   IUNSCR =        1    unscreen: 0-lin 1-nonlin 2-no                                               
   RPACOR =    1.500    partial core radius                                                         
   POMASS =   58.690; ZVAL   =   16.000    mass and valenz                                          
   RCORE  =    2.000    outmost cutoff radius                                                       
   RWIGS  =    2.000; RWIGS  =    1.058    wigner-seitz radius (au A)                               
   ENMAX  =  367.986; ENMIN  =  275.989 eV                                                          
   RCLOC  =    1.301    cutoff for local pot                                                        
   LCOR   =        T    correct aug charges                                                         
   LPAW   =        T    paw PP                                                                      
   EAUG   =  703.443                                                                                
   DEXC   =    0.000                                                                                
   RMAX   =    2.041    core radius for proj-oper                                                   
   RAUG   =    1.300    factor for augmentation sphere                                              
   RDEP   =    2.103    radius for radial grids                                                     
   RDEPT  =    1.618    core radius for aug-charge                                                  
                                                                                                    
   Atomic configuration                                                                             
    8 entries                                                                                       
     n  l   j            E        occ.                                                              
     1  0  0.50     -8206.4253   2.0000                                                             
     2  0  0.50      -976.1748   2.0000                                                             
     2  1  1.50      -839.0571   6.0000                                                             
     3  0  0.50      -105.9991   2.0000                                                             
     3  1  1.50       -66.4603   6.0000                                                             
     3  2  2.50        -4.6458   9.0000                                                             
     4  0  0.50        -4.4926   1.0000                                                             
     4  3  2.50        -1.3606   0.0000                                                             
   Description                                                                                      
     l       E           TYP  RCUT    TYP  RCUT                                                     
     1    -66.4602962     23  1.700                                                                 
     1     -1.3605826     23  1.700                                                                 
     2     -4.6457867     23  2.000                                                                 
     2     -6.0063693     23  2.000                                                                 
     0     -4.4925576     23  1.900                                                                 
     0     16.3626226     23  1.900                                                                 
  local pseudopotential read in
  partial core-charges read in
  partial kinetic energy density read in
  atomic valenz-charges read in
  non local Contribution for L=           1  read in
    real space projection operators read in
  non local Contribution for L=           1  read in
    real space projection operators read in
  non local Contribution for L=           2  read in
    real space projection operators read in
  non local Contribution for L=           2  read in
    real space projection operators read in
  non local Contribution for L=           0  read in
    real space projection operators read in
  non local Contribution for L=           0  read in
    real space projection operators read in
    PAW grid and wavefunctions read in
 
   number of l-projection  operators is LMAX  =           6
   number of lm-projection operators is LMMAX =          18
 
 POTCAR:    PAW_PBE S 06Sep2000                   
   VRHFIN =S : s2p4                                                                                 
   LEXCH  = PE                                                                                      
   EATOM  =   276.8230 eV,   20.3459 Ry                                                             
                                                                                                    
   TITEL  = PAW_PBE S 06Sep2000                                                                     
   LULTRA =        F    use ultrasoft PP ?                                                          
   IUNSCR =        1    unscreen: 0-lin 1-nonlin 2-no                                               
   RPACOR =    1.500    partial core radius                                                         
   POMASS =   32.066; ZVAL   =    6.000    mass and valenz                                          
   RCORE  =    1.900    outmost cutoff radius                                                       
   RWIGS  =    2.200; RWIGS  =    1.164    wigner-seitz radius (au A)                               
   ENMAX  =  258.689; ENMIN  =  194.016 eV                                                          
   ICORE  =        2    local potential                                                             
   LCOR   =        T    correct aug charges                                                         
   LPAW   =        T    paw PP                                                                      
   EAUG   =  335.092                                                                                
   DEXC   =    0.000                                                                                
   RMAX   =    1.942    core radius for proj-oper                                                   
   RAUG   =    1.300    factor for augmentation sphere                                              
   RDEP   =    1.954    radius for radial grids                                                     
   RDEPT  =    1.744    core radius for aug-charge                                                  
                                                                                                    
   Atomic configuration                                                                             
    6 entries                                                                                       
     n  l   j            E        occ.                                                              
     1  0  0.50     -2405.8406   2.0000                                                             
     2  0  0.50      -211.7007   2.0000                                                             
     2  1  1.50      -156.4958   6.0000                                                             
     3  0  0.50       -17.2562   2.0000                                                             
     3  1  0.50        -7.0085   4.0000                                                             
     3  2  1.50        -6.8029   0.0000                                                             
   Description                                                                                      
     l       E           TYP  RCUT    TYP  RCUT                                                     
     0    -17.2561641     23  1.900                                                                 
     0    -15.8743224     23  1.900                                                                 
     1     -7.0085400     23  1.900                                                                 
     1     -2.7779785     23  1.900                                                                 
     2     -6.8029130     23  1.900                                                                 
  local pseudopotential read in
  partial core-charges read in
  partial kinetic energy density read in
  atomic valenz-charges read in
  non local Contribution for L=           0  read in
    real space projection operators read in
  non local Contribution for L=           0  read in
    real space projection operators read in
  non local Contribution for L=           1  read in
    real space projection operators read in
  non local Contribution for L=           1  read in
    real space projection operators read in
    PAW grid and wavefunctions read in
 
   number of l-projection  operators is LMAX  =           4
   number of lm-projection operators is LMMAX =           8
 
 Optimization of the real space projectors (new method)

 maximal supplied QI-value         = 18.90
 optimisation between [QCUT,QGAM] = [ 10.77, 21.73] = [ 32.49,132.25] Ry 
 Optimized for a Real-space Cutoff    1.38 Angstroem

   l    n(q)    QCUT    max X(q) W(low)/X(q) W(high)/X(q)  e(spline) 
   1      8    10.771     2.836    0.40E-04    0.29E-04    0.12E-06
   1      8    10.771     4.023    0.10E-03    0.48E-04    0.29E-06
   2      8    10.771    73.368    0.42E-03    0.97E-04    0.44E-06
   2      8    10.771    69.010    0.42E-03    0.99E-04    0.45E-06
   0      9    10.771    54.797    0.10E-03    0.56E-04    0.74E-07
   0      9    10.771    24.266    0.89E-04    0.49E-04    0.67E-07
 Optimization of the real space projectors (new method)

 maximal supplied QI-value         = 19.84
 optimisation between [QCUT,QGAM] = [ 10.71, 21.63] = [ 32.15,130.99] Ry 
 Optimized for a Real-space Cutoff    1.19 Angstroem

   l    n(q)    QCUT    max X(q) W(low)/X(q) W(high)/X(q)  e(spline) 
   0      8    10.715   187.594    0.41E-03    0.53E-04    0.66E-07
   0      8    10.715   164.243    0.41E-03    0.53E-04    0.65E-07
   1      7    10.715    67.533    0.19E-03    0.59E-03    0.68E-07
   1      7    10.715    50.729    0.19E-03    0.58E-03    0.67E-07
  PAW_PBE Ni_pv 06Sep2000               :
 energy of atom  1       EATOM=-3501.1230
 kinetic energy error for atom=    0.0925 (will be added to EATOM!!)
  PAW_PBE S 06Sep2000                   :
 energy of atom  2       EATOM= -276.8230
 kinetic energy error for atom=    0.0033 (will be added to EATOM!!)
 
 
 POSCAR: Structure 21 made from -211-8.xsd file
  positions in direct lattice
  No initial velocities read in
 exchange correlation table for  LEXCH =        8
   RHO(1)=    0.500       N(1)  =     2000
   RHO(2)=  100.500       N(2)  =     4000
 


--------------------------------------------------------------------------------------------------------


 ion  position               nearest neighbor table
   1  0.397  0.795  0.118-  42 2.25  49 2.26  61 2.26  50 2.36  62 2.36  12 2.53  25 2.53
   2  0.547  0.645  0.245-  43 2.25  62 2.26  50 2.26  63 2.36  51 2.36  26 2.53  13 2.53
   3  0.698  0.494  0.372-  44 2.25  51 2.26  63 2.26  52 2.36  64 2.36  14 2.53  27 2.53
   4  0.848  0.344  0.499-  64 2.26  52 2.26  15 2.53  24 2.53
   5  0.114  0.412  0.160-  45 2.25  68 2.26  53 2.26  54 2.36  65 2.36  28 2.53  16 2.53
   6  0.264  0.261  0.287-  46 2.25  65 2.26  54 2.26  55 2.36  66 2.36  17 2.53  29 2.53
   7  0.414  0.111  0.414-  47 2.25  55 2.26  66 2.26  56 2.36  67 2.36  30 2.53  18 2.53
   8  0.131  0.728  0.457-  37 2.25  72 2.26  58 2.26  59 2.36  34 2.53
   9  0.680  0.178  0.076-  38 2.25  69 2.26  70 2.36  60 2.36  21 2.53  36 2.53
  10  0.831  0.028  0.203-  39 2.25  60 2.26  70 2.26  57 2.36  71 2.36  22 2.53  32 2.53
  11  0.981  0.878  0.330-  40 2.25  57 2.26  71 2.26  58 2.36  72 2.36  33 2.53  23 2.53
  12  0.357  0.570  0.085-  53 2.25  61 2.26  62 2.36  38 2.36   1 2.53  25 2.53
  13  0.508  0.420  0.212-  54 2.25  62 2.26  38 2.26  39 2.36  63 2.36  26 2.53   2 2.53
  14  0.658  0.270  0.338-  55 2.25  63 2.26  39 2.26  64 2.36  40 2.36   3 2.53  27 2.53
  15  0.808  0.120  0.465-  56 2.25  40 2.26  64 2.26  37 2.36   4 2.53  24 2.53
  16  0.074  0.187  0.127-  60 2.25  68 2.26  41 2.26  42 2.36  65 2.36  28 2.53   5 2.53
  17  0.224  0.037  0.254-  57 2.25  42 2.26  65 2.26  66 2.36  43 2.36   6 2.53  29 2.53
  18  0.375  0.886  0.381-  58 2.25  66 2.26  43 2.26  44 2.36  67 2.36  30 2.53   7 2.53
  19  0.525  0.736  0.508-  59 2.25  67 2.26  44 2.26  31 2.53
  20  0.924  0.337  0.000-  41 2.36  68 2.36
  21  0.641  0.954  0.042-  49 2.25  69 2.26  48 2.36  70 2.36  36 2.53   9 2.53
  22  0.791  0.804  0.169-  50 2.25  70 2.26  48 2.26  71 2.36  45 2.36  10 2.53  32 2.53
  23  0.941  0.653  0.296-  51 2.25  71 2.26  45 2.26  46 2.36  72 2.36  33 2.53  11 2.53
  24  0.033  0.159  0.432-  66 2.25  40 2.26  52 2.26  37 2.36  15 2.53   4 2.53
  25  0.582  0.610  0.051-  49 2.26  50 2.36  38 2.36   1 2.53  12 2.53
  26  0.732  0.460  0.178-  68 2.25  50 2.26  38 2.26  51 2.36  39 2.36  13 2.53   2 2.53
  27  0.882  0.310  0.305-  65 2.25  39 2.26  51 2.26  40 2.36  52 2.36   3 2.53  14 2.53
  28  0.299  0.227  0.093-  69 2.25  53 2.26  41 2.26  54 2.36  42 2.36   5 2.53  16 2.53
  29  0.449  0.076  0.220-  70 2.25  42 2.26  54 2.26  43 2.36  55 2.36  17 2.53   6 2.53
  30  0.599  0.926  0.347-  71 2.25  43 2.26  55 2.26  56 2.36  44 2.36   7 2.53  18 2.53
  31  0.749  0.776  0.474-  72 2.25  56 2.26  44 2.26  19 2.53
  32  0.015  0.843  0.136-  61 2.25  48 2.26  60 2.26  45 2.36  57 2.36  22 2.53  10 2.53
  33  0.166  0.693  0.263-  62 2.25  57 2.26  45 2.26  46 2.36  58 2.36  11 2.53  23 2.53
  34  0.316  0.543  0.390-  63 2.25  58 2.26  46 2.26  47 2.36  59 2.36   8 2.53
  35  0.466  0.392  0.517-  64 2.25  47 2.26  59 2.26
  36  0.865  0.994  0.009-  60 2.36  48 2.36  21 2.53   9 2.53
  37  0.037  0.955  0.489-   8 2.25  15 2.36  24 2.36
  38  0.586  0.406  0.108-   9 2.25  13 2.26  26 2.26  25 2.36  12 2.36
  39  0.736  0.256  0.235-  10 2.25  27 2.26  14 2.26  13 2.36  26 2.36
  40  0.886  0.105  0.362-  11 2.25  24 2.26  15 2.26  14 2.36  27 2.36
  41  0.152  0.173  0.024-  16 2.26  28 2.26  20 2.36
  42  0.303  0.023  0.151-   1 2.25  29 2.26  17 2.26  16 2.36  28 2.36
  43  0.453  0.872  0.278-   2 2.25  30 2.26  18 2.26  29 2.36  17 2.36
  44  0.603  0.722  0.405-   3 2.25  19 2.26  31 2.26  30 2.36  18 2.36
  45  0.019  0.639  0.193-   5 2.25  23 2.26  33 2.26  22 2.36  32 2.36
  46  0.170  0.489  0.320-   6 2.25  34 2.26  33 2.36  23 2.36
  47  0.320  0.339  0.447-   7 2.25  35 2.26  34 2.36
  48  0.869  0.789  0.066-  32 2.26  22 2.26  21 2.36  36 2.36
  49  0.486  0.842  0.024-  21 2.25   1 2.26  25 2.26
  50  0.636  0.692  0.151-  22 2.25  26 2.26   2 2.26   1 2.36  25 2.36
  51  0.787  0.542  0.278-  23 2.25   3 2.26  27 2.26  26 2.36   2 2.36
  52  0.937  0.391  0.405-   4 2.26  24 2.26   3 2.36  27 2.36
  53  0.203  0.459  0.067-  12 2.25  28 2.26   5 2.26
  54  0.353  0.308  0.193-  13 2.25   6 2.26  29 2.26  28 2.36   5 2.36
  55  0.503  0.158  0.320-  14 2.25   7 2.26  30 2.26   6 2.36  29 2.36
  56  0.654  0.008  0.447-  15 2.25  31 2.26  30 2.36   7 2.36
  57  0.070  0.925  0.236-  17 2.25  33 2.26  11 2.26  10 2.36  32 2.36
  58  0.220  0.775  0.363-  18 2.25   8 2.26  34 2.26  33 2.36  11 2.36
  59  0.370  0.624  0.490-  19 2.25  35 2.26  34 2.36   8 2.36
  60  0.920  0.075  0.109-  16 2.25  10 2.26  32 2.26  36 2.36   9 2.36
  61  0.200  0.792  0.067-  32 2.25   1 2.26  12 2.26
  62  0.350  0.641  0.194-  33 2.25  13 2.26   2 2.26  12 2.36   1 2.36
  63  0.501  0.491  0.321-  34 2.25   3 2.26  14 2.26   2 2.36  13 2.36
  64  0.651  0.341  0.448-  35 2.25   4 2.26  15 2.26  14 2.36   3 2.36
  65  0.067  0.258  0.236-  27 2.25   6 2.26  17 2.26   5 2.36  16 2.36
  66  0.218  0.108  0.363-  24 2.25  18 2.26   7 2.26  17 2.36   6 2.36
  67  0.368  0.957  0.490-  19 2.26  18 2.36   7 2.36
  68  0.917  0.408  0.109-  26 2.25  16 2.26   5 2.26  20 2.36
  69  0.483  0.175  0.025-  28 2.25   9 2.26  21 2.26
  70  0.634  0.025  0.152-  29 2.25  10 2.26  22 2.26   9 2.36  21 2.36
  71  0.784  0.874  0.279-  30 2.25  23 2.26  11 2.26  22 2.36  10 2.36
  72  0.934  0.724  0.405-  31 2.25   8 2.26  11 2.36  23 2.36
 
  LATTYP: Found a base centered orthorhombic cell.
 ALAT       =    11.4527836704
 B/A-ratio  =     1.4485816945
 C/A-ratio  =     1.8059804630
  
  Lattice vectors:
  
 A1 = (   9.4251025535,   3.5732980427,   0.0000000000)
 A2 = (   0.0000000000, -10.0797329849,   0.0000000000)
 A3 = (   0.0000000000,   0.0000000000, -20.6835035552)


Analysis of symmetry for initial positions (statically):
=====================================================================
 Subroutine PRICEL returns:
 Original cell was already a primitive cell.
 

 Routine SETGRP: Setting up the symmetry group for a 
 base centered orthorhombic supercell.


 Subroutine GETGRP returns: Found  1 space group operations
 (whereof  1 operations were pure point group operations)
 out of a pool of  8 trial point group operations.


The static configuration has the point symmetry C_1 .


Analysis of symmetry for dynamics (positions and initial velocities):
=====================================================================
 Subroutine PRICEL returns:
 Original cell was already a primitive cell.
 

 Routine SETGRP: Setting up the symmetry group for a 
 base centered orthorhombic supercell.


 Subroutine GETGRP returns: Found  1 space group operations
 (whereof  1 operations were pure point group operations)
 out of a pool of  8 trial point group operations.


The dynamic configuration has the point symmetry C_1 .


 Subroutine INISYM returns: Found  1 space group operations
 (whereof  1 operations are pure point group operations),
 and found     1 'primitive' translations


----------------------------------------------------------------------------------------

                                     Primitive cell                                     

  volume of cell :    1964.9849

  direct lattice vectors                    reciprocal lattice vectors
     9.425102554  3.573298043  0.000000000     0.106099641  0.000000000  0.000000000
     0.000000000 10.079732985  0.000000000    -0.037612667  0.099208977  0.000000000
     0.000000000  0.000000000 20.683503555     0.000000000  0.000000000  0.048347708

  length of vectors
    10.079732985 10.079732985 20.683503555     0.106099641  0.106099641  0.048347708

  position of ions in fractional coordinates (direct lattice)
     0.397058890  0.794951791  0.118162206
     0.547327402  0.644683279  0.245099231
     0.697595915  0.494414766  0.372036255
     0.847864427  0.344146254  0.498973279
     0.113815061  0.411528954  0.160474548
     0.264083573  0.261260441  0.287411572
     0.414352086  0.110991929  0.414348596
     0.131108256  0.727569091  0.456660938
     0.680302719  0.178374628  0.075849865
     0.830571232  0.028106116  0.202786889
     0.980839744  0.877837604  0.329723914
     0.357357047  0.570447634  0.084624683
     0.507625560  0.420179121  0.211561707
     0.657894072  0.269910609  0.338498732
     0.808162585  0.119642096  0.465435756
     0.074113218  0.187024796  0.126937024
     0.224381731  0.036756284  0.253874049
     0.374650243  0.886487771  0.380811073
     0.524918755  0.736219259  0.507748097
     0.923844706  0.337293308  0.000000000
     0.640600877  0.953870471  0.042312341
     0.790869389  0.803601959  0.169249366
     0.941137901  0.653333446  0.296186390
     0.032666742  0.159343939  0.431898232
     0.581861205  0.610149476  0.051087159
     0.732129717  0.459880964  0.178024184
     0.882398230  0.309612451  0.304961208
     0.298617376  0.226726639  0.093399501
     0.448885888  0.076458126  0.220336525
     0.599154400  0.926189614  0.347273550
     0.749422913  0.775921101  0.474210574
     0.015373546  0.843303801  0.135711842
     0.165642059  0.693035289  0.262648867
     0.315910571  0.542766776  0.389585891
     0.466179084  0.392498264  0.516522915
     0.865105034  0.993572314  0.008774818
     0.036604829  0.955193852  0.489282822
     0.585799292  0.405999389  0.108471749
     0.736067804  0.255730877  0.235408774
     0.886336316  0.105462365  0.362345798
     0.152286950  0.172845064  0.023847066
     0.302555462  0.022576552  0.150784091
     0.452823975  0.872308040  0.277721115
     0.603092487  0.722039527  0.404658139
     0.019311633  0.639153714  0.193096432
     0.169580146  0.488885202  0.320033456
     0.319848658  0.338616690  0.446970481
     0.869043121  0.789422227  0.066159408
     0.486085615  0.842143066  0.024240148
     0.636354127  0.691874554  0.151177172
     0.786622640  0.541606041  0.278114197
     0.936891152  0.391337529  0.405051221
     0.202841786  0.458720229  0.066552489
     0.353110298  0.308451716  0.193489514
     0.503378810  0.158183204  0.320426538
     0.653647323  0.007914691  0.447363562
     0.069866469  0.925028879  0.235801855
     0.220134981  0.774760366  0.362738880
     0.370403494  0.624491854  0.489675904
     0.919597956  0.075297391  0.108864831
     0.200210450  0.791588231  0.066945571
     0.350478963  0.641319718  0.193882595
     0.500747475  0.491051206  0.320819620
     0.651015988  0.340782693  0.447756644
     0.067235134  0.257896881  0.236194937
     0.217503646  0.107628368  0.363131961
     0.367772158  0.957359856  0.490068986
     0.916966621  0.408165393  0.109257913
     0.483454280  0.175011068  0.024633230
     0.633722792  0.024742556  0.151570254
     0.783991304  0.874474043  0.278507278
     0.934259817  0.724205531  0.405444303

  ion indices of the primitive-cell ions
   primitive index   ion index
                 1           1
                 2           2
                 3           3
                 4           4
                 5           5
                 6           6
                 7           7
                 8           8
                 9           9
                10          10
                11          11
                12          12
                13          13
                14          14
                15          15
                16          16
                17          17
                18          18
                19          19
                20          20
                21          21
                22          22
                23          23
                24          24
                25          25
                26          26
                27          27
                28          28
                29          29
                30          30
                31          31
                32          32
                33          33
                34          34
                35          35
                36          36
                37          37
                38          38
                39          39
                40          40
                41          41
                42          42
                43          43
                44          44
                45          45
                46          46
                47          47
                48          48
                49          49
                50          50
                51          51
                52          52
                53          53
                54          54
                55          55
                56          56
                57          57
                58          58
                59          59
                60          60
                61          61
                62          62
                63          63
                64          64
                65          65
                66          66
                67          67
                68          68
                69          69
                70          70
                71          71
                72          72

----------------------------------------------------------------------------------------

 
 
 KPOINTS: gamma-point-only calculation. no periodi

Automatic generation of k-mesh.
Space group operators:
 irot       det(A)        alpha          n_x          n_y          n_z        tau_x        tau_y        tau_z
    1     1.000000     0.000000     1.000000     0.000000     0.000000     0.000000     0.000000     0.000000
 
 Subroutine IBZKPT returns following result:
 ===========================================
 
 Found      1 irreducible k-points:
 
 Following reciprocal coordinates:
            Coordinates               Weight
  0.000000  0.000000  0.000000      1.000000
 
 Following cartesian coordinates:
            Coordinates               Weight
  0.000000  0.000000  0.000000      1.000000
 


--------------------------------------------------------------------------------------------------------




 Dimension of arrays:
   k-points           NKPTS =      1   k-points in BZ     NKDIM =      1   number of bands    NBANDS=    480
   number of dos      NEDOS =    301   number of ions     NIONS =     72
   non local maximal  LDIM  =      6   non local SUM 2l+1 LMDIM =     18
   total plane-waves  NPLWV = 314928
   max r-space proj   IRMAX =   1817   max aug-charges    IRDMAX=   5248
   dimension x,y,z NGX =    54 NGY =   54 NGZ =  108
   dimension x,y,z NGXF=   108 NGYF=  108 NGZF=  216
   support grid    NGXF=   108 NGYF=  108 NGZF=  216
   ions per type =              36  36
   NGX,Y,Z   is equivalent  to a cutoff of   8.91,  8.91,  8.68 a.u.
   NGXF,Y,Z  is equivalent  to a cutoff of  17.81, 17.81, 17.36 a.u.

 SYSTEM =  "Millerite NiS"                         
 POSCAR =  Structure 21 made from -211-8.xsd file  

 Startparameter for this run:
   NWRITE =      2    write-flag & timer
   PREC   = normal    normal or accurate (medium, high low for compatibility)
   ISTART =      0    job   : 0-new  1-cont  2-samecut
   ICHARG =      2    charge: 1-file 2-atom 10-const
   ISPIN  =      1    spin polarized calculation?
   LNONCOLLINEAR =      F non collinear calculations
   LSORBIT =      F    spin-orbit coupling
   INIWAV =      1    electr: 0-lowe 1-rand  2-diag
   LASPH  =      F    aspherical Exc in radial PAW
   METAGGA=      F    non-selfconsistent MetaGGA calc.

 Electronic Relaxation 1
   ENCUT  =  450.0 eV  33.07 Ry    5.75 a.u.  17.43 17.43 35.78*2*pi/ulx,y,z
   ENINI  =  450.0     initial cutoff
   ENAUG  =  703.4 eV  augmentation charge cutoff
   NELM   =    100;   NELMIN=  2; NELMDL= -5     # of ELM steps 
   EDIFF  = 0.1E-03   stopping-criterion for ELM
   LREAL  =      T    real-space projection
   NLSPLINE    = F    spline interpolate recip. space projectors
   LCOMPAT=      F    compatible to vasp.4.4
   GGA_COMPAT  = T    GGA compatible to vasp.4.4-vasp.4.6
   LMAXPAW     = -100 max onsite density
   LMAXMIX     =    2 max onsite mixed and CHGCAR
   VOSKOWN=      0    Vosko Wilk Nusair interpolation
   ROPT   =   -0.00050  -0.00050
 Ionic relaxation
   EDIFFG = 0.1E-02   stopping-criterion for IOM
   NSW    =      0    number of steps for IOM
   NBLOCK =      1;   KBLOCK =      1    inner block; outer block 
   IBRION =     -1    ionic relax: 0-MD 1-quasi-New 2-CG
   NFREE  =      0    steps in history (QN), initial steepest desc. (CG)
   ISIF   =      2    stress and relaxation
   IWAVPR =     10    prediction:  0-non 1-charg 2-wave 3-comb
   ISYM   =      2    0-nonsym 1-usesym 2-fastsym
   LCORR  =      T    Harris-Foulkes like correction to forces

   POTIM  = 0.5000    time-step for ionic-motion
   TEIN   =    0.0    initial temperature
   TEBEG  =    0.0;   TEEND  =   0.0 temperature during run
   SMASS  =  -3.00    Nose mass-parameter (am)
   estimated Nose-frequenzy (Omega)   =  0.10E-29 period in steps = 0.13E+47 mass=  -0.232E-26a.u.
   SCALEE = 1.0000    scale energy and forces
   NPACO  =    256;   APACO  = 16.0  distance and # of slots for P.C.
   PSTRESS=    0.0 pullay stress

  Mass of Ions in am
   POMASS =  58.69 32.07
  Ionic Valenz
   ZVAL   =  16.00  6.00
  Atomic Wigner-Seitz radii
   RWIGS  =  -1.00 -1.00
  virtual crystal weights 
   VCA    =   1.00  1.00
   NELECT =     792.0000    total number of electrons
   NUPDOWN=      -1.0000    fix difference up-down

 DOS related values:
   EMIN   =  10.00;   EMAX   =-10.00  energy-range for DOS
   EFERMI =   0.00
   ISMEAR =     0;   SIGMA  =   0.20  broadening in eV -4-tet -1-fermi 0-gaus

 Electronic relaxation 2 (details)
   IALGO  =     38    algorithm
   LDIAG  =      T    sub-space diagonalisation (order eigenvalues)
   LSUBROT=      F    optimize rotation matrix (better conditioning)
   TURBO    =      0    0=normal 1=particle mesh
   IRESTART =      0    0=no restart 2=restart with 2 vectors
   NREBOOT  =      0    no. of reboots
   NMIN     =      0    reboot dimension
   EREF     =   0.00    reference energy to select bands
   IMIX   =      4    mixing-type and parameters
     AMIX     =   0.40;   BMIX     =  1.00
     AMIX_MAG =   1.60;   BMIX_MAG =  1.00
     AMIN     =   0.10
     WC   =   100.;   INIMIX=   1;  MIXPRE=   1;  MAXMIX= -45

 Intra band minimization:
   WEIMIN = 0.0000     energy-eigenvalue tresh-hold
   EBREAK =  0.52E-07  absolut break condition
   DEPER  =   0.30     relativ break condition  

   TIME   =   0.40     timestep for ELM

  volume/ion in A,a.u.               =      27.29       184.17
  Fermi-wavevector in a.u.,A,eV,Ry     =   1.209289  2.285225 19.896891  1.462380
  Thomas-Fermi vector in A             =   2.344871
 
 Write flags
   LWAVE        =      F    write WAVECAR
   LDOWNSAMPLE  =      F    k-point downsampling of WAVECAR
   LCHARG       =      F    write CHGCAR
   LVTOT        =      F    write LOCPOT, total local potential
   LVHAR        =      F    write LOCPOT, Hartree potential only
   LELF         =      F    write electronic localiz. function (ELF)
   LORBIT       =      0    0 simple, 1 ext, 2 COOP (PROOUT), +10 PAW based schemes


 Dipole corrections
   LMONO  =      F    monopole corrections only (constant potential shift)
   LDIPOL =      F    correct potential (dipole corrections)
   IDIPOL =      0    1-x, 2-y, 3-z, 4-all directions 
   EPSILON=  1.0000000 bulk dielectric constant

 Exchange correlation treatment:
   GGA     =    --    GGA type
   LEXCH   =     8    internal setting for exchange type
   VOSKOWN=      0    Vosko Wilk Nusair interpolation
   LHFCALC =     F    Hartree Fock is set to
   LHFONE  =     F    Hartree Fock one center treatment
   AEXX    =    0.0000 exact exchange contribution

 Linear response parameters
   LEPSILON=     F    determine dielectric tensor
   LRPA    =     F    only Hartree local field effects (RPA)
   LNABLA  =     F    use nabla operator in PAW spheres
   LVEL    =     F    velocity operator in full k-point grid
   LINTERFAST=   F  fast interpolation
   KINTER  =     0    interpolate to denser k-point grid
   CSHIFT  =0.1000    complex shift for real part using Kramers Kronig
   OMEGAMAX=  -1.0    maximum frequency
   DEG_THRESHOLD= 0.2000000E-02 threshold for treating states as degnerate
   RTIME   =   -0.100 relaxation time in fs
  (WPLASMAI=    0.000 imaginary part of plasma frequency in eV, 0.658/RTIME)
   DFIELD  = 0.0000000 0.0000000 0.0000000 field for delta impulse in time
 
 Orbital magnetization related:
   ORBITALMAG=     F  switch on orbital magnetization
   LCHIMAG   =     F  perturbation theory with respect to B field
   DQ        =  0.001000  dq finite difference perturbation B field
   LLRAUG    =     F  two centre corrections for induced B field



--------------------------------------------------------------------------------------------------------


 Static calculation
 charge density and potential will be updated during run
 non-spin polarized calculation
 Variant of blocked Davidson
 Davidson routine will perform the subspace rotation
 perform sub-space diagonalisation
    after iterative eigenvector-optimisation
 modified Broyden-mixing scheme, WC =      100.0
 initial mixing is a Kerker type mixing with AMIX =  0.4000 and BMIX =      1.0000
 Hartree-type preconditioning will be used
 using additional bands           84
 real space projection scheme for non local part
 use partial core corrections
 calculate Harris-corrections to forces 
   (improved forces if not selfconsistent)
 use gradient corrections 
 use of overlap-Matrix (Vanderbilt PP)
 Gauss-broadening in eV      SIGMA  =   0.20


--------------------------------------------------------------------------------------------------------


  energy-cutoff  :      450.00
  volume of cell :     1964.98
      direct lattice vectors                 reciprocal lattice vectors
     9.425102554  3.573298043  0.000000000     0.106099641  0.000000000  0.000000000
     0.000000000 10.079732985  0.000000000    -0.037612667  0.099208977  0.000000000
     0.000000000  0.000000000 20.683503555     0.000000000  0.000000000  0.048347708

  length of vectors
    10.079732985 10.079732985 20.683503555     0.106099641  0.106099641  0.048347708


 
 k-points in units of 2pi/SCALE and weight: gamma-point-only calculation. no periodi
   0.00000000  0.00000000  0.00000000       1.000
 
 k-points in reciprocal lattice and weights: gamma-point-only calculation. no periodi
   0.00000000  0.00000000  0.00000000       1.000
 
 position of ions in fractional coordinates (direct lattice) 
   0.39705889  0.79495179  0.11816221
   0.54732740  0.64468328  0.24509923
   0.69759592  0.49441477  0.37203625
   0.84786443  0.34414625  0.49897328
   0.11381506  0.41152895  0.16047455
   0.26408357  0.26126044  0.28741157
   0.41435209  0.11099193  0.41434860
   0.13110826  0.72756909  0.45666094
   0.68030272  0.17837463  0.07584987
   0.83057123  0.02810612  0.20278689
   0.98083974  0.87783760  0.32972391
   0.35735705  0.57044763  0.08462468
   0.50762556  0.42017912  0.21156171
   0.65789407  0.26991061  0.33849873
   0.80816258  0.11964210  0.46543576
   0.07411322  0.18702480  0.12693702
   0.22438173  0.03675628  0.25387405
   0.37465024  0.88648777  0.38081107
   0.52491876  0.73621926  0.50774810
   0.92384471  0.33729331  0.00000000
   0.64060088  0.95387047  0.04231234
   0.79086939  0.80360196  0.16924937
   0.94113790  0.65333345  0.29618639
   0.03266674  0.15934394  0.43189823
   0.58186121  0.61014948  0.05108716
   0.73212972  0.45988096  0.17802418
   0.88239823  0.30961245  0.30496121
   0.29861738  0.22672664  0.09339950
   0.44888589  0.07645813  0.22033653
   0.59915440  0.92618961  0.34727355
   0.74942291  0.77592110  0.47421057
   0.01537355  0.84330380  0.13571184
   0.16564206  0.69303529  0.26264887
   0.31591057  0.54276678  0.38958589
   0.46617908  0.39249826  0.51652292
   0.86510503  0.99357231  0.00877482
   0.03660483  0.95519385  0.48928282
   0.58579929  0.40599939  0.10847175
   0.73606780  0.25573088  0.23540877
   0.88633632  0.10546237  0.36234580
   0.15228695  0.17284506  0.02384707
   0.30255546  0.02257655  0.15078409
   0.45282398  0.87230804  0.27772111
   0.60309249  0.72203953  0.40465814
   0.01931163  0.63915371  0.19309643
   0.16958015  0.48888520  0.32003346
   0.31984866  0.33861669  0.44697048
   0.86904312  0.78942223  0.06615941
   0.48608562  0.84214307  0.02424015
   0.63635413  0.69187455  0.15117717
   0.78662264  0.54160604  0.27811420
   0.93689115  0.39133753  0.40505122
   0.20284179  0.45872023  0.06655249
   0.35311030  0.30845172  0.19348951
   0.50337881  0.15818320  0.32042654
   0.65364732  0.00791469  0.44736356
   0.06986647  0.92502888  0.23580185
   0.22013498  0.77476037  0.36273888
   0.37040349  0.62449185  0.48967590
   0.91959796  0.07529739  0.10886483
   0.20021045  0.79158823  0.06694557
   0.35047896  0.64131972  0.19388259
   0.50074747  0.49105121  0.32081962
   0.65101599  0.34078269  0.44775664
   0.06723513  0.25789688  0.23619494
   0.21750365  0.10762837  0.36313196
   0.36777216  0.95735986  0.49006899
   0.91696662  0.40816539  0.10925791
   0.48345428  0.17501107  0.02463323
   0.63372279  0.02474256  0.15157025
   0.78399130  0.87447404  0.27850728
   0.93425982  0.72420553  0.40544430
 
 position of ions in cartesian coordinates  (Angst):
   3.74232076  9.43171154  2.44400841
   5.15861689  8.45399925  5.06951082
   6.57491304  7.47628694  7.69501320
   7.99120918  6.49857465 10.32051559
   1.07271862  4.55479711  3.31917588
   2.48901476  3.57708480  5.94467827
   3.90531090  2.59937251  8.57018066
   1.23570876  7.80219104  9.44534813
   6.41192289  4.22889300  1.56884095
   7.82821904  3.25118070  4.19434334
   9.24451518 12.35320139  6.81984575
   3.36812682  7.02690307  1.75033493
   4.78442296  6.04919077  4.37583732
   6.20071910  5.07147847  7.00133973
   7.61701524  4.09376616  9.62684211
   0.69852468  2.14998862  2.62550239
   2.11482083  1.17227633  5.25100480
   3.53111696 10.27429701  7.87650718
   4.94741310  9.29658471 10.50200957
   8.70733110  6.70099896  0.00000000
   6.03772896 11.90381751  0.87516746
   7.45402510 10.92610521  3.50066986
   8.87032123  9.94839291  6.12617225
   0.30788739  1.72287236  8.93316862
   5.48410153  8.22930730  1.05666143
   6.90039767  7.25159501  3.68216384
   8.31669381  6.27388270  6.30766623
   2.81449939  3.35239287  1.93182891
   4.23079553  2.37468056  4.55733130
   5.64709167 11.47670125  7.18283371
   7.06338781 10.49898894  9.80833609
   0.14489725  8.55521140  2.80699637
   1.56119339  7.57749911  5.43249877
   2.97748953  6.59978680  8.05800116
   4.39378567  5.62207451 10.68350355
   8.15370366 13.10622175  0.18149398
   0.34500427  9.75889894 10.12008299
   5.52121840  6.18560090  2.24357581
   6.93751454  5.20788860  4.86907821
   8.35381068  4.23017630  7.49458060
   1.43532012  2.28639875  0.49324087
   2.85161626  1.30868646  3.11874328
   4.26791240 10.41070715  5.74424567
   5.68420854  9.43299484  8.36974806
   0.18201412  6.51150499  3.99391074
   1.59831027  5.53379270  6.61941312
   3.01460640  4.55608040  9.24491553
   8.19082054 11.06251534  1.36840835
   4.58140677 10.22550602  0.50137119
   5.99770291  9.24779372  3.12687357
   7.41399905  8.27008142  5.75237598
   8.83029519  7.29236912  8.37787837
   1.91180464  5.34859158  1.37653864
   3.32810077  4.37087927  4.00204105
   4.74439691  3.39316698  6.62754344
   6.16069305  2.41545467  9.25304583
   0.65849864  9.57369782  4.87720851
   2.07479477  8.59598551  7.50271091
   3.49109092  7.61827322 10.12821330
   8.66730504  4.04497517  2.25170612
   1.88700402  8.69440961  1.38466896
   3.30330017  7.71669731  4.01017134
   4.71959631  6.73898501  6.63567375
   6.13589245  5.76127271  9.26117614
   0.63369803  2.83978287  4.88533882
   2.04999417  1.86207056  7.51084121
   3.46629031 10.96409125 10.13634361
   8.64250444  7.39079321  2.25983643
   4.55660617  3.49159107  0.50950150
   5.97290231  2.51387877  3.13500389
   7.38919844 11.61589945  5.76050627
   8.80549459 10.63818715  8.38600868
 


--------------------------------------------------------------------------------------------------------


 use parallel FFT for orbitals z direction half grid
 k-point   1 :   0.0000 0.0000 0.0000  plane waves:   21301

 maximum and minimum number of plane-waves per node :      3554     3548

 maximum number of plane-waves:     21301
 maximum index in each direction: 
   IXMAX=   17   IYMAX=   17   IZMAX=   35
   IXMIN=  -17   IYMIN=  -17   IZMIN=    0


 real space projection operators:
  total allocation   :      11160.19 KBytes
  max/ min on nodes  :       1861.81       1857.72


 parallel 3D FFT for wavefunctions:
    minimum data exchange during FFTs selected (reduces bandwidth)
 parallel 3D FFT for charge:
    minimum data exchange during FFTs selected (reduces bandwidth)


 total amount of memory used by VASP MPI-rank0    45296. kBytes
=======================================================================

   base      :      30000. kBytes
   nonlr-proj:       2282. kBytes
   fftplans  :       3383. kBytes
   grid      :       6052. kBytes
   one-center:         93. kBytes
   wavefun   :       3486. kBytes
 
     INWAV:  cpu time    0.0000: real time    0.0000
 Broyden mixing: mesh for mixing (old mesh)
   NGX = 35   NGY = 35   NGZ = 71
  (NGX  =108   NGY  =108   NGZ  =216)
  gives a total of  86975 points

 initial charge density was supplied:
 charge density of overlapping atoms calculated
 number of electron     792.0000000 magnetization 
 keeping initial charge density in first step


--------------------------------------------------------------------------------------------------------


 Maximum index for non-local projection operator          302
 Maximum index for augmentation-charges          468 (set IRDMAX)


--------------------------------------------------------------------------------------------------------


 First call to EWALD:  gamma=   0.142
 Maximum number of real-space cells 3x 3x 2
 Maximum number of reciprocal cells 2x 2x 4

    FEWALD:  cpu time    0.0029: real time    0.0029


--------------------------------------- Iteration      1(   1)  ---------------------------------------


    POTLOK:  cpu time    0.0446: real time    0.0480
    SETDIJ:  cpu time    0.0048: real time    0.0066
     EDDAV:  cpu time    2.1048: real time    2.1119
       DOS:  cpu time    0.0009: real time    0.0009
    --------------------------------------------
      LOOP:  cpu time    2.1551: real time    2.1674

 eigenvalue-minimisations  :  1184
 total energy-change (2. order) : 0.9701371E+04  (-0.5081219E+05)
 number of electron     792.0000000 magnetization 
 augmentation part      792.0000000 magnetization 

 Free energy of the ion-electron system (eV)
  ---------------------------------------------------
  alpha Z        PSCENC =      1893.09323658
  Ewald energy   TEWEN  =    162028.50849812
  -Hartree energ DENC   =   -284608.69590308
  -exchange      EXHF   =         0.00000000
  -V(xc)+E(xc)   XCENC  =      3651.43388878
  PAW double counting   =    112729.53333415  -117641.51188735
  entropy T*S    EENTRO =        -0.32508780
  eigenvalues    EBANDS =     -4353.27002442
  atomic energy  EATOM  =    136002.60505376
  Solvation  Ediel_sol  =         0.00000000
  ---------------------------------------------------
  free energy    TOTEN  =      9701.37110873 eV

  energy without entropy =     9701.69619653  energy(sigma->0) =     9701.53365263


--------------------------------------------------------------------------------------------------------




--------------------------------------- Iteration      1(   2)  ---------------------------------------


     EDDAV:  cpu time    1.8412: real time    1.8495
       DOS:  cpu time    0.0011: real time    0.0010
    --------------------------------------------
      LOOP:  cpu time    1.8423: real time    1.8505

 eigenvalue-minimisations  :  1016
 total energy-change (2. order) :-0.9106708E+04  (-0.8785250E+04)
 number of electron     792.0000000 magnetization 
 augmentation part      792.0000000 magnetization 

 Free energy of the ion-electron system (eV)
  ---------------------------------------------------
  alpha Z        PSCENC =      1893.09323658
  Ewald energy   TEWEN  =    162028.50849812
  -Hartree energ DENC   =   -284608.69590308
  -exchange      EXHF   =         0.00000000
  -V(xc)+E(xc)   XCENC  =      3651.43388878
  PAW double counting   =    112729.53333415  -117641.51188735
  entropy T*S    EENTRO =        -0.74894911
  eigenvalues    EBANDS =    -13459.55409567
  atomic energy  EATOM  =    136002.60505376
  Solvation  Ediel_sol  =         0.00000000
  ---------------------------------------------------
  free energy    TOTEN  =       594.66317617 eV

  energy without entropy =      595.41212528  energy(sigma->0) =      595.03765073


--------------------------------------------------------------------------------------------------------




--------------------------------------- Iteration      1(   3)  ---------------------------------------


     EDDAV:  cpu time    1.9749: real time    1.9797
       DOS:  cpu time    0.0011: real time    0.0011
    --------------------------------------------
      LOOP:  cpu time    1.9760: real time    1.9808

 eigenvalue-minimisations  :  1112
 total energy-change (2. order) :-0.9373266E+03  (-0.8844964E+03)
 number of electron     792.0000000 magnetization 
 augmentation part      792.0000000 magnetization 

 Free energy of the ion-electron system (eV)
  ---------------------------------------------------
  alpha Z        PSCENC =      1893.09323658
  Ewald energy   TEWEN  =    162028.50849812
  -Hartree energ DENC   =   -284608.69590308
  -exchange      EXHF   =         0.00000000
  -V(xc)+E(xc)   XCENC  =      3651.43388878
  PAW double counting   =    112729.53333415  -117641.51188735
  entropy T*S    EENTRO =        -1.24643398
  eigenvalues    EBANDS =    -14396.38317358
  atomic energy  EATOM  =    136002.60505376
  Solvation  Ediel_sol  =         0.00000000
  ---------------------------------------------------
  free energy    TOTEN  =      -342.66338661 eV

  energy without entropy =     -341.41695263  energy(sigma->0) =     -342.04016962


--------------------------------------------------------------------------------------------------------




--------------------------------------- Iteration      1(   4)  ---------------------------------------


     EDDAV:  cpu time    2.0331: real time    2.0396
       DOS:  cpu time    0.0011: real time    0.0011
    --------------------------------------------
      LOOP:  cpu time    2.0342: real time    2.0407

 eigenvalue-minimisations  :  1136
 total energy-change (2. order) :-0.6034013E+02  (-0.5959389E+02)
 number of electron     792.0000000 magnetization 
 augmentation part      792.0000000 magnetization 

 Free energy of the ion-electron system (eV)
  ---------------------------------------------------
  alpha Z        PSCENC =      1893.09323658
  Ewald energy   TEWEN  =    162028.50849812
  -Hartree energ DENC   =   -284608.69590308
  -exchange      EXHF   =         0.00000000
  -V(xc)+E(xc)   XCENC  =      3651.43388878
  PAW double counting   =    112729.53333415  -117641.51188735
  entropy T*S    EENTRO =        -1.30615605
  eigenvalues    EBANDS =    -14456.66357988
  atomic energy  EATOM  =    136002.60505376
  Solvation  Ediel_sol  =         0.00000000
  ---------------------------------------------------
  free energy    TOTEN  =      -403.00351497 eV

  energy without entropy =     -401.69735893  energy(sigma->0) =     -402.35043695


--------------------------------------------------------------------------------------------------------




--------------------------------------- Iteration      1(   5)  ---------------------------------------


     EDDAV:  cpu time    2.1694: real time    2.1768
       DOS:  cpu time    0.0011: real time    0.0011
    CHARGE:  cpu time    0.0442: real time    0.0444
    MIXING:  cpu time    0.0025: real time    0.0028
    --------------------------------------------
      LOOP:  cpu time    2.2172: real time    2.2251

 eigenvalue-minimisations  :  1256
 total energy-change (2. order) :-0.2232121E+01  (-0.2228810E+01)
 number of electron     792.0000276 magnetization 
 augmentation part      286.3930534 magnetization 

 Broyden mixing:
  rms(total) = 0.81964E+01    rms(broyden)= 0.81818E+01
  rms(prec ) = 0.86060E+01
  weight for this iteration     100.00

 Free energy of the ion-electron system (eV)
  ---------------------------------------------------
  alpha Z        PSCENC =      1893.09323658
  Ewald energy   TEWEN  =    162028.50849812
  -Hartree energ DENC   =   -284608.69590308
  -exchange      EXHF   =         0.00000000
  -V(xc)+E(xc)   XCENC  =      3651.43388878
  PAW double counting   =    112729.53333415  -117641.51188735
  entropy T*S    EENTRO =        -1.29264795
  eigenvalues    EBANDS =    -14458.90920879
  atomic energy  EATOM  =    136002.60505376
  Solvation  Ediel_sol  =         0.00000000
  ---------------------------------------------------
  free energy    TOTEN  =      -405.23563579 eV

  energy without entropy =     -403.94298784  energy(sigma->0) =     -404.58931181


--------------------------------------------------------------------------------------------------------




--------------------------------------- Iteration      1(   6)  ---------------------------------------


    POTLOK:  cpu time    0.0434: real time    0.0435
    SETDIJ:  cpu time    0.0045: real time    0.0063
     EDDAV:  cpu time    2.0512: real time    2.0561
       DOS:  cpu time    0.0006: real time    0.0006
    CHARGE:  cpu time    0.0378: real time    0.0379
    MIXING:  cpu time    0.0020: real time    0.0021
    --------------------------------------------
      LOOP:  cpu time    2.1396: real time    2.1466

 eigenvalue-minimisations  :  1176
 total energy-change (2. order) :-0.7960661E+02  (-0.9642890E+02)
 number of electron     792.0000338 magnetization 
 augmentation part      352.1917301 magnetization 

 Broyden mixing:
  rms(total) = 0.15407E+02    rms(broyden)= 0.15404E+02
  rms(prec ) = 0.16016E+02
  weight for this iteration     100.00

 eigenvalues of (default mixing * dielectric matrix)
  average eigenvalue GAMMA=   0.2333
  0.2333

 Free energy of the ion-electron system (eV)
  ---------------------------------------------------
  alpha Z        PSCENC =      1893.09323658
  Ewald energy   TEWEN  =    162028.50849812
  -Hartree energ DENC   =   -281927.52342847
  -exchange      EXHF   =         0.00000000
  -V(xc)+E(xc)   XCENC  =      3574.94525857
  PAW double counting   =    114544.30266149  -119217.61273450
  entropy T*S    EENTRO =        -0.91886437
  eigenvalues    EBANDS =    -17382.24193028
  atomic energy  EATOM  =    136002.60505376
  Solvation  Ediel_sol  =         0.00000000
  ---------------------------------------------------
  free energy    TOTEN  =      -484.84224910 eV

  energy without entropy =     -483.92338474  energy(sigma->0) =     -484.38281692


--------------------------------------------------------------------------------------------------------




--------------------------------------- Iteration      1(   7)  ---------------------------------------


    POTLOK:  cpu time    0.0427: real time    0.0428
    SETDIJ:  cpu time    0.0049: real time    0.0049
     EDDAV:  cpu time    2.0151: real time    2.0199
       DOS:  cpu time    0.0006: real time    0.0006
    CHARGE:  cpu time    0.0382: real time    0.0383
    MIXING:  cpu time    0.0016: real time    0.0016
    --------------------------------------------
      LOOP:  cpu time    2.1031: real time    2.1082

 eigenvalue-minimisations  :  1136
 total energy-change (2. order) : 0.1111872E+03  (-0.1761091E+02)
 number of electron     792.0000317 magnetization 
 augmentation part      331.5567453 magnetization 

 Broyden mixing:
  rms(total) = 0.60776E+01    rms(broyden)= 0.60760E+01
  rms(prec ) = 0.64111E+01
  weight for this iteration     100.00

 eigenvalues of (default mixing * dielectric matrix)
  average eigenvalue GAMMA=   0.5165
  0.5165  0.5165

 Free energy of the ion-electron system (eV)
  ---------------------------------------------------
  alpha Z        PSCENC =      1893.09323658
  Ewald energy   TEWEN  =    162028.50849812
  -Hartree energ DENC   =   -283150.31223330
  -exchange      EXHF   =         0.00000000
  -V(xc)+E(xc)   XCENC  =      3604.47613914
  PAW double counting   =    118685.25103290  -123505.38061346
  entropy T*S    EENTRO =        -0.89916607
  eigenvalues    EBANDS =    -15930.99698300
  atomic energy  EATOM  =    136002.60505376
  Solvation  Ediel_sol  =         0.00000000
  ---------------------------------------------------
  free energy    TOTEN  =      -373.65503533 eV

  energy without entropy =     -372.75586926  energy(sigma->0) =     -373.20545230


--------------------------------------------------------------------------------------------------------




--------------------------------------- Iteration      1(   8)  ---------------------------------------


    POTLOK:  cpu time    0.0430: real time    0.0431
    SETDIJ:  cpu time    0.0049: real time    0.0049
     EDDAV:  cpu time    2.2624: real time    2.2705
       DOS:  cpu time    0.0006: real time    0.0006
    CHARGE:  cpu time    0.0378: real time    0.0379
    MIXING:  cpu time    0.0018: real time    0.0018
    --------------------------------------------
      LOOP:  cpu time    2.3504: real time    2.3587

 eigenvalue-minimisations  :  1304
 total energy-change (2. order) :-0.1266520E+03  (-0.1419033E+02)
 number of electron     792.0000300 magnetization 
 augmentation part      304.1552678 magnetization 

 Broyden mixing:
  rms(total) = 0.17000E+02    rms(broyden)= 0.16997E+02
  rms(prec ) = 0.21360E+02
  weight for this iteration     100.00

 eigenvalues of (default mixing * dielectric matrix)
  average eigenvalue GAMMA=   0.4247
  0.7229  0.4539  0.0973

 Free energy of the ion-electron system (eV)
  ---------------------------------------------------
  alpha Z        PSCENC =      1893.09323658
  Ewald energy   TEWEN  =    162028.50849812
  -Hartree energ DENC   =   -283669.93030898
  -exchange      EXHF   =         0.00000000
  -V(xc)+E(xc)   XCENC  =      3626.06143498
  PAW double counting   =    124002.90231137  -128929.14485384
  entropy T*S    EENTRO =        -0.68048705
  eigenvalues    EBANDS =    -15453.72191489
  atomic energy  EATOM  =    136002.60505376
  Solvation  Ediel_sol  =         0.00000000
  ---------------------------------------------------
  free energy    TOTEN  =      -500.30702996 eV

  energy without entropy =     -499.62654291  energy(sigma->0) =     -499.96678643


--------------------------------------------------------------------------------------------------------




--------------------------------------- Iteration      1(   9)  ---------------------------------------


    POTLOK:  cpu time    0.0429: real time    0.0452
    SETDIJ:  cpu time    0.0044: real time    0.0062
     EDDAV:  cpu time    2.1116: real time    2.1167
       DOS:  cpu time    0.0006: real time    0.0006
    CHARGE:  cpu time    0.0381: real time    0.0382
    MIXING:  cpu time    0.0018: real time    0.0018
    --------------------------------------------
      LOOP:  cpu time    2.1994: real time    2.2088

 eigenvalue-minimisations  :  1216
 total energy-change (2. order) : 0.1275139E+03  (-0.1607906E+02)
 number of electron     792.0000236 magnetization 
 augmentation part      307.5668107 magnetization 

 Broyden mixing:
  rms(total) = 0.73587E+01    rms(broyden)= 0.73510E+01
  rms(prec ) = 0.84165E+01
  weight for this iteration     100.00

 eigenvalues of (default mixing * dielectric matrix)
  average eigenvalue GAMMA=   0.3989
  0.9114  0.3962  0.2065  0.0814

 Free energy of the ion-electron system (eV)
  ---------------------------------------------------
  alpha Z        PSCENC =      1893.09323658
  Ewald energy   TEWEN  =    162028.50849812
  -Hartree energ DENC   =   -283809.14341870
  -exchange      EXHF   =         0.00000000
  -V(xc)+E(xc)   XCENC  =      3626.28223759
  PAW double counting   =    125689.68140524  -130631.38263454
  entropy T*S    EENTRO =        -1.26798882
  eigenvalues    EBANDS =    -15171.16952975
  atomic energy  EATOM  =    136002.60505376
  Solvation  Ediel_sol  =         0.00000000
  ---------------------------------------------------
  free energy    TOTEN  =      -372.79314054 eV

  energy without entropy =     -371.52515171  energy(sigma->0) =     -372.15914612


--------------------------------------------------------------------------------------------------------




--------------------------------------- Iteration      1(  10)  ---------------------------------------


    POTLOK:  cpu time    0.0421: real time    0.0422
    SETDIJ:  cpu time    0.0049: real time    0.0049
     EDDAV:  cpu time    2.2458: real time    2.2513
       DOS:  cpu time    0.0006: real time    0.0006
    CHARGE:  cpu time    0.0381: real time    0.0382
    MIXING:  cpu time    0.0019: real time    0.0019
    --------------------------------------------
      LOOP:  cpu time    2.3335: real time    2.3392

 eigenvalue-minimisations  :  1312
 total energy-change (2. order) : 0.4265642E+00  (-0.6215043E+01)
 number of electron     792.0000322 magnetization 
 augmentation part      307.6395138 magnetization 

 Broyden mixing:
  rms(total) = 0.47075E+01    rms(broyden)= 0.47038E+01
  rms(prec ) = 0.51745E+01
  weight for this iteration     100.00

 eigenvalues of (default mixing * dielectric matrix)
  average eigenvalue GAMMA=   0.5191
  1.5809  0.4066  0.4066  0.1006  0.1006

 Free energy of the ion-electron system (eV)
  ---------------------------------------------------
  alpha Z        PSCENC =      1893.09323658
  Ewald energy   TEWEN  =    162028.50849812
  -Hartree energ DENC   =   -283906.85613589
  -exchange      EXHF   =         0.00000000
  -V(xc)+E(xc)   XCENC  =      3625.40757888
  PAW double counting   =    126960.17982887  -131912.53550972
  entropy T*S    EENTRO =        -1.04804254
  eigenvalues    EBANDS =    -15061.72108437
  atomic energy  EATOM  =    136002.60505376
  Solvation  Ediel_sol  =         0.00000000
  ---------------------------------------------------
  free energy    TOTEN  =      -372.36657632 eV

  energy without entropy =     -371.31853378  energy(sigma->0) =     -371.84255505


--------------------------------------------------------------------------------------------------------




--------------------------------------- Iteration      1(  11)  ---------------------------------------


    POTLOK:  cpu time    0.0425: real time    0.0426
    SETDIJ:  cpu time    0.0048: real time    0.0048
     EDDAV:  cpu time    2.3037: real time    2.3092
       DOS:  cpu time    0.0010: real time    0.0010
    CHARGE:  cpu time    0.0381: real time    0.0382
    MIXING:  cpu time    0.0019: real time    0.0019
    --------------------------------------------
      LOOP:  cpu time    2.3920: real time    2.3978

 eigenvalue-minimisations  :  1360
 total energy-change (2. order) :-0.2396482E+01  (-0.2668819E+01)
 number of electron     792.0000292 magnetization 
 augmentation part      307.5734357 magnetization 

 Broyden mixing:
  rms(total) = 0.75274E+01    rms(broyden)= 0.75243E+01
  rms(prec ) = 0.92934E+01
  weight for this iteration     100.00

 eigenvalues of (default mixing * dielectric matrix)
  average eigenvalue GAMMA=   0.4802
  1.7459  0.4066  0.4066  0.1217  0.1217  0.0784

 Free energy of the ion-electron system (eV)
  ---------------------------------------------------
  alpha Z        PSCENC =      1893.09323658
  Ewald energy   TEWEN  =    162028.50849812
  -Hartree energ DENC   =   -283821.00002678
  -exchange      EXHF   =         0.00000000
  -V(xc)+E(xc)   XCENC  =      3623.41353641
  PAW double counting   =    130056.37413936  -135031.26715842
  entropy T*S    EENTRO =        -1.28726660
  eigenvalues    EBANDS =    -15125.20307034
  atomic energy  EATOM  =    136002.60505376
  Solvation  Ediel_sol  =         0.00000000
  ---------------------------------------------------
  free energy    TOTEN  =      -374.76305793 eV

  energy without entropy =     -373.47579133  energy(sigma->0) =     -374.11942463


--------------------------------------------------------------------------------------------------------




--------------------------------------- Iteration      1(  12)  ---------------------------------------


    POTLOK:  cpu time    0.0421: real time    0.0422
    SETDIJ:  cpu time    0.0049: real time    0.0049
     EDDAV:  cpu time    2.2357: real time    2.2410
       DOS:  cpu time    0.0010: real time    0.0010
    CHARGE:  cpu time    0.0380: real time    0.0381
    MIXING:  cpu time    0.0020: real time    0.0020
    --------------------------------------------
      LOOP:  cpu time    2.3238: real time    2.3294

 eigenvalue-minimisations  :  1312
 total energy-change (2. order) : 0.1025706E+02  (-0.3661074E+01)
 number of electron     792.0000325 magnetization 
 augmentation part      311.4520963 magnetization 

 Broyden mixing:
  rms(total) = 0.33478E+01    rms(broyden)= 0.33441E+01
  rms(prec ) = 0.38310E+01
  weight for this iteration     100.00

 eigenvalues of (default mixing * dielectric matrix)
  average eigenvalue GAMMA=   0.5093
  2.0500  0.4268  0.4268  0.3427  0.1439  0.0978  0.0771

 Free energy of the ion-electron system (eV)
  ---------------------------------------------------
  alpha Z        PSCENC =      1893.09323658
  Ewald energy   TEWEN  =    162028.50849812
  -Hartree energ DENC   =   -283847.12929843
  -exchange      EXHF   =         0.00000000
  -V(xc)+E(xc)   XCENC  =      3621.85903021
  PAW double counting   =    130911.09977599  -135888.72817240
  entropy T*S    EENTRO =        -0.94873884
  eigenvalues    EBANDS =    -15084.86538607
  atomic energy  EATOM  =    136002.60505376
  Solvation  Ediel_sol  =         0.00000000
  ---------------------------------------------------
  free energy    TOTEN  =      -364.50600109 eV

  energy without entropy =     -363.55726225  energy(sigma->0) =     -364.03163167


--------------------------------------------------------------------------------------------------------




--------------------------------------- Iteration      1(  13)  ---------------------------------------


    POTLOK:  cpu time    0.0426: real time    0.0427
    SETDIJ:  cpu time    0.0049: real time    0.0049
     EDDAV:  cpu time    2.2191: real time    2.2244
       DOS:  cpu time    0.0010: real time    0.0010
    CHARGE:  cpu time    0.0381: real time    0.0382
    MIXING:  cpu time    0.0021: real time    0.0021
    --------------------------------------------
      LOOP:  cpu time    2.3078: real time    2.3134

 eigenvalue-minimisations  :  1296
 total energy-change (2. order) : 0.1362855E+01  (-0.1481788E+01)
 number of electron     792.0000319 magnetization 
 augmentation part      312.1694611 magnetization 

 Broyden mixing:
  rms(total) = 0.39426E+01    rms(broyden)= 0.39399E+01
  rms(prec ) = 0.44216E+01
  weight for this iteration     100.00

 eigenvalues of (default mixing * dielectric matrix)
  average eigenvalue GAMMA=   0.4830
  2.1164  0.4363  0.4363  0.4055  0.1694  0.1108  0.1108  0.0783

 Free energy of the ion-electron system (eV)
  ---------------------------------------------------
  alpha Z        PSCENC =      1893.09323658
  Ewald energy   TEWEN  =    162028.50849812
  -Hartree energ DENC   =   -283810.73841618
  -exchange      EXHF   =         0.00000000
  -V(xc)+E(xc)   XCENC  =      3621.16147276
  PAW double counting   =    132106.36560031  -137093.77609905
  entropy T*S    EENTRO =        -1.07568131
  eigenvalues    EBANDS =    -15109.28681145
  atomic energy  EATOM  =    136002.60505376
  Solvation  Ediel_sol  =         0.00000000
  ---------------------------------------------------
  free energy    TOTEN  =      -363.14314647 eV

  energy without entropy =     -362.06746516  energy(sigma->0) =     -362.60530581


--------------------------------------------------------------------------------------------------------




--------------------------------------- Iteration      1(  14)  ---------------------------------------


    POTLOK:  cpu time    0.0421: real time    0.0422
    SETDIJ:  cpu time    0.0047: real time    0.0047
     EDDAV:  cpu time    2.2108: real time    2.2176
       DOS:  cpu time    0.0010: real time    0.0010
    CHARGE:  cpu time    0.0387: real time    0.0388
    MIXING:  cpu time    0.0025: real time    0.0025
    --------------------------------------------
      LOOP:  cpu time    2.2998: real time    2.3068

 eigenvalue-minimisations  :  1272
 total energy-change (2. order) : 0.3423239E+01  (-0.1477051E+01)
 number of electron     792.0000313 magnetization 
 augmentation part      313.4838366 magnetization 

 Broyden mixing:
  rms(total) = 0.24100E+01    rms(broyden)= 0.24074E+01
  rms(prec ) = 0.27838E+01
  weight for this iteration     100.00

 eigenvalues of (default mixing * dielectric matrix)
  average eigenvalue GAMMA=   0.4564
  2.0839  0.4549  0.4549  0.3363  0.3363  0.1322  0.1322  0.0993  0.0775

 Free energy of the ion-electron system (eV)
  ---------------------------------------------------
  alpha Z        PSCENC =      1893.09323658
  Ewald energy   TEWEN  =    162028.50849812
  -Hartree energ DENC   =   -283813.35613409
  -exchange      EXHF   =         0.00000000
  -V(xc)+E(xc)   XCENC  =      3620.89402265
  PAW double counting   =    132327.44983115  -137316.18213019
  entropy T*S    EENTRO =        -0.94315997
  eigenvalues    EBANDS =    -15101.78912591
  atomic energy  EATOM  =    136002.60505376
  Solvation  Ediel_sol  =         0.00000000
  ---------------------------------------------------
  free energy    TOTEN  =      -359.71990791 eV

  energy without entropy =     -358.77674794  energy(sigma->0) =     -359.24832792


--------------------------------------------------------------------------------------------------------




--------------------------------------- Iteration      1(  15)  ---------------------------------------


    POTLOK:  cpu time    0.0431: real time    0.0442
    SETDIJ:  cpu time    0.0045: real time    0.0063
     EDDAV:  cpu time    2.1595: real time    2.1646
       DOS:  cpu time    0.0010: real time    0.0010
    CHARGE:  cpu time    0.0381: real time    0.0382
    MIXING:  cpu time    0.0023: real time    0.0023
    --------------------------------------------
      LOOP:  cpu time    2.2484: real time    2.2566

 eigenvalue-minimisations  :  1256
 total energy-change (2. order) : 0.1983896E+01  (-0.3322642E+00)
 number of electron     792.0000316 magnetization 
 augmentation part      313.3160890 magnetization 

 Broyden mixing:
  rms(total) = 0.18649E+01    rms(broyden)= 0.18642E+01
  rms(prec ) = 0.21460E+01
  weight for this iteration     100.00

 eigenvalues of (default mixing * dielectric matrix)
  average eigenvalue GAMMA=   0.4536
  2.0082  0.5515  0.5515  0.3907  0.3907  0.1698  0.1698  0.1128  0.1128  0.0778

 Free energy of the ion-electron system (eV)
  ---------------------------------------------------
  alpha Z        PSCENC =      1893.09323658
  Ewald energy   TEWEN  =    162028.50849812
  -Hartree energ DENC   =   -283816.54718442
  -exchange      EXHF   =         0.00000000
  -V(xc)+E(xc)   XCENC  =      3621.42282927
  PAW double counting   =    132187.10712253  -137176.27978914
  entropy T*S    EENTRO =        -0.92381803
  eigenvalues    EBANDS =    -15096.72196071
  atomic energy  EATOM  =    136002.60505376
  Solvation  Ediel_sol  =         0.00000000
  ---------------------------------------------------
  free energy    TOTEN  =      -357.73601205 eV

  energy without entropy =     -356.81219402  energy(sigma->0) =     -357.27410304


--------------------------------------------------------------------------------------------------------




--------------------------------------- Iteration      1(  16)  ---------------------------------------


    POTLOK:  cpu time    0.0425: real time    0.0426
    SETDIJ:  cpu time    0.0049: real time    0.0049
     EDDAV:  cpu time    2.2284: real time    2.2337
       DOS:  cpu time    0.0010: real time    0.0010
    CHARGE:  cpu time    0.0419: real time    0.0420
    MIXING:  cpu time    0.0024: real time    0.0024
    --------------------------------------------
      LOOP:  cpu time    2.3212: real time    2.3267

 eigenvalue-minimisations  :  1304
 total energy-change (2. order) : 0.7627851E+00  (-0.1722819E+00)
 number of electron     792.0000304 magnetization 
 augmentation part      312.7885009 magnetization 

 Broyden mixing:
  rms(total) = 0.16160E+01    rms(broyden)= 0.16154E+01
  rms(prec ) = 0.18432E+01
  weight for this iteration     100.00

 eigenvalues of (default mixing * dielectric matrix)
  average eigenvalue GAMMA=   0.4512
  1.9734  0.6689  0.6689  0.4004  0.4004  0.2386  0.0777  0.1702  0.1053  0.1299
  0.1299

 Free energy of the ion-electron system (eV)
  ---------------------------------------------------
  alpha Z        PSCENC =      1893.09323658
  Ewald energy   TEWEN  =    162028.50849812
  -Hartree energ DENC   =   -283830.17555270
  -exchange      EXHF   =         0.00000000
  -V(xc)+E(xc)   XCENC  =      3621.97764215
  PAW double counting   =    131918.02634564  -136905.91308642
  entropy T*S    EENTRO =        -0.97434152
  eigenvalues    EBANDS =    -15084.12102256
  atomic energy  EATOM  =    136002.60505376
  Solvation  Ediel_sol  =         0.00000000
  ---------------------------------------------------
  free energy    TOTEN  =      -356.97322695 eV

  energy without entropy =     -355.99888544  energy(sigma->0) =     -356.48605619


--------------------------------------------------------------------------------------------------------




--------------------------------------- Iteration      1(  17)  ---------------------------------------


    POTLOK:  cpu time    0.0427: real time    0.0428
    SETDIJ:  cpu time    0.0048: real time    0.0048
     EDDAV:  cpu time    2.1635: real time    2.1687
       DOS:  cpu time    0.0011: real time    0.0011
    CHARGE:  cpu time    0.0419: real time    0.0420
    MIXING:  cpu time    0.0025: real time    0.0025
    --------------------------------------------
      LOOP:  cpu time    2.2565: real time    2.2619

 eigenvalue-minimisations  :  1256
 total energy-change (2. order) : 0.7821667E+00  (-0.9772759E-01)
 number of electron     792.0000307 magnetization 
 augmentation part      312.5367488 magnetization 

 Broyden mixing:
  rms(total) = 0.12471E+01    rms(broyden)= 0.12466E+01
  rms(prec ) = 0.14237E+01
  weight for this iteration     100.00

 eigenvalues of (default mixing * dielectric matrix)
  average eigenvalue GAMMA=   0.4966
  2.0058  0.9382  0.9382  0.4401  0.4401  0.3952  0.2005  0.0777  0.1482  0.1482
  0.1085  0.1180

 Free energy of the ion-electron system (eV)
  ---------------------------------------------------
  alpha Z        PSCENC =      1893.09323658
  Ewald energy   TEWEN  =    162028.50849812
  -Hartree energ DENC   =   -283840.15698785
  -exchange      EXHF   =         0.00000000
  -V(xc)+E(xc)   XCENC  =      3622.25881867
  PAW double counting   =    131741.70801062  -136728.04301544
  entropy T*S    EENTRO =        -0.95989142
  eigenvalues    EBANDS =    -15075.20478331
  atomic energy  EATOM  =    136002.60505376
  Solvation  Ediel_sol  =         0.00000000
  ---------------------------------------------------
  free energy    TOTEN  =      -356.19106028 eV

  energy without entropy =     -355.23116886  energy(sigma->0) =     -355.71111457


--------------------------------------------------------------------------------------------------------




--------------------------------------- Iteration      1(  18)  ---------------------------------------


    POTLOK:  cpu time    0.0431: real time    0.0432
    SETDIJ:  cpu time    0.0048: real time    0.0048
     EDDAV:  cpu time    2.2394: real time    2.2447
       DOS:  cpu time    0.0010: real time    0.0010
    CHARGE:  cpu time    0.0425: real time    0.0426
    MIXING:  cpu time    0.0026: real time    0.0026
    --------------------------------------------
      LOOP:  cpu time    2.3334: real time    2.3389

 eigenvalue-minimisations  :  1312
 total energy-change (2. order) : 0.3078499E+00  (-0.6603507E-01)
 number of electron     792.0000303 magnetization 
 augmentation part      312.2761992 magnetization 

 Broyden mixing:
  rms(total) = 0.10574E+01    rms(broyden)= 0.10567E+01
  rms(prec ) = 0.11990E+01
  weight for this iteration     100.00

 eigenvalues of (default mixing * dielectric matrix)
  average eigenvalue GAMMA=   0.5018
  2.0183  1.0992  1.0992  0.4551  0.4551  0.4304  0.2130  0.0777  0.1578  0.1578
  0.1072  0.1262  0.1262

 Free energy of the ion-electron system (eV)
  ---------------------------------------------------
  alpha Z        PSCENC =      1893.09323658
  Ewald energy   TEWEN  =    162028.50849812
  -Hartree energ DENC   =   -283851.67369239
  -exchange      EXHF   =         0.00000000
  -V(xc)+E(xc)   XCENC  =      3622.35404650
  PAW double counting   =    131586.94282311  -136570.32315190
  entropy T*S    EENTRO =        -1.01596890
  eigenvalues    EBANDS =    -15066.37405522
  atomic energy  EATOM  =    136002.60505376
  Solvation  Ediel_sol  =         0.00000000
  ---------------------------------------------------
  free energy    TOTEN  =      -355.88321035 eV

  energy without entropy =     -354.86724145  energy(sigma->0) =     -355.37522590


--------------------------------------------------------------------------------------------------------




--------------------------------------- Iteration      1(  19)  ---------------------------------------


    POTLOK:  cpu time    0.0430: real time    0.0431
    SETDIJ:  cpu time    0.0049: real time    0.0049
     EDDAV:  cpu time    2.2166: real time    2.2219
       DOS:  cpu time    0.0010: real time    0.0010
    CHARGE:  cpu time    0.0426: real time    0.0427
    MIXING:  cpu time    0.0026: real time    0.0026
    --------------------------------------------
      LOOP:  cpu time    2.3107: real time    2.3162

 eigenvalue-minimisations  :  1296
 total energy-change (2. order) : 0.2678951E+00  (-0.4151264E-01)
 number of electron     792.0000304 magnetization 
 augmentation part      312.2721628 magnetization 

 Broyden mixing:
  rms(total) = 0.82759E+00    rms(broyden)= 0.82717E+00
  rms(prec ) = 0.94366E+00
  weight for this iteration     100.00

 eigenvalues of (default mixing * dielectric matrix)
  average eigenvalue GAMMA=   0.5232
  2.0065  1.2808  1.2808  0.5004  0.5004  0.4036  0.4036  0.0777  0.1915  0.1734
  0.1080  0.1185  0.1398  0.1398

 Free energy of the ion-electron system (eV)
  ---------------------------------------------------
  alpha Z        PSCENC =      1893.09323658
  Ewald energy   TEWEN  =    162028.50849812
  -Hartree energ DENC   =   -283855.23430725
  -exchange      EXHF   =         0.00000000
  -V(xc)+E(xc)   XCENC  =      3622.32762681
  PAW double counting   =    131463.48259993  -136444.47852915
  entropy T*S    EENTRO =        -1.00184699
  eigenvalues    EBANDS =    -15064.91764702
  atomic energy  EATOM  =    136002.60505376
  Solvation  Ediel_sol  =         0.00000000
  ---------------------------------------------------
  free energy    TOTEN  =      -355.61531521 eV

  energy without entropy =     -354.61346822  energy(sigma->0) =     -355.11439172


--------------------------------------------------------------------------------------------------------




--------------------------------------- Iteration      1(  20)  ---------------------------------------


    POTLOK:  cpu time    0.0429: real time    0.0430
    SETDIJ:  cpu time    0.0047: real time    0.0047
     EDDAV:  cpu time    2.2280: real time    2.2333
       DOS:  cpu time    0.0011: real time    0.0011
    CHARGE:  cpu time    0.0426: real time    0.0427
    MIXING:  cpu time    0.0027: real time    0.0027
    --------------------------------------------
      LOOP:  cpu time    2.3220: real time    2.3275

 eigenvalue-minimisations  :  1304
 total energy-change (2. order) : 0.1097522E+00  (-0.2083295E-01)
 number of electron     792.0000301 magnetization 
 augmentation part      312.2084302 magnetization 

 Broyden mixing:
  rms(total) = 0.69821E+00    rms(broyden)= 0.69783E+00
  rms(prec ) = 0.79173E+00
  weight for this iteration     100.00

 eigenvalues of (default mixing * dielectric matrix)
  average eigenvalue GAMMA=   0.5550
  1.9870  1.5609  1.5609  0.6122  0.6122  0.4360  0.4360  0.2211  0.0777  0.1685
  0.1467  0.1467  0.1079  0.1197  0.1315

 Free energy of the ion-electron system (eV)
  ---------------------------------------------------
  alpha Z        PSCENC =      1893.09323658
  Ewald energy   TEWEN  =    162028.50849812
  -Hartree energ DENC   =   -283862.13123249
  -exchange      EXHF   =         0.00000000
  -V(xc)+E(xc)   XCENC  =      3622.37881102
  PAW double counting   =    131274.54793819  -136252.91380439
  entropy T*S    EENTRO =        -1.04411340
  eigenvalues    EBANDS =    -15060.54995036
  atomic energy  EATOM  =    136002.60505376
  Solvation  Ediel_sol  =         0.00000000
  ---------------------------------------------------
  free energy    TOTEN  =      -355.50556298 eV

  energy without entropy =     -354.46144958  energy(sigma->0) =     -354.98350628


--------------------------------------------------------------------------------------------------------




--------------------------------------- Iteration      1(  21)  ---------------------------------------


    POTLOK:  cpu time    0.0429: real time    0.0430
    SETDIJ:  cpu time    0.0049: real time    0.0049
     EDDAV:  cpu time    2.3305: real time    2.3361
       DOS:  cpu time    0.0010: real time    0.0010
    CHARGE:  cpu time    0.0380: real time    0.0381
    MIXING:  cpu time    0.0028: real time    0.0028
    --------------------------------------------
      LOOP:  cpu time    2.4201: real time    2.4259

 eigenvalue-minimisations  :  1376
 total energy-change (2. order) : 0.7634463E-01  (-0.2762833E-01)
 number of electron     792.0000295 magnetization 
 augmentation part      312.1594084 magnetization 

 Broyden mixing:
  rms(total) = 0.60826E+00    rms(broyden)= 0.60751E+00
  rms(prec ) = 0.70873E+00
  weight for this iteration     100.00

 eigenvalues of (default mixing * dielectric matrix)
  average eigenvalue GAMMA=   0.5683
  1.9602  1.6835  1.6835  0.7264  0.7264  0.4358  0.4358  0.3757  0.1910  0.0777
  0.1540  0.1454  0.1436  0.1080  0.1280  0.1170

 Free energy of the ion-electron system (eV)
  ---------------------------------------------------
  alpha Z        PSCENC =      1893.09323658
  Ewald energy   TEWEN  =    162028.50849812
  -Hartree energ DENC   =   -283872.64929888
  -exchange      EXHF   =         0.00000000
  -V(xc)+E(xc)   XCENC  =      3622.39734922
  PAW double counting   =    130983.25770405  -135957.40288763
  entropy T*S    EENTRO =        -1.05302059
  eigenvalues    EBANDS =    -15054.18585297
  atomic energy  EATOM  =    136002.60505376
  Solvation  Ediel_sol  =         0.00000000
  ---------------------------------------------------
  free energy    TOTEN  =      -355.42921835 eV

  energy without entropy =     -354.37619776  energy(sigma->0) =     -354.90270805


--------------------------------------------------------------------------------------------------------




--------------------------------------- Iteration      1(  22)  ---------------------------------------


    POTLOK:  cpu time    0.0431: real time    0.0432
    SETDIJ:  cpu time    0.0047: real time    0.0048
[...]
    FORCOR:  cpu time    0.0551: real time    0.0554
    FORHAR:  cpu time    0.0241: real time    0.0241
    MIXING:  cpu time    0.0057: real time    0.0057
    OFIELD:  cpu time    0.0001: real time    0.0001

  FORCE on cell =-STRESS in cart. coord.  units (eV):
  Direction    XX          YY          ZZ          XY          YZ          ZX
  --------------------------------------------------------------------------------------
  Alpha Z  1893.09324  1893.09324  1893.09324
  Ewald  210856.50633210171.12883************  -199.44043  -401.45943   226.17382
  Hartree247989.22878247531.67811************  -105.47214  -334.38124    47.05389
  E(xc)   -5026.42106 -5026.84966 -5030.17108    -0.29938    -0.30317     0.83134
  Local  ************************457581.75031   292.10639   729.49705  -239.10292
  n-local  -687.94662  -686.36362  -692.06934    -3.21103    -3.26262     2.68474
  augment  5791.03346  5792.25943  5800.81924     8.62356     4.36794   -12.71206
  Kinetic 10967.66821 10969.92834 10995.17157    10.87722    11.91739   -34.89525
  Fock        0.00000     0.00000     0.00000     0.00000     0.00000     0.00000
  -------------------------------------------------------------------------------------
  Total     -29.62015   -29.56498   -27.14730     3.18418     6.37593    -9.96645
  in kB     -24.15120   -24.10621   -22.13492     2.59626     5.19870    -8.12628
  external pressure =      -23.46 kB  Pullay stress =        0.00 kB


 VOLUME and BASIS-vectors are now :
 -----------------------------------------------------------------------------
  energy-cutoff  :      450.00
  volume of cell :     1964.98
      direct lattice vectors                 reciprocal lattice vectors
     9.425102554  3.573298043  0.000000000     0.106099641  0.000000000  0.000000000
     0.000000000 10.079732985  0.000000000    -0.037612667  0.099208977  0.000000000
     0.000000000  0.000000000 20.683503555     0.000000000  0.000000000  0.048347708

  length of vectors
    10.079732985 10.079732985 20.683503555     0.106099641  0.106099641  0.048347708


 FORCES acting on ions
    electron-ion (+dipol)            ewald-force                    non-local-force                 convergence-correction
 -----------------------------------------------------------------------------------------------
   0.289E+03 -.368E+03 0.305E+04   -.291E+03 0.370E+03 -.305E+04   0.177E+01 -.151E+01 0.335E+01   -.153E-01 0.621E-02 0.594E-02
   0.136E+03 -.403E+03 0.794E+02   -.138E+03 0.404E+03 -.802E+02   0.133E+01 -.115E+01 0.721E+00   0.886E-02 -.125E-01 0.191E-02
   -.120E+02 -.493E+03 -.271E+04   0.124E+02 0.494E+03 0.271E+04   -.193E+00 -.123E+01 0.370E+00   -.114E-01 0.833E-02 -.926E-02
   -.298E+03 -.605E+03 -.489E+04   0.298E+03 0.599E+03 0.487E+04   -.583E+00 0.593E+01 0.132E+02   -.193E-01 0.100E-01 0.102E-01
   0.254E+03 -.533E+03 0.215E+04   -.254E+03 0.535E+03 -.215E+04   0.834E+00 -.208E+01 0.241E+01   0.195E-02 -.173E-01 -.349E-01
   0.264E+03 -.522E+03 -.104E+04   -.265E+03 0.524E+03 0.104E+04   0.101E+01 -.216E+01 -.830E-01   0.103E-01 -.428E-02 -.103E-01
   0.297E+03 -.485E+03 -.379E+04   -.298E+03 0.487E+03 0.379E+04   0.745E+00 -.181E+01 -.276E+01   0.228E-01 -.282E-01 0.167E-02
   0.262E+03 0.239E+03 -.439E+04   -.263E+03 -.235E+03 0.439E+04   0.138E+01 -.371E+01 0.178E+01   0.977E-02 0.104E-01 0.176E-01
   0.204E+03 -.560E+03 0.379E+04   -.207E+03 0.560E+03 -.379E+04   0.235E+01 0.281E+00 0.241E+01   0.503E-02 0.227E-01 -.113E-01
   0.959E+02 -.385E+03 0.980E+03   -.972E+02 0.385E+03 -.981E+03   0.117E+01 -.545E+00 0.642E+00   -.687E-02 0.260E-01 0.165E-02
   0.806E+02 -.271E+03 -.188E+04   -.817E+02 0.272E+03 0.188E+04   0.959E+00 -.714E+00 -.314E+00   -.131E-01 0.506E-02 -.630E-02
   0.425E+03 0.380E+03 0.408E+04   -.430E+03 -.381E+03 -.408E+04   0.363E+01 0.857E+00 0.155E+01   -.126E-01 -.241E-01 -.102E-03
   0.333E+03 0.417E+03 0.106E+04   -.334E+03 -.418E+03 -.106E+04   0.118E+01 0.250E+00 -.490E-01   0.163E-01 0.293E-02 -.458E-02
   0.294E+03 0.429E+03 -.174E+04   -.294E+03 -.430E+03 0.174E+04   0.829E+00 0.636E+00 0.127E+01   -.334E-02 -.558E-03 -.182E-01
   0.111E+03 0.514E+03 -.438E+04   -.110E+03 -.516E+03 0.437E+04   -.159E+01 0.114E+01 0.612E+00   -.181E-01 -.167E-01 0.522E-02
   0.225E+03 0.337E+03 0.296E+04   -.226E+03 -.337E+03 -.296E+04   0.135E+01 -.126E+00 0.289E+01   0.127E-02 0.236E-01 -.350E-01
   0.297E+03 0.406E+03 0.924E+02   -.298E+03 -.407E+03 -.930E+02   0.980E+00 0.540E+00 0.606E+00   0.467E-02 -.289E-02 -.115E-01
   0.329E+03 0.375E+03 -.271E+04   -.330E+03 -.375E+03 0.271E+04   0.121E+01 0.689E-01 -.161E+01   0.387E-01 0.107E-01 0.263E-01
   0.437E+02 0.808E+02 -.476E+04   -.475E+02 -.764E+02 0.475E+04   0.274E+01 -.402E+01 0.642E+01   0.714E-03 0.175E-01 0.165E-01
   0.112E+03 -.296E+03 0.463E+04   -.101E+03 0.294E+03 -.462E+04   -.940E+01 0.118E+01 -.108E+02   0.212E-01 -.673E-02 -.555E-02
   0.283E+03 0.480E+03 0.446E+04   -.285E+03 -.481E+03 -.446E+04   0.230E+01 0.769E+00 0.149E+01   -.624E-02 0.277E-01 -.152E-01
   0.151E+03 0.565E+03 0.204E+04   -.152E+03 -.565E+03 -.204E+04   0.107E+01 -.267E+00 0.114E+01   -.756E-03 -.898E-02 0.835E-02
   0.104E+03 0.554E+03 -.105E+04   -.104E+03 -.555E+03 0.105E+04   0.907E-01 0.966E+00 -.760E+00   -.170E-01 -.984E-02 -.648E-02
   -.692E+03 -.219E+03 -.371E+04   0.691E+03 0.217E+03 0.371E+04   0.116E+01 0.960E+00 0.207E+00   0.644E-02 -.409E-02 -.206E-02
   -.441E+03 0.643E+02 0.473E+04   0.434E+03 -.591E+02 -.472E+04   0.679E+01 -.479E+01 -.255E+01   0.812E-02 -.159E-01 0.259E-02
   -.544E+03 -.640E+02 0.210E+04   0.545E+03 0.644E+02 -.210E+04   -.172E+01 -.288E+00 0.189E+01   0.534E-02 -.151E-01 0.607E-02
   -.583E+03 -.106E+03 -.842E+03   0.584E+03 0.106E+03 0.842E+03   -.642E+00 -.351E+00 0.822E+00   -.216E-01 0.388E-02 -.227E-01
   -.290E+03 -.918E+02 0.394E+04   0.292E+03 0.935E+02 -.394E+04   -.173E+01 -.134E+01 0.456E+01   -.216E-01 0.572E-02 -.210E-01
   -.419E+03 0.244E+01 0.108E+04   0.420E+03 -.199E+01 -.108E+04   -.662E+00 -.373E+00 0.115E+01   0.865E-03 0.220E-02 -.304E-02
   -.484E+03 0.217E+02 -.177E+04   0.485E+03 -.210E+02 0.177E+04   -.104E+01 -.639E+00 0.533E+00   -.177E-01 -.220E-02 0.139E-01
   -.582E+03 0.240E+02 -.443E+04   0.577E+03 -.216E+02 0.442E+04   0.472E+01 -.178E+01 0.619E+01   -.659E-01 -.226E-01 0.221E-01
   -.583E+03 0.170E+03 0.306E+04   0.585E+03 -.170E+03 -.306E+04   -.293E+01 0.348E+00 0.315E+01   0.112E-01 0.111E-01 -.171E-01
   -.428E+03 0.126E+03 0.866E+02   0.429E+03 -.127E+03 -.872E+02   -.125E+01 0.800E+00 0.481E+00   0.594E-02 0.340E-03 -.120E-01
   0.624E+02 0.332E+03 -.278E+04   -.632E+02 -.335E+03 0.278E+04   0.296E+00 0.215E+01 0.380E+00   0.152E-01 0.910E-02 -.998E-03
   0.218E+03 0.277E+03 -.469E+04   -.224E+03 -.275E+03 0.468E+04   0.531E+01 -.206E+01 0.107E+02   0.549E-02 0.160E-01 0.614E-02
   -.578E+03 0.331E+02 0.496E+04   0.570E+03 -.362E+02 -.495E+04   0.771E+01 0.270E+01 -.118E+02   0.157E-01 0.314E-01 -.202E-01
   -.978E+02 0.508E+02 -.180E+04   0.983E+02 -.502E+02 0.181E+04   -.111E+01 0.358E+00 -.362E+01   0.343E-02 -.554E-02 0.925E-02
   -.101E+02 0.103E+03 0.140E+04   0.104E+02 -.105E+03 -.140E+04   -.481E+00 0.175E+01 -.176E+00   0.405E-02 -.892E-02 0.446E-02
   -.413E+02 0.110E+03 0.318E+03   0.415E+02 -.112E+03 -.320E+03   -.214E+00 0.210E+01 0.169E+01   -.399E-02 0.628E-02 -.188E-02
   -.656E+02 0.118E+03 -.736E+03   0.658E+02 -.120E+03 0.734E+03   -.306E+00 0.221E+01 0.217E+01   -.104E-01 -.201E-02 -.892E-02
   -.107E+03 0.120E+03 0.190E+04   0.108E+03 -.124E+03 -.190E+04   -.334E+01 0.371E+01 0.316E+01   -.911E-02 0.941E-02 -.189E-02
   -.114E+02 0.142E+03 0.106E+04   0.120E+02 -.144E+03 -.106E+04   -.509E+00 0.125E+01 0.589E+00   -.535E-02 0.720E-02 -.882E-02
   -.269E+02 0.125E+03 -.336E+02   0.277E+02 -.128E+03 0.328E+02   -.663E+00 0.209E+01 0.101E+01   0.584E-02 -.101E-02 0.596E-02
   -.798E+02 0.986E+02 -.107E+04   0.799E+02 -.100E+03 0.107E+04   0.290E+00 0.173E+01 0.243E+01   -.123E-01 0.413E-02 0.192E-01
   -.414E+02 0.159E+03 0.723E+03   0.419E+02 -.160E+03 -.724E+03   -.607E+00 0.125E+01 0.119E+01   0.325E-02 -.116E-01 -.494E-02
   0.547E+02 0.147E+03 -.621E+03   -.556E+02 -.149E+03 0.623E+03   0.103E+01 0.215E+01 -.209E+01   -.177E-02 -.162E-02 -.440E-02
   0.280E+03 0.790E+02 -.149E+04   -.285E+03 -.797E+02 0.150E+04   0.514E+01 0.131E+01 -.637E+00   0.225E-02 -.125E-01 -.508E-02
   -.178E+03 0.365E+03 0.169E+04   0.180E+03 -.371E+03 -.170E+04   -.260E+01 0.659E+01 0.207E+01   0.904E-02 -.825E-03 -.111E-01
   0.141E+03 -.502E+02 0.188E+04   -.144E+03 0.509E+02 -.188E+04   0.378E+01 -.135E+01 0.353E+01   -.119E-01 0.448E-02 -.671E-02
   -.110E+03 -.133E+03 0.964E+03   0.111E+03 0.136E+03 -.964E+03   -.133E+01 -.279E+01 -.853E-01   -.151E-02 -.904E-02 0.962E-02
   -.126E+03 -.163E+03 -.132E+03   0.128E+03 0.166E+03 0.132E+03   -.125E+01 -.232E+01 -.247E-01   -.601E-02 -.487E-02 -.384E-02
   -.289E+03 -.349E+03 -.121E+04   0.293E+03 0.355E+03 0.121E+04   -.374E+01 -.570E+01 0.973E+00   -.747E-02 0.640E-02 -.694E-02
   0.139E+03 -.158E+03 0.175E+04   -.142E+03 0.159E+03 -.175E+04   0.363E+01 -.119E+01 0.399E+01   -.170E-02 -.136E-01 -.204E-02
   -.375E+02 -.166E+03 0.592E+03   0.387E+02 0.169E+03 -.593E+03   -.125E+01 -.245E+01 0.535E+00   -.859E-05 0.225E-02 -.137E-01
   -.386E+02 -.156E+03 -.485E+03   0.402E+02 0.158E+03 0.485E+03   -.169E+01 -.220E+01 -.394E+00   0.640E-02 -.548E-02 0.657E-02
   -.145E+02 -.659E+02 -.157E+04   0.141E+02 0.666E+02 0.158E+04   0.660E+00 -.126E+01 -.161E+01   -.126E-01 -.736E-02 -.325E-02
   -.861E+02 -.132E+03 0.239E+03   0.874E+02 0.134E+03 -.240E+03   -.116E+01 -.229E+01 0.632E+00   -.362E-03 0.620E-02 -.225E-02
   -.371E+02 -.829E+02 -.834E+03   0.382E+02 0.852E+02 0.833E+03   -.995E+00 -.285E+01 0.443E+00   0.685E-02 0.668E-02 0.215E-02
   0.103E+03 -.185E+02 -.171E+04   -.102E+03 0.200E+02 0.171E+04   -.345E+00 -.222E+01 -.591E+00   0.156E-01 0.318E-01 0.865E-02
   -.116E+03 -.151E+03 0.126E+04   0.118E+03 0.153E+03 -.126E+04   -.177E+01 -.181E+01 -.160E+01   -.553E-03 0.125E-01 -.116E-01
   0.116E+03 -.290E+02 0.174E+04   -.117E+03 0.301E+02 -.174E+04   0.143E+01 -.160E+01 0.445E+01   -.694E-03 0.279E-02 -.619E-02
   0.190E+03 -.204E+01 0.531E+03   -.192E+03 0.207E+01 -.531E+03   0.264E+01 0.219E+00 0.174E+00   0.947E-02 -.259E-02 -.160E-02
   0.201E+03 -.239E+01 -.548E+03   -.203E+03 0.253E+01 0.549E+03   0.225E+01 -.874E-01 -.163E+01   0.953E-02 0.147E-02 -.824E-02
   0.163E+03 -.459E+01 -.148E+04   -.165E+03 0.509E+01 0.148E+04   0.268E+01 -.565E+00 0.616E+00   0.219E-02 0.301E-02 -.846E-02
   0.160E+03 -.506E+02 0.140E+03   -.163E+03 0.507E+02 -.140E+03   0.270E+01 -.896E-01 -.402E+00   -.598E-02 0.129E-02 -.122E-01
   0.190E+03 -.781E+02 -.948E+03   -.192E+03 0.785E+02 0.948E+03   0.218E+01 -.202E+00 -.810E+00   0.161E-01 -.232E-02 0.373E-03
   0.206E+03 -.130E+03 -.186E+04   -.210E+03 0.130E+03 0.187E+04   0.385E+01 -.116E+01 -.377E+01   0.230E-01 -.159E-01 0.482E-02
   0.105E+03 -.190E+03 0.132E+04   -.106E+03 0.193E+03 -.132E+04   0.109E+01 -.294E+01 -.152E-01   0.706E-02 -.687E-02 -.126E-01
   0.191E+03 -.115E+03 0.187E+04   -.191E+03 0.116E+03 -.187E+04   0.192E+01 -.133E+01 0.431E+01   -.110E-01 0.713E-02 -.605E-03
   0.167E+03 -.355E+01 0.841E+03   -.169E+03 0.371E+01 -.841E+03   0.259E+01 -.295E+00 -.306E+00   -.540E-02 0.119E-01 0.754E-03
   0.138E+03 0.133E+02 -.210E+03   -.140E+03 -.132E+02 0.211E+03   0.254E+01 -.168E+00 -.883E+00   -.828E-02 0.595E-03 0.775E-02
   -.128E+02 0.191E+03 -.129E+04   0.125E+02 -.193E+03 0.129E+04   0.702E+00 0.131E+01 -.780E+00   -.555E-02 -.705E-04 -.977E-03
 -----------------------------------------------------------------------------------------------
   -.488E+02 0.203E+02 -.545E+02   -.119E-12 0.455E-12 0.864E-11   0.489E+02 -.202E+02 0.546E+02   -.330E-01 0.724E-01 -.190E+00
 
 
 POSITION                                       TOTAL-FORCE (eV/Angst)
 -----------------------------------------------------------------------------------
      3.74232      9.43171      2.44401        -0.332178      0.070347     -0.331902
      5.15862      8.45400      5.06951        -0.002122     -0.199240     -0.099302
      6.57491      7.47629      7.69501         0.176208     -0.037954      0.267764
      7.99121      6.49857     10.32052        -0.609330     -0.130780     -1.838649
      1.07272      4.55480      3.31918         0.055105      0.333946     -0.357256
      2.48901      3.57708      5.94468        -0.063390     -0.110851     -0.111656
      3.90531      2.59937      8.57018         0.124936      0.029818      0.614686
      1.23571      7.80219      9.44535         0.080527      0.587674     -0.688537
      6.41192      4.22889      1.56884        -0.478992     -0.152652      0.099314
      7.82822      3.25118      4.19434        -0.087057      0.068573      0.000393
      9.24452     12.35320      6.81985        -0.182657     -0.222051      0.170180
      3.36813      7.02690      1.75033        -0.737335     -0.299343      0.421279
      4.78442      6.04919      4.37584        -0.089830      0.127994     -0.013983
      6.20072      5.07148      7.00134         0.200883     -0.083793     -0.027104
      7.61702      4.09377      9.62684         0.295747     -0.656444     -0.727393
      0.69852      2.14999      2.62550        -0.074923      0.005528     -0.319986
      2.11482      1.17228      5.25100         0.034092      0.079112      0.028574
      3.53112     10.27430      7.87651         0.037003     -0.061558      0.515707
      4.94741      9.29658     10.50201        -1.059099      0.425733     -1.605702
      8.70733      6.70100      0.00000         1.454535     -0.308651      1.978814
      6.03773     11.90382      0.87517        -0.378710      0.016225      0.466675
      7.45403     10.92611      3.50067        -0.011088      0.093865     -0.205809
      8.87032      9.94839      6.12617         0.244546     -0.064810      0.256286
      0.30789      1.72287      8.93317        -0.347971     -0.678490     -0.466102
      5.48410      8.22931      1.05666        -0.188503      0.396792      1.100087
      6.90040      7.25160      3.68216        -0.040061      0.104296     -0.167883
      8.31669      6.27388      6.30767        -0.078334     -0.067617      0.236035
      2.81450      3.35239      1.93183        -0.020716      0.422566     -0.537671
      4.23080      2.37468      4.55733        -0.087814      0.068359     -0.074717
      5.64709     11.47670      7.18283         0.108331      0.037006      0.202196
      7.06339     10.49899      9.80834        -0.565204      0.610618     -1.830225
      0.14490      8.55521      2.80700        -0.013739      0.099830     -0.415120
      1.56119      7.57750      5.43250        -0.004419     -0.179292     -0.078941
      2.97749      6.59979      8.05800        -0.443367     -0.225548      0.459500
      4.39379      5.62207     10.68350        -0.366324      0.549551     -2.221485
      8.15370     13.10622      0.18149         0.168516     -0.379698      2.078363
      0.34500      9.75890     10.12008        -0.627703      0.994207      0.332523
      5.52122      6.18560      2.24358        -0.120826      0.229398     -1.607368
      6.93751      5.20789      4.86908        -0.023941      0.000464      0.012405
      8.35381      4.23018      7.49458        -0.081138      0.315449      0.056563
      1.43532      2.28640      0.49324        -1.451468      0.249052     -0.209998
      2.85162      1.30869      3.11874         0.018823      0.138128     -0.287169
      4.26791     10.41071      5.74425         0.113222     -0.034880      0.192028
      5.68421      9.43299      8.36975         0.422776      0.112827      1.035708
      0.18201      6.51150      3.99391        -0.056512      0.017744     -0.031221
      1.59831      5.53379      6.61941         0.119712      0.563461      0.062417
      3.01461      4.55608      9.24492         0.745314      0.589223      1.137252
      8.19082     11.06252      1.36841        -0.760487      0.730149     -1.342762
      4.58141     10.22551      0.50137         1.050658     -0.685419     -0.016654
      5.99770      9.24779      3.12687        -0.224844     -0.149354      0.014862
      7.41400      8.27008      5.75238         0.146471      0.042647      0.109606
      8.83030      7.29237      8.37788         0.035116     -0.268205      1.029806
      1.91180      5.34859      1.37654         0.863585      0.183466      0.348810
      3.32810      4.37088      4.00204        -0.043290     -0.217672      0.081289
      4.74440      3.39317      6.62754        -0.081167     -0.047220      0.094232
      6.16069      2.41545      9.25305         0.317237     -0.521742      0.738172
      0.65850      9.57370      4.87721         0.133944     -0.015822      0.180015
      2.07479      8.59599      7.50271         0.037538     -0.528290      0.058130
      3.49109      7.61827     10.12821        -0.178135     -0.710686      0.588133
      8.66731      4.04498      2.25171        -0.525126      0.168898     -0.900317
      1.88700      8.69441      1.38467         0.487766     -0.488066      0.135375
      3.30330      7.71670      4.01017         0.330785      0.242374      0.106683
      4.71960      6.73899      6.63567         0.073627      0.056138     -0.080166
      6.13589      5.76127      9.26118         0.440450     -0.064426      1.683032
      0.63370      2.83978      4.88534         0.046861      0.057068     -0.175495
      2.04999      1.86207      7.51084         0.071784      0.226556      0.145815
      3.46629     10.96409     10.13634         0.352214     -0.382188     -0.564023
      8.64250      7.39079      2.25984        -0.232475     -0.488442     -0.852269
      4.55661      3.49159      0.50950         1.044706     -0.449969      0.335349
      5.97290      2.51388      3.13500         0.377751     -0.122311      0.201183
      7.38920     11.61590      5.76051         0.140237     -0.088571     -0.141735
      8.80549     10.63819      8.38601         0.319267      0.076953      0.753359
 -----------------------------------------------------------------------------------
    total drift:                                0.111566      0.149251     -0.084053


--------------------------------------------------------------------------------------------------------



  FREE ENERGIE OF THE ION-ELECTRON SYSTEM (eV)
  ---------------------------------------------------
  free  energy   TOTEN  =      -355.26625274 eV

  energy  without entropy=     -354.21411030  energy(sigma->0) =     -354.74018152
 


--------------------------------------------------------------------------------------------------------


    POTLOK:  cpu time    0.0475: real time    0.0481


--------------------------------------------------------------------------------------------------------


     LOOP+:  cpu time   92.6396: real time   92.9514
    4ORBIT:  cpu time    0.0000: real time    0.0000

 total amount of memory used by VASP MPI-rank0    45296. kBytes
=======================================================================

   base      :      30000. kBytes
   nonlr-proj:       2282. kBytes
   fftplans  :       3383. kBytes
   grid      :       6052. kBytes
   one-center:         93. kBytes
   wavefun   :       3486. kBytes
 
  
  
 General timing and accounting informations for this job:
 ========================================================
  
                  Total CPU time used (sec):       94.759
                            User time (sec):       94.065
                          System time (sec):        0.694
                         Elapsed time (sec):       95.476
  
                   Maximum memory used (kb):      226572.
                   Average memory used (kb):           0.
  
                          Minor page faults:        80906
                          Major page faults:            0
                 Voluntary context switches:          943
