LAMMPS (5 Jun 2019)
OMP_NUM_THREADS environment is not set. Defaulting to 1 thread. (../comm.cpp:88)
  using 1 OpenMP thread(s) per MPI task
Reading data file ...
  triclinic box = (0 0 0) to (9.57841 8.8693 19.0111) with tilt (-4.7892 0 0)
  1 by 1 by 1 MPI processor grid
  reading atoms ...
  54 atoms
  read_data CPU = 0.000748601 secs
30 atoms in group bulk
WARNING: Using 'neigh_modify every 1 delay 0 check yes' setting during minimization (../min.cpp:168)
Neighbor list info ...
  update every 1 steps, delay 0 steps, check yes
  max neighbors/atom: 2000, page size: 100000
  master list distance cutoff = 8.5
  ghost atom cutoff = 8.5
  binsize = 4.25, bins = 4 3 5
  1 neighbor lists, perpetual/occasional/extra = 1 0 0
  (1) pair eam/alloy, perpetual
      attributes: half, newton on
      pair build: half/bin/newton/tri
      stencil: half/bin/3d/newton/tri
      bin: standard
Setting up cg style minimization ...
  Unit style    : metal
  Current step  : 0
Per MPI rank memory allocation (min/avg/max) = 4.12 | 4.12 | 4.12 Mbytes
Step Temp E_pair E_mol TotEng Press 
       0            0   -224.54098            0   -224.54098   -120313.61 
      36            0   -243.97574            0   -243.97574   -32054.955 
Loop time of 0.01733 on 1 procs for 36 steps with 54 atoms

99.2% CPU use with 1 MPI tasks x 1 OpenMP threads

Minimization stats:
  Stopping criterion = energy tolerance
  Energy initial, next-to-last, final = 
        -224.540982147     -243.973668062     -243.975736691
  Force two-norm initial, final = 11.2927 0.192658
  Force max component initial, final = 3.76034 0.0864076
  Final line search alpha, max atom move = 0.56822 0.0490985
  Iterations, force evaluations = 36 52

MPI task timing breakdown:
Section |  min time  |  avg time  |  max time  |%varavg| %total
---------------------------------------------------------------
Pair    | 0.015752   | 0.015752   | 0.015752   |   0.0 | 90.90
Neigh   | 0.00067357 | 0.00067357 | 0.00067357 |   0.0 |  3.89
Comm    | 0.00049168 | 0.00049168 | 0.00049168 |   0.0 |  2.84
Output  | 0          | 0          | 0          |   0.0 |  0.00
Modify  | 2.9396e-05 | 2.9396e-05 | 2.9396e-05 |   0.0 |  0.17
Other   |            | 0.0003831  |            |       |  2.21

Nlocal:    54 ave 54 max 54 min
Histogram: 1 0 0 0 0 0 0 0 0 0
Nghost:    876 ave 876 max 876 min
Histogram: 1 0 0 0 0 0 0 0 0 0
Neighs:    3272 ave 3272 max 3272 min
Histogram: 1 0 0 0 0 0 0 0 0 0

Total # of neighbors = 3272
Ave neighs/atom = 60.5926
Neighbor list builds = 2
Dangerous builds = 0
System init for write_data ...
Total wall time: 0:00:00
