  96  96   0   0
  0.2565633E+02  0.1125646E-08  0.1125646E-08  0.2174423E-08  0.5000000E-15
  1.000000000000000E-004
  CAR 
 "Millerite NiS"                         
     11.51917352    -66.69020409  301      1.68556426      1.00000000
    -66.690  0.0000E+00  0.0000E+00
    -66.430  0.0000E+00  0.0000E+00
    -66.169  0.0000E+00  0.0000E+00
    -65.908  0.0000E+00  0.0000E+00
    -65.647  0.0000E+00  0.0000E+00
    -65.387  0.0000E+00  0.0000E+00
    -65.126  0.0000E+00  0.0000E+00
    -64.865  0.0000E+00  0.0000E+00
    -64.605  0.0000E+00  0.0000E+00
    -64.344  0.0000E+00  0.0000E+00
    -64.083  0.1698E-09  0.4427E-10
    -63.823  0.1078E-04  0.2809E-05
    -63.562  0.2679E-01  0.6988E-02
    -63.301  0.3205E+01  0.8426E+00
    -63.040  0.3723E+02  0.1055E+02
    -62.780  0.1203E+03  0.4190E+02
    -62.519  0.2035E+03  0.9495E+02
    -62.258  0.3890E+03  0.1964E+03
    -61.998  0.2736E+03  0.2677E+03
    -61.737  0.5076E+02  0.2809E+03
    -61.476  0.2050E+02  0.2863E+03
    -61.216  0.6558E+01  0.2880E+03
    -60.955  0.1341E+00  0.2880E+03
    -60.694  0.1232E-03  0.2880E+03
    -60.433  0.4356E-08  0.2880E+03
    -60.173  0.5962E-14  0.2880E+03
    -59.912  0.0000E+00  0.2880E+03
    -59.651  0.0000E+00  0.2880E+03
    -59.391  0.0000E+00  0.2880E+03
    -59.130  0.0000E+00  0.2880E+03
    -58.869  0.0000E+00  0.2880E+03
    -58.609  0.0000E+00  0.2880E+03
    -58.348  0.0000E+00  0.2880E+03
    -58.087  0.0000E+00  0.2880E+03
    -57.826  0.0000E+00  0.2880E+03
    -57.566  0.0000E+00  0.2880E+03
    -57.305  0.0000E+00  0.2880E+03
    -57.044  0.0000E+00  0.2880E+03
    -56.784  0.0000E+00  0.2880E+03
    -56.523  0.0000E+00  0.2880E+03
    -56.262  0.0000E+00  0.2880E+03
    -56.002  0.0000E+00  0.2880E+03
    -55.741  0.0000E+00  0.2880E+03
    -55.480  0.0000E+00  0.2880E+03
    -55.219  0.0000E+00  0.2880E+03
    -54.959  0.0000E+00  0.2880E+03
    -54.698  0.0000E+00  0.2880E+03
    -54.437  0.0000E+00  0.2880E+03
    -54.177  0.0000E+00  0.2880E+03
    -53.916  0.0000E+00  0.2880E+03
    -53.655  0.0000E+00  0.2880E+03
    -53.395  0.0000E+00  0.2880E+03
    -53.134  0.0000E+00  0.2880E+03
    -52.873  0.0000E+00  0.2880E+03
    -52.613  0.0000E+00  0.2880E+03
    -52.352  0.0000E+00  0.2880E+03
    -52.091  0.0000E+00  0.2880E+03
    -51.830  0.0000E+00  0.2880E+03
    -51.570  0.0000E+00  0.2880E+03
    -51.309  0.0000E+00  0.2880E+03
    -51.048  0.0000E+00  0.2880E+03
    -50.788  0.0000E+00  0.2880E+03
    -50.527  0.0000E+00  0.2880E+03
    -50.266  0.0000E+00  0.2880E+03
    -50.006  0.0000E+00  0.2880E+03
    -49.745  0.0000E+00  0.2880E+03
    -49.484  0.0000E+00  0.2880E+03
    -49.223  0.0000E+00  0.2880E+03
    -48.963  0.0000E+00  0.2880E+03
    -48.702  0.0000E+00  0.2880E+03
    -48.441  0.0000E+00  0.2880E+03
    -48.181  0.0000E+00  0.2880E+03
    -47.920  0.0000E+00  0.2880E+03
    -47.659  0.0000E+00  0.2880E+03
    -47.399  0.0000E+00  0.2880E+03
    -47.138  0.0000E+00  0.2880E+03
    -46.877  0.0000E+00  0.2880E+03
    -46.616  0.0000E+00  0.2880E+03
    -46.356  0.0000E+00  0.2880E+03
    -46.095  0.0000E+00  0.2880E+03
    -45.834  0.0000E+00  0.2880E+03
    -45.574  0.0000E+00  0.2880E+03
    -45.313  0.0000E+00  0.2880E+03
    -45.052  0.0000E+00  0.2880E+03
    -44.792  0.0000E+00  0.2880E+03
    -44.531  0.0000E+00  0.2880E+03
    -44.270  0.0000E+00  0.2880E+03
    -44.009  0.0000E+00  0.2880E+03
    -43.749  0.0000E+00  0.2880E+03
    -43.488  0.0000E+00  0.2880E+03
    -43.227  0.0000E+00  0.2880E+03
    -42.967  0.0000E+00  0.2880E+03
    -42.706  0.0000E+00  0.2880E+03
    -42.445  0.0000E+00  0.2880E+03
    -42.185  0.0000E+00  0.2880E+03
    -41.924  0.0000E+00  0.2880E+03
    -41.663  0.0000E+00  0.2880E+03
    -41.403  0.0000E+00  0.2880E+03
    -41.142  0.0000E+00  0.2880E+03
    -40.881  0.0000E+00  0.2880E+03
    -40.620  0.0000E+00  0.2880E+03
    -40.360  0.0000E+00  0.2880E+03
    -40.099  0.0000E+00  0.2880E+03
    -39.838  0.0000E+00  0.2880E+03
    -39.578  0.0000E+00  0.2880E+03
    -39.317  0.0000E+00  0.2880E+03
    -39.056  0.0000E+00  0.2880E+03
    -38.796  0.0000E+00  0.2880E+03
    -38.535  0.0000E+00  0.2880E+03
    -38.274  0.0000E+00  0.2880E+03
    -38.013  0.0000E+00  0.2880E+03
    -37.753  0.0000E+00  0.2880E+03
    -37.492  0.0000E+00  0.2880E+03
    -37.231  0.0000E+00  0.2880E+03
    -36.971  0.0000E+00  0.2880E+03
    -36.710  0.0000E+00  0.2880E+03
    -36.449  0.0000E+00  0.2880E+03
    -36.189  0.0000E+00  0.2880E+03
    -35.928  0.0000E+00  0.2880E+03
    -35.667  0.0000E+00  0.2880E+03
    -35.406  0.0000E+00  0.2880E+03
    -35.146  0.0000E+00  0.2880E+03
    -34.885  0.0000E+00  0.2880E+03
    -34.624  0.0000E+00  0.2880E+03
    -34.364  0.0000E+00  0.2880E+03
    -34.103  0.0000E+00  0.2880E+03
    -33.842  0.0000E+00  0.2880E+03
    -33.582  0.0000E+00  0.2880E+03
    -33.321  0.0000E+00  0.2880E+03
    -33.060  0.0000E+00  0.2880E+03
    -32.799  0.0000E+00  0.2880E+03
    -32.539  0.0000E+00  0.2880E+03
    -32.278  0.0000E+00  0.2880E+03
    -32.017  0.0000E+00  0.2880E+03
    -31.757  0.0000E+00  0.2880E+03
    -31.496  0.0000E+00  0.2880E+03
    -31.235  0.0000E+00  0.2880E+03
    -30.975  0.0000E+00  0.2880E+03
    -30.714  0.0000E+00  0.2880E+03
    -30.453  0.0000E+00  0.2880E+03
    -30.192  0.0000E+00  0.2880E+03
    -29.932  0.0000E+00  0.2880E+03
    -29.671  0.0000E+00  0.2880E+03
    -29.410  0.0000E+00  0.2880E+03
    -29.150  0.0000E+00  0.2880E+03
    -28.889  0.0000E+00  0.2880E+03
    -28.628  0.0000E+00  0.2880E+03
    -28.368  0.0000E+00  0.2880E+03
    -28.107  0.0000E+00  0.2880E+03
    -27.846  0.0000E+00  0.2880E+03
    -27.586  0.0000E+00  0.2880E+03
    -27.325  0.0000E+00  0.2880E+03
    -27.064  0.0000E+00  0.2880E+03
    -26.803  0.0000E+00  0.2880E+03
    -26.543  0.0000E+00  0.2880E+03
    -26.282  0.0000E+00  0.2880E+03
    -26.021  0.0000E+00  0.2880E+03
    -25.761  0.0000E+00  0.2880E+03
    -25.500  0.0000E+00  0.2880E+03
    -25.239  0.0000E+00  0.2880E+03
    -24.979  0.0000E+00  0.2880E+03
    -24.718  0.0000E+00  0.2880E+03
    -24.457  0.0000E+00  0.2880E+03
    -24.196  0.0000E+00  0.2880E+03
    -23.936  0.0000E+00  0.2880E+03
    -23.675  0.0000E+00  0.2880E+03
    -23.414  0.0000E+00  0.2880E+03
    -23.154  0.0000E+00  0.2880E+03
    -22.893  0.0000E+00  0.2880E+03
    -22.632  0.0000E+00  0.2880E+03
    -22.372  0.0000E+00  0.2880E+03
    -22.111  0.0000E+00  0.2880E+03
    -21.850  0.0000E+00  0.2880E+03
    -21.589  0.0000E+00  0.2880E+03
    -21.329  0.0000E+00  0.2880E+03
    -21.068  0.0000E+00  0.2880E+03
    -20.807  0.0000E+00  0.2880E+03
    -20.547  0.0000E+00  0.2880E+03
    -20.286  0.0000E+00  0.2880E+03
    -20.025  0.0000E+00  0.2880E+03
    -19.765  0.0000E+00  0.2880E+03
    -19.504  0.0000E+00  0.2880E+03
    -19.243  0.0000E+00  0.2880E+03
    -18.982  0.0000E+00  0.2880E+03
    -18.722  0.0000E+00  0.2880E+03
    -18.461  0.0000E+00  0.2880E+03
    -18.200  0.0000E+00  0.2880E+03
    -17.940  0.0000E+00  0.2880E+03
    -17.679  0.0000E+00  0.2880E+03
    -17.418  0.0000E+00  0.2880E+03
    -17.158  0.0000E+00  0.2880E+03
    -16.897  0.0000E+00  0.2880E+03
    -16.636  0.0000E+00  0.2880E+03
    -16.376  0.0000E+00  0.2880E+03
    -16.115  0.0000E+00  0.2880E+03
    -15.854  0.1052E-09  0.2880E+03
    -15.593  0.5607E-05  0.2880E+03
    -15.333  0.1131E-01  0.2880E+03
    -15.072  0.9808E+00  0.2883E+03
    -14.811  0.4857E+01  0.2895E+03
    -14.551  0.1931E+01  0.2900E+03
    -14.290  0.3446E+01  0.2909E+03
    -14.029  0.8599E+01  0.2932E+03
    -13.769  0.1095E+02  0.2960E+03
    -13.508  0.2432E+02  0.3024E+03
    -13.247  0.2307E+02  0.3084E+03
    -12.986  0.2361E+02  0.3145E+03
    -12.726  0.2918E+02  0.3221E+03
    -12.465  0.4500E+02  0.3339E+03
    -12.204  0.4755E+02  0.3463E+03
    -11.944  0.3364E+02  0.3550E+03
    -11.683  0.3097E+02  0.3631E+03
    -11.422  0.4152E+02  0.3739E+03
    -11.162  0.2184E+02  0.3796E+03
    -10.901  0.1367E+02  0.3832E+03
    -10.640  0.3026E+01  0.3840E+03
    -10.379  0.5679E-01  0.3840E+03
    -10.119  0.5446E-04  0.3840E+03
     -9.858  0.2149E-08  0.3840E+03
     -9.597  0.3407E-14  0.3840E+03
     -9.337  0.0000E+00  0.3840E+03
     -9.076  0.0000E+00  0.3840E+03
     -8.815  0.0000E+00  0.3840E+03
     -8.555  0.0000E+00  0.3840E+03
     -8.294  0.0000E+00  0.3840E+03
     -8.033  0.0000E+00  0.3840E+03
     -7.772  0.0000E+00  0.3840E+03
     -7.512  0.7069E-13  0.3840E+03
     -7.251  0.2287E-07  0.3840E+03
     -6.990  0.2718E-03  0.3840E+03
     -6.730  0.1317E+00  0.3840E+03
     -6.469  0.3822E+01  0.3850E+03
     -6.208  0.1697E+02  0.3895E+03
     -5.948  0.2340E+02  0.3956E+03
     -5.687  0.3051E+02  0.4035E+03
     -5.426  0.3120E+02  0.4116E+03
     -5.165  0.4395E+02  0.4231E+03
     -4.905  0.6342E+02  0.4396E+03
     -4.644  0.5460E+02  0.4539E+03
     -4.383  0.5703E+02  0.4687E+03
     -4.123  0.6605E+02  0.4860E+03
     -3.862  0.6368E+02  0.5026E+03
     -3.601  0.6841E+02  0.5204E+03
     -3.341  0.9125E+02  0.5442E+03
     -3.080  0.9641E+02  0.5693E+03
     -2.819  0.8084E+02  0.5904E+03
     -2.559  0.8302E+02  0.6120E+03
     -2.298  0.7520E+02  0.6316E+03
     -2.037  0.5430E+02  0.6458E+03
     -1.776  0.4900E+02  0.6586E+03
     -1.516  0.6363E+02  0.6752E+03
     -1.255  0.7934E+02  0.6958E+03
     -0.994  0.1075E+03  0.7239E+03
     -0.734  0.1408E+03  0.7606E+03
     -0.473  0.1434E+03  0.7980E+03
     -0.212  0.1681E+03  0.8418E+03
      0.048  0.1846E+03  0.8899E+03
      0.309  0.1630E+03  0.9324E+03
      0.570  0.1277E+03  0.9657E+03
      0.831  0.9760E+02  0.9912E+03
      1.091  0.8621E+02  0.1014E+04
      1.352  0.7894E+02  0.1034E+04
      1.613  0.6670E+02  0.1052E+04
      1.873  0.6097E+02  0.1068E+04
      2.134  0.6461E+02  0.1084E+04
      2.395  0.6709E+02  0.1102E+04
      2.655  0.6565E+02  0.1119E+04
      2.916  0.5500E+02  0.1133E+04
      3.177  0.3049E+02  0.1141E+04
      3.438  0.2585E+02  0.1148E+04
      3.698  0.1148E+02  0.1151E+04
      3.959  0.3729E+01  0.1152E+04
      4.220  0.2123E+00  0.1152E+04
      4.480  0.3384E-01  0.1152E+04
      4.741  0.2210E+01  0.1153E+04
      5.002  0.1416E+02  0.1156E+04
      5.262  0.1894E+02  0.1161E+04
      5.523  0.2181E+02  0.1167E+04
      5.784  0.2300E+02  0.1173E+04
      6.045  0.2528E+02  0.1179E+04
      6.305  0.2742E+02  0.1187E+04
      6.566  0.3397E+02  0.1195E+04
      6.827  0.3995E+02  0.1206E+04
      7.087  0.4552E+02  0.1218E+04
      7.348  0.5355E+02  0.1232E+04
      7.609  0.5530E+02  0.1246E+04
      7.869  0.5409E+02  0.1260E+04
      8.130  0.2708E+02  0.1267E+04
      8.391  0.2622E+01  0.1268E+04
      8.651  0.2004E-01  0.1268E+04
      8.912  0.7507E-05  0.1268E+04
      9.173  0.1140E-09  0.1268E+04
      9.434  0.0000E+00  0.1268E+04
      9.694  0.0000E+00  0.1268E+04
      9.955  0.0000E+00  0.1268E+04
     10.216  0.0000E+00  0.1268E+04
     10.476  0.0000E+00  0.1268E+04
     10.737  0.0000E+00  0.1268E+04
     10.998  0.0000E+00  0.1268E+04
     11.258  0.0000E+00  0.1268E+04
     11.519  0.0000E+00  0.1268E+04
