"Millerite NiS"                         
           1
    10.079733    0.000000    0.000000
     3.573298    9.425103    0.000000
     0.000000    0.000000   20.683504
   Ty   Ty
  36  36
Direct configuration=     1
   0.28709529  0.99350342  0.05816463
   0.39705889  0.79495179  0.12693702
   0.54732740  0.64468328  0.25387405
   0.69759592  0.49441476  0.38081107
   0.11381506  0.41152895  0.16924937
   0.26408357  0.26126044  0.29618639
   0.41435209  0.11099193  0.42312341
   0.09649119  0.78729786  0.45114248
   0.71465447  0.21383416  0.14356602
   0.83057123  0.02810611  0.21156171
   0.98083975  0.87783760  0.33849873
   0.34561619  0.47502413  0.13518303
   0.50762556  0.42017912  0.22033653
   0.65789407  0.26991061  0.34727355
   0.79715629  0.11421025  0.45908892
   0.07411322  0.18702479  0.13571184
   0.22438173  0.03675628  0.26264887
   0.37465025  0.88648777  0.38958589
   0.43362585  0.72200218  0.47287676
   0.89442804  0.25681613  0.06036064
   0.07977286  0.50644347  0.41681687
   0.57505222  0.88906729  0.09601184
   0.79086939  0.80360196  0.17802418
   0.94113790  0.65333344  0.30496121
   0.01948527  0.17787980  0.42157098
   0.58324534  0.59836927  0.08125785
   0.73212972  0.45988096  0.18679900
   0.88239823  0.30961245  0.31373603
   0.29861738  0.22672664  0.10217432
   0.44888589  0.07645812  0.22911134
   0.59915440  0.92618961  0.35604837
   0.73355663  0.81921398  0.45138228
   0.01537355  0.84330380  0.14448666
   0.16564206  0.69303529  0.27142369
   0.31591057  0.54276677  0.39836071
   0.78063131  0.97900129  0.08592856
   0.01193997  0.00442862  0.47776694
   0.58579929  0.40599939  0.11724657
   0.73606781  0.25573088  0.24418359
   0.88633632  0.10546236  0.37112062
   0.12121187  0.18883905  0.04024776
   0.30255546  0.02257655  0.15955891
   0.45282398  0.87230804  0.28649593
   0.60309249  0.72203952  0.41343296
   0.01931164  0.63915371  0.20187125
   0.16958015  0.48888520  0.32880827
   0.28978431  0.35167467  0.42978687
   0.88695458  0.76803271  0.08795723
   0.47167284  0.79087467  0.03474648
   0.63635413  0.69187455  0.15995199
   0.78662264  0.54160604  0.28688901
   0.93135032  0.39722532  0.39904568
   0.19548101  0.43695015  0.08128119
   0.35311030  0.30845171  0.20226433
   0.50337881  0.15818320  0.32920136
   0.63371746  0.03291752  0.44158825
   0.06986647  0.92502888  0.24457667
   0.22013498  0.77476036  0.37151370
   0.28085084  0.63818775  0.48776581
   0.91959796  0.07529739  0.11763965
   0.19112034  0.84637349  0.08972994
   0.35047896  0.64131972  0.20265741
   0.50074748  0.49105120  0.32959444
   0.69080302  0.32915972  0.43893538
   0.06723514  0.25789688  0.24496976
   0.21750365  0.10762837  0.37190678
   0.40395886  0.93954029  0.48106036
   0.92012535  0.39433964  0.12954308
   0.44777795  0.07441289  0.04651547
   0.63372279  0.02474255  0.16034507
   0.78399131  0.87447404  0.28728210
   0.93425982  0.72420553  0.41421912
