<?xml version="1.0" encoding="ISO-8859-1"?>
<modeling>
 <generator>
  <i name="program" type="string">vasp </i>
  <i name="version" type="string">5.4.4.18Apr17-6-g9f103f2a35  </i>
  <i name="subversion" type="string">(build Aug 13 2019 17:33:20) gamma-only         parallel </i>
  <i name="platform" type="string">LinuxIFC </i>
  <i name="date" type="string">2020 05 11 </i>
  <i name="time" type="string">09:47:09 </i>
 </generator>
 <incar>
  <i type="string" name="SYSTEM">"Millerite NiS"</i>
  <i type="string" name="PREC">normal</i>
  <i type="int" name="NSIM">     4</i>
  <i type="int" name="NELM">   100</i>
  <i name="ENCUT">    450.00000000</i>
  <i type="string" name="LREAL">A</i>
  <i type="int" name="ISMEAR">     0</i>
  <i type="int" name="NWRITE">     2</i>
  <i type="logical" name="LWAVE"> F  </i>
  <i type="logical" name="LCHARG"> F  </i>
  <v type="int" name="KPOINT_BSE">    -1     0     0     0</v>
  <i type="int" name="NELM">   100</i>
 </incar>
 <structure name="primitive_cell" >
  <crystal>
   <varray name="basis" >
    <v>      11.25646304       0.00000000       0.00000000 </v>
    <v>       5.04456212      10.06282034       0.00000000 </v>
    <v>       0.00000000       0.00000000      22.51995597 </v>
   </varray>
   <i name="volume">   2550.87516496 </i>
   <varray name="rec_basis" >
    <v>       0.08883785      -0.04453504       0.00000000 </v>
    <v>       0.00000000       0.09937572       0.00000000 </v>
    <v>       0.00000000       0.00000000       0.04440506 </v>
   </varray>
  </crystal>
  <varray name="positions" >
   <v>       0.26092069       0.47878037       0.29519774 </v>
   <v>       0.07287763      -0.33317655       0.31134757 </v>
   <v>       0.17409868       0.39738739       0.22483408 </v>
   <v>       0.34231367      -0.43439760       0.22483408 </v>
   <v>       0.26805854       0.30342752       0.35520991 </v>
   <v>       0.43627354       0.47164252       0.35520991 </v>
   <v>       0.36819893       0.23939914       0.26075166 </v>
   <v>      -0.49969806       0.37150214       0.26075166 </v>
   <v>       0.16452473      -0.42504201       0.41797393 </v>
   <v>       0.35488056       0.38482050       0.42557357 </v>
   <v>       0.16696083      -0.42725975       0.16482191 </v>
   <v>       0.47891775       0.26078331       0.18097174 </v>
   <v>      -0.42712237       0.16682345       0.31134757 </v>
   <v>       0.00030194       0.37150214       0.26075166 </v>
   <v>       0.09426180      -0.22245773       0.39112749 </v>
   <v>      -0.03784121      -0.35456073       0.39112749 </v>
   <v>       0.36819893      -0.26060086       0.26075166 </v>
   <v>      -0.06372646       0.47164252       0.35520991 </v>
   <v>       0.26805854      -0.19657248       0.35520991 </v>
   <v>       0.40634206       0.46546200       0.13037583 </v>
   <v>       0.27423906       0.33335901       0.13037583 </v>
   <v>       0.46215879       0.14543927       0.39112749 </v>
   <v>      -0.40573820       0.27754227       0.39112749 </v>
   <v>       0.09426180       0.27754227       0.39112749 </v>
   <v>       0.46215879      -0.35456073       0.39112749 </v>
   <v>       0.00030194      -0.12849786       0.26075166 </v>
   <v>      -0.13180107      -0.26060086       0.26075166 </v>
   <v>      -0.02108225      -0.23921669       0.18097174 </v>
   <v>       0.08098467       0.47877904       0.11360110 </v>
   <v>       0.25886520      -0.34247092       0.11239615 </v>
   <v>       0.34231367       0.06560240       0.22483408 </v>
   <v>      -0.32590132       0.39738739       0.22483408 </v>
   <v>      -0.15768633      -0.43439760       0.22483408 </v>
   <v>       0.17409868      -0.10261261       0.22483408 </v>
   <v>       0.36317512       0.22000802       0.46976304 </v>
   <v>       0.07287763       0.16682345       0.31134757 </v>
   <v>      -0.42712237      -0.33317655       0.31134757 </v>
   <v>      -0.47424643       0.34865892       0.47697448 </v>
   <v>      -0.06372646      -0.02835748       0.35520991 </v>
   <v>      -0.23194146      -0.19657248       0.35520991 </v>
   <v>       0.37937697      -0.28556879       0.47237597 </v>
   <v>      -0.23194146       0.30342752       0.35520991 </v>
   <v>       0.43627354      -0.02835748       0.35520991 </v>
   <v>       0.02695463       0.35125076       0.47375508 </v>
   <v>      -0.46938585      -0.47325616       0.48296605 </v>
   <v>       0.35778836       0.38217390       0.05923260 </v>
   <v>      -0.02108225       0.26078331       0.18097174 </v>
   <v>       0.47891775      -0.23921669       0.18097174 </v>
   <v>       0.27423906      -0.16664099       0.13037583 </v>
   <v>      -0.09365794       0.46546200       0.13037583 </v>
   <v>       0.20435163       0.18583522       0.48276298 </v>
   <v>       0.01930415      -0.13377211       0.46864840 </v>
   <v>      -0.47092433       0.22643837       0.08884738 </v>
   <v>      -0.33577932       0.07515198       0.42450666 </v>
   <v>      -0.12230736      -0.28247089       0.47218798 </v>
   <v>      -0.33303918       0.07274025       0.16482191 </v>
   <v>      -0.14511944      -0.11517949       0.42557357 </v>
   <v>       0.26092069      -0.02121963       0.29519774 </v>
   <v>      -0.23907931       0.47878037       0.29519774 </v>
   <v>       0.27309597       0.15243517       0.09609706 </v>
   <v>      -0.41986119       0.49134726       0.09445824 </v>
   <v>       0.16509323       0.07184215       0.42336743 </v>
   <v>       0.16696082       0.07274025       0.16482191 </v>
   <v>      -0.14511944       0.38482050       0.42557357 </v>
   <v>       0.35488056      -0.11517949       0.42557357 </v>
   <v>      -0.23907931      -0.02121963       0.29519774 </v>
   <v>      -0.33303917      -0.42725975       0.16482191 </v>
   <v>      -0.33316250      -0.42713642       0.44172340 </v>
   <v>      -0.49969806      -0.12849786       0.26075166 </v>
   <v>      -0.13180107       0.23939914       0.26075166 </v>
   <v>      -0.28748690       0.18861909       0.48118439 </v>
   <v>      -0.15768633       0.06560240       0.22483408 </v>
   <v>      -0.32590132      -0.10261261       0.22483408 </v>
   <v>      -0.09365794      -0.03453800       0.13037583 </v>
   <v>      -0.22576094      -0.16664099       0.13037583 </v>
   <v>      -0.22576094       0.33335901       0.13037583 </v>
   <v>       0.40634206      -0.03453800       0.13037583 </v>
   <v>      -0.03784121       0.14543927       0.39112749 </v>
   <v>      -0.40573820      -0.22245773       0.39112749 </v>
   <v>       0.08097320      -0.01890308       0.10923474 </v>
   <v>      -0.25164619       0.15956227       0.09445824 </v>
   <v>      -0.41986119      -0.00865274       0.09445824 </v>
   <v>      -0.45691600      -0.28424666       0.09073659 </v>
   <v>      -0.25164619      -0.34043773       0.09445824 </v>
   <v>      -0.12589648      -0.15174437       0.05779553 </v>
   <v>      -0.29609757      -0.28853636       0.48587746 </v>
   <v>      -0.31494838       0.32184151       0.03822976 </v>
   <v>      -0.47766476      -0.13360780       0.47172450 </v>
   <v>      -0.12509125       0.21749250       0.47195064 </v>
   <v>       0.38495788      -0.14525682       0.05059590 </v>
   <v>      -0.12142589       0.33225355       0.05623798 </v>
   <v>       0.42948422       0.01772208       0.03277955 </v>
   <v>       0.20902735       0.02450243       0.05823712 </v>
   <v>      -0.27332984      -0.48412655       0.04715786 </v>
   <v>      -0.28441997       0.02621294       0.04374048 </v>
   <v>      -0.32163841      -0.17312921       0.03758810 </v>
  </varray>
 </structure>
 <varray name="primitive_index" >
  <v type="int" >        1 </v>
  <v type="int" >       73 </v>
  <v type="int" >       58 </v>
  <v type="int" >       80 </v>
  <v type="int" >       59 </v>
  <v type="int" >       54 </v>
  <v type="int" >        5 </v>
  <v type="int" >       20 </v>
  <v type="int" >       74 </v>
  <v type="int" >        2 </v>
  <v type="int" >       27 </v>
  <v type="int" >       52 </v>
  <v type="int" >       61 </v>
  <v type="int" >        7 </v>
  <v type="int" >       33 </v>
  <v type="int" >       43 </v>
  <v type="int" >       30 </v>
  <v type="int" >       66 </v>
  <v type="int" >       83 </v>
  <v type="int" >       10 </v>
  <v type="int" >        4 </v>
  <v type="int" >        6 </v>
  <v type="int" >       21 </v>
  <v type="int" >        8 </v>
  <v type="int" >       31 </v>
  <v type="int" >       32 </v>
  <v type="int" >       42 </v>
  <v type="int" >       88 </v>
  <v type="int" >       57 </v>
  <v type="int" >       79 </v>
  <v type="int" >       56 </v>
  <v type="int" >       70 </v>
  <v type="int" >       92 </v>
  <v type="int" >       82 </v>
  <v type="int" >       60 </v>
  <v type="int" >       49 </v>
  <v type="int" >       85 </v>
  <v type="int" >       65 </v>
  <v type="int" >       90 </v>
  <v type="int" >       95 </v>
  <v type="int" >       84 </v>
  <v type="int" >       71 </v>
  <v type="int" >       78 </v>
  <v type="int" >       53 </v>
  <v type="int" >       39 </v>
  <v type="int" >       51 </v>
  <v type="int" >       64 </v>
  <v type="int" >       76 </v>
  <v type="int" >       29 </v>
  <v type="int" >       23 </v>
  <v type="int" >        9 </v>
  <v type="int" >       77 </v>
  <v type="int" >       14 </v>
  <v type="int" >       62 </v>
  <v type="int" >       96 </v>
  <v type="int" >       15 </v>
  <v type="int" >       36 </v>
  <v type="int" >       25 </v>
  <v type="int" >       12 </v>
  <v type="int" >       55 </v>
  <v type="int" >       69 </v>
  <v type="int" >       50 </v>
  <v type="int" >        3 </v>
  <v type="int" >       13 </v>
  <v type="int" >       26 </v>
  <v type="int" >       35 </v>
  <v type="int" >       38 </v>
  <v type="int" >       86 </v>
  <v type="int" >       44 </v>
  <v type="int" >       18 </v>
  <v type="int" >       22 </v>
  <v type="int" >       68 </v>
  <v type="int" >       94 </v>
  <v type="int" >       47 </v>
  <v type="int" >       41 </v>
  <v type="int" >       17 </v>
  <v type="int" >       34 </v>
  <v type="int" >       19 </v>
  <v type="int" >       45 </v>
  <v type="int" >       81 </v>
  <v type="int" >       67 </v>
  <v type="int" >       93 </v>
  <v type="int" >       37 </v>
  <v type="int" >       91 </v>
  <v type="int" >       87 </v>
  <v type="int" >       46 </v>
  <v type="int" >       16 </v>
  <v type="int" >       89 </v>
  <v type="int" >       72 </v>
  <v type="int" >       75 </v>
  <v type="int" >       63 </v>
  <v type="int" >       11 </v>
  <v type="int" >       28 </v>
  <v type="int" >       48 </v>
  <v type="int" >       24 </v>
  <v type="int" >       40 </v>
 </varray>
 <kpoints>
  <generation param="Gamma">
   <v type="int" name="divisions">       1        1        1 </v>
   <v name="usershift">      0.00000000       0.00000000       0.00000000 </v>
   <v name="genvec1">      1.00000000       0.00000000       0.00000000 </v>
   <v name="genvec2">      0.00000000       1.00000000       0.00000000 </v>
   <v name="genvec3">      0.00000000       0.00000000       1.00000000 </v>
   <v name="shift">      0.00000000       0.00000000       0.00000000 </v>
  </generation>
  <varray name="kpointlist" >
   <v>       0.00000000       0.00000000       0.00000000 </v>
  </varray>
  <varray name="weights" >
   <v>       1.00000000 </v>
  </varray>
 </kpoints>
 <parameters>
  <separator name="general" >
   <i type="string" name="SYSTEM">"Millerite NiS"</i>
   <i type="logical" name="LCOMPAT"> F  </i>
  </separator>
  <separator name="electronic" >
   <i type="string" name="PREC">normal</i>
   <i name="ENMAX">    450.00000000</i>
   <i name="ENAUG">    703.44300000</i>
   <i name="EDIFF">      0.00010000</i>
   <i type="int" name="IALGO">    38</i>
   <i type="int" name="IWAVPR">    10</i>
   <i type="int" name="NBANDS">   634</i>
   <i name="NELECT">   1056.00000000</i>
   <i type="int" name="TURBO">     0</i>
   <i type="int" name="IRESTART">     0</i>
   <i type="int" name="NREBOOT">     0</i>
   <i type="int" name="NMIN">     0</i>
   <i name="EREF">      0.00000000</i>
   <separator name="electronic smearing" >
    <i type="int" name="ISMEAR">     0</i>
    <i name="SIGMA">      0.20000000</i>
    <i name="KSPACING">      0.50000000</i>
    <i type="logical" name="KGAMMA"> T  </i>
   </separator>
   <separator name="electronic projectors" >
    <i type="logical" name="LREAL"> T  </i>
    <v name="ROPT">     -0.00050000     -0.00050000</v>
    <i type="int" name="LMAXPAW">  -100</i>
    <i type="int" name="LMAXMIX">     2</i>
    <i type="logical" name="NLSPLINE"> F  </i>
   </separator>
   <separator name="electronic startup" >
    <i type="int" name="ISTART">     0</i>
    <i type="int" name="ICHARG">     2</i>
    <i type="int" name="INIWAV">     1</i>
   </separator>
   <separator name="electronic spin" >
    <i type="int" name="ISPIN">     1</i>
    <i type="logical" name="LNONCOLLINEAR"> F  </i>
    <v name="MAGMOM">      1.00000000      1.00000000      1.00000000      1.00000000      1.00000000      1.00000000      1.00000000      1.00000000      1.00000000      1.00000000      1.00000000      1.00000000      1.00000000      1.00000000      1.00000000      1.00000000      1.00000000      1.00000000      1.00000000      1.00000000
      1.00000000      1.00000000      1.00000000      1.00000000      1.00000000      1.00000000      1.00000000      1.00000000      1.00000000      1.00000000      1.00000000      1.00000000      1.00000000      1.00000000      1.00000000      1.00000000      1.00000000      1.00000000      1.00000000      1.00000000
      1.00000000      1.00000000      1.00000000      1.00000000      1.00000000      1.00000000      1.00000000      1.00000000      1.00000000      1.00000000      1.00000000      1.00000000      1.00000000      1.00000000      1.00000000      1.00000000      1.00000000      1.00000000      1.00000000      1.00000000
      1.00000000      1.00000000      1.00000000      1.00000000      1.00000000      1.00000000      1.00000000      1.00000000      1.00000000      1.00000000      1.00000000      1.00000000      1.00000000      1.00000000      1.00000000      1.00000000      1.00000000      1.00000000      1.00000000      1.00000000
      1.00000000      1.00000000      1.00000000      1.00000000      1.00000000      1.00000000      1.00000000      1.00000000      1.00000000      1.00000000      1.00000000      1.00000000      1.00000000      1.00000000      1.00000000      1.00000000</v>
    <i name="NUPDOWN">     -1.00000000</i>
    <i type="logical" name="LSORBIT"> F  </i>
    <v name="SAXIS">      0.00000000      0.00000000      1.00000000</v>
    <i type="logical" name="LSPIRAL"> F  </i>
    <v name="QSPIRAL">      0.00000000      0.00000000      0.00000000</v>
    <i type="logical" name="LZEROZ"> F  </i>
   </separator>
   <separator name="electronic exchange-correlation" >
    <i type="logical" name="LASPH"> F  </i>
    <i type="logical" name="LMETAGGA"> F  </i>
   </separator>
   <separator name="electronic convergence" >
    <i type="int" name="NELM">   100</i>
    <i type="int" name="NELMDL">    -5</i>
    <i type="int" name="NELMIN">     2</i>
    <i name="ENINI">    450.00000000</i>
    <separator name="electronic convergence detail" >
     <i type="logical" name="LDIAG"> T  </i>
     <i type="logical" name="LSUBROT"> F  </i>
     <i name="WEIMIN">      0.00000000</i>
     <i name="EBREAK">      0.00000004</i>
     <i name="DEPER">      0.30000000</i>
     <i type="int" name="NRMM">     4</i>
     <i name="TIME">      0.40000000</i>
    </separator>
   </separator>
   <separator name="electronic mixer" >
    <i name="AMIX">      0.40000000</i>
    <i name="BMIX">      1.00000000</i>
    <i name="AMIN">      0.10000000</i>
    <i name="AMIX_MAG">      1.60000000</i>
    <i name="BMIX_MAG">      1.00000000</i>
    <separator name="electronic mixer details" >
     <i type="int" name="IMIX">     4</i>
     <i type="logical" name="MIXFIRST"> F  </i>
     <i type="int" name="MAXMIX">   -45</i>
     <i name="WC">    100.00000000</i>
     <i type="int" name="INIMIX">     1</i>
     <i type="int" name="MIXPRE">     1</i>
     <i type="int" name="MREMOVE">     5</i>
    </separator>
   </separator>
   <separator name="electronic dipolcorrection" >
    <i type="logical" name="LDIPOL"> F  </i>
    <i type="logical" name="LMONO"> F  </i>
    <i type="int" name="IDIPOL">     0</i>
    <i name="EPSILON">      1.00000000</i>
    <v name="DIPOL">   -100.00000000   -100.00000000   -100.00000000</v>
    <i name="EFIELD">      0.00000000</i>
   </separator>
  </separator>
  <separator name="grids" >
   <i type="int" name="NGX">    60</i>
   <i type="int" name="NGY">    60</i>
   <i type="int" name="NGZ">   120</i>
   <i type="int" name="NGXF">   120</i>
   <i type="int" name="NGYF">   120</i>
   <i type="int" name="NGZF">   240</i>
   <i type="logical" name="ADDGRID"> F  </i>
  </separator>
  <separator name="ionic" >
   <i type="int" name="NSW">     0</i>
   <i type="int" name="IBRION">    -1</i>
   <i type="int" name="MDALGO">     0</i>
   <i type="int" name="ISIF">     2</i>
   <i name="PSTRESS">      0.00000000</i>
   <i name="EDIFFG">      0.00100000</i>
   <i type="int" name="NFREE">     0</i>
   <i name="POTIM">      0.50000000</i>
   <i name="SMASS">     -3.00000000</i>
   <i name="SCALEE">      1.00000000</i>
  </separator>
  <separator name="ionic md" >
   <i name="TEBEG">      0.00010000</i>
   <i name="TEEND">      0.00010000</i>
   <i type="int" name="NBLOCK">     1</i>
   <i type="int" name="KBLOCK">     1</i>
   <i type="int" name="NPACO">   256</i>
   <i name="APACO">     16.00000000</i>
  </separator>
  <separator name="symmetry" >
   <i type="int" name="ISYM">     2</i>
   <i name="SYMPREC">      0.00001000</i>
  </separator>
  <separator name="dos" >
   <i type="int" name="LORBIT">     0</i>
   <v name="RWIGS">     -1.00000000     -1.00000000</v>
   <i type="int" name="NEDOS">   301</i>
   <i name="EMIN">     10.00000000</i>
   <i name="EMAX">    -10.00000000</i>
   <i name="EFERMI">      0.00000000</i>
  </separator>
  <separator name="writing" >
   <i type="int" name="NWRITE">     2</i>
   <i type="logical" name="LWAVE"> F  </i>
   <i type="logical" name="LDOWNSAMPLE"> F  </i>
   <i type="logical" name="LCHARG"> F  </i>
   <i type="logical" name="LPARD"> F  </i>
   <i type="logical" name="LVTOT"> F  </i>
   <i type="logical" name="LVHAR"> F  </i>
   <i type="logical" name="LELF"> F  </i>
   <i type="logical" name="LOPTICS"> F  </i>
   <v name="STM">      0.00000000      0.00000000      0.00000000      0.00000000      0.00000000      0.00000000      0.00000000</v>
  </separator>
  <separator name="performance" >
   <i type="int" name="NPAR">     2</i>
   <i type="int" name="NSIM">     4</i>
   <i type="int" name="NBLK">    -1</i>
   <i type="logical" name="LPLANE"> T  </i>
   <i type="logical" name="LSCALAPACK"> T  </i>
   <i type="logical" name="LSCAAWARE"> F  </i>
   <i type="logical" name="LSCALU"> F  </i>
   <i type="logical" name="LASYNC"> F  </i>
   <i type="logical" name="LORBITALREAL"> F  </i>
  </separator>
  <separator name="miscellaneous" >
   <i type="int" name="IDIOT">     3</i>
   <i type="int" name="ISPECIAL">     0</i>
   <i type="logical" name="LMUSIC"> F  </i>
   <v name="POMASS">     58.69000000     32.06600000</v>
   <v name="DARWINR">      0.00000000      0.00000000</v>
   <v name="DARWINV">      1.00000000      1.00000000</v>
   <i type="logical" name="LCORR"> T  </i>
  </separator>
  <i type="logical" name="GGA_COMPAT"> T  </i>
  <i type="logical" name="LBERRY"> F  </i>
  <i type="int" name="ICORELEVEL">     0</i>
  <i type="logical" name="LDAU"> F  </i>
  <i type="int" name="I_CONSTRAINED_M">     0</i>
  <separator name="electronic exchange-correlation" >
   <i type="string" name="GGA">--</i>
   <i type="int" name="VOSKOWN">     0</i>
   <i type="logical" name="LHFCALC"> F  </i>
   <i type="string" name="PRECFOCK"></i>
   <i type="logical" name="LSYMGRAD"> F  </i>
   <i type="logical" name="LHFONE"> F  </i>
   <i type="logical" name="LRHFCALC"> F  </i>
   <i type="logical" name="LTHOMAS"> F  </i>
   <i type="logical" name="LMODELHF"> F  </i>
   <i name="ENCUT4O">     -1.00000000</i>
   <i type="int" name="EXXOEP">     0</i>
   <i type="int" name="FOURORBIT">     0</i>
   <i name="AEXX">      0.00000000</i>
   <i name="HFALPHA">      0.00000000</i>
   <i name="MCALPHA">      0.00000000</i>
   <i name="ALDAX">      1.00000000</i>
   <i name="AGGAX">      1.00000000</i>
   <i name="ALDAC">      1.00000000</i>
   <i name="AGGAC">      1.00000000</i>
   <i type="int" name="NKREDX">     1</i>
   <i type="int" name="NKREDY">     1</i>
   <i type="int" name="NKREDZ">     1</i>
   <i type="logical" name="SHIFTRED"> F  </i>
   <i type="logical" name="ODDONLY"> F  </i>
   <i type="logical" name="EVENONLY"> F  </i>
   <i type="int" name="LMAXFOCK">     0</i>
   <i type="int" name="NMAXFOCKAE">     0</i>
   <i type="logical" name="LFOCKAEDFT"> F  </i>
   <i name="HFSCREEN">      0.00000000</i>
   <i name="HFSCREENC">      0.00000000</i>
   <i type="int" name="NBANDSGWLOW">     0</i>
  </separator>
  <separator name="vdW DFT" >
   <i type="logical" name="LUSE_VDW"> F  </i>
   <i name="Zab_VDW">     -0.84910000</i>
   <i name="PARAM1">      0.12340000</i>
   <i name="PARAM2">      1.00000000</i>
   <i name="PARAM3">      0.00000000</i>
  </separator>
  <separator name="model GW" >
   <i type="int" name="MODEL_GW">     0</i>
   <i name="MODEL_EPS0">     15.94296978</i>
   <i name="MODEL_ALPHA">      1.00000000</i>
  </separator>
  <separator name="linear response parameters" >
   <i type="logical" name="LEPSILON"> F  </i>
   <i type="logical" name="LRPA"> F  </i>
   <i type="logical" name="LNABLA"> F  </i>
   <i type="logical" name="LVEL"> F  </i>
   <i type="int" name="KINTER">     0</i>
   <i name="CSHIFT">      0.10000000</i>
   <i name="OMEGAMAX">     -1.00000000</i>
   <i name="DEG_THRESHOLD">      0.00200000</i>
   <i name="RTIME">     -0.10000000</i>
   <i name="WPLASMAI">      0.00000000</i>
   <v name="DFIELD">      0.00000000      0.00000000      0.00000000</v>
   <v name="WPLASMA">      0.00000000      0.00000000      0.00000000      0.00000000      0.00000000      0.00000000      0.00000000      0.00000000      0.00000000</v>
  </separator>
  <separator name="orbital magnetization" >
   <i type="logical" name="NUCIND"> F  </i>
   <v name="MAGPOS">      0.00000000      0.00000000      0.00000000</v>
   <i type="logical" name="LNICSALL"> T  </i>
   <i type="logical" name="ORBITALMAG"> F  </i>
   <i type="logical" name="LMAGBLOCH"> F  </i>
   <i type="logical" name="LCHIMAG"> F  </i>
   <i type="logical" name="LGAUGE"> T  </i>
   <i type="int" name="MAGATOM">     0</i>
   <v name="MAGDIPOL">      0.00000000      0.00000000      0.00000000</v>
   <v name="AVECCONST">      0.00000000      0.00000000      0.00000000</v>
  </separator>
  <separator name="response functions" >
   <i type="logical" name="LADDER"> F  </i>
   <i type="logical" name="LRPAFORCE"> F  </i>
   <i type="logical" name="LFXC"> F  </i>
   <i type="logical" name="LHARTREE"> T  </i>
   <i type="int" name="IBSE">     0</i>
   <v type="int" name="KPOINT">    -1     0     0     0</v>
   <i type="logical" name="LTCTE"> F  </i>
   <i type="logical" name="LTETE"> F  </i>
   <i type="logical" name="LTRIPLET"> F  </i>
   <i type="logical" name="LFXCEPS"> F  </i>
   <i type="logical" name="LFXHEG"> F  </i>
   <i type="int" name="NATURALO">     2</i>
   <i type="logical" name="L2ORDER"> F  </i>
   <i type="logical" name="LMP2LT"> F  </i>
   <i type="logical" name="LUSEW"> F  </i>
   <i name="ENCUTGW">     -2.00000000</i>
   <i name="ENCUTGWSOFT">     -2.00000000</i>
   <i name="ENCUTLF">     -1.00000000</i>
   <i type="int" name="LMAXMP2">    -1</i>
   <i name="SCISSOR">      0.00000000</i>
   <i type="int" name="NOMEGA">     0</i>
   <i type="int" name="NOMEGAR">     0</i>
   <i type="int" name="NBANDSGW">    -1</i>
   <i type="int" name="NBANDSO">    -1</i>
   <i type="int" name="NBANDSV">    -1</i>
   <i type="int" name="NELM">   100</i>
   <i type="int" name="NELMHF">     1</i>
   <i type="int" name="DIM">     3</i>
   <i type="int" name="ANTIRES">     0</i>
   <i name="OMEGAMAX">    -30.00000000</i>
   <i name="OMEGAMIN">    -30.00000000</i>
   <i name="OMEGATL">   -200.00000000</i>
   <i type="int" name="OMEGAGRID">   140</i>
   <i name="CSHIFT">     -0.10000000</i>
   <i type="logical" name="SELFENERGY"> F  </i>
   <i type="logical" name="LSPECTRAL"> F  </i>
   <i type="logical" name="LSPECTRALGW"> F  </i>
   <i type="logical" name="LSINGLES"> F  </i>
   <i type="logical" name="LFERMIGW"> F  </i>
   <i type="logical" name="ODDONLYGW"> F  </i>
   <i type="logical" name="EVENONLYGW"> F  </i>
   <i type="int" name="NKREDLFX">     1</i>
   <i type="int" name="NKREDLFY">     1</i>
   <i type="int" name="NKREDLFZ">     1</i>
   <i type="int" name="MAXMEM">  2800</i>
   <i type="int" name="TELESCOPE">     0</i>
   <i type="int" name="TAUPAR">     1</i>
   <i type="int" name="OMEGAPAR">    -1</i>
   <i name="LAMBDA">      1.00000000</i>
  </separator>
  <separator name="External order field" >
   <i name="OFIELD_KAPPA">      0.00000000</i>
   <v name="OFIELD_K">      0.00000000      0.00000000      0.00000000</v>
   <i name="OFIELD_Q6_NEAR">      0.00000000</i>
   <i name="OFIELD_Q6_FAR">      0.00000000</i>
   <i name="OFIELD_A">      0.00000000</i>
  </separator>
 </parameters>
 <atominfo>
  <atoms>      96 </atoms>
  <types>       2 </types>
  <array name="atoms" >
   <dimension dim="1">ion</dimension>
   <field type="string">element</field>
   <field type="int">atomtype</field>
   <set>
    <rc><c>Ni</c><c>   1</c></rc>
    <rc><c>Ni</c><c>   1</c></rc>
    <rc><c>Ni</c><c>   1</c></rc>
    <rc><c>Ni</c><c>   1</c></rc>
    <rc><c>Ni</c><c>   1</c></rc>
    <rc><c>Ni</c><c>   1</c></rc>
    <rc><c>Ni</c><c>   1</c></rc>
    <rc><c>Ni</c><c>   1</c></rc>
    <rc><c>Ni</c><c>   1</c></rc>
    <rc><c>Ni</c><c>   1</c></rc>
    <rc><c>Ni</c><c>   1</c></rc>
    <rc><c>Ni</c><c>   1</c></rc>
    <rc><c>Ni</c><c>   1</c></rc>
    <rc><c>Ni</c><c>   1</c></rc>
    <rc><c>Ni</c><c>   1</c></rc>
    <rc><c>Ni</c><c>   1</c></rc>
    <rc><c>Ni</c><c>   1</c></rc>
    <rc><c>Ni</c><c>   1</c></rc>
    <rc><c>Ni</c><c>   1</c></rc>
    <rc><c>Ni</c><c>   1</c></rc>
    <rc><c>Ni</c><c>   1</c></rc>
    <rc><c>Ni</c><c>   1</c></rc>
    <rc><c>Ni</c><c>   1</c></rc>
    <rc><c>Ni</c><c>   1</c></rc>
    <rc><c>Ni</c><c>   1</c></rc>
    <rc><c>Ni</c><c>   1</c></rc>
    <rc><c>Ni</c><c>   1</c></rc>
    <rc><c>Ni</c><c>   1</c></rc>
    <rc><c>Ni</c><c>   1</c></rc>
    <rc><c>Ni</c><c>   1</c></rc>
    <rc><c>Ni</c><c>   1</c></rc>
    <rc><c>Ni</c><c>   1</c></rc>
    <rc><c>Ni</c><c>   1</c></rc>
    <rc><c>Ni</c><c>   1</c></rc>
    <rc><c>Ni</c><c>   1</c></rc>
    <rc><c>Ni</c><c>   1</c></rc>
    <rc><c>Ni</c><c>   1</c></rc>
    <rc><c>Ni</c><c>   1</c></rc>
    <rc><c>Ni</c><c>   1</c></rc>
    <rc><c>Ni</c><c>   1</c></rc>
    <rc><c>Ni</c><c>   1</c></rc>
    <rc><c>Ni</c><c>   1</c></rc>
    <rc><c>Ni</c><c>   1</c></rc>
    <rc><c>Ni</c><c>   1</c></rc>
    <rc><c>Ni</c><c>   1</c></rc>
    <rc><c>Ni</c><c>   1</c></rc>
    <rc><c>Ni</c><c>   1</c></rc>
    <rc><c>Ni</c><c>   1</c></rc>
    <rc><c>S </c><c>   2</c></rc>
    <rc><c>S </c><c>   2</c></rc>
    <rc><c>S </c><c>   2</c></rc>
    <rc><c>S </c><c>   2</c></rc>
    <rc><c>S </c><c>   2</c></rc>
    <rc><c>S </c><c>   2</c></rc>
    <rc><c>S </c><c>   2</c></rc>
    <rc><c>S </c><c>   2</c></rc>
    <rc><c>S </c><c>   2</c></rc>
    <rc><c>S </c><c>   2</c></rc>
    <rc><c>S </c><c>   2</c></rc>
    <rc><c>S </c><c>   2</c></rc>
    <rc><c>S </c><c>   2</c></rc>
    <rc><c>S </c><c>   2</c></rc>
    <rc><c>S </c><c>   2</c></rc>
    <rc><c>S </c><c>   2</c></rc>
    <rc><c>S </c><c>   2</c></rc>
    <rc><c>S </c><c>   2</c></rc>
    <rc><c>S </c><c>   2</c></rc>
    <rc><c>S </c><c>   2</c></rc>
    <rc><c>S </c><c>   2</c></rc>
    <rc><c>S </c><c>   2</c></rc>
    <rc><c>S </c><c>   2</c></rc>
    <rc><c>S </c><c>   2</c></rc>
    <rc><c>S </c><c>   2</c></rc>
    <rc><c>S </c><c>   2</c></rc>
    <rc><c>S </c><c>   2</c></rc>
    <rc><c>S </c><c>   2</c></rc>
    <rc><c>S </c><c>   2</c></rc>
    <rc><c>S </c><c>   2</c></rc>
    <rc><c>S </c><c>   2</c></rc>
    <rc><c>S </c><c>   2</c></rc>
    <rc><c>S </c><c>   2</c></rc>
    <rc><c>S </c><c>   2</c></rc>
    <rc><c>S </c><c>   2</c></rc>
    <rc><c>S </c><c>   2</c></rc>
    <rc><c>S </c><c>   2</c></rc>
    <rc><c>S </c><c>   2</c></rc>
    <rc><c>S </c><c>   2</c></rc>
    <rc><c>S </c><c>   2</c></rc>
    <rc><c>S </c><c>   2</c></rc>
    <rc><c>S </c><c>   2</c></rc>
    <rc><c>S </c><c>   2</c></rc>
    <rc><c>S </c><c>   2</c></rc>
    <rc><c>S </c><c>   2</c></rc>
    <rc><c>S </c><c>   2</c></rc>
    <rc><c>S </c><c>   2</c></rc>
    <rc><c>S </c><c>   2</c></rc>
   </set>
  </array>
  <array name="atomtypes" >
   <dimension dim="1">type</dimension>
   <field type="int">atomspertype</field>
   <field type="string">element</field>
   <field>mass</field>
   <field>valence</field>
   <field type="string">pseudopotential</field>
   <set>
    <rc><c>  48</c><c>Ni</c><c>     58.69000000</c><c>     16.00000000</c><c>  PAW_PBE Ni_pv 06Sep2000               </c></rc>
    <rc><c>  48</c><c>S </c><c>     32.06600000</c><c>      6.00000000</c><c>  PAW_PBE S 06Sep2000                   </c></rc>
   </set>
  </array>
 </atominfo>
 <structure name="initialpos" >
  <crystal>
   <varray name="basis" >
    <v>      11.25646304       0.00000000       0.00000000 </v>
    <v>       5.04456212      10.06282034       0.00000000 </v>
    <v>       0.00000000       0.00000000      22.51995597 </v>
   </varray>
   <i name="volume">   2550.87516496 </i>
   <varray name="rec_basis" >
    <v>       0.08883785      -0.04453504       0.00000000 </v>
    <v>       0.00000000       0.09937572       0.00000000 </v>
    <v>       0.00000000       0.00000000       0.04440506 </v>
   </varray>
  </crystal>
  <varray name="positions" >
   <v>       0.26092069       0.47878037       0.29519774 </v>
   <v>       0.35488056       0.38482050       0.42557357 </v>
   <v>       0.16696082       0.07274025       0.16482191 </v>
   <v>       0.27423906       0.33335901       0.13037583 </v>
   <v>       0.36819893       0.23939914       0.26075166 </v>
   <v>       0.46215879       0.14543927       0.39112749 </v>
   <v>       0.00030194       0.37150214       0.26075166 </v>
   <v>       0.09426180       0.27754227       0.39112749 </v>
   <v>       0.20435163       0.18583522       0.48276298 </v>
   <v>       0.40634206       0.46546200       0.13037583 </v>
   <v>       0.42948422       0.01772208       0.03277955 </v>
   <v>       0.76092069       0.47878037       0.29519774 </v>
   <v>       0.85488056       0.38482050       0.42557357 </v>
   <v>       0.52907567       0.22643837       0.08884738 </v>
   <v>       0.66696082       0.07274025       0.16482191 </v>
   <v>       0.68505162       0.32184151       0.03822976 </v>
   <v>       0.77423906       0.33335901       0.13037583 </v>
   <v>       0.86819893       0.23939914       0.26075166 </v>
   <v>       0.96215879       0.14543927       0.39112749 </v>
   <v>       0.50030194       0.37150214       0.26075166 </v>
   <v>       0.59426180       0.27754227       0.39112749 </v>
   <v>       0.71251310       0.18861909       0.48118439 </v>
   <v>       0.90634206       0.46546200       0.13037583 </v>
   <v>       0.71558003       0.02621294       0.04374048 </v>
   <v>       0.26092069       0.97878037       0.29519774 </v>
   <v>       0.35488056       0.88482051       0.42557357 </v>
   <v>       0.16696083       0.57274025       0.16482191 </v>
   <v>       0.20902735       0.02450243       0.05823712 </v>
   <v>       0.27423906       0.83335901       0.13037583 </v>
   <v>       0.36819893       0.73939914       0.26075166 </v>
   <v>       0.46215879       0.64543927       0.39112749 </v>
   <v>       0.00030194       0.87150214       0.26075166 </v>
   <v>       0.09426180       0.77754227       0.39112749 </v>
   <v>       0.40634206       0.96546200       0.13037583 </v>
   <v>       0.76092069       0.97878037       0.29519774 </v>
   <v>       0.85488056       0.88482051       0.42557357 </v>
   <v>       0.54308400       0.71575334       0.09073659 </v>
   <v>       0.66696083       0.57274025       0.16482191 </v>
   <v>       0.53061415       0.52674384       0.48296605 </v>
   <v>       0.67836159       0.82687079       0.03758810 </v>
   <v>       0.77423906       0.83335901       0.13037583 </v>
   <v>       0.86819893       0.73939914       0.26075166 </v>
   <v>       0.96215879       0.64543927       0.39112749 </v>
   <v>       0.50030194       0.87150214       0.26075166 </v>
   <v>       0.59426180       0.77754227       0.39112749 </v>
   <v>       0.70390243       0.71146364       0.48587746 </v>
   <v>       0.90634206       0.96546200       0.13037583 </v>
   <v>       0.72667016       0.51587345       0.04715786 </v>
   <v>       0.07287763       0.16682345       0.31134757 </v>
   <v>       0.16509323       0.07184215       0.42336743 </v>
   <v>       0.35778836       0.38217390       0.05923260 </v>
   <v>       0.47891775       0.26078331       0.18097174 </v>
   <v>       0.02695463       0.35125076       0.47375508 </v>
   <v>       0.43627354       0.47164252       0.35520991 </v>
   <v>       0.27309597       0.15243517       0.09609706 </v>
   <v>       0.34231367       0.06560240       0.22483408 </v>
   <v>       0.08098467       0.47877904       0.11360110 </v>
   <v>       0.17409868       0.39738739       0.22483408 </v>
   <v>       0.26805854       0.30342752       0.35520991 </v>
   <v>       0.36317512       0.22000802       0.46976304 </v>
   <v>       0.57287763       0.16682345       0.31134757 </v>
   <v>       0.66422068       0.07515198       0.42450666 </v>
   <v>       0.87857411       0.33225355       0.05623798 </v>
   <v>       0.97891775       0.26078331       0.18097174 </v>
   <v>       0.52575357       0.34865892       0.47697448 </v>
   <v>       0.93627354       0.47164252       0.35520991 </v>
   <v>       0.74835381       0.15956227       0.09445824 </v>
   <v>       0.84231367       0.06560240       0.22483408 </v>
   <v>       0.58013881       0.49134726       0.09445824 </v>
   <v>       0.67409868       0.39738739       0.22483408 </v>
   <v>       0.76805854       0.30342752       0.35520991 </v>
   <v>       0.87490875       0.21749250       0.47195064 </v>
   <v>       0.07287763       0.66682345       0.31134757 </v>
   <v>       0.16452473       0.57495799       0.41797393 </v>
   <v>       0.38495788       0.85474318       0.05059590 </v>
   <v>       0.47891775       0.76078331       0.18097174 </v>
   <v>       0.01930415       0.86622789       0.46864840 </v>
   <v>       0.43627354       0.97164252       0.35520991 </v>
   <v>       0.25886520       0.65752908       0.11239615 </v>
   <v>       0.34231367       0.56560240       0.22483408 </v>
   <v>       0.08097320       0.98109692       0.10923474 </v>
   <v>       0.17409868       0.89738739       0.22483408 </v>
   <v>       0.26805854       0.80342752       0.35520991 </v>
   <v>       0.37937697       0.71443121       0.47237597 </v>
   <v>       0.57287763       0.66682345       0.31134757 </v>
   <v>       0.66683750       0.57286358       0.44172340 </v>
   <v>       0.87410352       0.84825563       0.05779553 </v>
   <v>       0.97891775       0.76078331       0.18097174 </v>
   <v>       0.52233524       0.86639220       0.47172450 </v>
   <v>       0.93627354       0.97164252       0.35520991 </v>
   <v>       0.74835381       0.65956227       0.09445824 </v>
   <v>       0.84231367       0.56560240       0.22483408 </v>
   <v>       0.58013881       0.99134726       0.09445824 </v>
   <v>       0.67409868       0.89738739       0.22483408 </v>
   <v>       0.76805854       0.80342752       0.35520991 </v>
   <v>       0.87769264       0.71752911       0.47218798 </v>
  </varray>
 </structure>
 <calculation>
  <scstep>
   <time name="dav">   13.70   13.71</time>
   <time name="total">   14.10   14.11</time>
   <energy>
    <i name="alphaZ">   2592.50432107 </i>
    <i name="ewald"> 334660.64343608 </i>
    <i name="hartreedc">-497886.67700899 </i>
    <i name="XCdc">   4905.00763984 </i>
    <i name="pawpsdc"> 150306.04444553 </i>
    <i name="pawaedc">-156855.34918313 </i>
    <i name="eentropy">     -0.50358592 </i>
    <i name="bandstr">  -5667.42090311 </i>
    <i name="atom"> 181336.80673834 </i>
    <i name="e_fr_energy">  13391.05589973 </i>
    <i name="e_wo_entrp">  13391.55948565 </i>
    <i name="e_0_energy">  13391.30769269 </i>
   </energy>
  </scstep>
  <scstep>
   <time name="dav">   12.24   12.24</time>
   <time name="total">   12.24   12.24</time>
   <energy>
    <i name="e_fr_energy">    844.13487304 </i>
    <i name="e_wo_entrp">    845.14206220 </i>
    <i name="e_0_energy">    844.63846762 </i>
   </energy>
  </scstep>
  <scstep>
   <time name="dav">   12.65   12.66</time>
   <time name="total">   12.65   12.66</time>
   <energy>
    <i name="e_fr_energy">   -450.38345653 </i>
    <i name="e_wo_entrp">   -449.05298446 </i>
    <i name="e_0_energy">   -449.71822049 </i>
   </energy>
  </scstep>
  <scstep>
   <time name="dav">   13.03   13.03</time>
   <time name="total">   13.03   13.03</time>
   <energy>
    <i name="e_fr_energy">   -532.82565951 </i>
    <i name="e_wo_entrp">   -531.43934265 </i>
    <i name="e_0_energy">   -532.13250108 </i>
   </energy>
  </scstep>
  <scstep>
   <time name="dav">   14.35   14.35</time>
   <time name="total">   14.77   14.77</time>
   <energy>
    <i name="e_fr_energy">   -536.32963768 </i>
    <i name="e_wo_entrp">   -534.94203207 </i>
    <i name="e_0_energy">   -535.63583487 </i>
   </energy>
  </scstep>
  <scstep>
   <time name="dav">   13.96   13.97</time>
   <time name="total">   14.76   14.76</time>
   <energy>
    <i name="e_fr_energy">   -647.37853025 </i>
    <i name="e_wo_entrp">   -646.23848740 </i>
    <i name="e_0_energy">   -646.80850882 </i>
   </energy>
  </scstep>
  <scstep>
   <time name="dav">   13.42   13.42</time>
   <time name="total">   14.21   14.21</time>
   <energy>
    <i name="e_fr_energy">   -524.39455056 </i>
    <i name="e_wo_entrp">   -523.34147299 </i>
    <i name="e_0_energy">   -523.86801177 </i>
   </energy>
  </scstep>
  <scstep>
   <time name="dav">   14.05   14.06</time>
   <time name="total">   14.84   14.85</time>
   <energy>
    <i name="e_fr_energy">   -634.11159616 </i>
    <i name="e_wo_entrp">   -633.08419299 </i>
    <i name="e_0_energy">   -633.59789457 </i>
   </energy>
  </scstep>
  <scstep>
   <time name="dav">   14.86   14.87</time>
   <time name="total">   15.65   15.65</time>
   <energy>
    <i name="e_fr_energy">   -530.18514838 </i>
    <i name="e_wo_entrp">   -528.44207082 </i>
    <i name="e_0_energy">   -529.31360960 </i>
   </energy>
  </scstep>
  <scstep>
   <time name="dav">   15.12   15.12</time>
   <time name="total">   15.91   15.92</time>
   <energy>
    <i name="e_fr_energy">   -521.85042312 </i>
    <i name="e_wo_entrp">   -520.02854858 </i>
    <i name="e_0_energy">   -520.93948585 </i>
   </energy>
  </scstep>
  <scstep>
   <time name="dav">   15.34   15.35</time>
   <time name="total">   16.13   16.13</time>
   <energy>
    <i name="e_fr_energy">   -531.31015045 </i>
    <i name="e_wo_entrp">   -529.98071465 </i>
    <i name="e_0_energy">   -530.64543255 </i>
   </energy>
  </scstep>
  <scstep>
   <time name="dav">   14.97   14.97</time>
   <time name="total">   15.76   15.77</time>
   <energy>
    <i name="e_fr_energy">   -496.14421221 </i>
    <i name="e_wo_entrp">   -494.95184737 </i>
    <i name="e_0_energy">   -495.54802979 </i>
   </energy>
  </scstep>
  <scstep>
   <time name="dav">   15.33   15.34</time>
   <time name="total">   16.12   16.12</time>
   <energy>
    <i name="e_fr_energy">   -505.62719875 </i>
    <i name="e_wo_entrp">   -504.26834681 </i>
    <i name="e_0_energy">   -504.94777278 </i>
   </energy>
  </scstep>
  <scstep>
   <time name="dav">   15.26   15.26</time>
   <time name="total">   16.09   16.10</time>
   <energy>
    <i name="e_fr_energy">   -487.59364756 </i>
    <i name="e_wo_entrp">   -486.33764796 </i>
    <i name="e_0_energy">   -486.96564776 </i>
   </energy>
  </scstep>
  <scstep>
   <time name="dav">   15.22   15.22</time>
   <time name="total">   16.02   16.03</time>
   <energy>
    <i name="e_fr_energy">   -474.93987019 </i>
    <i name="e_wo_entrp">   -473.67768620 </i>
    <i name="e_0_energy">   -474.30877820 </i>
   </energy>
  </scstep>
  <scstep>
   <time name="dav">   15.25   15.25</time>
   <time name="total">   16.04   16.04</time>
   <energy>
    <i name="e_fr_energy">   -473.02545157 </i>
    <i name="e_wo_entrp">   -471.81576258 </i>
    <i name="e_0_energy">   -472.42060708 </i>
   </energy>
  </scstep>
  <scstep>
   <time name="dav">   13.76   13.76</time>
   <time name="total">   14.56   14.57</time>
   <energy>
    <i name="e_fr_energy">   -474.57849537 </i>
    <i name="e_wo_entrp">   -473.29456296 </i>
    <i name="e_0_energy">   -473.93652916 </i>
   </energy>
  </scstep>
  <scstep>
   <time name="dav">   14.39   14.40</time>
   <time name="total">   15.31   15.32</time>
   <energy>
    <i name="e_fr_energy">   -473.34887243 </i>
    <i name="e_wo_entrp">   -472.06193887 </i>
    <i name="e_0_energy">   -472.70540565 </i>
   </energy>
  </scstep>
  <scstep>
   <time name="dav">   15.31   15.32</time>
   <time name="total">   16.12   16.13</time>
   <energy>
    <i name="e_fr_energy">   -472.82691832 </i>
    <i name="e_wo_entrp">   -471.43949417 </i>
    <i name="e_0_energy">   -472.13320625 </i>
   </energy>
  </scstep>
  <scstep>
   <time name="dav">   14.48   14.49</time>
   <time name="total">   15.29   15.29</time>
   <energy>
    <i name="e_fr_energy">   -471.86137392 </i>
    <i name="e_wo_entrp">   -470.50659561 </i>
    <i name="e_0_energy">   -471.18398476 </i>
   </energy>
  </scstep>
  <scstep>
   <time name="dav">   15.62   15.62</time>
   <time name="total">   16.43   16.43</time>
   <energy>
    <i name="e_fr_energy">   -470.74704229 </i>
    <i name="e_wo_entrp">   -469.33815660 </i>
    <i name="e_0_energy">   -470.04259944 </i>
   </energy>
  </scstep>
  <scstep>
   <time name="dav">   15.09   15.09</time>
   <time name="total">   15.90   15.90</time>
   <energy>
    <i name="e_fr_energy">   -470.39371419 </i>
    <i name="e_wo_entrp">   -468.98524243 </i>
    <i name="e_0_energy">   -469.68947831 </i>
   </energy>
  </scstep>
  <scstep>
   <time name="dav">   14.89   14.89</time>
   <time name="total">   15.70   15.71</time>
   <energy>
    <i name="e_fr_energy">   -470.20863152 </i>
    <i name="e_wo_entrp">   -468.83066822 </i>
    <i name="e_0_energy">   -469.51964987 </i>
   </energy>
  </scstep>
  <scstep>
   <time name="dav">   13.71   13.71</time>
   <time name="total">   14.53   14.54</time>
   <energy>
    <i name="e_fr_energy">   -470.12578507 </i>
    <i name="e_wo_entrp">   -468.74954862 </i>
    <i name="e_0_energy">   -469.43766684 </i>
   </energy>
  </scstep>
  <scstep>
   <time name="dav">   14.84   14.84</time>
   <time name="total">   15.77   15.78</time>
   <energy>
    <i name="e_fr_energy">   -469.97054442 </i>
    <i name="e_wo_entrp">   -468.62641725 </i>
    <i name="e_0_energy">   -469.29848083 </i>
   </energy>
  </scstep>
  <scstep>
   <time name="dav">   15.06   15.06</time>
   <time name="total">   15.88   15.88</time>
   <energy>
    <i name="e_fr_energy">   -469.94404468 </i>
    <i name="e_wo_entrp">   -468.60429127 </i>
    <i name="e_0_energy">   -469.27416798 </i>
   </energy>
  </scstep>
  <scstep>
   <time name="dav">   15.04   15.04</time>
   <time name="total">   15.87   15.87</time>
   <energy>
    <i name="e_fr_energy">   -469.92698962 </i>
    <i name="e_wo_entrp">   -468.59431399 </i>
    <i name="e_0_energy">   -469.26065181 </i>
   </energy>
  </scstep>
  <scstep>
   <time name="dav">   14.92   14.93</time>
   <time name="total">   15.76   15.76</time>
   <energy>
    <i name="e_fr_energy">   -469.89887951 </i>
    <i name="e_wo_entrp">   -468.56155037 </i>
    <i name="e_0_energy">   -469.23021494 </i>
   </energy>
  </scstep>
  <scstep>
   <time name="dav">   14.98   14.99</time>
   <time name="total">   15.81   15.81</time>
   <energy>
    <i name="e_fr_energy">   -469.87057858 </i>
    <i name="e_wo_entrp">   -468.53463366 </i>
    <i name="e_0_energy">   -469.20260612 </i>
   </energy>
  </scstep>
  <scstep>
   <time name="dav">   14.87   14.87</time>
   <time name="total">   15.69   15.70</time>
   <energy>
    <i name="e_fr_energy">   -469.86917435 </i>
    <i name="e_wo_entrp">   -468.53924784 </i>
    <i name="e_0_energy">   -469.20421110 </i>
   </energy>
  </scstep>
  <scstep>
   <time name="dav">   15.06   15.06</time>
   <time name="total">   15.90   15.90</time>
   <energy>
    <i name="e_fr_energy">   -469.86439964 </i>
    <i name="e_wo_entrp">   -468.53706852 </i>
    <i name="e_0_energy">   -469.20073408 </i>
   </energy>
  </scstep>
  <scstep>
   <time name="dav">   13.54   13.55</time>
   <time name="total">   14.38   14.38</time>
   <energy>
    <i name="e_fr_energy">   -469.86416054 </i>
    <i name="e_wo_entrp">   -468.53088530 </i>
    <i name="e_0_energy">   -469.19752292 </i>
   </energy>
  </scstep>
  <scstep>
   <time name="dav">   14.70   14.70</time>
   <time name="total">   15.54   15.54</time>
   <energy>
    <i name="e_fr_energy">   -469.86254283 </i>
    <i name="e_wo_entrp">   -468.52872176 </i>
    <i name="e_0_energy">   -469.19563229 </i>
   </energy>
  </scstep>
  <scstep>
   <time name="dav">   13.57   13.57</time>
   <time name="total">   14.41   14.42</time>
   <energy>
    <i name="e_fr_energy">   -469.86225294 </i>
    <i name="e_wo_entrp">   -468.52541170 </i>
    <i name="e_0_energy">   -469.19383232 </i>
   </energy>
  </scstep>
  <scstep>
   <time name="dav">   14.03   14.03</time>
   <time name="total">   15.12   15.12</time>
   <energy>
    <i name="e_fr_energy">   -469.86193695 </i>
    <i name="e_wo_entrp">   -468.52788628 </i>
    <i name="e_0_energy">   -469.19491162 </i>
   </energy>
  </scstep>
  <scstep>
   <time name="dav">   13.73   13.74</time>
   <time name="total">   14.57   14.57</time>
   <energy>
    <i name="e_fr_energy">   -469.86178494 </i>
    <i name="e_wo_entrp">   -468.52773881 </i>
    <i name="e_0_energy">   -469.19476188 </i>
   </energy>
  </scstep>
  <scstep>
   <time name="dav">   11.02   11.02</time>
   <time name="total">   11.41   11.41</time>
   <energy>
    <i name="alphaZ">   2592.50432107 </i>
    <i name="ewald"> 334660.64343608 </i>
    <i name="hartreedc">-496940.97048529 </i>
    <i name="XCdc">   4863.99719871 </i>
    <i name="pawpsdc"> 184020.83764012 </i>
    <i name="pawaedc">-190667.69358918 </i>
    <i name="eentropy">     -1.33523431 </i>
    <i name="bandstr"> -20334.65178882 </i>
    <i name="atom"> 181336.80673834 </i>
    <i name="e_fr_energy">   -469.86176328 </i>
    <i name="e_wo_entrp">   -468.52652898 </i>
    <i name="e_0_energy">   -469.19414613 </i>
   </energy>
  </scstep>
  <structure>
   <crystal>
    <varray name="basis" >
     <v>      11.25646304       0.00000000       0.00000000 </v>
     <v>       5.04456212      10.06282034       0.00000000 </v>
     <v>       0.00000000       0.00000000      22.51995597 </v>
    </varray>
    <i name="volume">   2550.87516496 </i>
    <varray name="rec_basis" >
     <v>       0.08883785      -0.04453504       0.00000000 </v>
     <v>       0.00000000       0.09937572       0.00000000 </v>
     <v>       0.00000000       0.00000000       0.04440506 </v>
    </varray>
   </crystal>
   <varray name="positions" >
    <v>       0.26092069       0.47878037       0.29519774 </v>
    <v>       0.35488056       0.38482050       0.42557357 </v>
    <v>       0.16696082       0.07274025       0.16482191 </v>
    <v>       0.27423906       0.33335901       0.13037583 </v>
    <v>       0.36819893       0.23939914       0.26075166 </v>
    <v>       0.46215879       0.14543927       0.39112749 </v>
    <v>       0.00030194       0.37150214       0.26075166 </v>
    <v>       0.09426180       0.27754227       0.39112749 </v>
    <v>       0.20435163       0.18583522       0.48276298 </v>
    <v>       0.40634206       0.46546200       0.13037583 </v>
    <v>       0.42948422       0.01772208       0.03277955 </v>
    <v>       0.76092069       0.47878037       0.29519774 </v>
    <v>       0.85488056       0.38482050       0.42557357 </v>
    <v>       0.52907567       0.22643837       0.08884738 </v>
    <v>       0.66696082       0.07274025       0.16482191 </v>
    <v>       0.68505162       0.32184151       0.03822976 </v>
    <v>       0.77423906       0.33335901       0.13037583 </v>
    <v>       0.86819893       0.23939914       0.26075166 </v>
    <v>       0.96215879       0.14543927       0.39112749 </v>
    <v>       0.50030194       0.37150214       0.26075166 </v>
    <v>       0.59426180       0.27754227       0.39112749 </v>
    <v>       0.71251310       0.18861909       0.48118439 </v>
    <v>       0.90634206       0.46546200       0.13037583 </v>
    <v>       0.71558003       0.02621294       0.04374048 </v>
    <v>       0.26092069       0.97878037       0.29519774 </v>
    <v>       0.35488056       0.88482051       0.42557357 </v>
    <v>       0.16696083       0.57274025       0.16482191 </v>
    <v>       0.20902735       0.02450243       0.05823712 </v>
    <v>       0.27423906       0.83335901       0.13037583 </v>
    <v>       0.36819893       0.73939914       0.26075166 </v>
    <v>       0.46215879       0.64543927       0.39112749 </v>
    <v>       0.00030194       0.87150214       0.26075166 </v>
    <v>       0.09426180       0.77754227       0.39112749 </v>
    <v>       0.40634206       0.96546200       0.13037583 </v>
    <v>       0.76092069       0.97878037       0.29519774 </v>
    <v>       0.85488056       0.88482051       0.42557357 </v>
    <v>       0.54308400       0.71575334       0.09073659 </v>
    <v>       0.66696083       0.57274025       0.16482191 </v>
    <v>       0.53061415       0.52674384       0.48296605 </v>
    <v>       0.67836159       0.82687079       0.03758810 </v>
    <v>       0.77423906       0.83335901       0.13037583 </v>
    <v>       0.86819893       0.73939914       0.26075166 </v>
    <v>       0.96215879       0.64543927       0.39112749 </v>
    <v>       0.50030194       0.87150214       0.26075166 </v>
    <v>       0.59426180       0.77754227       0.39112749 </v>
    <v>       0.70390243       0.71146364       0.48587746 </v>
    <v>       0.90634206       0.96546200       0.13037583 </v>
    <v>       0.72667016       0.51587345       0.04715786 </v>
    <v>       0.07287763       0.16682345       0.31134757 </v>
    <v>       0.16509323       0.07184215       0.42336743 </v>
    <v>       0.35778836       0.38217390       0.05923260 </v>
    <v>       0.47891775       0.26078331       0.18097174 </v>
    <v>       0.02695463       0.35125076       0.47375508 </v>
    <v>       0.43627354       0.47164252       0.35520991 </v>
    <v>       0.27309597       0.15243517       0.09609706 </v>
    <v>       0.34231367       0.06560240       0.22483408 </v>
    <v>       0.08098467       0.47877904       0.11360110 </v>
    <v>       0.17409868       0.39738739       0.22483408 </v>
    <v>       0.26805854       0.30342752       0.35520991 </v>
    <v>       0.36317512       0.22000802       0.46976304 </v>
    <v>       0.57287763       0.16682345       0.31134757 </v>
    <v>       0.66422068       0.07515198       0.42450666 </v>
    <v>       0.87857411       0.33225355       0.05623798 </v>
    <v>       0.97891775       0.26078331       0.18097174 </v>
    <v>       0.52575357       0.34865892       0.47697448 </v>
    <v>       0.93627354       0.47164252       0.35520991 </v>
    <v>       0.74835381       0.15956227       0.09445824 </v>
    <v>       0.84231367       0.06560240       0.22483408 </v>
    <v>       0.58013881       0.49134726       0.09445824 </v>
    <v>       0.67409868       0.39738739       0.22483408 </v>
    <v>       0.76805854       0.30342752       0.35520991 </v>
    <v>       0.87490875       0.21749250       0.47195064 </v>
    <v>       0.07287763       0.66682345       0.31134757 </v>
    <v>       0.16452473       0.57495799       0.41797393 </v>
    <v>       0.38495788       0.85474318       0.05059590 </v>
    <v>       0.47891775       0.76078331       0.18097174 </v>
    <v>       0.01930415       0.86622789       0.46864840 </v>
    <v>       0.43627354       0.97164252       0.35520991 </v>
    <v>       0.25886520       0.65752908       0.11239615 </v>
    <v>       0.34231367       0.56560240       0.22483408 </v>
    <v>       0.08097320       0.98109692       0.10923474 </v>
    <v>       0.17409868       0.89738739       0.22483408 </v>
    <v>       0.26805854       0.80342752       0.35520991 </v>
    <v>       0.37937697       0.71443121       0.47237597 </v>
    <v>       0.57287763       0.66682345       0.31134757 </v>
    <v>       0.66683750       0.57286358       0.44172340 </v>
    <v>       0.87410352       0.84825563       0.05779553 </v>
    <v>       0.97891775       0.76078331       0.18097174 </v>
    <v>       0.52233524       0.86639220       0.47172450 </v>
    <v>       0.93627354       0.97164252       0.35520991 </v>
    <v>       0.74835381       0.65956227       0.09445824 </v>
    <v>       0.84231367       0.56560240       0.22483408 </v>
    <v>       0.58013881       0.99134726       0.09445824 </v>
    <v>       0.67409868       0.89738739       0.22483408 </v>
    <v>       0.76805854       0.80342752       0.35520991 </v>
    <v>       0.87769264       0.71752911       0.47218798 </v>
   </varray>
  </structure>
  <varray name="forces" >
   <v>       0.26050562      -0.43129333      -0.17456148 </v>
   <v>      -0.56169348       1.09556023      -1.50308580 </v>
   <v>       0.09816011       0.68083490       1.48755993 </v>
   <v>      -0.51769764      -0.76788412       1.75672790 </v>
   <v>      -0.18998609       0.13890615       0.08362071 </v>
   <v>      -0.00966038      -0.37408481      -1.79442706 </v>
   <v>      -0.14238029      -0.00646181       0.01819700 </v>
   <v>       0.01916864       0.30734675      -3.05433976 </v>
   <v>       0.11729096      -0.39698091       1.30422342 </v>
   <v>       1.10524566       0.19850662       1.63381533 </v>
   <v>       0.23015890       0.27256276      -1.07618833 </v>
   <v>       0.18359950      -0.24234568      -0.08053982 </v>
   <v>      -0.45830339       1.06517791      -1.52863399 </v>
   <v>       0.63674914      -0.55706339      -0.92159050 </v>
   <v>      -0.01857844       0.03537280       0.93109083 </v>
   <v>      -0.45815104      -0.17951516      -1.12232890 </v>
   <v>      -0.18566291      -0.37487954       3.30636788 </v>
   <v>      -0.03155759       0.06002754      -0.04211669 </v>
   <v>       0.12211412      -0.47662687      -1.89348900 </v>
   <v>      -0.06221426       0.12855247      -0.01929863 </v>
   <v>      -0.02979463       0.28534348      -2.57482169 </v>
   <v>      -0.24830837      -0.52048892       1.32144127 </v>
   <v>      -0.23262378      -0.53417098       0.62093202 </v>
   <v>      -0.39427500       0.82215286      -1.77306881 </v>
   <v>       0.13423575      -0.34391465      -0.20492480 </v>
   <v>      -0.59898755       0.66608867      -0.91179717 </v>
   <v>      -0.42516987       0.47020384       1.94641599 </v>
   <v>      -0.70909343       0.64790468      -1.45666453 </v>
   <v>       0.16355890      -0.90608774       1.40989636 </v>
   <v>      -0.20274724       0.02991490       0.14516319 </v>
   <v>       0.15035937      -0.18572262      -2.59804597 </v>
   <v>       0.01626865       0.03629522      -0.01792695 </v>
   <v>       0.51174868      -0.24746450      -2.53373044 </v>
   <v>       0.56364431      -1.01585133       2.55122980 </v>
   <v>       0.19635734      -0.39228183      -0.19537830 </v>
   <v>      -1.44760134       1.43468819      -2.20969351 </v>
   <v>       0.08011726      -0.50555702      -0.80508321 </v>
   <v>       0.12037830      -0.68121434       1.63386846 </v>
   <v>      -0.08341202       0.05413986       1.32189763 </v>
   <v>      -0.27513249      -0.16406090      -0.83419400 </v>
   <v>      -0.19311625      -0.56479195       2.78099625 </v>
   <v>       0.02925854       0.01812069      -0.06051928 </v>
   <v>      -0.10640171      -0.27867333      -2.10641865 </v>
   <v>       0.05998448       0.08362346       0.01694062 </v>
   <v>       0.02564121      -0.24740774      -2.36529928 </v>
   <v>       0.14304111      -0.28617153       1.33193649 </v>
   <v>      -0.06562728      -0.20428752       0.47637062 </v>
   <v>      -0.04156207       0.81552765      -1.66527510 </v>
   <v>      -0.10070554       0.14503134      -0.89391741 </v>
   <v>      -0.14712024      -1.32192646       1.30124271 </v>
   <v>      -0.22451217       0.13717285      -3.79750230 </v>
   <v>       0.13915056      -0.26161276       0.98055530 </v>
   <v>       0.53488181       1.65160086       3.04968134 </v>
   <v>       0.23470575       0.03817450      -0.36238592 </v>
   <v>      -0.36017291       1.76054562      -0.61276119 </v>
   <v>      -0.03025559       0.01903079       0.05666953 </v>
   <v>      -1.02855766       0.61207014      -2.21131167 </v>
   <v>      -0.19411918      -0.35623592       0.52249864 </v>
   <v>       0.05859787       0.03680857      -0.87825764 </v>
   <v>      -0.04142875      -0.93152833       2.95120502 </v>
   <v>      -0.02370134       0.06564154      -0.73572913 </v>
   <v>      -0.20693393      -1.42859689       1.28579386 </v>
   <v>       2.05078520      -1.50100308      -2.59786199 </v>
   <v>       0.14645852       0.01355164       0.18255974 </v>
   <v>       0.42215595       0.70909899       2.69304979 </v>
   <v>      -0.09095074       0.23354555      -0.25535823 </v>
   <v>       1.11145597       0.55307923       0.93002975 </v>
   <v>       0.04982942       0.05792345       0.13605034 </v>
   <v>      -1.74345318       0.58430654      -0.04836005 </v>
   <v>      -0.05698715      -0.04698263       0.01839861 </v>
   <v>      -0.06294172       0.28825328      -0.57898658 </v>
   <v>      -0.16186077      -0.58624879       2.88372223 </v>
   <v>      -0.19638784       0.26060115      -1.00312161 </v>
   <v>       0.60312412      -0.79034037       1.91731490 </v>
   <v>      -0.80508631       0.00761548      -3.23479296 </v>
   <v>      -0.01558423       0.16834825       0.97404969 </v>
   <v>       1.63647775       0.62147095       3.76649117 </v>
   <v>       0.18644973       0.12379548      -0.58530912 </v>
   <v>       0.01185158       1.20889224      -2.11774873 </v>
   <v>       0.36918957      -0.02553933       0.53011894 </v>
   <v>      -1.54709042       0.30272099      -1.38830854 </v>
   <v>       0.11314741      -0.07804486       0.81718114 </v>
   <v>      -0.04542692      -0.09592538      -0.59711912 </v>
   <v>      -2.13908275       0.22160594       2.71868970 </v>
   <v>       0.14413053      -0.18418435      -0.18989622 </v>
   <v>       0.73723538      -1.36832755      -0.02396335 </v>
   <v>       1.89482189      -1.71935677      -2.81074220 </v>
   <v>      -0.09659563       0.01264996       0.25828088 </v>
   <v>       0.80775640       2.03935758       2.57272782 </v>
   <v>       0.12978619       0.15513836      -0.45281762 </v>
   <v>       2.19956821       0.60291938       0.63272127 </v>
   <v>      -0.05632965      -0.00598949       0.18778664 </v>
   <v>      -1.26633737       0.66962432       0.71848763 </v>
   <v>      -0.15293507      -0.10290770       0.01294809 </v>
   <v>      -0.23573957      -0.03922865      -0.56567604 </v>
   <v>       0.17088881      -0.91816480       3.28842287 </v>
  </varray>
  <varray name="stress" >
   <v>      64.46856864      -0.24521701      -0.30826957 </v>
   <v>      -0.24521700      59.48269803      -0.34810567 </v>
   <v>      -0.30826965      -0.34810592      72.01597262 </v>
  </varray>
  <energy>
   <i name="e_fr_energy">   -469.86176328 </i>
   <i name="e_wo_entrp">   -469.19414613 </i>
   <i name="e_0_energy">     -1.33523431 </i>
  </energy>
  <time name="totalsc">  570.07  570.20</time>
  <eigenvalues>
   <array>
    <dimension dim="1">band</dimension>
    <dimension dim="2">kpoint</dimension>
    <dimension dim="3">spin</dimension>
    <field>eigene</field>
    <field>occ</field>
    <set>
     <set comment="spin 1">
      <set comment="kpoint 1">
       <r>  -63.1493    1.0000 </r>
       <r>  -63.1392    1.0000 </r>
       <r>  -63.1144    1.0000 </r>
       <r>  -63.0212    1.0000 </r>
       <r>  -63.0055    1.0000 </r>
       <r>  -62.9921    1.0000 </r>
       <r>  -62.9871    1.0000 </r>
       <r>  -62.9740    1.0000 </r>
       <r>  -62.9606    1.0000 </r>
       <r>  -62.9569    1.0000 </r>
       <r>  -62.9510    1.0000 </r>
       <r>  -62.9447    1.0000 </r>
       <r>  -62.9300    1.0000 </r>
       <r>  -62.9285    1.0000 </r>
       <r>  -62.8992    1.0000 </r>
       <r>  -62.8820    1.0000 </r>
       <r>  -62.8779    1.0000 </r>
       <r>  -62.8755    1.0000 </r>
       <r>  -62.8561    1.0000 </r>
       <r>  -62.8476    1.0000 </r>
       <r>  -62.8451    1.0000 </r>
       <r>  -62.8447    1.0000 </r>
       <r>  -62.8380    1.0000 </r>
       <r>  -62.8297    1.0000 </r>
       <r>  -62.8278    1.0000 </r>
       <r>  -62.8271    1.0000 </r>
       <r>  -62.8163    1.0000 </r>
       <r>  -62.8115    1.0000 </r>
       <r>  -62.8098    1.0000 </r>
       <r>  -62.7991    1.0000 </r>
       <r>  -62.7965    1.0000 </r>
       <r>  -62.7902    1.0000 </r>
       <r>  -62.7749    1.0000 </r>
       <r>  -62.7219    1.0000 </r>
       <r>  -62.7194    1.0000 </r>
       <r>  -62.6945    1.0000 </r>
       <r>  -62.6884    1.0000 </r>
       <r>  -62.6809    1.0000 </r>
       <r>  -62.6766    1.0000 </r>
       <r>  -62.6434    1.0000 </r>
       <r>  -62.6429    1.0000 </r>
       <r>  -62.6338    1.0000 </r>
       <r>  -62.6282    1.0000 </r>
       <r>  -62.6221    1.0000 </r>
       <r>  -62.6057    1.0000 </r>
       <r>  -62.6027    1.0000 </r>
       <r>  -62.5999    1.0000 </r>
       <r>  -62.5974    1.0000 </r>
       <r>  -62.5958    1.0000 </r>
       <r>  -62.5930    1.0000 </r>
       <r>  -62.5886    1.0000 </r>
       <r>  -62.5881    1.0000 </r>
       <r>  -62.5876    1.0000 </r>
       <r>  -62.5714    1.0000 </r>
       <r>  -62.5686    1.0000 </r>
       <r>  -62.5618    1.0000 </r>
       <r>  -62.5478    1.0000 </r>
       <r>  -62.5230    1.0000 </r>
       <r>  -62.5159    1.0000 </r>
       <r>  -62.5151    1.0000 </r>
       <r>  -62.5092    1.0000 </r>
       <r>  -62.5082    1.0000 </r>
       <r>  -62.5052    1.0000 </r>
       <r>  -62.4899    1.0000 </r>
       <r>  -62.4866    1.0000 </r>
       <r>  -62.4853    1.0000 </r>
       <r>  -62.4803    1.0000 </r>
       <r>  -62.4773    1.0000 </r>
       <r>  -62.4761    1.0000 </r>
       <r>  -62.4698    1.0000 </r>
       <r>  -62.4673    1.0000 </r>
       <r>  -62.4667    1.0000 </r>
       <r>  -62.4618    1.0000 </r>
       <r>  -62.4594    1.0000 </r>
       <r>  -62.4547    1.0000 </r>
       <r>  -62.4547    1.0000 </r>
       <r>  -62.4492    1.0000 </r>
       <r>  -62.4431    1.0000 </r>
       <r>  -62.4399    1.0000 </r>
       <r>  -62.4356    1.0000 </r>
       <r>  -62.4343    1.0000 </r>
       <r>  -62.4341    1.0000 </r>
       <r>  -62.4329    1.0000 </r>
       <r>  -62.4265    1.0000 </r>
       <r>  -62.4261    1.0000 </r>
       <r>  -62.4261    1.0000 </r>
       <r>  -62.4248    1.0000 </r>
       <r>  -62.4199    1.0000 </r>
       <r>  -62.4142    1.0000 </r>
       <r>  -62.4101    1.0000 </r>
       <r>  -62.4099    1.0000 </r>
       <r>  -62.4084    1.0000 </r>
       <r>  -62.4062    1.0000 </r>
       <r>  -62.4043    1.0000 </r>
       <r>  -62.4032    1.0000 </r>
       <r>  -62.3937    1.0000 </r>
       <r>  -62.3933    1.0000 </r>
       <r>  -62.3906    1.0000 </r>
       <r>  -62.3897    1.0000 </r>
       <r>  -62.3832    1.0000 </r>
       <r>  -62.3823    1.0000 </r>
       <r>  -62.3821    1.0000 </r>
       <r>  -62.3792    1.0000 </r>
       <r>  -62.3782    1.0000 </r>
       <r>  -62.3754    1.0000 </r>
       <r>  -62.3751    1.0000 </r>
       <r>  -62.3629    1.0000 </r>
       <r>  -62.3605    1.0000 </r>
       <r>  -62.3521    1.0000 </r>
       <r>  -62.3492    1.0000 </r>
       <r>  -62.3462    1.0000 </r>
       <r>  -62.3378    1.0000 </r>
       <r>  -62.3232    1.0000 </r>
       <r>  -62.3187    1.0000 </r>
       <r>  -62.2998    1.0000 </r>
       <r>  -62.2868    1.0000 </r>
       <r>  -62.2781    1.0000 </r>
       <r>  -62.2734    1.0000 </r>
       <r>  -62.2722    1.0000 </r>
       <r>  -62.2706    1.0000 </r>
       <r>  -62.2694    1.0000 </r>
       <r>  -62.2579    1.0000 </r>
       <r>  -62.2457    1.0000 </r>
       <r>  -62.2437    1.0000 </r>
       <r>  -62.2225    1.0000 </r>
       <r>  -62.2213    1.0000 </r>
       <r>  -62.2040    1.0000 </r>
       <r>  -62.1960    1.0000 </r>
       <r>  -62.1877    1.0000 </r>
       <r>  -62.1850    1.0000 </r>
       <r>  -62.1838    1.0000 </r>
       <r>  -62.1774    1.0000 </r>
       <r>  -62.0889    1.0000 </r>
       <r>  -62.0586    1.0000 </r>
       <r>  -62.0441    1.0000 </r>
       <r>  -62.0099    1.0000 </r>
       <r>  -61.9712    1.0000 </r>
       <r>  -61.9552    1.0000 </r>
       <r>  -61.9042    1.0000 </r>
       <r>  -61.8941    1.0000 </r>
       <r>  -61.8763    1.0000 </r>
       <r>  -61.8705    1.0000 </r>
       <r>  -61.8626    1.0000 </r>
       <r>  -61.6979    1.0000 </r>
       <r>  -14.6750    1.0000 </r>
       <r>  -14.2355    1.0000 </r>
       <r>  -14.0214    1.0000 </r>
       <r>  -13.9017    1.0000 </r>
       <r>  -13.7962    1.0000 </r>
       <r>  -13.6230    1.0000 </r>
       <r>  -13.5715    1.0000 </r>
       <r>  -13.5409    1.0000 </r>
       <r>  -13.4991    1.0000 </r>
       <r>  -13.3385    1.0000 </r>
       <r>  -13.2035    1.0000 </r>
       <r>  -13.1883    1.0000 </r>
       <r>  -13.1471    1.0000 </r>
       <r>  -13.0897    1.0000 </r>
       <r>  -13.0364    1.0000 </r>
       <r>  -12.9174    1.0000 </r>
       <r>  -12.8684    1.0000 </r>
       <r>  -12.8232    1.0000 </r>
       <r>  -12.7320    1.0000 </r>
       <r>  -12.6180    1.0000 </r>
       <r>  -12.5799    1.0000 </r>
       <r>  -12.5308    1.0000 </r>
       <r>  -12.4985    1.0000 </r>
       <r>  -12.4617    1.0000 </r>
       <r>  -12.4298    1.0000 </r>
       <r>  -12.3785    1.0000 </r>
       <r>  -12.3475    1.0000 </r>
       <r>  -12.3257    1.0000 </r>
       <r>  -12.2725    1.0000 </r>
       <r>  -12.1914    1.0000 </r>
       <r>  -12.1239    1.0000 </r>
       <r>  -12.1030    1.0000 </r>
       <r>  -12.0865    1.0000 </r>
       <r>  -12.0461    1.0000 </r>
       <r>  -11.9487    1.0000 </r>
       <r>  -11.9096    1.0000 </r>
       <r>  -11.8322    1.0000 </r>
       <r>  -11.7850    1.0000 </r>
       <r>  -11.7368    1.0000 </r>
       <r>  -11.6955    1.0000 </r>
       <r>  -11.6812    1.0000 </r>
       <r>  -11.6018    1.0000 </r>
       <r>  -11.5340    1.0000 </r>
       <r>  -11.5095    1.0000 </r>
       <r>  -11.4503    1.0000 </r>
       <r>  -11.3647    1.0000 </r>
       <r>  -11.2009    1.0000 </r>
       <r>  -11.0706    1.0000 </r>
       <r>   -6.7995    1.0000 </r>
       <r>   -6.5066    1.0000 </r>
       <r>   -6.4178    1.0000 </r>
       <r>   -6.1850    1.0000 </r>
       <r>   -6.1297    1.0000 </r>
       <r>   -6.0297    1.0000 </r>
       <r>   -5.9460    1.0000 </r>
       <r>   -5.9165    1.0000 </r>
       <r>   -5.8527    1.0000 </r>
       <r>   -5.7830    1.0000 </r>
       <r>   -5.7143    1.0000 </r>
       <r>   -5.6895    1.0000 </r>
       <r>   -5.5446    1.0000 </r>
       <r>   -5.5026    1.0000 </r>
       <r>   -5.4250    1.0000 </r>
       <r>   -5.4146    1.0000 </r>
       <r>   -5.3534    1.0000 </r>
       <r>   -5.3207    1.0000 </r>
       <r>   -5.2720    1.0000 </r>
       <r>   -5.2434    1.0000 </r>
       <r>   -5.2005    1.0000 </r>
       <r>   -5.1632    1.0000 </r>
       <r>   -5.1162    1.0000 </r>
       <r>   -5.0931    1.0000 </r>
       <r>   -5.0857    1.0000 </r>
       <r>   -5.0416    1.0000 </r>
       <r>   -5.0264    1.0000 </r>
       <r>   -5.0127    1.0000 </r>
       <r>   -4.9689    1.0000 </r>
       <r>   -4.9269    1.0000 </r>
       <r>   -4.9112    1.0000 </r>
       <r>   -4.8976    1.0000 </r>
       <r>   -4.8494    1.0000 </r>
       <r>   -4.8003    1.0000 </r>
       <r>   -4.7673    1.0000 </r>
       <r>   -4.7218    1.0000 </r>
       <r>   -4.7039    1.0000 </r>
       <r>   -4.6725    1.0000 </r>
       <r>   -4.6241    1.0000 </r>
       <r>   -4.5907    1.0000 </r>
       <r>   -4.5678    1.0000 </r>
       <r>   -4.5341    1.0000 </r>
       <r>   -4.5093    1.0000 </r>
       <r>   -4.4788    1.0000 </r>
       <r>   -4.4303    1.0000 </r>
       <r>   -4.4091    1.0000 </r>
       <r>   -4.3624    1.0000 </r>
       <r>   -4.3293    1.0000 </r>
       <r>   -4.2732    1.0000 </r>
       <r>   -4.2320    1.0000 </r>
       <r>   -4.2100    1.0000 </r>
       <r>   -4.2071    1.0000 </r>
       <r>   -4.1216    1.0000 </r>
       <r>   -4.1051    1.0000 </r>
       <r>   -4.0926    1.0000 </r>
       <r>   -4.0720    1.0000 </r>
       <r>   -4.0448    1.0000 </r>
       <r>   -4.0220    1.0000 </r>
       <r>   -3.9728    1.0000 </r>
       <r>   -3.9372    1.0000 </r>
       <r>   -3.9252    1.0000 </r>
       <r>   -3.9028    1.0000 </r>
       <r>   -3.8624    1.0000 </r>
       <r>   -3.8175    1.0000 </r>
       <r>   -3.8125    1.0000 </r>
       <r>   -3.7520    1.0000 </r>
       <r>   -3.7076    1.0000 </r>
       <r>   -3.6695    1.0000 </r>
       <r>   -3.6471    1.0000 </r>
       <r>   -3.6343    1.0000 </r>
       <r>   -3.5990    1.0000 </r>
       <r>   -3.5590    1.0000 </r>
       <r>   -3.5514    1.0000 </r>
       <r>   -3.5178    1.0000 </r>
       <r>   -3.4915    1.0000 </r>
       <r>   -3.4849    1.0000 </r>
       <r>   -3.4757    1.0000 </r>
       <r>   -3.4423    1.0000 </r>
       <r>   -3.4329    1.0000 </r>
       <r>   -3.4103    1.0000 </r>
       <r>   -3.3890    1.0000 </r>
       <r>   -3.3612    1.0000 </r>
       <r>   -3.3499    1.0000 </r>
       <r>   -3.3255    1.0000 </r>
       <r>   -3.3011    1.0000 </r>
       <r>   -3.2879    1.0000 </r>
       <r>   -3.2609    1.0000 </r>
       <r>   -3.2513    1.0000 </r>
       <r>   -3.2198    1.0000 </r>
       <r>   -3.1881    1.0000 </r>
       <r>   -3.1728    1.0000 </r>
       <r>   -3.1595    1.0000 </r>
       <r>   -3.1256    1.0000 </r>
       <r>   -3.1172    1.0000 </r>
       <r>   -3.0899    1.0000 </r>
       <r>   -3.0537    1.0000 </r>
       <r>   -3.0228    1.0000 </r>
       <r>   -3.0076    1.0000 </r>
       <r>   -2.9753    1.0000 </r>
       <r>   -2.9492    1.0000 </r>
       <r>   -2.9373    1.0000 </r>
       <r>   -2.9234    1.0000 </r>
       <r>   -2.8848    1.0000 </r>
       <r>   -2.8368    1.0000 </r>
       <r>   -2.8015    1.0000 </r>
       <r>   -2.7743    1.0000 </r>
       <r>   -2.7617    1.0000 </r>
       <r>   -2.7304    1.0000 </r>
       <r>   -2.7042    1.0000 </r>
       <r>   -2.6790    1.0000 </r>
       <r>   -2.6427    1.0000 </r>
       <r>   -2.6075    1.0000 </r>
       <r>   -2.5921    1.0000 </r>
       <r>   -2.5426    1.0000 </r>
       <r>   -2.5335    1.0000 </r>
       <r>   -2.5236    1.0000 </r>
       <r>   -2.4927    1.0000 </r>
       <r>   -2.4796    1.0000 </r>
       <r>   -2.4519    1.0000 </r>
       <r>   -2.4288    1.0000 </r>
       <r>   -2.4035    1.0000 </r>
       <r>   -2.3869    1.0000 </r>
       <r>   -2.3682    1.0000 </r>
       <r>   -2.3412    1.0000 </r>
       <r>   -2.3155    1.0000 </r>
       <r>   -2.2860    1.0000 </r>
       <r>   -2.2696    1.0000 </r>
       <r>   -2.2159    1.0000 </r>
       <r>   -2.1102    1.0000 </r>
       <r>   -2.0696    1.0000 </r>
       <r>   -2.0051    1.0000 </r>
       <r>   -1.9658    1.0000 </r>
       <r>   -1.9060    1.0000 </r>
       <r>   -1.8696    1.0000 </r>
       <r>   -1.8535    1.0000 </r>
       <r>   -1.8404    1.0000 </r>
       <r>   -1.8301    1.0000 </r>
       <r>   -1.8155    1.0000 </r>
       <r>   -1.7690    1.0000 </r>
       <r>   -1.7106    1.0000 </r>
       <r>   -1.6899    1.0000 </r>
       <r>   -1.6688    1.0000 </r>
       <r>   -1.6611    1.0000 </r>
       <r>   -1.6319    1.0000 </r>
       <r>   -1.6137    1.0000 </r>
       <r>   -1.5917    1.0000 </r>
       <r>   -1.5638    1.0000 </r>
       <r>   -1.5515    1.0000 </r>
       <r>   -1.5378    1.0000 </r>
       <r>   -1.5160    1.0000 </r>
       <r>   -1.4987    1.0000 </r>
       <r>   -1.4755    1.0000 </r>
       <r>   -1.4530    1.0000 </r>
       <r>   -1.4442    1.0000 </r>
       <r>   -1.4285    1.0000 </r>
       <r>   -1.4187    1.0000 </r>
       <r>   -1.3918    1.0000 </r>
       <r>   -1.3599    1.0000 </r>
       <r>   -1.3320    1.0000 </r>
       <r>   -1.3255    1.0000 </r>
       <r>   -1.3161    1.0000 </r>
       <r>   -1.2933    1.0000 </r>
       <r>   -1.2520    1.0000 </r>
       <r>   -1.2180    1.0000 </r>
       <r>   -1.2111    1.0000 </r>
       <r>   -1.1936    1.0000 </r>
       <r>   -1.1814    1.0000 </r>
       <r>   -1.1654    1.0000 </r>
       <r>   -1.1557    1.0000 </r>
       <r>   -1.1328    1.0000 </r>
       <r>   -1.0899    1.0000 </r>
       <r>   -1.0800    1.0000 </r>
       <r>   -1.0680    1.0000 </r>
       <r>   -1.0463    1.0000 </r>
       <r>   -1.0078    1.0000 </r>
       <r>   -0.9936    1.0000 </r>
       <r>   -0.9902    1.0000 </r>
       <r>   -0.9762    1.0000 </r>
       <r>   -0.9524    1.0000 </r>
       <r>   -0.9272    1.0000 </r>
       <r>   -0.9051    1.0000 </r>
       <r>   -0.8776    1.0000 </r>
       <r>   -0.8713    1.0000 </r>
       <r>   -0.8641    1.0000 </r>
       <r>   -0.8377    1.0000 </r>
       <r>   -0.8314    1.0000 </r>
       <r>   -0.8053    1.0000 </r>
       <r>   -0.7914    1.0000 </r>
       <r>   -0.7698    1.0000 </r>
       <r>   -0.7602    1.0000 </r>
       <r>   -0.7468    1.0000 </r>
       <r>   -0.7384    1.0000 </r>
       <r>   -0.7289    1.0000 </r>
       <r>   -0.7164    1.0000 </r>
       <r>   -0.6915    1.0000 </r>
       <r>   -0.6897    1.0000 </r>
       <r>   -0.6716    1.0000 </r>
       <r>   -0.6643    1.0000 </r>
       <r>   -0.6462    1.0000 </r>
       <r>   -0.6286    1.0000 </r>
       <r>   -0.6065    1.0000 </r>
       <r>   -0.5917    1.0000 </r>
       <r>   -0.5851    1.0000 </r>
       <r>   -0.5628    1.0000 </r>
       <r>   -0.5496    1.0000 </r>
       <r>   -0.5451    1.0000 </r>
       <r>   -0.5321    1.0000 </r>
       <r>   -0.5107    1.0000 </r>
       <r>   -0.5089    1.0000 </r>
       <r>   -0.5015    1.0000 </r>
       <r>   -0.4781    1.0000 </r>
       <r>   -0.4620    1.0000 </r>
       <r>   -0.4582    1.0000 </r>
       <r>   -0.4361    1.0000 </r>
       <r>   -0.4299    1.0000 </r>
       <r>   -0.4173    1.0000 </r>
       <r>   -0.4093    1.0000 </r>
       <r>   -0.3995    1.0000 </r>
       <r>   -0.3866    1.0000 </r>
       <r>   -0.3778    1.0000 </r>
       <r>   -0.3754    1.0000 </r>
       <r>   -0.3637    1.0000 </r>
       <r>   -0.3590    1.0000 </r>
       <r>   -0.3446    1.0000 </r>
       <r>   -0.3343    1.0000 </r>
       <r>   -0.3335    1.0000 </r>
       <r>   -0.3316    1.0000 </r>
       <r>   -0.3004    1.0000 </r>
       <r>   -0.2983    1.0000 </r>
       <r>   -0.2936    1.0000 </r>
       <r>   -0.2781    1.0000 </r>
       <r>   -0.2651    1.0000 </r>
       <r>   -0.2520    1.0000 </r>
       <r>   -0.2310    1.0000 </r>
       <r>   -0.2241    1.0000 </r>
       <r>   -0.2078    1.0000 </r>
       <r>   -0.2028    1.0000 </r>
       <r>   -0.1972    1.0000 </r>
       <r>   -0.1707    1.0000 </r>
       <r>   -0.1695    1.0000 </r>
       <r>   -0.1585    1.0000 </r>
       <r>   -0.1539    1.0000 </r>
       <r>   -0.1410    1.0000 </r>
       <r>   -0.1330    1.0000 </r>
       <r>   -0.1261    1.0000 </r>
       <r>   -0.1108    1.0000 </r>
       <r>   -0.1056    1.0000 </r>
       <r>   -0.0952    1.0000 </r>
       <r>   -0.0918    1.0000 </r>
       <r>   -0.0758    1.0000 </r>
       <r>   -0.0583    1.0000 </r>
       <r>   -0.0525    1.0000 </r>
       <r>   -0.0445    1.0000 </r>
       <r>   -0.0372    1.0000 </r>
       <r>   -0.0206    1.0000 </r>
       <r>   -0.0127    1.0000 </r>
       <r>   -0.0010    1.0000 </r>
       <r>    0.0051    1.0000 </r>
       <r>    0.0073    1.0000 </r>
       <r>    0.0183    1.0000 </r>
       <r>    0.0410    1.0000 </r>
       <r>    0.0449    1.0000 </r>
       <r>    0.0527    1.0000 </r>
       <r>    0.0672    1.0000 </r>
       <r>    0.0750    1.0000 </r>
       <r>    0.0895    1.0000 </r>
       <r>    0.1000    1.0000 </r>
       <r>    0.1123    1.0000 </r>
       <r>    0.1249    1.0000 </r>
       <r>    0.1363    1.0000 </r>
       <r>    0.1425    1.0000 </r>
       <r>    0.1452    1.0000 </r>
       <r>    0.1668    1.0000 </r>
       <r>    0.1758    1.0000 </r>
       <r>    0.1966    1.0000 </r>
       <r>    0.2020    1.0000 </r>
       <r>    0.2153    1.0000 </r>
       <r>    0.2336    1.0000 </r>
       <r>    0.2510    1.0000 </r>
       <r>    0.2675    1.0000 </r>
       <r>    0.2828    1.0000 </r>
       <r>    0.2841    1.0000 </r>
       <r>    0.3068    1.0000 </r>
       <r>    0.3200    1.0000 </r>
       <r>    0.3261    1.0000 </r>
       <r>    0.3491    1.0000 </r>
       <r>    0.3529    1.0000 </r>
       <r>    0.3831    1.0000 </r>
       <r>    0.3904    1.0000 </r>
       <r>    0.4025    1.0000 </r>
       <r>    0.4205    1.0000 </r>
       <r>    0.4504    1.0000 </r>
       <r>    0.4558    1.0000 </r>
       <r>    0.4661    1.0000 </r>
       <r>    0.4946    1.0000 </r>
       <r>    0.5171    1.0000 </r>
       <r>    0.5406    1.0000 </r>
       <r>    0.5601    1.0000 </r>
       <r>    0.5704    1.0000 </r>
       <r>    0.5773    1.0000 </r>
       <r>    0.6039    1.0000 </r>
       <r>    0.6243    1.0000 </r>
       <r>    0.6489    1.0000 </r>
       <r>    0.6820    1.0000 </r>
       <r>    0.7095    1.0000 </r>
       <r>    0.7298    1.0000 </r>
       <r>    0.7681    1.0000 </r>
       <r>    0.8305    1.0000 </r>
       <r>    0.8352    1.0000 </r>
       <r>    0.8457    1.0000 </r>
       <r>    0.8776    1.0000 </r>
       <r>    0.8865    1.0000 </r>
       <r>    0.9029    1.0000 </r>
       <r>    0.9558    1.0000 </r>
       <r>    0.9699    1.0000 </r>
       <r>    1.0047    1.0000 </r>
       <r>    1.0364    0.9999 </r>
       <r>    1.0725    0.9997 </r>
       <r>    1.0915    0.9996 </r>
       <r>    1.1261    0.9990 </r>
       <r>    1.1420    0.9985 </r>
       <r>    1.1764    0.9968 </r>
       <r>    1.1800    0.9966 </r>
       <r>    1.2172    0.9927 </r>
       <r>    1.2323    0.9902 </r>
       <r>    1.2658    0.9821 </r>
       <r>    1.2961    0.9703 </r>
       <r>    1.3182    0.9580 </r>
       <r>    1.3512    0.9325 </r>
       <r>    1.3768    0.9056 </r>
       <r>    1.3971    0.8790 </r>
       <r>    1.4317    0.8227 </r>
       <r>    1.4615    0.7627 </r>
       <r>    1.4939    0.6866 </r>
       <r>    1.5164    0.6280 </r>
[...]
       <r>   -58.6318     0.0000   288.0000 </r>
       <r>   -58.3717     0.0000   288.0000 </r>
       <r>   -58.1115     0.0000   288.0000 </r>
       <r>   -57.8513     0.0000   288.0000 </r>
       <r>   -57.5912     0.0000   288.0000 </r>
       <r>   -57.3310     0.0000   288.0000 </r>
       <r>   -57.0708     0.0000   288.0000 </r>
       <r>   -56.8107     0.0000   288.0000 </r>
       <r>   -56.5505     0.0000   288.0000 </r>
       <r>   -56.2903     0.0000   288.0000 </r>
       <r>   -56.0302     0.0000   288.0000 </r>
       <r>   -55.7700     0.0000   288.0000 </r>
       <r>   -55.5098     0.0000   288.0000 </r>
       <r>   -55.2496     0.0000   288.0000 </r>
       <r>   -54.9895     0.0000   288.0000 </r>
       <r>   -54.7293     0.0000   288.0000 </r>
       <r>   -54.4691     0.0000   288.0000 </r>
       <r>   -54.2090     0.0000   288.0000 </r>
       <r>   -53.9488     0.0000   288.0000 </r>
       <r>   -53.6886     0.0000   288.0000 </r>
       <r>   -53.4285     0.0000   288.0000 </r>
       <r>   -53.1683     0.0000   288.0000 </r>
       <r>   -52.9081     0.0000   288.0000 </r>
       <r>   -52.6480     0.0000   288.0000 </r>
       <r>   -52.3878     0.0000   288.0000 </r>
       <r>   -52.1276     0.0000   288.0000 </r>
       <r>   -51.8675     0.0000   288.0000 </r>
       <r>   -51.6073     0.0000   288.0000 </r>
       <r>   -51.3471     0.0000   288.0000 </r>
       <r>   -51.0869     0.0000   288.0000 </r>
       <r>   -50.8268     0.0000   288.0000 </r>
       <r>   -50.5666     0.0000   288.0000 </r>
       <r>   -50.3064     0.0000   288.0000 </r>
       <r>   -50.0463     0.0000   288.0000 </r>
       <r>   -49.7861     0.0000   288.0000 </r>
       <r>   -49.5259     0.0000   288.0000 </r>
       <r>   -49.2658     0.0000   288.0000 </r>
       <r>   -49.0056     0.0000   288.0000 </r>
       <r>   -48.7454     0.0000   288.0000 </r>
       <r>   -48.4853     0.0000   288.0000 </r>
       <r>   -48.2251     0.0000   288.0000 </r>
       <r>   -47.9649     0.0000   288.0000 </r>
       <r>   -47.7048     0.0000   288.0000 </r>
       <r>   -47.4446     0.0000   288.0000 </r>
       <r>   -47.1844     0.0000   288.0000 </r>
       <r>   -46.9242     0.0000   288.0000 </r>
       <r>   -46.6641     0.0000   288.0000 </r>
       <r>   -46.4039     0.0000   288.0000 </r>
       <r>   -46.1437     0.0000   288.0000 </r>
       <r>   -45.8836     0.0000   288.0000 </r>
       <r>   -45.6234     0.0000   288.0000 </r>
       <r>   -45.3632     0.0000   288.0000 </r>
       <r>   -45.1031     0.0000   288.0000 </r>
       <r>   -44.8429     0.0000   288.0000 </r>
       <r>   -44.5827     0.0000   288.0000 </r>
       <r>   -44.3226     0.0000   288.0000 </r>
       <r>   -44.0624     0.0000   288.0000 </r>
       <r>   -43.8022     0.0000   288.0000 </r>
       <r>   -43.5421     0.0000   288.0000 </r>
       <r>   -43.2819     0.0000   288.0000 </r>
       <r>   -43.0217     0.0000   288.0000 </r>
       <r>   -42.7615     0.0000   288.0000 </r>
       <r>   -42.5014     0.0000   288.0000 </r>
       <r>   -42.2412     0.0000   288.0000 </r>
       <r>   -41.9810     0.0000   288.0000 </r>
       <r>   -41.7209     0.0000   288.0000 </r>
       <r>   -41.4607     0.0000   288.0000 </r>
       <r>   -41.2005     0.0000   288.0000 </r>
       <r>   -40.9404     0.0000   288.0000 </r>
       <r>   -40.6802     0.0000   288.0000 </r>
       <r>   -40.4200     0.0000   288.0000 </r>
       <r>   -40.1599     0.0000   288.0000 </r>
       <r>   -39.8997     0.0000   288.0000 </r>
       <r>   -39.6395     0.0000   288.0000 </r>
       <r>   -39.3794     0.0000   288.0000 </r>
       <r>   -39.1192     0.0000   288.0000 </r>
       <r>   -38.8590     0.0000   288.0000 </r>
       <r>   -38.5988     0.0000   288.0000 </r>
       <r>   -38.3387     0.0000   288.0000 </r>
       <r>   -38.0785     0.0000   288.0000 </r>
       <r>   -37.8183     0.0000   288.0000 </r>
       <r>   -37.5582     0.0000   288.0000 </r>
       <r>   -37.2980     0.0000   288.0000 </r>
       <r>   -37.0378     0.0000   288.0000 </r>
       <r>   -36.7777     0.0000   288.0000 </r>
       <r>   -36.5175     0.0000   288.0000 </r>
       <r>   -36.2573     0.0000   288.0000 </r>
       <r>   -35.9972     0.0000   288.0000 </r>
       <r>   -35.7370     0.0000   288.0000 </r>
       <r>   -35.4768     0.0000   288.0000 </r>
       <r>   -35.2167     0.0000   288.0000 </r>
       <r>   -34.9565     0.0000   288.0000 </r>
       <r>   -34.6963     0.0000   288.0000 </r>
       <r>   -34.4361     0.0000   288.0000 </r>
       <r>   -34.1760     0.0000   288.0000 </r>
       <r>   -33.9158     0.0000   288.0000 </r>
       <r>   -33.6556     0.0000   288.0000 </r>
       <r>   -33.3955     0.0000   288.0000 </r>
       <r>   -33.1353     0.0000   288.0000 </r>
       <r>   -32.8751     0.0000   288.0000 </r>
       <r>   -32.6150     0.0000   288.0000 </r>
       <r>   -32.3548     0.0000   288.0000 </r>
       <r>   -32.0946     0.0000   288.0000 </r>
       <r>   -31.8345     0.0000   288.0000 </r>
       <r>   -31.5743     0.0000   288.0000 </r>
       <r>   -31.3141     0.0000   288.0000 </r>
       <r>   -31.0540     0.0000   288.0000 </r>
       <r>   -30.7938     0.0000   288.0000 </r>
       <r>   -30.5336     0.0000   288.0000 </r>
       <r>   -30.2734     0.0000   288.0000 </r>
       <r>   -30.0133     0.0000   288.0000 </r>
       <r>   -29.7531     0.0000   288.0000 </r>
       <r>   -29.4929     0.0000   288.0000 </r>
       <r>   -29.2328     0.0000   288.0000 </r>
       <r>   -28.9726     0.0000   288.0000 </r>
       <r>   -28.7124     0.0000   288.0000 </r>
       <r>   -28.4523     0.0000   288.0000 </r>
       <r>   -28.1921     0.0000   288.0000 </r>
       <r>   -27.9319     0.0000   288.0000 </r>
       <r>   -27.6718     0.0000   288.0000 </r>
       <r>   -27.4116     0.0000   288.0000 </r>
       <r>   -27.1514     0.0000   288.0000 </r>
       <r>   -26.8913     0.0000   288.0000 </r>
       <r>   -26.6311     0.0000   288.0000 </r>
       <r>   -26.3709     0.0000   288.0000 </r>
       <r>   -26.1107     0.0000   288.0000 </r>
       <r>   -25.8506     0.0000   288.0000 </r>
       <r>   -25.5904     0.0000   288.0000 </r>
       <r>   -25.3302     0.0000   288.0000 </r>
       <r>   -25.0701     0.0000   288.0000 </r>
       <r>   -24.8099     0.0000   288.0000 </r>
       <r>   -24.5497     0.0000   288.0000 </r>
       <r>   -24.2896     0.0000   288.0000 </r>
       <r>   -24.0294     0.0000   288.0000 </r>
       <r>   -23.7692     0.0000   288.0000 </r>
       <r>   -23.5091     0.0000   288.0000 </r>
       <r>   -23.2489     0.0000   288.0000 </r>
       <r>   -22.9887     0.0000   288.0000 </r>
       <r>   -22.7286     0.0000   288.0000 </r>
       <r>   -22.4684     0.0000   288.0000 </r>
       <r>   -22.2082     0.0000   288.0000 </r>
       <r>   -21.9480     0.0000   288.0000 </r>
       <r>   -21.6879     0.0000   288.0000 </r>
       <r>   -21.4277     0.0000   288.0000 </r>
       <r>   -21.1675     0.0000   288.0000 </r>
       <r>   -20.9074     0.0000   288.0000 </r>
       <r>   -20.6472     0.0000   288.0000 </r>
       <r>   -20.3870     0.0000   288.0000 </r>
       <r>   -20.1269     0.0000   288.0000 </r>
       <r>   -19.8667     0.0000   288.0000 </r>
       <r>   -19.6065     0.0000   288.0000 </r>
       <r>   -19.3464     0.0000   288.0000 </r>
       <r>   -19.0862     0.0000   288.0000 </r>
       <r>   -18.8260     0.0000   288.0000 </r>
       <r>   -18.5659     0.0000   288.0000 </r>
       <r>   -18.3057     0.0000   288.0000 </r>
       <r>   -18.0455     0.0000   288.0000 </r>
       <r>   -17.7853     0.0000   288.0000 </r>
       <r>   -17.5252     0.0000   288.0000 </r>
       <r>   -17.2650     0.0000   288.0000 </r>
       <r>   -17.0048     0.0000   288.0000 </r>
       <r>   -16.7447     0.0000   288.0000 </r>
       <r>   -16.4845     0.0000   288.0000 </r>
       <r>   -16.2243     0.0000   288.0000 </r>
       <r>   -15.9642     0.0000   288.0000 </r>
       <r>   -15.7040     0.0000   288.0000 </r>
       <r>   -15.4438     0.0000   288.0000 </r>
       <r>   -15.1837     0.0012   288.0003 </r>
       <r>   -14.9235     0.3022   288.0789 </r>
       <r>   -14.6633     3.8035   289.0685 </r>
       <r>   -14.4032     4.3056   290.1887 </r>
       <r>   -14.1430     6.8826   291.9793 </r>
       <r>   -13.8828    13.2360   295.4229 </r>
       <r>   -13.6226    19.2949   300.4428 </r>
       <r>   -13.3625    24.4396   306.8012 </r>
       <r>   -13.1023    27.8424   314.0450 </r>
       <r>   -12.8421    29.8372   321.8077 </r>
       <r>   -12.5820    31.6968   330.0542 </r>
       <r>   -12.3218    45.0630   341.7782 </r>
       <r>   -12.0616    42.6810   352.8824 </r>
       <r>   -11.8015    38.5562   362.9136 </r>
       <r>   -11.5413    38.6051   372.9574 </r>
       <r>   -11.2811    25.9456   379.7076 </r>
       <r>   -11.0210    12.8583   383.0530 </r>
       <r>   -10.7608     3.5235   383.9697 </r>
       <r>   -10.5006     0.1164   383.9999 </r>
       <r>   -10.2405     0.0002   384.0000 </r>
       <r>    -9.9803     0.0000   384.0000 </r>
       <r>    -9.7201     0.0000   384.0000 </r>
       <r>    -9.4599     0.0000   384.0000 </r>
       <r>    -9.1998     0.0000   384.0000 </r>
       <r>    -8.9396     0.0000   384.0000 </r>
       <r>    -8.6794     0.0000   384.0000 </r>
       <r>    -8.4193     0.0000   384.0000 </r>
       <r>    -8.1591     0.0000   384.0000 </r>
       <r>    -7.8989     0.0000   384.0000 </r>
       <r>    -7.6388     0.0000   384.0000 </r>
       <r>    -7.3786     0.0002   384.0000 </r>
       <r>    -7.1184     0.0926   384.0241 </r>
       <r>    -6.8583     2.5690   384.6925 </r>
       <r>    -6.5981     7.2160   386.5699 </r>
       <r>    -6.3379    11.8482   389.6524 </r>
       <r>    -6.0778    17.9571   394.3243 </r>
       <r>    -5.8176    29.1396   401.9055 </r>
       <r>    -5.5574    30.4948   409.8393 </r>
       <r>    -5.2972    41.0796   420.5269 </r>
       <r>    -5.0371    59.6339   436.0418 </r>
       <r>    -4.7769    63.3827   452.5320 </r>
       <r>    -4.5167    59.3204   467.9653 </r>
       <r>    -4.2566    57.6525   482.9646 </r>
       <r>    -3.9964    64.1115   499.6445 </r>
       <r>    -3.7362    64.6174   516.4559 </r>
       <r>    -3.4761    77.5918   536.6429 </r>
       <r>    -3.2159    93.0702   560.8568 </r>
       <r>    -2.9557    83.2827   582.5244 </r>
       <r>    -2.6956    73.2878   601.5916 </r>
       <r>    -2.4354    78.6591   622.0562 </r>
       <r>    -2.1752    64.0557   638.7215 </r>
       <r>    -1.9151    47.5656   651.0966 </r>
       <r>    -1.6549    73.7646   670.2878 </r>
       <r>    -1.3947    97.3509   695.6155 </r>
       <r>    -1.1345   100.6973   721.8138 </r>
       <r>    -0.8744   109.5075   750.3042 </r>
       <r>    -0.6142   135.7053   785.6105 </r>
       <r>    -0.3540   168.4824   829.4443 </r>
       <r>    -0.0939   190.6729   879.0514 </r>
       <r>     0.1663   182.8117   926.6133 </r>
       <r>     0.4265   142.5138   963.6910 </r>
       <r>     0.6866   101.8726   990.1950 </r>
       <r>     0.9468    77.9735  1010.4813 </r>
       <r>     1.2070    75.6005  1030.1502 </r>
       <r>     1.4671    74.0606  1049.4184 </r>
       <r>     1.7273    64.5273  1066.2064 </r>
       <r>     1.9875    53.7486  1080.1901 </r>
       <r>     2.2476    59.6687  1095.7141 </r>
       <r>     2.5078    70.2984  1114.0035 </r>
       <r>     2.7680    56.8938  1128.8055 </r>
       <r>     3.0281    45.2737  1140.5843 </r>
       <r>     3.2883    31.6360  1148.8150 </r>
       <r>     3.5485    16.6262  1153.1406 </r>
       <r>     3.8087     3.2559  1153.9877 </r>
       <r>     4.0688     0.9872  1154.2445 </r>
       <r>     4.3290     5.5835  1155.6972 </r>
       <r>     4.5892     9.9053  1158.2742 </r>
       <r>     4.8493    14.2236  1161.9748 </r>
       <r>     5.1095    16.8656  1166.3627 </r>
       <r>     5.3697    16.2111  1170.5803 </r>
       <r>     5.6298    22.0002  1176.3040 </r>
       <r>     5.8900    31.3867  1184.4699 </r>
       <r>     6.1502    34.2235  1193.3738 </r>
       <r>     6.4103    26.2480  1200.2027 </r>
       <r>     6.6705    34.7216  1209.2362 </r>
       <r>     6.9307    42.6231  1220.3254 </r>
       <r>     7.1908    52.5680  1234.0019 </r>
       <r>     7.4510    58.8485  1249.3125 </r>
       <r>     7.7112    48.6740  1261.9759 </r>
       <r>     7.9714    21.1755  1267.4851 </r>
       <r>     8.2315     1.9642  1267.9961 </r>
       <r>     8.4917     0.0149  1268.0000 </r>
       <r>     8.7519     0.0000  1268.0000 </r>
       <r>     9.0120     0.0000  1268.0000 </r>
       <r>     9.2722     0.0000  1268.0000 </r>
       <r>     9.5324     0.0000  1268.0000 </r>
       <r>     9.7925     0.0000  1268.0000 </r>
       <r>    10.0527     0.0000  1268.0000 </r>
       <r>    10.3129     0.0000  1268.0000 </r>
       <r>    10.5730     0.0000  1268.0000 </r>
       <r>    10.8332     0.0000  1268.0000 </r>
       <r>    11.0934     0.0000  1268.0000 </r>
       <r>    11.3535     0.0000  1268.0000 </r>
      </set>
     </set>
    </array>
   </total>
  </dos>
 </calculation>
 <structure name="finalpos" >
  <crystal>
   <varray name="basis" >
    <v>      11.25646304       0.00000000       0.00000000 </v>
    <v>       5.04456212      10.06282034       0.00000000 </v>
    <v>       0.00000000       0.00000000      22.51995597 </v>
   </varray>
   <i name="volume">   2550.87516496 </i>
   <varray name="rec_basis" >
    <v>       0.08883785      -0.04453504       0.00000000 </v>
    <v>       0.00000000       0.09937572       0.00000000 </v>
    <v>       0.00000000       0.00000000       0.04440506 </v>
   </varray>
  </crystal>
  <varray name="positions" >
   <v>       0.26092069       0.47878037       0.29519774 </v>
   <v>       0.35488056       0.38482050       0.42557357 </v>
   <v>       0.16696082       0.07274025       0.16482191 </v>
   <v>       0.27423906       0.33335901       0.13037583 </v>
   <v>       0.36819893       0.23939914       0.26075166 </v>
   <v>       0.46215879       0.14543927       0.39112749 </v>
   <v>       0.00030194       0.37150214       0.26075166 </v>
   <v>       0.09426180       0.27754227       0.39112749 </v>
   <v>       0.20435163       0.18583522       0.48276298 </v>
   <v>       0.40634206       0.46546200       0.13037583 </v>
   <v>       0.42948422       0.01772208       0.03277955 </v>
   <v>       0.76092069       0.47878037       0.29519774 </v>
   <v>       0.85488056       0.38482050       0.42557357 </v>
   <v>       0.52907567       0.22643837       0.08884738 </v>
   <v>       0.66696082       0.07274025       0.16482191 </v>
   <v>       0.68505162       0.32184151       0.03822976 </v>
   <v>       0.77423906       0.33335901       0.13037583 </v>
   <v>       0.86819893       0.23939914       0.26075166 </v>
   <v>       0.96215879       0.14543927       0.39112749 </v>
   <v>       0.50030194       0.37150214       0.26075166 </v>
   <v>       0.59426180       0.27754227       0.39112749 </v>
   <v>       0.71251310       0.18861909       0.48118439 </v>
   <v>       0.90634206       0.46546200       0.13037583 </v>
   <v>       0.71558003       0.02621294       0.04374048 </v>
   <v>       0.26092069       0.97878037       0.29519774 </v>
   <v>       0.35488056       0.88482051       0.42557357 </v>
   <v>       0.16696083       0.57274025       0.16482191 </v>
   <v>       0.20902735       0.02450243       0.05823712 </v>
   <v>       0.27423906       0.83335901       0.13037583 </v>
   <v>       0.36819893       0.73939914       0.26075166 </v>
   <v>       0.46215879       0.64543927       0.39112749 </v>
   <v>       0.00030194       0.87150214       0.26075166 </v>
   <v>       0.09426180       0.77754227       0.39112749 </v>
   <v>       0.40634206       0.96546200       0.13037583 </v>
   <v>       0.76092069       0.97878037       0.29519774 </v>
   <v>       0.85488056       0.88482051       0.42557357 </v>
   <v>       0.54308400       0.71575334       0.09073659 </v>
   <v>       0.66696083       0.57274025       0.16482191 </v>
   <v>       0.53061415       0.52674384       0.48296605 </v>
   <v>       0.67836159       0.82687079       0.03758810 </v>
   <v>       0.77423906       0.83335901       0.13037583 </v>
   <v>       0.86819893       0.73939914       0.26075166 </v>
   <v>       0.96215879       0.64543927       0.39112749 </v>
   <v>       0.50030194       0.87150214       0.26075166 </v>
   <v>       0.59426180       0.77754227       0.39112749 </v>
   <v>       0.70390243       0.71146364       0.48587746 </v>
   <v>       0.90634206       0.96546200       0.13037583 </v>
   <v>       0.72667016       0.51587345       0.04715786 </v>
   <v>       0.07287763       0.16682345       0.31134757 </v>
   <v>       0.16509323       0.07184215       0.42336743 </v>
   <v>       0.35778836       0.38217390       0.05923260 </v>
   <v>       0.47891775       0.26078331       0.18097174 </v>
   <v>       0.02695463       0.35125076       0.47375508 </v>
   <v>       0.43627354       0.47164252       0.35520991 </v>
   <v>       0.27309597       0.15243517       0.09609706 </v>
   <v>       0.34231367       0.06560240       0.22483408 </v>
   <v>       0.08098467       0.47877904       0.11360110 </v>
   <v>       0.17409868       0.39738739       0.22483408 </v>
   <v>       0.26805854       0.30342752       0.35520991 </v>
   <v>       0.36317512       0.22000802       0.46976304 </v>
   <v>       0.57287763       0.16682345       0.31134757 </v>
   <v>       0.66422068       0.07515198       0.42450666 </v>
   <v>       0.87857411       0.33225355       0.05623798 </v>
   <v>       0.97891775       0.26078331       0.18097174 </v>
   <v>       0.52575357       0.34865892       0.47697448 </v>
   <v>       0.93627354       0.47164252       0.35520991 </v>
   <v>       0.74835381       0.15956227       0.09445824 </v>
   <v>       0.84231367       0.06560240       0.22483408 </v>
   <v>       0.58013881       0.49134726       0.09445824 </v>
   <v>       0.67409868       0.39738739       0.22483408 </v>
   <v>       0.76805854       0.30342752       0.35520991 </v>
   <v>       0.87490875       0.21749250       0.47195064 </v>
   <v>       0.07287763       0.66682345       0.31134757 </v>
   <v>       0.16452473       0.57495799       0.41797393 </v>
   <v>       0.38495788       0.85474318       0.05059590 </v>
   <v>       0.47891775       0.76078331       0.18097174 </v>
   <v>       0.01930415       0.86622789       0.46864840 </v>
   <v>       0.43627354       0.97164252       0.35520991 </v>
   <v>       0.25886520       0.65752908       0.11239615 </v>
   <v>       0.34231367       0.56560240       0.22483408 </v>
   <v>       0.08097320       0.98109692       0.10923474 </v>
   <v>       0.17409868       0.89738739       0.22483408 </v>
   <v>       0.26805854       0.80342752       0.35520991 </v>
   <v>       0.37937697       0.71443121       0.47237597 </v>
   <v>       0.57287763       0.66682345       0.31134757 </v>
   <v>       0.66683750       0.57286358       0.44172340 </v>
   <v>       0.87410352       0.84825563       0.05779553 </v>
   <v>       0.97891775       0.76078331       0.18097174 </v>
   <v>       0.52233524       0.86639220       0.47172450 </v>
   <v>       0.93627354       0.97164252       0.35520991 </v>
   <v>       0.74835381       0.65956227       0.09445824 </v>
   <v>       0.84231367       0.56560240       0.22483408 </v>
   <v>       0.58013881       0.99134726       0.09445824 </v>
   <v>       0.67409868       0.89738739       0.22483408 </v>
   <v>       0.76805854       0.80342752       0.35520991 </v>
   <v>       0.87769264       0.71752911       0.47218798 </v>
  </varray>
 </structure>
</modeling>
