   52   52    1    1
  0.3564765E+02  0.1125646E-08  0.9578410E-09  0.1719249E-08  0.5000000E-15
  1.000000000000000E-004
  CAR 
 "Millerite NiS"                         
    572      1    344
 
  0.0000000E+00  0.0000000E+00  0.0000000E+00  0.1000000E+01
    1      -64.515963   1.000000
    2      -64.507934   1.000000
    3      -64.492812   1.000000
    4      -64.477058   1.000000
    5      -64.468761   1.000000
    6      -64.467868   1.000000
    7      -64.444925   1.000000
    8      -64.443917   1.000000
    9      -64.430285   1.000000
   10      -64.412209   1.000000
   11      -64.409460   1.000000
   12      -64.402518   1.000000
   13      -64.391267   1.000000
   14      -64.378611   1.000000
   15      -64.371675   1.000000
   16      -64.366960   1.000000
   17      -64.362860   1.000000
   18      -64.357596   1.000000
   19      -64.321530   1.000000
   20      -64.317436   1.000000
   21      -64.289282   1.000000
   22      -64.284945   1.000000
   23      -64.238782   1.000000
   24      -64.232736   1.000000
   25      -64.202879   1.000000
   26      -64.188770   1.000000
   27      -64.174127   1.000000
   28      -64.164968   1.000000
   29      -64.139936   1.000000
   30      -64.127972   1.000000
   31      -64.125389   1.000000
   32      -64.075308   1.000000
   33      -64.051826   1.000000
   34      -64.051522   1.000000
   35      -64.045868   1.000000
   36      -64.028016   1.000000
   37      -64.022305   1.000000
   38      -64.019328   1.000000
   39      -64.018964   1.000000
   40      -64.016097   1.000000
   41      -64.011135   1.000000
   42      -64.008821   1.000000
   43      -64.006831   1.000000
   44      -63.999960   1.000000
   45      -63.988787   1.000000
   46      -63.979453   1.000000
   47      -63.977191   1.000000
   48      -63.972890   1.000000
   49      -63.951581   1.000000
   50      -63.916404   1.000000
   51      -63.896739   1.000000
   52      -63.878438   1.000000
   53      -63.860573   1.000000
   54      -63.848254   1.000000
   55      -63.846180   1.000000
   56      -63.797235   1.000000
   57      -63.771644   1.000000
   58      -63.762938   1.000000
   59      -63.741613   1.000000
   60      -63.738948   1.000000
   61      -63.726319   1.000000
   62      -63.702032   1.000000
   63      -63.671481   1.000000
   64      -63.631307   1.000000
   65      -63.620868   1.000000
   66      -63.521104   1.000000
   67      -63.518448   1.000000
   68      -63.463938   1.000000
   69      -63.447283   1.000000
   70      -63.387661   1.000000
   71      -63.384088   1.000000
   72      -63.354735   1.000000
   73      -63.343811   1.000000
   74      -63.319954   1.000000
   75      -63.040260   1.000000
   76      -62.926829   1.000000
   77      -62.623857   1.000000
   78      -62.566355   1.000000
   79      -15.349821   1.000000
   80      -14.831885   1.000000
   81      -14.726926   1.000000
   82      -14.655951   1.000000
   83      -14.335309   1.000000
   84      -14.210528   1.000000
   85      -14.116377   1.000000
   86      -14.075235   1.000000
   87      -13.961622   1.000000
   88      -13.857340   1.000000
   89      -13.704276   1.000000
   90      -13.700405   1.000000
   91      -13.577492   1.000000
   92      -13.407398   1.000000
   93      -13.383515   1.000000
   94      -13.261705   1.000000
   95      -13.001585   1.000000
   96      -12.933502   1.000000
   97      -12.838905   1.000000
   98      -12.777217   1.000000
   99      -12.758755   1.000000
  100      -12.740259   1.000000
  101      -12.509476   1.000000
  102      -12.335146   1.000000
  103      -11.926973   1.000000
  104      -11.918072   1.000000
  105       -7.185662   1.000000
  106       -6.986343   1.000000
  107       -6.887199   1.000000
  108       -6.812358   1.000000
  109       -6.669355   1.000000
  110       -6.636371   1.000000
  111       -6.472299   1.000000
  112       -6.439685   1.000000
  113       -6.421459   1.000000
  114       -6.362583   1.000000
  115       -6.130608   1.000000
  116       -6.075882   1.000000
  117       -6.032823   1.000000
  118       -5.953171   1.000000
  119       -5.881725   1.000000
  120       -5.849426   1.000000
  121       -5.793136   1.000000
  122       -5.767167   1.000000
  123       -5.733605   1.000000
  124       -5.677516   1.000000
  125       -5.493670   1.000000
  126       -5.479199   1.000000
  127       -5.453247   1.000000
  128       -5.390078   1.000000
  129       -5.383416   1.000000
  130       -5.344639   1.000000
  131       -5.265748   1.000000
  132       -5.144700   1.000000
  133       -5.075681   1.000000
  134       -4.957002   1.000000
  135       -4.922661   1.000000
  136       -4.838592   1.000000
  137       -4.771622   1.000000
  138       -4.756604   1.000000
  139       -4.720658   1.000000
  140       -4.696091   1.000000
  141       -4.629486   1.000000
  142       -4.564166   1.000000
  143       -4.534388   1.000000
  144       -4.476364   1.000000
  145       -4.449603   1.000000
  146       -4.426397   1.000000
  147       -4.370788   1.000000
  148       -4.246411   1.000000
  149       -4.166967   1.000000
  150       -4.144156   1.000000
  151       -4.124455   1.000000
  152       -4.082626   1.000000
  153       -4.064198   1.000000
  154       -4.046854   1.000000
  155       -3.977464   1.000000
  156       -3.949588   1.000000
  157       -3.901800   1.000000
  158       -3.872145   1.000000
  159       -3.828969   1.000000
  160       -3.771655   1.000000
  161       -3.755123   1.000000
  162       -3.658994   1.000000
  163       -3.598651   1.000000
  164       -3.549027   1.000000
  165       -3.504702   1.000000
  166       -3.454165   1.000000
  167       -3.424594   1.000000
  168       -3.408516   1.000000
  169       -3.298571   1.000000
  170       -3.282673   1.000000
  171       -3.215736   1.000000
  172       -3.207193   1.000000
  173       -3.191648   1.000000
  174       -3.179614   1.000000
  175       -3.124931   1.000000
  176       -3.110412   1.000000
  177       -2.975065   1.000000
  178       -2.970171   1.000000
  179       -2.958104   1.000000
  180       -2.936800   1.000000
  181       -2.915314   1.000000
  182       -2.839410   1.000000
  183       -2.835755   1.000000
  184       -2.788268   1.000000
  185       -2.714268   1.000000
  186       -2.708251   1.000000
  187       -2.621812   1.000000
  188       -2.601748   1.000000
  189       -2.579746   1.000000
  190       -2.579240   1.000000
  191       -2.489771   1.000000
  192       -2.480096   1.000000
  193       -2.455342   1.000000
  194       -2.429342   1.000000
  195       -2.400755   1.000000
  196       -2.376158   1.000000
  197       -2.373337   1.000000
  198       -2.333988   1.000000
  199       -2.326293   1.000000
  200       -2.296427   1.000000
  201       -2.272394   1.000000
  202       -2.237233   1.000000
  203       -2.206436   1.000000
  204       -2.190648   1.000000
  205       -2.182083   1.000000
  206       -2.171217   1.000000
  207       -2.158048   1.000000
  208       -2.103869   1.000000
  209       -2.096581   1.000000
  210       -2.068211   1.000000
  211       -2.045735   1.000000
  212       -2.039948   1.000000
  213       -2.005774   1.000000
  214       -1.987826   1.000000
  215       -1.978163   1.000000
  216       -1.962110   1.000000
  217       -1.946413   1.000000
  218       -1.925528   1.000000
  219       -1.911855   1.000000
  220       -1.887550   1.000000
  221       -1.873637   1.000000
  222       -1.840565   1.000000
  223       -1.825017   1.000000
  224       -1.814512   1.000000
  225       -1.795138   1.000000
  226       -1.776447   1.000000
  227       -1.761335   1.000000
  228       -1.743267   1.000000
  229       -1.734070   1.000000
  230       -1.712306   1.000000
  231       -1.688715   1.000000
  232       -1.683459   1.000000
  233       -1.665532   1.000000
  234       -1.658756   1.000000
  235       -1.639063   1.000000
  236       -1.623651   1.000000
  237       -1.606324   1.000000
  238       -1.592153   1.000000
  239       -1.575187   1.000000
  240       -1.555446   1.000000
  241       -1.548724   1.000000
  242       -1.535864   1.000000
  243       -1.515975   1.000000
  244       -1.504592   1.000000
  245       -1.483065   1.000000
  246       -1.477642   1.000000
  247       -1.436652   1.000000
  248       -1.426898   1.000000
  249       -1.400853   1.000000
  250       -1.391861   1.000000
  251       -1.367164   1.000000
  252       -1.346960   1.000000
  253       -1.316781   1.000000
  254       -1.292854   1.000000
  255       -1.278652   1.000000
  256       -1.257675   1.000000
  257       -1.224774   1.000000
  258       -1.224120   1.000000
  259       -1.199588   1.000000
  260       -1.185435   1.000000
  261       -1.180528   1.000000
  262       -1.138915   1.000000
  263       -1.118525   1.000000
  264       -1.093757   1.000000
  265       -1.069646   0.999999
  266       -1.044624   0.999998
  267       -1.016684   0.999994
  268       -1.003048   0.999991
  269       -0.970048   0.999974
  270       -0.949555   0.999953
  271       -0.926376   0.999909
  272       -0.861144   0.999482
  273       -0.842065   0.999172
  274       -0.776546   0.996346
  275       -0.752234   0.993974
  276       -0.733810   0.991351
  277       -0.720600   0.988900
  278       -0.682844   0.978305
  279       -0.659528   0.968207
  280       -0.635598   0.954089
  281       -0.619393   0.941941
  282       -0.590528   0.914214
  283       -0.582564   0.905046
  284       -0.518423   0.804363
  285       -0.496308   0.758327
  286       -0.420860   0.566487
  287       -0.400301   0.508799
  288       -0.380542   0.453169
  289       -0.261509   0.168692
  290       -0.159018   0.046084
  291       -0.130572   0.029700
  292       -0.112992   0.022241
  293       -0.066038   0.009602
  294        0.034269   0.001141
  295        0.090810   0.000280
  296        0.104821   0.000193
  297        0.154704   0.000048
  298        0.183147   0.000020
  299        0.216803   0.000007
  300        0.240289   0.000003
  301        0.307044   0.000000
  302        0.327405   0.000000
  303        0.405242   0.000000
  304        0.466302   0.000000
  305        0.532155   0.000000
  306        0.569109   0.000000
  307        0.623025   0.000000
  308        0.670415   0.000000
  309        0.738041   0.000000
  310        0.834861   0.000000
  311        0.886446   0.000000
  312        0.963070   0.000000
  313        1.022577   0.000000
  314        1.425567   0.000000
  315        1.679288   0.000000
  316        2.097906   0.000000
  317        2.299006   0.000000
  318        2.556553   0.000000
  319        2.881694   0.000000
  320        2.974595   0.000000
  321        3.294354   0.000000
  322        3.490041   0.000000
  323        3.630359   0.000000
  324        3.769341   0.000000
  325        3.998091   0.000000
  326        4.051992   0.000000
  327        4.298002   0.000000
  328        4.359827   0.000000
  329        4.432011   0.000000
  330        4.550470   0.000000
  331        4.619889   0.000000
  332        4.683048   0.000000
  333        4.755348   0.000000
  334        4.777677   0.000000
  335        4.858753   0.000000
  336        4.950643   0.000000
  337        4.980546   0.000000
  338        5.058567   0.000000
  339        5.137604   0.000000
  340        5.209391   0.000000
  341        5.290210   0.000000
  342        5.362058   0.000000
  343        5.406758   0.000000
  344        5.548373   0.000000
