  72  72   0   0
  0.2729146E+02  0.1007973E-08  0.1007973E-08  0.2068350E-08  0.5000000E-15
  1.000000000000000E-004
  CAR 
 "Millerite NiS"                         
     11.14490091    -66.25226603  301      1.45418572      1.00000000
    -66.252  0.0000E+00  0.0000E+00
    -65.994  0.0000E+00  0.0000E+00
    -65.736  0.0000E+00  0.0000E+00
    -65.478  0.0000E+00  0.0000E+00
    -65.220  0.0000E+00  0.0000E+00
    -64.962  0.0000E+00  0.0000E+00
    -64.704  0.0000E+00  0.0000E+00
    -64.446  0.0000E+00  0.0000E+00
    -64.188  0.0000E+00  0.0000E+00
    -63.930  0.0000E+00  0.0000E+00
    -63.672  0.4032E-09  0.1040E-09
    -63.414  0.2647E-04  0.6829E-05
    -63.156  0.8260E-01  0.2132E-01
    -62.898  0.1444E+02  0.3746E+01
    -62.640  0.1864E+03  0.5183E+02
    -62.382  0.2975E+03  0.1286E+03
    -62.124  0.1403E+03  0.1648E+03
    -61.866  0.6367E+02  0.1812E+03
    -61.608  0.5668E+02  0.1958E+03
    -61.350  0.4633E+02  0.2078E+03
    -61.092  0.2690E+02  0.2147E+03
    -60.834  0.4782E+01  0.2160E+03
    -60.576  0.1355E+00  0.2160E+03
    -60.318  0.2796E-03  0.2160E+03
    -60.060  0.2622E-07  0.2160E+03
    -59.803  0.9726E-13  0.2160E+03
    -59.545  0.0000E+00  0.2160E+03
    -59.287  0.0000E+00  0.2160E+03
    -59.029  0.0000E+00  0.2160E+03
    -58.771  0.0000E+00  0.2160E+03
    -58.513  0.0000E+00  0.2160E+03
    -58.255  0.0000E+00  0.2160E+03
    -57.997  0.0000E+00  0.2160E+03
    -57.739  0.0000E+00  0.2160E+03
    -57.481  0.0000E+00  0.2160E+03
    -57.223  0.0000E+00  0.2160E+03
    -56.965  0.0000E+00  0.2160E+03
    -56.707  0.0000E+00  0.2160E+03
    -56.449  0.0000E+00  0.2160E+03
    -56.191  0.0000E+00  0.2160E+03
    -55.933  0.0000E+00  0.2160E+03
    -55.675  0.0000E+00  0.2160E+03
    -55.417  0.0000E+00  0.2160E+03
    -55.159  0.0000E+00  0.2160E+03
    -54.901  0.0000E+00  0.2160E+03
    -54.643  0.0000E+00  0.2160E+03
    -54.385  0.0000E+00  0.2160E+03
    -54.127  0.0000E+00  0.2160E+03
    -53.869  0.0000E+00  0.2160E+03
    -53.611  0.0000E+00  0.2160E+03
    -53.353  0.0000E+00  0.2160E+03
    -53.095  0.0000E+00  0.2160E+03
    -52.837  0.0000E+00  0.2160E+03
    -52.579  0.0000E+00  0.2160E+03
    -52.321  0.0000E+00  0.2160E+03
    -52.063  0.0000E+00  0.2160E+03
    -51.805  0.0000E+00  0.2160E+03
    -51.547  0.0000E+00  0.2160E+03
    -51.289  0.0000E+00  0.2160E+03
    -51.031  0.0000E+00  0.2160E+03
    -50.773  0.0000E+00  0.2160E+03
    -50.515  0.0000E+00  0.2160E+03
    -50.257  0.0000E+00  0.2160E+03
    -49.999  0.0000E+00  0.2160E+03
    -49.741  0.0000E+00  0.2160E+03
    -49.483  0.0000E+00  0.2160E+03
    -49.225  0.0000E+00  0.2160E+03
    -48.967  0.0000E+00  0.2160E+03
    -48.709  0.0000E+00  0.2160E+03
    -48.451  0.0000E+00  0.2160E+03
    -48.193  0.0000E+00  0.2160E+03
    -47.935  0.0000E+00  0.2160E+03
    -47.677  0.0000E+00  0.2160E+03
    -47.419  0.0000E+00  0.2160E+03
    -47.161  0.0000E+00  0.2160E+03
    -46.903  0.0000E+00  0.2160E+03
    -46.645  0.0000E+00  0.2160E+03
    -46.387  0.0000E+00  0.2160E+03
    -46.129  0.0000E+00  0.2160E+03
    -45.871  0.0000E+00  0.2160E+03
    -45.613  0.0000E+00  0.2160E+03
    -45.355  0.0000E+00  0.2160E+03
    -45.097  0.0000E+00  0.2160E+03
    -44.839  0.0000E+00  0.2160E+03
    -44.581  0.0000E+00  0.2160E+03
    -44.323  0.0000E+00  0.2160E+03
    -44.065  0.0000E+00  0.2160E+03
    -43.807  0.0000E+00  0.2160E+03
    -43.549  0.0000E+00  0.2160E+03
    -43.291  0.0000E+00  0.2160E+03
    -43.033  0.0000E+00  0.2160E+03
    -42.775  0.0000E+00  0.2160E+03
    -42.517  0.0000E+00  0.2160E+03
    -42.259  0.0000E+00  0.2160E+03
    -42.001  0.0000E+00  0.2160E+03
    -41.743  0.0000E+00  0.2160E+03
    -41.485  0.0000E+00  0.2160E+03
    -41.227  0.0000E+00  0.2160E+03
    -40.969  0.0000E+00  0.2160E+03
    -40.711  0.0000E+00  0.2160E+03
    -40.453  0.0000E+00  0.2160E+03
    -40.195  0.0000E+00  0.2160E+03
    -39.937  0.0000E+00  0.2160E+03
    -39.679  0.0000E+00  0.2160E+03
    -39.421  0.0000E+00  0.2160E+03
    -39.163  0.0000E+00  0.2160E+03
    -38.905  0.0000E+00  0.2160E+03
    -38.647  0.0000E+00  0.2160E+03
    -38.389  0.0000E+00  0.2160E+03
    -38.131  0.0000E+00  0.2160E+03
    -37.873  0.0000E+00  0.2160E+03
    -37.615  0.0000E+00  0.2160E+03
    -37.357  0.0000E+00  0.2160E+03
    -37.099  0.0000E+00  0.2160E+03
    -36.841  0.0000E+00  0.2160E+03
    -36.583  0.0000E+00  0.2160E+03
    -36.325  0.0000E+00  0.2160E+03
    -36.067  0.0000E+00  0.2160E+03
    -35.809  0.0000E+00  0.2160E+03
    -35.551  0.0000E+00  0.2160E+03
    -35.293  0.0000E+00  0.2160E+03
    -35.035  0.0000E+00  0.2160E+03
    -34.777  0.0000E+00  0.2160E+03
    -34.519  0.0000E+00  0.2160E+03
    -34.261  0.0000E+00  0.2160E+03
    -34.003  0.0000E+00  0.2160E+03
    -33.745  0.0000E+00  0.2160E+03
    -33.487  0.0000E+00  0.2160E+03
    -33.229  0.0000E+00  0.2160E+03
    -32.971  0.0000E+00  0.2160E+03
    -32.713  0.0000E+00  0.2160E+03
    -32.456  0.0000E+00  0.2160E+03
    -32.198  0.0000E+00  0.2160E+03
    -31.940  0.0000E+00  0.2160E+03
    -31.682  0.0000E+00  0.2160E+03
    -31.424  0.0000E+00  0.2160E+03
    -31.166  0.0000E+00  0.2160E+03
    -30.908  0.0000E+00  0.2160E+03
    -30.650  0.0000E+00  0.2160E+03
    -30.392  0.0000E+00  0.2160E+03
    -30.134  0.0000E+00  0.2160E+03
    -29.876  0.0000E+00  0.2160E+03
    -29.618  0.0000E+00  0.2160E+03
    -29.360  0.0000E+00  0.2160E+03
    -29.102  0.0000E+00  0.2160E+03
    -28.844  0.0000E+00  0.2160E+03
    -28.586  0.0000E+00  0.2160E+03
    -28.328  0.0000E+00  0.2160E+03
    -28.070  0.0000E+00  0.2160E+03
    -27.812  0.0000E+00  0.2160E+03
    -27.554  0.0000E+00  0.2160E+03
    -27.296  0.0000E+00  0.2160E+03
    -27.038  0.0000E+00  0.2160E+03
    -26.780  0.0000E+00  0.2160E+03
    -26.522  0.0000E+00  0.2160E+03
    -26.264  0.0000E+00  0.2160E+03
    -26.006  0.0000E+00  0.2160E+03
    -25.748  0.0000E+00  0.2160E+03
    -25.490  0.0000E+00  0.2160E+03
    -25.232  0.0000E+00  0.2160E+03
    -24.974  0.0000E+00  0.2160E+03
    -24.716  0.0000E+00  0.2160E+03
    -24.458  0.0000E+00  0.2160E+03
    -24.200  0.0000E+00  0.2160E+03
    -23.942  0.0000E+00  0.2160E+03
    -23.684  0.0000E+00  0.2160E+03
    -23.426  0.0000E+00  0.2160E+03
    -23.168  0.0000E+00  0.2160E+03
    -22.910  0.0000E+00  0.2160E+03
    -22.652  0.0000E+00  0.2160E+03
    -22.394  0.0000E+00  0.2160E+03
    -22.136  0.0000E+00  0.2160E+03
    -21.878  0.0000E+00  0.2160E+03
    -21.620  0.0000E+00  0.2160E+03
    -21.362  0.0000E+00  0.2160E+03
    -21.104  0.0000E+00  0.2160E+03
    -20.846  0.0000E+00  0.2160E+03
    -20.588  0.0000E+00  0.2160E+03
    -20.330  0.0000E+00  0.2160E+03
    -20.072  0.0000E+00  0.2160E+03
    -19.814  0.0000E+00  0.2160E+03
    -19.556  0.0000E+00  0.2160E+03
    -19.298  0.0000E+00  0.2160E+03
    -19.040  0.0000E+00  0.2160E+03
    -18.782  0.0000E+00  0.2160E+03
    -18.524  0.0000E+00  0.2160E+03
    -18.266  0.0000E+00  0.2160E+03
    -18.008  0.0000E+00  0.2160E+03
    -17.750  0.0000E+00  0.2160E+03
    -17.492  0.0000E+00  0.2160E+03
    -17.234  0.0000E+00  0.2160E+03
    -16.976  0.0000E+00  0.2160E+03
    -16.718  0.0000E+00  0.2160E+03
    -16.460  0.0000E+00  0.2160E+03
    -16.202  0.0000E+00  0.2160E+03
    -15.944  0.0000E+00  0.2160E+03
    -15.686  0.0000E+00  0.2160E+03
    -15.428  0.0000E+00  0.2160E+03
    -15.170  0.1291E-14  0.2160E+03
    -14.912  0.7918E-09  0.2160E+03
    -14.654  0.2245E-04  0.2160E+03
    -14.396  0.2609E-01  0.2160E+03
    -14.138  0.1431E+01  0.2164E+03
    -13.880  0.4948E+01  0.2177E+03
    -13.622  0.1537E+01  0.2180E+03
    -13.364  0.5139E+01  0.2194E+03
    -13.106  0.1756E+02  0.2239E+03
    -12.848  0.1970E+02  0.2290E+03
    -12.590  0.2794E+02  0.2362E+03
    -12.332  0.2840E+02  0.2435E+03
    -12.074  0.3568E+02  0.2527E+03
    -11.816  0.3587E+02  0.2620E+03
    -11.558  0.2847E+02  0.2693E+03
    -11.300  0.2009E+02  0.2745E+03
    -11.042  0.1604E+02  0.2786E+03
    -10.784  0.1675E+02  0.2830E+03
    -10.526  0.1217E+02  0.2861E+03
    -10.268  0.6445E+01  0.2878E+03
    -10.010  0.8665E+00  0.2880E+03
     -9.752  0.8779E-02  0.2880E+03
     -9.494  0.4155E-05  0.2880E+03
     -9.236  0.7955E-10  0.2880E+03
     -8.978  0.0000E+00  0.2880E+03
     -8.720  0.0000E+00  0.2880E+03
     -8.462  0.0000E+00  0.2880E+03
     -8.204  0.0000E+00  0.2880E+03
     -7.946  0.0000E+00  0.2880E+03
     -7.688  0.0000E+00  0.2880E+03
     -7.430  0.0000E+00  0.2880E+03
     -7.172  0.0000E+00  0.2880E+03
     -6.914  0.1291E-14  0.2880E+03
     -6.656  0.9751E-09  0.2880E+03
     -6.398  0.2941E-04  0.2880E+03
     -6.140  0.3938E-01  0.2880E+03
     -5.882  0.2802E+01  0.2887E+03
     -5.624  0.1505E+02  0.2926E+03
     -5.366  0.1700E+02  0.2970E+03
     -5.109  0.2614E+02  0.3037E+03
     -4.851  0.4269E+02  0.3148E+03
     -4.593  0.5326E+02  0.3285E+03
     -4.335  0.4761E+02  0.3408E+03
     -4.077  0.3296E+02  0.3493E+03
     -3.819  0.3565E+02  0.3585E+03
     -3.561  0.4175E+02  0.3693E+03
     -3.303  0.4312E+02  0.3804E+03
     -3.045  0.6084E+02  0.3961E+03
     -2.787  0.7403E+02  0.4152E+03
     -2.529  0.8024E+02  0.4359E+03
     -2.271  0.7598E+02  0.4555E+03
     -2.013  0.5130E+02  0.4687E+03
     -1.755  0.4007E+02  0.4790E+03
     -1.497  0.4361E+02  0.4903E+03
     -1.239  0.5916E+02  0.5056E+03
     -0.981  0.7695E+02  0.5254E+03
     -0.723  0.9417E+02  0.5497E+03
     -0.465  0.1204E+03  0.5808E+03
     -0.207  0.1683E+03  0.6242E+03
      0.051  0.1682E+03  0.6676E+03
      0.309  0.1256E+03  0.7000E+03
      0.567  0.1091E+03  0.7281E+03
      0.825  0.9941E+02  0.7538E+03
      1.083  0.7217E+02  0.7724E+03
      1.341  0.5269E+02  0.7860E+03
      1.599  0.5400E+02  0.7999E+03
      1.857  0.5977E+02  0.8153E+03
      2.115  0.6117E+02  0.8311E+03
      2.373  0.6206E+02  0.8471E+03
      2.631  0.5051E+02  0.8602E+03
      2.889  0.1761E+02  0.8647E+03
      3.147  0.7433E+01  0.8666E+03
      3.405  0.5412E+01  0.8680E+03
      3.663  0.5236E+01  0.8694E+03
      3.921  0.5481E+01  0.8708E+03
      4.179  0.5914E+01  0.8723E+03
      4.437  0.7890E+01  0.8743E+03
      4.695  0.1712E+02  0.8788E+03
      4.953  0.2070E+02  0.8841E+03
      5.211  0.1200E+02  0.8872E+03
      5.469  0.1651E+02  0.8915E+03
      5.727  0.1968E+02  0.8965E+03
      5.985  0.2340E+02  0.9026E+03
      6.243  0.2981E+02  0.9103E+03
      6.501  0.2730E+02  0.9173E+03
      6.759  0.3107E+02  0.9253E+03
      7.017  0.3499E+02  0.9344E+03
      7.275  0.4125E+02  0.9450E+03
      7.533  0.3962E+02  0.9552E+03
      7.791  0.1690E+02  0.9596E+03
      8.049  0.1623E+01  0.9600E+03
      8.307  0.1447E-01  0.9600E+03
      8.565  0.6809E-05  0.9600E+03
      8.823  0.1375E-09  0.9600E+03
      9.081  0.0000E+00  0.9600E+03
      9.339  0.0000E+00  0.9600E+03
      9.597  0.0000E+00  0.9600E+03
      9.855  0.0000E+00  0.9600E+03
     10.113  0.0000E+00  0.9600E+03
     10.371  0.0000E+00  0.9600E+03
     10.629  0.0000E+00  0.9600E+03
     10.887  0.0000E+00  0.9600E+03
     11.145  0.0000E+00  0.9600E+03
