"Millerite NiS"                         
           1
     8.428181   -4.551010    0.000000
     0.000000   10.079733    0.000000
     0.000000    0.000000   21.947194
   Ni   S 
    36    36
Direct configuration=     1
   0.19912195  0.55141764  0.08918552
   0.13648204  0.42613782  0.22296381
   0.07384212  0.30085799  0.35674210
   0.01120221  0.17557817  0.49052038
   0.88666859  0.92651092  0.04459276
   0.82402867  0.80123109  0.17837105
   0.76138876  0.67595127  0.31214934
   0.69874885  0.55067144  0.44592762
   0.57421522  0.30160419  0.00000000
   0.51157531  0.17632437  0.13377829
   0.44893540  0.05104454  0.26755657
   0.38629549  0.92576472  0.40133486
   0.32365557  0.80048489  0.53511314
   0.15303188  0.19503150  0.18761878
   0.09039196  0.06975167  0.32139707
   0.02775205  0.94447185  0.45517536
   0.90321843  0.69540460  0.00924774
   0.84057851  0.57012477  0.14302602
   0.77793860  0.44484495  0.27680431
   0.71529869  0.31956512  0.41058260
   0.65265878  0.19428530  0.54436088
   0.52812515  0.94521805  0.09843326
   0.46548524  0.81993822  0.23221155
   0.40284533  0.69465840  0.36598983
   0.40068804  0.42613782  0.22296381
   0.33804812  0.30085799  0.35674210
   0.27540821  0.17557817  0.49052038
   0.15087459  0.92651092  0.04459276
   0.08823467  0.80123109  0.17837105
   0.02559476  0.67595127  0.31214934
   0.96295485  0.55067144  0.44592762
   0.83842122  0.30160419  0.00000000
   0.77578131  0.17632437  0.13377829
   0.71314140  0.05104454  0.26755657
   0.65050149  0.92576472  0.40133486
   0.58786157  0.80048489  0.53511314
   0.37903340  0.31060454  0.13254084
   0.31639348  0.18532471  0.26631912
   0.25375357  0.06004489  0.40009741
   0.19111366  0.93476506  0.53387570
   0.06658004  0.68569781  0.08794807
   0.00394012  0.56041799  0.22172636
   0.94130021  0.43513816  0.35550465
   0.87866030  0.30985834  0.48928293
   0.75412667  0.06079109  0.04335531
   0.69148676  0.93551126  0.17713360
   0.62884685  0.81023144  0.31091189
   0.56620693  0.68495161  0.44469017
   0.42059936  0.73016647  0.04376958
   0.35795945  0.60488665  0.17754787
   0.29531954  0.47960682  0.31132615
   0.23267963  0.35432700  0.44510444
   0.04550609  0.97997992  0.13295510
   0.98286618  0.85470010  0.26673339
   0.92022626  0.72942027  0.40051168
   0.85758635  0.60414045  0.53428996
   0.73305273  0.35507320  0.08836234
   0.67041281  0.22979337  0.22214063
   0.60777290  0.10451355  0.35591891
   0.54513299  0.97923372  0.48969720
   0.04260340  0.31060454  0.13254084
   0.97996348  0.18532471  0.26631912
   0.91732357  0.06004489  0.40009741
   0.85468366  0.93476506  0.53387570
   0.73015004  0.68569781  0.08794807
   0.66751012  0.56041799  0.22172636
   0.60487021  0.43513816  0.35550465
   0.54223030  0.30985834  0.48928293
   0.41769667  0.06079109  0.04335531
   0.35505676  0.93551126  0.17713360
   0.29241685  0.81023144  0.31091189
   0.22977693  0.68495161  0.44469017
