  72  72   0   0
  0.2729146E+02  0.1007973E-08  0.1007973E-08  0.2068350E-08  0.5000000E-15
  1.000000000000000E-004
  CAR 
 "Millerite NiS"                         
     11.15334668    -66.88818806  301      1.52500907      1.00000000
    -66.888  0.0000E+00  0.0000E+00
    -66.628  0.0000E+00  0.0000E+00
    -66.368  0.0000E+00  0.0000E+00
    -66.108  0.0000E+00  0.0000E+00
    -65.848  0.0000E+00  0.0000E+00
    -65.587  0.0000E+00  0.0000E+00
    -65.327  0.0000E+00  0.0000E+00
    -65.067  0.0000E+00  0.0000E+00
    -64.807  0.0000E+00  0.0000E+00
    -64.547  0.0000E+00  0.0000E+00
    -64.287  0.8652E-10  0.2251E-10
    -64.027  0.4793E-05  0.1247E-05
    -63.767  0.1050E-01  0.2733E-02
    -63.506  0.1237E+01  0.3246E+00
    -63.246  0.2039E+02  0.5628E+01
    -62.986  0.9888E+02  0.3135E+02
    -62.726  0.1988E+03  0.8307E+02
    -62.466  0.2588E+03  0.1504E+03
    -62.206  0.1606E+03  0.1922E+03
    -61.946  0.4346E+02  0.2035E+03
    -61.685  0.3349E+02  0.2122E+03
    -61.425  0.1336E+02  0.2157E+03
    -61.165  0.1299E+01  0.2160E+03
    -60.905  0.1221E-01  0.2160E+03
    -60.645  0.5783E-05  0.2160E+03
    -60.385  0.1096E-09  0.2160E+03
    -60.125  0.0000E+00  0.2160E+03
    -59.864  0.0000E+00  0.2160E+03
    -59.604  0.0000E+00  0.2160E+03
    -59.344  0.0000E+00  0.2160E+03
    -59.084  0.0000E+00  0.2160E+03
    -58.824  0.0000E+00  0.2160E+03
    -58.564  0.0000E+00  0.2160E+03
    -58.304  0.0000E+00  0.2160E+03
    -58.043  0.0000E+00  0.2160E+03
    -57.783  0.0000E+00  0.2160E+03
    -57.523  0.0000E+00  0.2160E+03
    -57.263  0.0000E+00  0.2160E+03
    -57.003  0.0000E+00  0.2160E+03
    -56.743  0.0000E+00  0.2160E+03
    -56.483  0.0000E+00  0.2160E+03
    -56.223  0.0000E+00  0.2160E+03
    -55.962  0.0000E+00  0.2160E+03
    -55.702  0.0000E+00  0.2160E+03
    -55.442  0.0000E+00  0.2160E+03
    -55.182  0.0000E+00  0.2160E+03
    -54.922  0.0000E+00  0.2160E+03
    -54.662  0.0000E+00  0.2160E+03
    -54.402  0.0000E+00  0.2160E+03
    -54.141  0.0000E+00  0.2160E+03
    -53.881  0.0000E+00  0.2160E+03
    -53.621  0.0000E+00  0.2160E+03
    -53.361  0.0000E+00  0.2160E+03
    -53.101  0.0000E+00  0.2160E+03
    -52.841  0.0000E+00  0.2160E+03
    -52.581  0.0000E+00  0.2160E+03
    -52.320  0.0000E+00  0.2160E+03
    -52.060  0.0000E+00  0.2160E+03
    -51.800  0.0000E+00  0.2160E+03
    -51.540  0.0000E+00  0.2160E+03
    -51.280  0.0000E+00  0.2160E+03
    -51.020  0.0000E+00  0.2160E+03
    -50.760  0.0000E+00  0.2160E+03
    -50.499  0.0000E+00  0.2160E+03
    -50.239  0.0000E+00  0.2160E+03
    -49.979  0.0000E+00  0.2160E+03
    -49.719  0.0000E+00  0.2160E+03
    -49.459  0.0000E+00  0.2160E+03
    -49.199  0.0000E+00  0.2160E+03
    -48.939  0.0000E+00  0.2160E+03
    -48.678  0.0000E+00  0.2160E+03
    -48.418  0.0000E+00  0.2160E+03
    -48.158  0.0000E+00  0.2160E+03
    -47.898  0.0000E+00  0.2160E+03
    -47.638  0.0000E+00  0.2160E+03
    -47.378  0.0000E+00  0.2160E+03
    -47.118  0.0000E+00  0.2160E+03
    -46.858  0.0000E+00  0.2160E+03
    -46.597  0.0000E+00  0.2160E+03
    -46.337  0.0000E+00  0.2160E+03
    -46.077  0.0000E+00  0.2160E+03
    -45.817  0.0000E+00  0.2160E+03
    -45.557  0.0000E+00  0.2160E+03
    -45.297  0.0000E+00  0.2160E+03
    -45.037  0.0000E+00  0.2160E+03
    -44.776  0.0000E+00  0.2160E+03
    -44.516  0.0000E+00  0.2160E+03
    -44.256  0.0000E+00  0.2160E+03
    -43.996  0.0000E+00  0.2160E+03
    -43.736  0.0000E+00  0.2160E+03
    -43.476  0.0000E+00  0.2160E+03
    -43.216  0.0000E+00  0.2160E+03
    -42.955  0.0000E+00  0.2160E+03
    -42.695  0.0000E+00  0.2160E+03
    -42.435  0.0000E+00  0.2160E+03
    -42.175  0.0000E+00  0.2160E+03
    -41.915  0.0000E+00  0.2160E+03
    -41.655  0.0000E+00  0.2160E+03
    -41.395  0.0000E+00  0.2160E+03
    -41.134  0.0000E+00  0.2160E+03
    -40.874  0.0000E+00  0.2160E+03
    -40.614  0.0000E+00  0.2160E+03
    -40.354  0.0000E+00  0.2160E+03
    -40.094  0.0000E+00  0.2160E+03
    -39.834  0.0000E+00  0.2160E+03
    -39.574  0.0000E+00  0.2160E+03
    -39.314  0.0000E+00  0.2160E+03
    -39.053  0.0000E+00  0.2160E+03
    -38.793  0.0000E+00  0.2160E+03
    -38.533  0.0000E+00  0.2160E+03
    -38.273  0.0000E+00  0.2160E+03
    -38.013  0.0000E+00  0.2160E+03
    -37.753  0.0000E+00  0.2160E+03
    -37.493  0.0000E+00  0.2160E+03
    -37.232  0.0000E+00  0.2160E+03
    -36.972  0.0000E+00  0.2160E+03
    -36.712  0.0000E+00  0.2160E+03
    -36.452  0.0000E+00  0.2160E+03
    -36.192  0.0000E+00  0.2160E+03
    -35.932  0.0000E+00  0.2160E+03
    -35.672  0.0000E+00  0.2160E+03
    -35.411  0.0000E+00  0.2160E+03
    -35.151  0.0000E+00  0.2160E+03
    -34.891  0.0000E+00  0.2160E+03
    -34.631  0.0000E+00  0.2160E+03
    -34.371  0.0000E+00  0.2160E+03
    -34.111  0.0000E+00  0.2160E+03
    -33.851  0.0000E+00  0.2160E+03
    -33.590  0.0000E+00  0.2160E+03
    -33.330  0.0000E+00  0.2160E+03
    -33.070  0.0000E+00  0.2160E+03
    -32.810  0.0000E+00  0.2160E+03
    -32.550  0.0000E+00  0.2160E+03
    -32.290  0.0000E+00  0.2160E+03
    -32.030  0.0000E+00  0.2160E+03
    -31.769  0.0000E+00  0.2160E+03
    -31.509  0.0000E+00  0.2160E+03
    -31.249  0.0000E+00  0.2160E+03
    -30.989  0.0000E+00  0.2160E+03
    -30.729  0.0000E+00  0.2160E+03
    -30.469  0.0000E+00  0.2160E+03
    -30.209  0.0000E+00  0.2160E+03
    -29.949  0.0000E+00  0.2160E+03
    -29.688  0.0000E+00  0.2160E+03
    -29.428  0.0000E+00  0.2160E+03
    -29.168  0.0000E+00  0.2160E+03
    -28.908  0.0000E+00  0.2160E+03
    -28.648  0.0000E+00  0.2160E+03
    -28.388  0.0000E+00  0.2160E+03
    -28.128  0.0000E+00  0.2160E+03
    -27.867  0.0000E+00  0.2160E+03
    -27.607  0.0000E+00  0.2160E+03
    -27.347  0.0000E+00  0.2160E+03
    -27.087  0.0000E+00  0.2160E+03
    -26.827  0.0000E+00  0.2160E+03
    -26.567  0.0000E+00  0.2160E+03
    -26.307  0.0000E+00  0.2160E+03
    -26.046  0.0000E+00  0.2160E+03
    -25.786  0.0000E+00  0.2160E+03
    -25.526  0.0000E+00  0.2160E+03
    -25.266  0.0000E+00  0.2160E+03
    -25.006  0.0000E+00  0.2160E+03
    -24.746  0.0000E+00  0.2160E+03
    -24.486  0.0000E+00  0.2160E+03
    -24.225  0.0000E+00  0.2160E+03
    -23.965  0.0000E+00  0.2160E+03
    -23.705  0.0000E+00  0.2160E+03
    -23.445  0.0000E+00  0.2160E+03
    -23.185  0.0000E+00  0.2160E+03
    -22.925  0.0000E+00  0.2160E+03
    -22.665  0.0000E+00  0.2160E+03
    -22.405  0.0000E+00  0.2160E+03
    -22.144  0.0000E+00  0.2160E+03
    -21.884  0.0000E+00  0.2160E+03
    -21.624  0.0000E+00  0.2160E+03
    -21.364  0.0000E+00  0.2160E+03
    -21.104  0.0000E+00  0.2160E+03
    -20.844  0.0000E+00  0.2160E+03
    -20.584  0.0000E+00  0.2160E+03
    -20.323  0.0000E+00  0.2160E+03
    -20.063  0.0000E+00  0.2160E+03
    -19.803  0.0000E+00  0.2160E+03
    -19.543  0.0000E+00  0.2160E+03
    -19.283  0.0000E+00  0.2160E+03
    -19.023  0.0000E+00  0.2160E+03
    -18.763  0.0000E+00  0.2160E+03
    -18.502  0.0000E+00  0.2160E+03
    -18.242  0.0000E+00  0.2160E+03
    -17.982  0.0000E+00  0.2160E+03
    -17.722  0.0000E+00  0.2160E+03
    -17.462  0.0000E+00  0.2160E+03
    -17.202  0.0000E+00  0.2160E+03
    -16.942  0.0000E+00  0.2160E+03
    -16.681  0.0000E+00  0.2160E+03
    -16.421  0.0000E+00  0.2160E+03
    -16.161  0.0000E+00  0.2160E+03
    -15.901  0.4268E-15  0.2160E+03
    -15.641  0.2856E-09  0.2160E+03
    -15.381  0.1145E-04  0.2160E+03
    -15.121  0.1773E-01  0.2160E+03
    -14.860  0.1217E+01  0.2163E+03
    -14.600  0.5373E+01  0.2177E+03
    -14.340  0.7385E+01  0.2196E+03
    -14.080  0.8503E+01  0.2219E+03
    -13.820  0.9838E+01  0.2244E+03
    -13.560  0.1838E+02  0.2292E+03
    -13.300  0.1772E+02  0.2338E+03
    -13.040  0.2384E+02  0.2400E+03
    -12.779  0.2782E+02  0.2472E+03
    -12.519  0.2971E+02  0.2550E+03
    -12.259  0.2477E+02  0.2614E+03
    -11.999  0.2849E+02  0.2688E+03
    -11.739  0.2977E+02  0.2766E+03
    -11.479  0.2623E+02  0.2834E+03
    -11.219  0.1375E+02  0.2870E+03
    -10.958  0.3797E+01  0.2880E+03
    -10.698  0.1762E+00  0.2880E+03
    -10.438  0.4700E-03  0.2880E+03
    -10.178  0.5140E-07  0.2880E+03
     -9.918  0.2100E-12  0.2880E+03
     -9.658  0.0000E+00  0.2880E+03
     -9.398  0.0000E+00  0.2880E+03
     -9.137  0.0000E+00  0.2880E+03
     -8.877  0.0000E+00  0.2880E+03
     -8.617  0.0000E+00  0.2880E+03
     -8.357  0.0000E+00  0.2880E+03
     -8.097  0.0000E+00  0.2880E+03
     -7.837  0.0000E+00  0.2880E+03
     -7.577  0.0000E+00  0.2880E+03
     -7.316  0.1162E-10  0.2880E+03
     -7.056  0.1099E-05  0.2880E+03
     -6.796  0.4091E-02  0.2880E+03
     -6.536  0.7104E+00  0.2882E+03
     -6.276  0.8683E+01  0.2904E+03
     -6.016  0.1986E+02  0.2956E+03
     -5.756  0.3018E+02  0.3035E+03
     -5.496  0.4380E+02  0.3149E+03
     -5.235  0.4743E+02  0.3272E+03
     -4.975  0.4828E+02  0.3398E+03
     -4.715  0.4214E+02  0.3507E+03
     -4.455  0.3898E+02  0.3609E+03
     -4.195  0.3912E+02  0.3710E+03
     -3.935  0.4066E+02  0.3816E+03
     -3.675  0.5520E+02  0.3960E+03
     -3.414  0.7000E+02  0.4142E+03
     -3.154  0.6616E+02  0.4314E+03
     -2.894  0.6184E+02  0.4475E+03
     -2.634  0.6230E+02  0.4637E+03
     -2.374  0.4803E+02  0.4762E+03
     -2.114  0.3343E+02  0.4849E+03
     -1.854  0.4404E+02  0.4963E+03
     -1.593  0.5521E+02  0.5107E+03
     -1.333  0.7424E+02  0.5300E+03
     -1.073  0.9567E+02  0.5549E+03
     -0.813  0.1060E+03  0.5825E+03
     -0.553  0.1209E+03  0.6139E+03
     -0.293  0.1375E+03  0.6497E+03
     -0.033  0.1394E+03  0.6860E+03
      0.228  0.1104E+03  0.7147E+03
      0.488  0.7966E+02  0.7354E+03
      0.748  0.6702E+02  0.7528E+03
      1.008  0.5762E+02  0.7678E+03
      1.268  0.4554E+02  0.7797E+03
      1.528  0.4798E+02  0.7922E+03
      1.788  0.5028E+02  0.8052E+03
      2.049  0.5081E+02  0.8185E+03
      2.309  0.5015E+02  0.8315E+03
      2.569  0.5162E+02  0.8449E+03
      2.829  0.4215E+02  0.8559E+03
      3.089  0.2338E+02  0.8620E+03
      3.349  0.7690E+01  0.8640E+03
      3.609  0.4929E+01  0.8653E+03
      3.869  0.4532E+01  0.8664E+03
      4.130  0.4984E+01  0.8677E+03
      4.390  0.1556E+01  0.8681E+03
      4.650  0.7352E+01  0.8701E+03
      4.910  0.1527E+02  0.8740E+03
      5.170  0.1771E+02  0.8786E+03
      5.430  0.1633E+02  0.8829E+03
      5.690  0.1614E+02  0.8871E+03
      5.951  0.2549E+02  0.8937E+03
      6.211  0.2952E+02  0.9014E+03
      6.471  0.3147E+02  0.9096E+03
      6.731  0.2955E+02  0.9173E+03
      6.991  0.2838E+02  0.9246E+03
      7.251  0.3637E+02  0.9341E+03
      7.511  0.4270E+02  0.9452E+03
      7.772  0.2362E+02  0.9514E+03
      8.032  0.2418E+01  0.9520E+03
      8.292  0.1913E-01  0.9520E+03
      8.552  0.7481E-05  0.9520E+03
      8.812  0.1200E-09  0.9520E+03
      9.072  0.0000E+00  0.9520E+03
      9.332  0.0000E+00  0.9520E+03
      9.593  0.0000E+00  0.9520E+03
      9.853  0.0000E+00  0.9520E+03
     10.113  0.0000E+00  0.9520E+03
     10.373  0.0000E+00  0.9520E+03
     10.633  0.0000E+00  0.9520E+03
     10.893  0.0000E+00  0.9520E+03
     11.153  0.0000E+00  0.9520E+03
