LAMMPS data file via write_data, version 5 Jun 2019, timestep = 39

72 atoms
2 atom types

0.0000000000000000e+00 1.0079732984900000e+01 xlo xhi
0.0000000000000000e+00 9.4251025535000004e+00 ylo yhi
0.0000000000000000e+00 2.0683503555200002e+01 zlo zhi
3.5732980426999998e+00 0.0000000000000000e+00 0.0000000000000000e+00 xy xz yz

Masses

1 58.71
2 32.06

Atoms # atomic

1 1 5.8908022253229335e+00 9.0722147512908933e+00 1.3222187205323692e+00 0 0 0
2 1 6.8428472823000002e+00 7.4925021363999997e+00 2.6255023872000001e+00 0 0 0
3 1 7.8205595795000002e+00 6.0762060003000000e+00 5.2510047951000001e+00 0 0 0
4 1 8.7982718831999964e+00 4.6599098547000004e+00 7.8765071823000001e+00 0 0 0
5 1 9.4700463987914070e+00 3.2602223418476197e+00 1.0000090668989516e+01 0 0 0
6 1 2.6177410397999989e+00 3.8787025668999999e+00 3.5006698634000006e+00 0 0 0
7 1 3.5954533369999999e+00 2.4624064308000002e+00 6.1261722505999998e+00 0 0 0
8 1 4.5731656443000004e+00 1.0461102946000000e+00 8.7516746378000008e+00 0 0 0
9 1 1.1903477687320230e+01 5.7127331132959522e+00 2.2090734306009470e+00 0 0 0
10 1 6.3327431543206778e+00 2.0963940447577456e+00 3.1169857218580552e+00 0 0 0
11 1 8.4723677857999995e+00 2.6490300680000001e-01 4.3758373189000004e+00 0 0 0
12 1 1.3023378125699999e+01 8.2737094241999998e+00 7.0013397268000013e+00 0 0 0
13 1 5.6631784180553364e+00 5.2410134318605914e+00 2.3198352005134977e+00 0 0 0
14 1 6.6181553447999990e+00 3.9602312874000001e+00 4.5573312982000003e+00 0 0 0
15 1 7.5958676419000000e+00 2.5439351512999999e+00 7.1828337061000003e+00 0 0 0
16 1 8.1256904911576342e+00 1.2896528162296081e+00 9.3351865236491918e+00 0 0 0
17 1 1.4153367986000001e+00 1.7627278635000001e+00 2.8069963664999995e+00 0 0 0
18 1 2.3930491057999999e+00 3.4643172729999999e-01 5.4324987744000000e+00 0 0 0
19 1 6.9440594421999959e+00 8.3552381353000005e+00 8.0580011616000000e+00 0 0 0
20 1 7.4860876675261752e+00 7.1810594320329457e+00 1.0159814294797878e+01 0 0 0
21 1 2.0512203918835561e+00 3.5926275583427056e+00 1.0086362777089659e+00 1 0 0
22 1 2.6691372160470697e+00 4.6063305991141190e+00 8.6585715799467060e+00 0 0 0
23 1 1.0843261587200001e+01 7.5740308570000003e+00 3.6821638427000001e+00 0 0 0
24 1 1.1820973880900000e+01 6.1577347113999998e+00 6.3076662299000006e+00 0 0 0
25 1 8.4904641162605321e-01 1.6322981328246955e+00 8.7609314092791344e+00 0 0 0
26 1 8.0106500609087199e+00 5.6505265713371324e+00 1.6644875774072365e+00 0 0 0
27 1 9.0229638191999992e+00 4.3344252292999998e+00 3.8636578220000000e+00 0 0 0
28 1 1.0000676122900000e+01 2.9181290836999998e+00 6.4891602091999996e+00 0 0 0
29 1 3.8201452831000000e+00 2.1369218053000001e+00 2.1133228903000001e+00 0 0 0
30 1 4.7978575767000002e+00 7.2062565980000015e-01 4.7388252775000002e+00 0 0 0
31 1 9.3488679165999997e+00 8.7294320771000002e+00 7.3643276854000002e+00 0 0 0
32 1 1.0580257520401444e+01 7.4807520170144119e+00 8.9557967348378380e+00 0 0 0
33 1 3.1683370733000000e+00 7.9482247894000002e+00 2.9884903457999998e+00 0 0 0
34 1 4.1460493804999992e+00 6.5319286531999987e+00 5.6139927537000007e+00 0 0 0
35 1 5.0607334150819785e+00 5.2373473569369802e+00 7.9478643113928626e+00 0 0 0
36 1 7.5503330102369235e+00 2.6560273133335993e-01 1.9785678817026102e+00 0 1 0
37 2 9.8328015121585608e+00 1.3304158886283650e+00 1.0485110183263318e+01 -1 1 0
38 2 7.3554572810999996e+00 3.8265858592000002e+00 2.4250697853999998e+00 0 0 0
39 2 8.3331695782999997e+00 2.4102897230000000e+00 5.0505721932999998e+00 0 0 0
40 2 9.3108818754999998e+00 9.9399358680000005e-01 7.6760745803999999e+00 0 0 0
41 2 2.2273658576737230e+00 1.5949332023556899e+00 8.3763610806255617e-01 0 0 0
42 2 3.1303510321999997e+00 2.1278629909999999e-01 3.3002372616000000e+00 0 0 0
43 2 7.6813613786000001e+00 8.2215927069999992e+00 5.9257396487999996e+00 0 0 0
44 2 8.6590736757000002e+00 6.8052965707999995e+00 8.5512420358999996e+00 0 0 0
45 2 2.4785428323999978e+00 6.0240892831000004e+00 4.1754047171000002e+00 0 0 0
46 2 3.4562551395999996e+00 4.6077931468999997e+00 6.8009071043000002e+00 0 0 0
47 2 4.2937648096983692e+00 3.2872334190050334e+00 8.8173346707261899e+00 0 0 0
48 2 1.1604715276180166e+01 7.6883365192874757e+00 1.7165304059442910e+00 0 0 0
49 2 7.2684811274284593e+00 7.3595831756865628e+00 6.8514273481457866e-01 0 0 0
50 2 8.8865536865999992e+00 6.5209886067999996e+00 3.3083675538000001e+00 0 0 0
51 2 9.8642659902999998e+00 5.1046924612000000e+00 5.9338699617000001e+00 0 0 0
52 2 1.0841978287500002e+01 3.6883963249999998e+00 8.5593723489000002e+00 0 0 0
53 2 3.7581654857537323e+00 4.4091658080513589e+00 1.8102722415926611e+00 0 0 0
54 2 4.6614474441000002e+00 2.9071890372999998e+00 4.1835350299999998e+00 0 0 0
55 2 5.6391597412999985e+00 1.4908929011000001e+00 6.8090374171999999e+00 0 0 0
56 2 6.4219137685802536e+00 4.4709950793052997e-02 9.2144288582258724e+00 0 0 0
57 2 4.0096392479000000e+00 8.7184920307000002e+00 5.0587024854999996e+00 0 0 0
58 2 4.9253713203989546e+00 7.3543842020978829e+00 7.3573846127337728e+00 0 0 0
59 2 5.9221741670013008e+00 6.1096097450298812e+00 9.5699783185847629e+00 0 0 0
60 2 9.5383618828000003e+00 7.0968561330000002e-01 2.4332000982999999e+00 0 0 0
61 2 4.8647854573068248e+00 7.3236727033513445e+00 1.8910487193946328e+00 0 0 0
62 2 5.8243608698999996e+00 6.0445040928999996e+00 4.1916653223000004e+00 0 0 0
63 2 6.8020731670999997e+00 4.6282079566999998e+00 6.8171677301000004e+00 0 0 0
64 2 7.6450506530511770e+00 3.3322438496849580e+00 9.1064288418938499e+00 0 0 0
65 2 1.5992546309999989e+00 2.4307045328000001e+00 5.0668327985000001e+00 0 0 0
66 2 2.5769669246000002e+00 1.0144083872000000e+00 7.6923351856000002e+00 0 0 0
67 2 7.1364278099850385e+00 9.1502145804020216e+00 9.9474425916375022e+00 0 0 0
68 2 1.0701275308600000e+01 3.8470006689999998e+00 2.4413304113000001e+00 0 0 0
69 2 5.6755301904490691e+00 1.2922299770295007e+00 1.3731727669389076e+00 0 0 0
70 2 6.4753535533596622e+00 7.8422173952410343e-02 3.7379302773171381e+00 0 0 0
71 2 1.1027179405999997e+01 8.2420075167999993e+00 5.9420002539999999e+00 0 0 0
72 2 1.2335802418418188e+01 6.6843945769872457e+00 8.2673445216188348e+00 0 0 0

Velocities

1 0.0000000000000000e+00 0.0000000000000000e+00 0.0000000000000000e+00
2 0.0000000000000000e+00 0.0000000000000000e+00 0.0000000000000000e+00
3 0.0000000000000000e+00 0.0000000000000000e+00 0.0000000000000000e+00
4 0.0000000000000000e+00 0.0000000000000000e+00 0.0000000000000000e+00
5 0.0000000000000000e+00 0.0000000000000000e+00 0.0000000000000000e+00
6 0.0000000000000000e+00 0.0000000000000000e+00 0.0000000000000000e+00
7 0.0000000000000000e+00 0.0000000000000000e+00 0.0000000000000000e+00
8 0.0000000000000000e+00 0.0000000000000000e+00 0.0000000000000000e+00
9 0.0000000000000000e+00 0.0000000000000000e+00 0.0000000000000000e+00
10 0.0000000000000000e+00 0.0000000000000000e+00 0.0000000000000000e+00
11 0.0000000000000000e+00 0.0000000000000000e+00 0.0000000000000000e+00
12 0.0000000000000000e+00 0.0000000000000000e+00 0.0000000000000000e+00
13 0.0000000000000000e+00 0.0000000000000000e+00 0.0000000000000000e+00
14 0.0000000000000000e+00 0.0000000000000000e+00 0.0000000000000000e+00
15 0.0000000000000000e+00 0.0000000000000000e+00 0.0000000000000000e+00
16 0.0000000000000000e+00 0.0000000000000000e+00 0.0000000000000000e+00
17 0.0000000000000000e+00 0.0000000000000000e+00 0.0000000000000000e+00
18 0.0000000000000000e+00 0.0000000000000000e+00 0.0000000000000000e+00
19 0.0000000000000000e+00 0.0000000000000000e+00 0.0000000000000000e+00
20 0.0000000000000000e+00 0.0000000000000000e+00 0.0000000000000000e+00
21 0.0000000000000000e+00 0.0000000000000000e+00 0.0000000000000000e+00
22 0.0000000000000000e+00 0.0000000000000000e+00 0.0000000000000000e+00
23 0.0000000000000000e+00 0.0000000000000000e+00 0.0000000000000000e+00
24 0.0000000000000000e+00 0.0000000000000000e+00 0.0000000000000000e+00
25 0.0000000000000000e+00 0.0000000000000000e+00 0.0000000000000000e+00
26 0.0000000000000000e+00 0.0000000000000000e+00 0.0000000000000000e+00
27 0.0000000000000000e+00 0.0000000000000000e+00 0.0000000000000000e+00
28 0.0000000000000000e+00 0.0000000000000000e+00 0.0000000000000000e+00
29 0.0000000000000000e+00 0.0000000000000000e+00 0.0000000000000000e+00
30 0.0000000000000000e+00 0.0000000000000000e+00 0.0000000000000000e+00
31 0.0000000000000000e+00 0.0000000000000000e+00 0.0000000000000000e+00
32 0.0000000000000000e+00 0.0000000000000000e+00 0.0000000000000000e+00
33 0.0000000000000000e+00 0.0000000000000000e+00 0.0000000000000000e+00
34 0.0000000000000000e+00 0.0000000000000000e+00 0.0000000000000000e+00
35 0.0000000000000000e+00 0.0000000000000000e+00 0.0000000000000000e+00
36 0.0000000000000000e+00 0.0000000000000000e+00 0.0000000000000000e+00
37 0.0000000000000000e+00 0.0000000000000000e+00 0.0000000000000000e+00
38 0.0000000000000000e+00 0.0000000000000000e+00 0.0000000000000000e+00
39 0.0000000000000000e+00 0.0000000000000000e+00 0.0000000000000000e+00
40 0.0000000000000000e+00 0.0000000000000000e+00 0.0000000000000000e+00
41 0.0000000000000000e+00 0.0000000000000000e+00 0.0000000000000000e+00
42 0.0000000000000000e+00 0.0000000000000000e+00 0.0000000000000000e+00
43 0.0000000000000000e+00 0.0000000000000000e+00 0.0000000000000000e+00
44 0.0000000000000000e+00 0.0000000000000000e+00 0.0000000000000000e+00
45 0.0000000000000000e+00 0.0000000000000000e+00 0.0000000000000000e+00
46 0.0000000000000000e+00 0.0000000000000000e+00 0.0000000000000000e+00
47 0.0000000000000000e+00 0.0000000000000000e+00 0.0000000000000000e+00
48 0.0000000000000000e+00 0.0000000000000000e+00 0.0000000000000000e+00
49 0.0000000000000000e+00 0.0000000000000000e+00 0.0000000000000000e+00
50 0.0000000000000000e+00 0.0000000000000000e+00 0.0000000000000000e+00
51 0.0000000000000000e+00 0.0000000000000000e+00 0.0000000000000000e+00
52 0.0000000000000000e+00 0.0000000000000000e+00 0.0000000000000000e+00
53 0.0000000000000000e+00 0.0000000000000000e+00 0.0000000000000000e+00
54 0.0000000000000000e+00 0.0000000000000000e+00 0.0000000000000000e+00
55 0.0000000000000000e+00 0.0000000000000000e+00 0.0000000000000000e+00
56 0.0000000000000000e+00 0.0000000000000000e+00 0.0000000000000000e+00
57 0.0000000000000000e+00 0.0000000000000000e+00 0.0000000000000000e+00
58 0.0000000000000000e+00 0.0000000000000000e+00 0.0000000000000000e+00
59 0.0000000000000000e+00 0.0000000000000000e+00 0.0000000000000000e+00
60 0.0000000000000000e+00 0.0000000000000000e+00 0.0000000000000000e+00
61 0.0000000000000000e+00 0.0000000000000000e+00 0.0000000000000000e+00
62 0.0000000000000000e+00 0.0000000000000000e+00 0.0000000000000000e+00
63 0.0000000000000000e+00 0.0000000000000000e+00 0.0000000000000000e+00
64 0.0000000000000000e+00 0.0000000000000000e+00 0.0000000000000000e+00
65 0.0000000000000000e+00 0.0000000000000000e+00 0.0000000000000000e+00
66 0.0000000000000000e+00 0.0000000000000000e+00 0.0000000000000000e+00
67 0.0000000000000000e+00 0.0000000000000000e+00 0.0000000000000000e+00
68 0.0000000000000000e+00 0.0000000000000000e+00 0.0000000000000000e+00
69 0.0000000000000000e+00 0.0000000000000000e+00 0.0000000000000000e+00
70 0.0000000000000000e+00 0.0000000000000000e+00 0.0000000000000000e+00
71 0.0000000000000000e+00 0.0000000000000000e+00 0.0000000000000000e+00
72 0.0000000000000000e+00 0.0000000000000000e+00 0.0000000000000000e+00
