LAMMPS (5 Jun 2019)
OMP_NUM_THREADS environment is not set. Defaulting to 1 thread. (../comm.cpp:88)
  using 1 OpenMP thread(s) per MPI task
Reading data file ...
  triclinic box = (0 0 0) to (11.2565 10.0628 22.8836) with tilt (5.04456 0 0)
  1 by 1 by 1 MPI processor grid
  reading atoms ...
  104 atoms
  read_data CPU = 0.000885554 secs
66 atoms in group bulk
WARNING: Using 'neigh_modify every 1 delay 0 check yes' setting during minimization (../min.cpp:168)
Neighbor list info ...
  update every 1 steps, delay 0 steps, check yes
  max neighbors/atom: 2000, page size: 100000
  master list distance cutoff = 8.5
  ghost atom cutoff = 8.5
  binsize = 4.25, bins = 4 3 6
  1 neighbor lists, perpetual/occasional/extra = 1 0 0
  (1) pair eam/alloy, perpetual
      attributes: half, newton on
      pair build: half/bin/newton/tri
      stencil: half/bin/3d/newton/tri
      bin: standard
Setting up cg style minimization ...
  Unit style    : metal
  Current step  : 0
Per MPI rank memory allocation (min/avg/max) = 4.125 | 4.125 | 4.125 Mbytes
Step Temp E_pair E_mol TotEng Press 
       0            0   -439.90839            0   -439.90839   -138888.93 
      39            0   -469.08638            0   -469.08638   -55735.956 
Loop time of 0.0377261 on 1 procs for 39 steps with 104 atoms

99.7% CPU use with 1 MPI tasks x 1 OpenMP threads

Minimization stats:
  Stopping criterion = energy tolerance
  Energy initial, next-to-last, final = 
        -439.908393045     -469.082987548     -469.086380953
  Force two-norm initial, final = 13.9496 0.216136
  Force max component initial, final = 3.29675 0.0789753
  Final line search alpha, max atom move = 0.876646 0.0692334
  Iterations, force evaluations = 39 54

MPI task timing breakdown:
Section |  min time  |  avg time  |  max time  |%varavg| %total
---------------------------------------------------------------
Pair    | 0.033874   | 0.033874   | 0.033874   |   0.0 | 89.79
Neigh   | 0.002563   | 0.002563   | 0.002563   |   0.0 |  6.79
Comm    | 0.00068762 | 0.00068762 | 0.00068762 |   0.0 |  1.82
Output  | 0          | 0          | 0          |   0.0 |  0.00
Modify  | 5.8055e-05 | 5.8055e-05 | 5.8055e-05 |   0.0 |  0.15
Other   |            | 0.0005435  |            |       |  1.44

Nlocal:    104 ave 104 max 104 min
Histogram: 1 0 0 0 0 0 0 0 0 0
Nghost:    1165 ave 1165 max 1165 min
Histogram: 1 0 0 0 0 0 0 0 0 0
Neighs:    7370 ave 7370 max 7370 min
Histogram: 1 0 0 0 0 0 0 0 0 0

Total # of neighbors = 7370
Ave neighs/atom = 70.8654
Neighbor list builds = 3
Dangerous builds = 0
System init for write_data ...
Total wall time: 0:00:00
