<?xml version="1.0" encoding="ISO-8859-1"?>
<modeling>
 <generator>
  <i name="program" type="string">vasp </i>
  <i name="version" type="string">6.1.0  </i>
  <i name="subversion" type="string">28Jan20 (build Mar 31 2020 17:42:31) gamma-only                       parallel </i>
  <i name="platform" type="string">LinuxIFC </i>
  <i name="date" type="string">2020 04 12 </i>
  <i name="time" type="string">18:08:55 </i>
 </generator>
 <incar>
  <i type="string" name="SYSTEM">"Millerite NiS"</i>
  <i type="int" name="NSIM">     4</i>
  <i type="int" name="NELM">   100</i>
  <i name="ENCUT">    450.00000000</i>
  <i type="string" name="LREAL">A</i>
  <i type="int" name="ISMEAR">     0</i>
  <i type="int" name="NWRITE">     2</i>
  <i type="logical" name="LWAVE"> F  </i>
  <i type="logical" name="LCHARG"> F  </i>
  <i type="int" name="NCORE">     6</i>
  <i type="int" name="NELM">   100</i>
 </incar>
 <structure name="primitive_cell" >
  <crystal>
   <varray name="basis" >
    <v>       9.42510255       3.57329804       0.00000000 </v>
    <v>       0.00000000      10.07973298       0.00000000 </v>
    <v>       0.00000000       0.00000000      20.68350356 </v>
   </varray>
   <i name="volume">   1964.98490008 </i>
   <varray name="rec_basis" >
    <v>       0.10609964       0.00000000       0.00000000 </v>
    <v>      -0.03761267       0.09920898       0.00000000 </v>
    <v>       0.00000000       0.00000000       0.04834771 </v>
   </varray>
  </crystal>
  <varray name="positions" >
   <v>       0.39705889       0.79495179       0.11816221 </v>
   <v>       0.54732740       0.64468328       0.24509923 </v>
   <v>       0.69759592       0.49441477       0.37203625 </v>
   <v>       0.84786443       0.34414625       0.49897328 </v>
   <v>       0.11381506       0.41152895       0.16047455 </v>
   <v>       0.26408357       0.26126044       0.28741157 </v>
   <v>       0.41435209       0.11099193       0.41434860 </v>
   <v>       0.96354655       0.56179747       0.03353752 </v>
   <v>       0.13110826       0.72756909       0.45666094 </v>
   <v>       0.83057123       0.02810612       0.20278689 </v>
   <v>       0.98083974       0.87783760       0.32972391 </v>
   <v>       0.35735705       0.57044763       0.08462468 </v>
   <v>       0.50762556       0.42017912       0.21156171 </v>
   <v>       0.65789407       0.26991061       0.33849873 </v>
   <v>       0.80816258       0.11964210       0.46543576 </v>
   <v>       0.07411322       0.18702480       0.12693702 </v>
   <v>       0.22438173       0.03675628       0.25387405 </v>
   <v>       0.37465024       0.88648777       0.38081107 </v>
   <v>       0.52491876       0.73621926       0.50774810 </v>
   <v>       0.92384471       0.33729331       0.00000000 </v>
   <v>       0.09140641       0.50306493       0.42312341 </v>
   <v>       0.64060088       0.95387047       0.04231234 </v>
   <v>       0.79086939       0.80360196       0.16924937 </v>
   <v>       0.94113790       0.65333345       0.29618639 </v>
   <v>       0.03266674       0.15934394       0.43189823 </v>
   <v>       0.58186121       0.61014948       0.05108716 </v>
   <v>       0.73212972       0.45988096       0.17802418 </v>
   <v>       0.88239823       0.30961245       0.30496121 </v>
   <v>       0.29861738       0.22672664       0.09339950 </v>
   <v>       0.44888589       0.07645813       0.22033653 </v>
   <v>       0.59915440       0.92618961       0.34727355 </v>
   <v>       0.01537355       0.84330380       0.13571184 </v>
   <v>       0.16564206       0.69303529       0.26264887 </v>
   <v>       0.31591057       0.54276678       0.38958589 </v>
   <v>       0.46617908       0.39249826       0.51652292 </v>
   <v>       0.86510503       0.99357231       0.00877482 </v>
   <v>       0.03660483       0.95519385       0.48928282 </v>
   <v>       0.58579929       0.40599939       0.10847175 </v>
   <v>       0.73606780       0.25573088       0.23540877 </v>
   <v>       0.88633632       0.10546237       0.36234580 </v>
   <v>       0.15228695       0.17284506       0.02384707 </v>
   <v>       0.30255546       0.02257655       0.15078409 </v>
   <v>       0.45282398       0.87230804       0.27772111 </v>
   <v>       0.60309249       0.72203953       0.40465814 </v>
   <v>       0.01931163       0.63915371       0.19309643 </v>
   <v>       0.16958015       0.48888520       0.32003346 </v>
   <v>       0.31984866       0.33861669       0.44697048 </v>
   <v>       0.86904312       0.78942223       0.06615941 </v>
   <v>       0.48608562       0.84214307       0.02424015 </v>
   <v>       0.63635413       0.69187455       0.15117717 </v>
   <v>       0.78662264       0.54160604       0.27811420 </v>
   <v>       0.93689115       0.39133753       0.40505122 </v>
   <v>       0.20284179       0.45872023       0.06655249 </v>
   <v>       0.35311030       0.30845172       0.19348951 </v>
   <v>       0.50337881       0.15818320       0.32042654 </v>
   <v>       0.65364732       0.00791469       0.44736356 </v>
   <v>       0.06986647       0.92502888       0.23580185 </v>
   <v>       0.22013498       0.77476037       0.36273888 </v>
   <v>       0.37040349       0.62449185       0.48967590 </v>
   <v>       0.91959796       0.07529739       0.10886483 </v>
   <v>       0.20021045       0.79158823       0.06694557 </v>
   <v>       0.35047896       0.64131972       0.19388259 </v>
   <v>       0.50074747       0.49105121       0.32081962 </v>
   <v>       0.65101599       0.34078269       0.44775664 </v>
   <v>       0.06723513       0.25789688       0.23619494 </v>
   <v>       0.21750365       0.10762837       0.36313196 </v>
   <v>       0.36777216       0.95735986       0.49006899 </v>
   <v>       0.91696662       0.40816539       0.10925791 </v>
   <v>       0.48345428       0.17501107       0.02463323 </v>
   <v>       0.63372279       0.02474256       0.15157025 </v>
   <v>       0.78399130       0.87447404       0.27850728 </v>
   <v>       0.93425982       0.72420553       0.40544430 </v>
  </varray>
 </structure>
 <varray name="primitive_index" >
  <v type="int" >        1 </v>
  <v type="int" >        2 </v>
  <v type="int" >        3 </v>
  <v type="int" >        4 </v>
  <v type="int" >        5 </v>
  <v type="int" >        6 </v>
  <v type="int" >        7 </v>
  <v type="int" >        8 </v>
  <v type="int" >        9 </v>
  <v type="int" >       10 </v>
  <v type="int" >       11 </v>
  <v type="int" >       12 </v>
  <v type="int" >       13 </v>
  <v type="int" >       14 </v>
  <v type="int" >       15 </v>
  <v type="int" >       16 </v>
  <v type="int" >       17 </v>
  <v type="int" >       18 </v>
  <v type="int" >       19 </v>
  <v type="int" >       20 </v>
  <v type="int" >       21 </v>
  <v type="int" >       22 </v>
  <v type="int" >       23 </v>
  <v type="int" >       24 </v>
  <v type="int" >       25 </v>
  <v type="int" >       26 </v>
  <v type="int" >       27 </v>
  <v type="int" >       28 </v>
  <v type="int" >       29 </v>
  <v type="int" >       30 </v>
  <v type="int" >       31 </v>
  <v type="int" >       32 </v>
  <v type="int" >       33 </v>
  <v type="int" >       34 </v>
  <v type="int" >       35 </v>
  <v type="int" >       36 </v>
  <v type="int" >       37 </v>
  <v type="int" >       38 </v>
  <v type="int" >       39 </v>
  <v type="int" >       40 </v>
  <v type="int" >       41 </v>
  <v type="int" >       42 </v>
  <v type="int" >       43 </v>
  <v type="int" >       44 </v>
  <v type="int" >       45 </v>
  <v type="int" >       46 </v>
  <v type="int" >       47 </v>
  <v type="int" >       48 </v>
  <v type="int" >       49 </v>
  <v type="int" >       50 </v>
  <v type="int" >       51 </v>
  <v type="int" >       52 </v>
  <v type="int" >       53 </v>
  <v type="int" >       54 </v>
  <v type="int" >       55 </v>
  <v type="int" >       56 </v>
  <v type="int" >       57 </v>
  <v type="int" >       58 </v>
  <v type="int" >       59 </v>
  <v type="int" >       60 </v>
  <v type="int" >       61 </v>
  <v type="int" >       62 </v>
  <v type="int" >       63 </v>
  <v type="int" >       64 </v>
  <v type="int" >       65 </v>
  <v type="int" >       66 </v>
  <v type="int" >       67 </v>
  <v type="int" >       68 </v>
  <v type="int" >       69 </v>
  <v type="int" >       70 </v>
  <v type="int" >       71 </v>
  <v type="int" >       72 </v>
 </varray>
 <kpoints>
  <generation param="Gamma">
   <v type="int" name="divisions">       1        1        1 </v>
   <v name="usershift">      0.00000000       0.00000000       0.00000000 </v>
   <v name="genvec1">      1.00000000       0.00000000       0.00000000 </v>
   <v name="genvec2">     -0.00000000       1.00000000       0.00000000 </v>
   <v name="genvec3">      0.00000000       0.00000000       1.00000000 </v>
   <v name="shift">      0.00000000       0.00000000       0.00000000 </v>
  </generation>
  <varray name="kpointlist" >
   <v>       0.00000000       0.00000000       0.00000000 </v>
  </varray>
  <varray name="weights" >
   <v>       1.00000000 </v>
  </varray>
 </kpoints>
 <parameters>
  <separator name="general" >
   <i type="string" name="SYSTEM">"Millerite NiS"</i>
   <i type="logical" name="LCOMPAT"> F  </i>
  </separator>
  <separator name="electronic" >
   <i type="string" name="PREC">normal</i>
   <i name="ENMAX">    450.00000000</i>
   <i name="ENAUG">    703.44300000</i>
   <i name="EDIFF">      0.00010000</i>
   <i type="int" name="IALGO">    38</i>
   <i type="int" name="IWAVPR">    10</i>
   <i type="int" name="NBANDS">   480</i>
   <i type="int" name="NBANDSLOW">    -1</i>
   <i type="int" name="NBANDSHIGH">    -1</i>
   <i name="NELECT">    792.00000000</i>
   <i type="int" name="TURBO">     0</i>
   <i type="int" name="IRESTART">     0</i>
   <i type="int" name="NREBOOT">     0</i>
   <i type="int" name="NMIN">     0</i>
   <i name="EREF">      0.00000000</i>
   <separator name="electronic smearing" >
    <i type="int" name="ISMEAR">     0</i>
    <i name="SIGMA">      0.20000000</i>
    <i name="KSPACING">      0.50000000</i>
    <i type="logical" name="KGAMMA"> T  </i>
    <i type="logical" name="KBLOWUP"> T  </i>
   </separator>
   <separator name="electronic projectors" >
    <i type="logical" name="LREAL"> T  </i>
    <v name="ROPT">     -0.00050000     -0.00050000</v>
    <i type="int" name="LMAXPAW">  -100</i>
    <i type="int" name="LMAXMIX">     2</i>
    <i type="logical" name="NLSPLINE"> F  </i>
   </separator>
   <separator name="electronic startup" >
    <i type="int" name="ISTART">     0</i>
    <i type="int" name="ICHARG">     2</i>
    <i type="int" name="INIWAV">     1</i>
   </separator>
   <separator name="electronic spin" >
    <i type="int" name="ISPIN">     1</i>
    <i type="logical" name="LNONCOLLINEAR"> F  </i>
    <v name="MAGMOM">      1.00000000      1.00000000      1.00000000      1.00000000      1.00000000      1.00000000      1.00000000      1.00000000      1.00000000      1.00000000      1.00000000      1.00000000      1.00000000      1.00000000      1.00000000      1.00000000      1.00000000      1.00000000      1.00000000      1.00000000
      1.00000000      1.00000000      1.00000000      1.00000000      1.00000000      1.00000000      1.00000000      1.00000000      1.00000000      1.00000000      1.00000000      1.00000000      1.00000000      1.00000000      1.00000000      1.00000000      1.00000000      1.00000000      1.00000000      1.00000000
      1.00000000      1.00000000      1.00000000      1.00000000      1.00000000      1.00000000      1.00000000      1.00000000      1.00000000      1.00000000      1.00000000      1.00000000      1.00000000      1.00000000      1.00000000      1.00000000      1.00000000      1.00000000      1.00000000      1.00000000
      1.00000000      1.00000000      1.00000000      1.00000000      1.00000000      1.00000000      1.00000000      1.00000000      1.00000000      1.00000000      1.00000000      1.00000000</v>
    <i name="NUPDOWN">     -1.00000000</i>
    <i type="logical" name="LSORBIT"> F  </i>
    <v name="SAXIS">      0.00000000      0.00000000      1.00000000</v>
    <i type="logical" name="LSPIRAL"> F  </i>
    <v name="QSPIRAL">      0.00000000      0.00000000      0.00000000</v>
    <i type="logical" name="LZEROZ"> F  </i>
   </separator>
   <separator name="electronic exchange-correlation" >
    <i type="logical" name="LASPH"> F  </i>
    <i type="logical" name="LMETAGGA"> F  </i>
   </separator>
   <separator name="electronic convergence" >
    <i type="int" name="NELM">   100</i>
    <i type="int" name="NELMDL">    -5</i>
    <i type="int" name="NELMIN">     2</i>
    <i name="ENINI">    450.00000000</i>
    <separator name="electronic convergence detail" >
     <i type="logical" name="LDIAG"> T  </i>
     <i type="logical" name="LSUBROT"> F  </i>
     <i name="WEIMIN">      0.00000000</i>
     <i name="EBREAK">      0.00000005</i>
     <i name="DEPER">      0.30000000</i>
     <i type="int" name="NRMM">     4</i>
     <i name="TIME">      0.40000000</i>
    </separator>
   </separator>
   <separator name="electronic mixer" >
    <i name="AMIX">      0.40000000</i>
    <i name="BMIX">      1.00000000</i>
    <i name="AMIN">      0.10000000</i>
    <i name="AMIX_MAG">      1.60000000</i>
    <i name="BMIX_MAG">      1.00000000</i>
    <separator name="electronic mixer details" >
     <i type="int" name="IMIX">     4</i>
     <i type="logical" name="MIXFIRST"> F  </i>
     <i type="int" name="MAXMIX">   -45</i>
     <i name="WC">    100.00000000</i>
     <i type="int" name="INIMIX">     1</i>
     <i type="int" name="MIXPRE">     1</i>
     <i type="int" name="MREMOVE">     5</i>
    </separator>
   </separator>
   <separator name="electronic dipolcorrection" >
    <i type="logical" name="LDIPOL"> F  </i>
    <i type="logical" name="LMONO"> F  </i>
    <i type="int" name="IDIPOL">     0</i>
    <i name="EPSILON">      1.00000000</i>
    <v name="DIPOL">   -100.00000000   -100.00000000   -100.00000000</v>
    <i name="EFIELD">      0.00000000</i>
   </separator>
  </separator>
  <separator name="grids" >
   <i type="int" name="NGX">    54</i>
   <i type="int" name="NGY">    54</i>
   <i type="int" name="NGZ">   108</i>
   <i type="int" name="NGXF">   108</i>
   <i type="int" name="NGYF">   108</i>
   <i type="int" name="NGZF">   216</i>
   <i type="logical" name="ADDGRID"> F  </i>
  </separator>
  <separator name="ionic" >
   <i type="int" name="NSW">     0</i>
   <i type="int" name="IBRION">    -1</i>
   <i type="int" name="MDALGO">     0</i>
   <i type="int" name="ISIF">     2</i>
   <i name="PSTRESS">      0.00000000</i>
   <i name="EDIFFG">      0.00100000</i>
   <i type="int" name="NFREE">     0</i>
   <i name="POTIM">      0.50000000</i>
   <i name="SMASS">     -3.00000000</i>
   <i name="SCALEE">      1.00000000</i>
  </separator>
  <separator name="ionic md" >
   <i name="TEBEG">      0.00010000</i>
   <i name="TEEND">      0.00010000</i>
   <i type="int" name="NBLOCK">     1</i>
   <i type="int" name="KBLOCK">     1</i>
   <i type="int" name="NPACO">   256</i>
   <i name="APACO">     16.00000000</i>
  </separator>
  <separator name="symmetry" >
   <i type="int" name="ISYM">     2</i>
   <i name="SYMPREC">      0.00001000</i>
  </separator>
  <separator name="dos" >
   <i type="int" name="LORBIT">     0</i>
   <v name="RWIGS">     -1.00000000     -1.00000000</v>
   <i type="int" name="NEDOS">   301</i>
   <i name="EMIN">     10.00000000</i>
   <i name="EMAX">    -10.00000000</i>
   <i name="EFERMI">      0.00000000</i>
  </separator>
  <separator name="writing" >
   <i type="int" name="NWRITE">     2</i>
   <i type="logical" name="LWAVE"> F  </i>
   <i type="logical" name="LDOWNSAMPLE"> F  </i>
   <i type="logical" name="LCHARG"> F  </i>
   <i type="logical" name="LPARD"> F  </i>
   <i type="logical" name="LVTOT"> F  </i>
   <i type="logical" name="LVHAR"> F  </i>
   <i type="logical" name="LELF"> F  </i>
   <i type="logical" name="LOPTICS"> F  </i>
   <v name="STM">      0.00000000      0.00000000      0.00000000      0.00000000      0.00000000      0.00000000      0.00000000</v>
  </separator>
  <separator name="performance" >
   <i type="int" name="NPAR">     8</i>
   <i type="int" name="NSIM">     4</i>
   <i type="int" name="NBLK">    -1</i>
   <i type="logical" name="LPLANE"> T  </i>
   <i type="logical" name="LSCALAPACK"> T  </i>
   <i type="logical" name="LSCAAWARE"> F  </i>
   <i type="logical" name="LSCALU"> F  </i>
   <i type="logical" name="LASYNC"> F  </i>
   <i type="logical" name="LORBITALREAL"> F  </i>
  </separator>
  <separator name="miscellaneous" >
   <i type="int" name="IDIOT">     3</i>
   <i type="int" name="PHON_NSTRUCT">    -1</i>
   <i type="logical" name="LMUSIC"> F  </i>
   <v name="POMASS">     58.69000000     32.06600000</v>
   <v name="DARWINR">      0.00000000      0.00000000</v>
   <v name="DARWINV">      1.00000000      1.00000000</v>
   <i type="logical" name="LCORR"> T  </i>
  </separator>
  <i type="logical" name="GGA_COMPAT"> T  </i>
  <i type="logical" name="LBERRY"> F  </i>
  <i type="int" name="ICORELEVEL">     0</i>
  <i type="logical" name="LDAU"> F  </i>
  <i type="int" name="I_CONSTRAINED_M">     0</i>
  <separator name="electronic exchange-correlation" >
   <i type="string" name="GGA">--</i>
   <i type="int" name="VOSKOWN">     0</i>
   <i type="logical" name="LHFCALC"> F  </i>
   <i type="string" name="PRECFOCK"></i>
   <i type="logical" name="LSYMGRAD"> F  </i>
   <i type="logical" name="LHFONE"> F  </i>
   <i type="logical" name="LRHFCALC"> F  </i>
   <i type="logical" name="LTHOMAS"> F  </i>
   <i type="logical" name="LMODELHF"> F  </i>
   <i type="logical" name="LFOCKACE"> F  </i>
   <i name="ENCUT4O">     -1.00000000</i>
   <i type="int" name="EXXOEP">     0</i>
   <i type="int" name="FOURORBIT">     0</i>
   <i name="AEXX">      0.00000000</i>
   <i name="HFALPHA">      0.00000000</i>
   <i name="MCALPHA">      0.00000000</i>
   <i name="ALDAX">      1.00000000</i>
   <i name="AGGAX">      1.00000000</i>
   <i name="ALDAC">      1.00000000</i>
   <i name="AGGAC">      1.00000000</i>
   <i type="int" name="NKREDX">     1</i>
   <i type="int" name="NKREDY">     1</i>
   <i type="int" name="NKREDZ">     1</i>
   <i type="logical" name="SHIFTRED"> F  </i>
   <i type="logical" name="ODDONLY"> F  </i>
   <i type="logical" name="EVENONLY"> F  </i>
   <i type="int" name="LMAXFOCK">     0</i>
   <i type="int" name="NMAXFOCKAE">     0</i>
   <i type="logical" name="LFOCKAEDFT"> F  </i>
   <i name="HFSCREEN">      0.00000000</i>
   <i name="HFSCREENC">      0.00000000</i>
   <i type="int" name="NBANDSGWLOW">     0</i>
  </separator>
  <separator name="vdW DFT" >
   <i type="logical" name="LUSE_VDW"> F  </i>
   <i name="Zab_VDW">     -0.84910000</i>
   <i name="PARAM1">      0.12340000</i>
   <i name="PARAM2">      1.00000000</i>
   <i name="PARAM3">      0.00000000</i>
  </separator>
  <separator name="model GW" >
   <i type="int" name="MODEL_GW">     0</i>
   <i name="MODEL_EPS0">     16.37487417</i>
   <i name="MODEL_ALPHA">      1.00000000</i>
  </separator>
  <separator name="linear response parameters" >
   <i type="logical" name="LEPSILON"> F  </i>
   <i type="logical" name="LRPA"> F  </i>
   <i type="logical" name="LNABLA"> F  </i>
   <i type="logical" name="LVEL"> F  </i>
   <i type="int" name="KINTER">     0</i>
   <i name="CSHIFT">      0.10000000</i>
   <i name="OMEGAMAX">     -1.00000000</i>
   <i name="DEG_THRESHOLD">      0.00200000</i>
   <i name="RTIME">     -0.10000000</i>
   <i name="WPLASMAI">      0.00000000</i>
   <v name="DFIELD">      0.00000000      0.00000000      0.00000000</v>
   <v name="WPLASMA">      0.00000000      0.00000000      0.00000000      0.00000000      0.00000000      0.00000000      0.00000000      0.00000000      0.00000000</v>
  </separator>
  <separator name="orbital magnetization" >
   <i type="logical" name="NUCIND"> F  </i>
   <v name="MAGPOS">      0.00000000      0.00000000      0.00000000</v>
   <i type="logical" name="LNICSALL"> T  </i>
   <i type="logical" name="ORBITALMAG"> F  </i>
   <i type="logical" name="LMAGBLOCH"> F  </i>
   <i type="logical" name="LCHIMAG"> F  </i>
   <i type="logical" name="LGAUGE"> T  </i>
   <i type="int" name="MAGATOM">     0</i>
   <v name="MAGDIPOL">      0.00000000      0.00000000      0.00000000</v>
   <v name="AVECCONST">      0.00000000      0.00000000      0.00000000</v>
  </separator>
  <separator name="response functions" >
   <i type="logical" name="LFINITE_TEMPERATURE"> F  </i>
   <i type="logical" name="LADDER"> F  </i>
   <i type="logical" name="LRPAFORCE"> F  </i>
   <i type="logical" name="LFXC"> F  </i>
   <i type="logical" name="LHARTREE"> T  </i>
   <i type="int" name="IBSE">     0</i>
   <v type="int" name="KPOINT">    -1     0     0     0</v>
   <i type="logical" name="LTCTC"> F  </i>
   <i type="logical" name="LTCTE"> F  </i>
   <i type="logical" name="LTETE"> F  </i>
   <i type="logical" name="LTRIPLET"> F  </i>
   <i type="logical" name="LFXCEPS"> F  </i>
   <i type="logical" name="LFXHEG"> F  </i>
   <i type="int" name="NATURALO">     2</i>
   <i type="logical" name="LHOLEGF"> F  </i>
   <i type="logical" name="L2ORDER"> F  </i>
   <i type="logical" name="LDMP1"> F  </i>
   <i type="logical" name="LMP2LT"> F  </i>
   <i type="logical" name="LSMP2LT"> F  </i>
   <i type="logical" name="LGWLF"> F  </i>
   <i name="ENCUTGW">     -2.00000000</i>
   <i name="ENCUTGWSOFT">     -2.00000000</i>
   <i name="ENCUTLF">     -1.00000000</i>
   <i type="logical" name="LESF_SPLINES"> F  </i>
   <i type="int" name="LMAXMP2">    -1</i>
   <i name="SCISSOR">      0.00000000</i>
   <i type="int" name="NOMEGA">     0</i>
   <i type="int" name="NOMEGAR">     0</i>
   <i type="int" name="NBANDSGW">    -1</i>
   <i type="int" name="NBANDSO">    -1</i>
   <i type="int" name="NBANDSV">    -1</i>
   <i type="int" name="NELM">   100</i>
   <i type="int" name="NELMHF">     1</i>
   <i type="int" name="DIM">     3</i>
   <i type="int" name="IESPILON">     4</i>
   <i type="int" name="ANTIRES">     0</i>
   <i name="OMEGAMAX">    -30.00000000</i>
   <i name="OMEGAMIN">    -30.00000000</i>
   <i name="OMEGATL">   -200.00000000</i>
   <i type="int" name="OMEGAGRID">     0</i>
   <i name="CSHIFT">     -0.10000000</i>
   <i type="logical" name="LSELFENERGY"> F  </i>
   <i type="logical" name="LSPECTRAL"> F  </i>
   <i type="logical" name="LSPECTRALGW"> F  </i>
   <i type="logical" name="LSINGLES"> F  </i>
   <i type="logical" name="LFERMIGW"> F  </i>
   <i type="logical" name="ODDONLYGW"> F  </i>
   <i type="logical" name="EVENONLYGW"> F  </i>
   <i type="int" name="NKREDLFX">     1</i>
   <i type="int" name="NKREDLFY">     1</i>
   <i type="int" name="NKREDLFZ">     1</i>
   <i type="int" name="MAXMEM">  2800</i>
   <i type="int" name="TELESCOPE">     0</i>
   <i type="int" name="NTAUPAR">    -1</i>
   <i type="int" name="NOMEGAPAR">    -1</i>
   <i name="LAMBDA">      1.00000000</i>
  </separator>
  <separator name="External order field" >
   <i name="OFIELD_KAPPA">      0.00000000</i>
   <v name="OFIELD_K">      0.00000000      0.00000000      0.00000000</v>
   <i name="OFIELD_Q6_NEAR">      0.00000000</i>
   <i name="OFIELD_Q6_FAR">      0.00000000</i>
   <i name="OFIELD_A">      0.00000000</i>
  </separator>
 </parameters>
 <atominfo>
  <atoms>      72 </atoms>
  <types>       2 </types>
  <array name="atoms" >
   <dimension dim="1">ion</dimension>
   <field type="string">element</field>
   <field type="int">atomtype</field>
   <set>
    <rc><c>Ni</c><c>   1</c></rc>
    <rc><c>Ni</c><c>   1</c></rc>
    <rc><c>Ni</c><c>   1</c></rc>
    <rc><c>Ni</c><c>   1</c></rc>
    <rc><c>Ni</c><c>   1</c></rc>
    <rc><c>Ni</c><c>   1</c></rc>
    <rc><c>Ni</c><c>   1</c></rc>
    <rc><c>Ni</c><c>   1</c></rc>
    <rc><c>Ni</c><c>   1</c></rc>
    <rc><c>Ni</c><c>   1</c></rc>
    <rc><c>Ni</c><c>   1</c></rc>
    <rc><c>Ni</c><c>   1</c></rc>
    <rc><c>Ni</c><c>   1</c></rc>
    <rc><c>Ni</c><c>   1</c></rc>
    <rc><c>Ni</c><c>   1</c></rc>
    <rc><c>Ni</c><c>   1</c></rc>
    <rc><c>Ni</c><c>   1</c></rc>
    <rc><c>Ni</c><c>   1</c></rc>
    <rc><c>Ni</c><c>   1</c></rc>
    <rc><c>Ni</c><c>   1</c></rc>
    <rc><c>Ni</c><c>   1</c></rc>
    <rc><c>Ni</c><c>   1</c></rc>
    <rc><c>Ni</c><c>   1</c></rc>
    <rc><c>Ni</c><c>   1</c></rc>
    <rc><c>Ni</c><c>   1</c></rc>
    <rc><c>Ni</c><c>   1</c></rc>
    <rc><c>Ni</c><c>   1</c></rc>
    <rc><c>Ni</c><c>   1</c></rc>
    <rc><c>Ni</c><c>   1</c></rc>
    <rc><c>Ni</c><c>   1</c></rc>
    <rc><c>Ni</c><c>   1</c></rc>
    <rc><c>Ni</c><c>   1</c></rc>
    <rc><c>Ni</c><c>   1</c></rc>
    <rc><c>Ni</c><c>   1</c></rc>
    <rc><c>Ni</c><c>   1</c></rc>
    <rc><c>Ni</c><c>   1</c></rc>
    <rc><c>S </c><c>   2</c></rc>
    <rc><c>S </c><c>   2</c></rc>
    <rc><c>S </c><c>   2</c></rc>
    <rc><c>S </c><c>   2</c></rc>
    <rc><c>S </c><c>   2</c></rc>
    <rc><c>S </c><c>   2</c></rc>
    <rc><c>S </c><c>   2</c></rc>
    <rc><c>S </c><c>   2</c></rc>
    <rc><c>S </c><c>   2</c></rc>
    <rc><c>S </c><c>   2</c></rc>
    <rc><c>S </c><c>   2</c></rc>
    <rc><c>S </c><c>   2</c></rc>
    <rc><c>S </c><c>   2</c></rc>
    <rc><c>S </c><c>   2</c></rc>
    <rc><c>S </c><c>   2</c></rc>
    <rc><c>S </c><c>   2</c></rc>
    <rc><c>S </c><c>   2</c></rc>
    <rc><c>S </c><c>   2</c></rc>
    <rc><c>S </c><c>   2</c></rc>
    <rc><c>S </c><c>   2</c></rc>
    <rc><c>S </c><c>   2</c></rc>
    <rc><c>S </c><c>   2</c></rc>
    <rc><c>S </c><c>   2</c></rc>
    <rc><c>S </c><c>   2</c></rc>
    <rc><c>S </c><c>   2</c></rc>
    <rc><c>S </c><c>   2</c></rc>
    <rc><c>S </c><c>   2</c></rc>
    <rc><c>S </c><c>   2</c></rc>
    <rc><c>S </c><c>   2</c></rc>
    <rc><c>S </c><c>   2</c></rc>
    <rc><c>S </c><c>   2</c></rc>
    <rc><c>S </c><c>   2</c></rc>
    <rc><c>S </c><c>   2</c></rc>
    <rc><c>S </c><c>   2</c></rc>
    <rc><c>S </c><c>   2</c></rc>
    <rc><c>S </c><c>   2</c></rc>
   </set>
  </array>
  <array name="atomtypes" >
   <dimension dim="1">type</dimension>
   <field type="int">atomspertype</field>
   <field type="string">element</field>
   <field>mass</field>
   <field>valence</field>
   <field type="string">pseudopotential</field>
   <set>
    <rc><c>  36</c><c>Ni</c><c>     58.69000000</c><c>     16.00000000</c><c>  PAW_PBE Ni_pv 06Sep2000               </c></rc>
    <rc><c>  36</c><c>S </c><c>     32.06600000</c><c>      6.00000000</c><c>  PAW_PBE S 06Sep2000                   </c></rc>
   </set>
  </array>
 </atominfo>
 <structure name="initialpos" >
  <crystal>
   <varray name="basis" >
    <v>       9.42510255       3.57329804       0.00000000 </v>
    <v>       0.00000000      10.07973298       0.00000000 </v>
    <v>       0.00000000       0.00000000      20.68350356 </v>
   </varray>
   <i name="volume">   1964.98490008 </i>
   <varray name="rec_basis" >
    <v>       0.10609964       0.00000000       0.00000000 </v>
    <v>      -0.03761267       0.09920898       0.00000000 </v>
    <v>       0.00000000       0.00000000       0.04834771 </v>
   </varray>
  </crystal>
  <varray name="positions" >
   <v>       0.39705889       0.79495179       0.11816221 </v>
   <v>       0.54732740       0.64468328       0.24509923 </v>
   <v>       0.69759592       0.49441477       0.37203625 </v>
   <v>       0.84786443       0.34414625       0.49897328 </v>
   <v>       0.11381506       0.41152895       0.16047455 </v>
   <v>       0.26408357       0.26126044       0.28741157 </v>
   <v>       0.41435209       0.11099193       0.41434860 </v>
   <v>       0.96354655       0.56179747       0.03353752 </v>
   <v>       0.13110826       0.72756909       0.45666094 </v>
   <v>       0.83057123       0.02810612       0.20278689 </v>
   <v>       0.98083974       0.87783760       0.32972391 </v>
   <v>       0.35735705       0.57044763       0.08462468 </v>
   <v>       0.50762556       0.42017912       0.21156171 </v>
   <v>       0.65789407       0.26991061       0.33849873 </v>
   <v>       0.80816258       0.11964210       0.46543576 </v>
   <v>       0.07411322       0.18702480       0.12693702 </v>
   <v>       0.22438173       0.03675628       0.25387405 </v>
   <v>       0.37465024       0.88648777       0.38081107 </v>
   <v>       0.52491876       0.73621926       0.50774810 </v>
   <v>       0.92384471       0.33729331       0.00000000 </v>
   <v>       0.09140641       0.50306493       0.42312341 </v>
   <v>       0.64060088       0.95387047       0.04231234 </v>
   <v>       0.79086939       0.80360196       0.16924937 </v>
   <v>       0.94113790       0.65333345       0.29618639 </v>
   <v>       0.03266674       0.15934394       0.43189823 </v>
   <v>       0.58186121       0.61014948       0.05108716 </v>
   <v>       0.73212972       0.45988096       0.17802418 </v>
   <v>       0.88239823       0.30961245       0.30496121 </v>
   <v>       0.29861738       0.22672664       0.09339950 </v>
   <v>       0.44888589       0.07645813       0.22033653 </v>
   <v>       0.59915440       0.92618961       0.34727355 </v>
   <v>       0.01537355       0.84330380       0.13571184 </v>
   <v>       0.16564206       0.69303529       0.26264887 </v>
   <v>       0.31591057       0.54276678       0.38958589 </v>
   <v>       0.46617908       0.39249826       0.51652292 </v>
   <v>       0.86510503       0.99357231       0.00877482 </v>
   <v>       0.03660483       0.95519385       0.48928282 </v>
   <v>       0.58579929       0.40599939       0.10847175 </v>
   <v>       0.73606780       0.25573088       0.23540877 </v>
   <v>       0.88633632       0.10546237       0.36234580 </v>
   <v>       0.15228695       0.17284506       0.02384707 </v>
   <v>       0.30255546       0.02257655       0.15078409 </v>
   <v>       0.45282398       0.87230804       0.27772111 </v>
   <v>       0.60309249       0.72203953       0.40465814 </v>
   <v>       0.01931163       0.63915371       0.19309643 </v>
   <v>       0.16958015       0.48888520       0.32003346 </v>
   <v>       0.31984866       0.33861669       0.44697048 </v>
   <v>       0.86904312       0.78942223       0.06615941 </v>
   <v>       0.48608562       0.84214307       0.02424015 </v>
   <v>       0.63635413       0.69187455       0.15117717 </v>
   <v>       0.78662264       0.54160604       0.27811420 </v>
   <v>       0.93689115       0.39133753       0.40505122 </v>
   <v>       0.20284179       0.45872023       0.06655249 </v>
   <v>       0.35311030       0.30845172       0.19348951 </v>
   <v>       0.50337881       0.15818320       0.32042654 </v>
   <v>       0.65364732       0.00791469       0.44736356 </v>
   <v>       0.06986647       0.92502888       0.23580185 </v>
   <v>       0.22013498       0.77476037       0.36273888 </v>
   <v>       0.37040349       0.62449185       0.48967590 </v>
   <v>       0.91959796       0.07529739       0.10886483 </v>
   <v>       0.20021045       0.79158823       0.06694557 </v>
   <v>       0.35047896       0.64131972       0.19388259 </v>
   <v>       0.50074747       0.49105121       0.32081962 </v>
   <v>       0.65101599       0.34078269       0.44775664 </v>
   <v>       0.06723513       0.25789688       0.23619494 </v>
   <v>       0.21750365       0.10762837       0.36313196 </v>
   <v>       0.36777216       0.95735986       0.49006899 </v>
   <v>       0.91696662       0.40816539       0.10925791 </v>
   <v>       0.48345428       0.17501107       0.02463323 </v>
   <v>       0.63372279       0.02474256       0.15157025 </v>
   <v>       0.78399130       0.87447404       0.27850728 </v>
   <v>       0.93425982       0.72420553       0.40544430 </v>
  </varray>
 </structure>
 <calculation>
  <scstep>
   <time name="dav">    2.00    2.01</time>
   <time name="total">    2.05    2.07</time>
   <energy>
    <i name="alphaZ">   1893.09323658 </i>
    <i name="ewald"> 162344.86338853 </i>
    <i name="hartreedc">-284926.50994007 </i>
    <i name="XCdc">   3651.30087865 </i>
    <i name="pawpsdc"> 112729.53333415 </i>
    <i name="pawaedc">-117641.51188735 </i>
    <i name="eentropy">     -0.28455233 </i>
    <i name="bandstr">  -4344.62251469 </i>
    <i name="atom"> 136002.60505376 </i>
    <i name="e_fr_energy">   9708.46699724 </i>
    <i name="e_wo_entrp">   9708.75154957 </i>
    <i name="e_0_energy">   9708.60927340 </i>
   </energy>
  </scstep>
  <scstep>
   <time name="dav">    1.80    1.81</time>
   <time name="total">    1.81    1.81</time>
   <energy>
    <i name="e_fr_energy">    607.96932836 </i>
    <i name="e_wo_entrp">    608.78902106 </i>
    <i name="e_0_energy">    608.37917471 </i>
   </energy>
  </scstep>
  <scstep>
   <time name="dav">    1.89    1.90</time>
   <time name="total">    1.89    1.90</time>
   <energy>
    <i name="e_fr_energy">   -340.12557280 </i>
    <i name="e_wo_entrp">   -338.94201464 </i>
    <i name="e_0_energy">   -339.53379372 </i>
   </energy>
  </scstep>
  <scstep>
   <time name="dav">    1.91    1.92</time>
   <time name="total">    1.91    1.92</time>
   <energy>
    <i name="e_fr_energy">   -402.25545706 </i>
    <i name="e_wo_entrp">   -400.98477292 </i>
    <i name="e_0_energy">   -401.62011499 </i>
   </energy>
  </scstep>
  <scstep>
   <time name="dav">    2.12    2.12</time>
   <time name="total">    2.16    2.17</time>
   <energy>
    <i name="e_fr_energy">   -404.88180486 </i>
    <i name="e_wo_entrp">   -403.60979783 </i>
    <i name="e_0_energy">   -404.24580135 </i>
   </energy>
  </scstep>
  <scstep>
   <time name="dav">    1.96    1.97</time>
   <time name="total">    2.05    2.06</time>
   <energy>
    <i name="e_fr_energy">   -488.17322703 </i>
    <i name="e_wo_entrp">   -487.39134138 </i>
    <i name="e_0_energy">   -487.78228421 </i>
   </energy>
  </scstep>
  <scstep>
   <time name="dav">    1.99    2.00</time>
   <time name="total">    2.08    2.09</time>
   <energy>
    <i name="e_fr_energy">   -372.96886269 </i>
    <i name="e_wo_entrp">   -372.03443993 </i>
    <i name="e_0_energy">   -372.50165131 </i>
   </energy>
  </scstep>
  <scstep>
   <time name="dav">    2.13    2.14</time>
   <time name="total">    2.22    2.23</time>
   <energy>
    <i name="e_fr_energy">   -524.08453549 </i>
    <i name="e_wo_entrp">   -523.40589043 </i>
    <i name="e_0_energy">   -523.74521296 </i>
   </energy>
  </scstep>
  <scstep>
   <time name="dav">    2.06    2.07</time>
   <time name="total">    2.15    2.16</time>
   <energy>
    <i name="e_fr_energy">   -382.02198749 </i>
    <i name="e_wo_entrp">   -380.93750363 </i>
    <i name="e_0_energy">   -381.47974556 </i>
   </energy>
  </scstep>
  <scstep>
   <time name="dav">    2.32    2.33</time>
   <time name="total">    2.41    2.42</time>
   <energy>
    <i name="e_fr_energy">   -370.06063435 </i>
    <i name="e_wo_entrp">   -368.66471198 </i>
    <i name="e_0_energy">   -369.36267316 </i>
   </energy>
  </scstep>
  <scstep>
   <time name="dav">    2.21    2.21</time>
   <time name="total">    2.30    2.31</time>
   <energy>
    <i name="e_fr_energy">   -375.27047676 </i>
    <i name="e_wo_entrp">   -374.24121177 </i>
    <i name="e_0_energy">   -374.75584427 </i>
   </energy>
  </scstep>
  <scstep>
   <time name="dav">    2.20    2.21</time>
   <time name="total">    2.30    2.31</time>
   <energy>
    <i name="e_fr_energy">   -367.51699015 </i>
    <i name="e_wo_entrp">   -366.56577138 </i>
    <i name="e_0_energy">   -367.04138076 </i>
   </energy>
  </scstep>
  <scstep>
   <time name="dav">    2.12    2.12</time>
   <time name="total">    2.21    2.22</time>
   <energy>
    <i name="e_fr_energy">   -361.46495872 </i>
    <i name="e_wo_entrp">   -360.35309031 </i>
    <i name="e_0_energy">   -360.90902451 </i>
   </energy>
  </scstep>
  <scstep>
   <time name="dav">    2.16    2.17</time>
   <time name="total">    2.26    2.27</time>
   <energy>
    <i name="e_fr_energy">   -362.18094972 </i>
    <i name="e_wo_entrp">   -361.25244162 </i>
    <i name="e_0_energy">   -361.71669567 </i>
   </energy>
  </scstep>
  <scstep>
   <time name="dav">    2.16    2.16</time>
   <time name="total">    2.25    2.26</time>
   <energy>
    <i name="e_fr_energy">   -358.35693749 </i>
    <i name="e_wo_entrp">   -357.27274195 </i>
    <i name="e_0_energy">   -357.81483972 </i>
   </energy>
  </scstep>
  <scstep>
   <time name="dav">    2.20    2.20</time>
   <time name="total">    2.29    2.30</time>
   <energy>
    <i name="e_fr_energy">   -357.49064314 </i>
    <i name="e_wo_entrp">   -356.52991987 </i>
    <i name="e_0_energy">   -357.01028150 </i>
   </energy>
  </scstep>
  <scstep>
   <time name="dav">    2.17    2.17</time>
   <time name="total">    2.26    2.26</time>
   <energy>
    <i name="e_fr_energy">   -355.86682520 </i>
    <i name="e_wo_entrp">   -354.87391172 </i>
    <i name="e_0_energy">   -355.37036846 </i>
   </energy>
  </scstep>
  <scstep>
   <time name="dav">    2.22    2.23</time>
   <time name="total">    2.31    2.32</time>
   <energy>
    <i name="e_fr_energy">   -355.51967740 </i>
    <i name="e_wo_entrp">   -354.48388506 </i>
    <i name="e_0_energy">   -355.00178123 </i>
   </energy>
  </scstep>
  <scstep>
   <time name="dav">    2.22    2.22</time>
   <time name="total">    2.31    2.32</time>
   <energy>
    <i name="e_fr_energy">   -355.29737902 </i>
    <i name="e_wo_entrp">   -354.23681956 </i>
    <i name="e_0_energy">   -354.76709929 </i>
   </energy>
  </scstep>
  <scstep>
   <time name="dav">    2.20    2.20</time>
   <time name="total">    2.29    2.30</time>
   <energy>
    <i name="e_fr_energy">   -355.07468624 </i>
    <i name="e_wo_entrp">   -354.00238520 </i>
    <i name="e_0_energy">   -354.53853572 </i>
   </energy>
  </scstep>
  <scstep>
   <time name="dav">    2.20    2.21</time>
   <time name="total">    2.29    2.30</time>
   <energy>
    <i name="e_fr_energy">   -354.91953690 </i>
    <i name="e_wo_entrp">   -353.83528257 </i>
    <i name="e_0_energy">   -354.37740973 </i>
   </energy>
  </scstep>
  <scstep>
   <time name="dav">    2.29    2.30</time>
   <time name="total">    2.38    2.39</time>
   <energy>
    <i name="e_fr_energy">   -354.89647121 </i>
    <i name="e_wo_entrp">   -353.79249716 </i>
    <i name="e_0_energy">   -354.34448419 </i>
   </energy>
  </scstep>
  <scstep>
   <time name="dav">    2.22    2.23</time>
   <time name="total">    2.31    2.32</time>
   <energy>
    <i name="e_fr_energy">   -354.71908333 </i>
    <i name="e_wo_entrp">   -353.61827462 </i>
    <i name="e_0_energy">   -354.16867898 </i>
   </energy>
  </scstep>
  <scstep>
   <time name="dav">    2.18    2.19</time>
   <time name="total">    2.27    2.28</time>
   <energy>
    <i name="e_fr_energy">   -354.71268505 </i>
    <i name="e_wo_entrp">   -353.59139868 </i>
    <i name="e_0_energy">   -354.15204187 </i>
   </energy>
  </scstep>
  <scstep>
   <time name="dav">    2.10    2.11</time>
   <time name="total">    2.19    2.20</time>
   <energy>
    <i name="e_fr_energy">   -354.66413626 </i>
    <i name="e_wo_entrp">   -353.56621363 </i>
    <i name="e_0_energy">   -354.11517494 </i>
   </energy>
  </scstep>
  <scstep>
   <time name="dav">    2.21    2.22</time>
   <time name="total">    2.31    2.32</time>
   <energy>
    <i name="e_fr_energy">   -354.66625652 </i>
    <i name="e_wo_entrp">   -353.56415946 </i>
    <i name="e_0_energy">   -354.11520799 </i>
   </energy>
  </scstep>
  <scstep>
   <time name="dav">    2.17    2.18</time>
   <time name="total">    2.27    2.27</time>
   <energy>
    <i name="e_fr_energy">   -354.65065192 </i>
    <i name="e_wo_entrp">   -353.55925746 </i>
    <i name="e_0_energy">   -354.10495469 </i>
   </energy>
  </scstep>
  <scstep>
   <time name="dav">    2.20    2.21</time>
   <time name="total">    2.30    2.30</time>
   <energy>
    <i name="e_fr_energy">   -354.65457028 </i>
    <i name="e_wo_entrp">   -353.56098473 </i>
    <i name="e_0_energy">   -354.10777751 </i>
   </energy>
  </scstep>
  <scstep>
   <time name="dav">    2.17    2.17</time>
   <time name="total">    2.26    2.27</time>
   <energy>
    <i name="e_fr_energy">   -354.64584798 </i>
    <i name="e_wo_entrp">   -353.56531331 </i>
    <i name="e_0_energy">   -354.10558065 </i>
   </energy>
  </scstep>
  <scstep>
   <time name="dav">    2.13    2.13</time>
   <time name="total">    2.22    2.23</time>
   <energy>
    <i name="e_fr_energy">   -354.64324384 </i>
    <i name="e_wo_entrp">   -353.56308711 </i>
    <i name="e_0_energy">   -354.10316548 </i>
   </energy>
  </scstep>
  <scstep>
   <time name="dav">    2.20    2.21</time>
   <time name="total">    2.29    2.30</time>
   <energy>
    <i name="e_fr_energy">   -354.64278917 </i>
    <i name="e_wo_entrp">   -353.56200972 </i>
    <i name="e_0_energy">   -354.10239945 </i>
   </energy>
  </scstep>
  <scstep>
   <time name="dav">    1.98    1.99</time>
   <time name="total">    2.08    2.08</time>
   <energy>
    <i name="e_fr_energy">   -354.64199595 </i>
    <i name="e_wo_entrp">   -353.56047798 </i>
    <i name="e_0_energy">   -354.10123696 </i>
   </energy>
  </scstep>
  <scstep>
   <time name="dav">    1.87    1.87</time>
   <time name="total">    1.97    1.97</time>
   <energy>
    <i name="e_fr_energy">   -354.64193818 </i>
    <i name="e_wo_entrp">   -353.56066480 </i>
    <i name="e_0_energy">   -354.10130149 </i>
   </energy>
  </scstep>
  <scstep>
   <time name="dav">    1.73    1.73</time>
   <time name="total">    1.78    1.78</time>
   <energy>
    <i name="alphaZ">   1893.09323658 </i>
    <i name="ewald"> 162344.86338853 </i>
    <i name="hartreedc">-284238.71278258 </i>
    <i name="XCdc">   3622.14821771 </i>
    <i name="pawpsdc"> 130487.41552707 </i>
    <i name="pawaedc">-135456.51326813 </i>
    <i name="eentropy">     -1.08192017 </i>
    <i name="bandstr"> -15008.45937643 </i>
    <i name="atom"> 136002.60505376 </i>
    <i name="e_fr_energy">   -354.64192365 </i>
    <i name="e_wo_entrp">   -353.56000348 </i>
    <i name="e_0_energy">   -354.10096357 </i>
   </energy>
  </scstep>
  <structure>
   <crystal>
    <varray name="basis" >
     <v>       9.42510255       3.57329804       0.00000000 </v>
     <v>       0.00000000      10.07973298       0.00000000 </v>
     <v>       0.00000000       0.00000000      20.68350356 </v>
    </varray>
    <i name="volume">   1964.98490008 </i>
    <varray name="rec_basis" >
     <v>       0.10609964       0.00000000       0.00000000 </v>
     <v>      -0.03761267       0.09920898       0.00000000 </v>
     <v>       0.00000000       0.00000000       0.04834771 </v>
    </varray>
   </crystal>
   <varray name="positions" >
    <v>       0.39705889       0.79495179       0.11816221 </v>
    <v>       0.54732740       0.64468328       0.24509923 </v>
    <v>       0.69759592       0.49441477       0.37203625 </v>
    <v>       0.84786443       0.34414625       0.49897328 </v>
    <v>       0.11381506       0.41152895       0.16047455 </v>
    <v>       0.26408357       0.26126044       0.28741157 </v>
    <v>       0.41435209       0.11099193       0.41434860 </v>
    <v>       0.96354655       0.56179747       0.03353752 </v>
    <v>       0.13110826       0.72756909       0.45666094 </v>
    <v>       0.83057123       0.02810612       0.20278689 </v>
    <v>       0.98083974       0.87783760       0.32972391 </v>
    <v>       0.35735705       0.57044763       0.08462468 </v>
    <v>       0.50762556       0.42017912       0.21156171 </v>
    <v>       0.65789407       0.26991061       0.33849873 </v>
    <v>       0.80816258       0.11964210       0.46543576 </v>
    <v>       0.07411322       0.18702480       0.12693702 </v>
    <v>       0.22438173       0.03675628       0.25387405 </v>
    <v>       0.37465024       0.88648777       0.38081107 </v>
    <v>       0.52491876       0.73621926       0.50774810 </v>
    <v>       0.92384471       0.33729331       0.00000000 </v>
    <v>       0.09140641       0.50306493       0.42312341 </v>
    <v>       0.64060088       0.95387047       0.04231234 </v>
    <v>       0.79086939       0.80360196       0.16924937 </v>
    <v>       0.94113790       0.65333345       0.29618639 </v>
    <v>       0.03266674       0.15934394       0.43189823 </v>
    <v>       0.58186121       0.61014948       0.05108716 </v>
    <v>       0.73212972       0.45988096       0.17802418 </v>
    <v>       0.88239823       0.30961245       0.30496121 </v>
    <v>       0.29861738       0.22672664       0.09339950 </v>
    <v>       0.44888589       0.07645813       0.22033653 </v>
    <v>       0.59915440       0.92618961       0.34727355 </v>
    <v>       0.01537355       0.84330380       0.13571184 </v>
    <v>       0.16564206       0.69303529       0.26264887 </v>
    <v>       0.31591057       0.54276678       0.38958589 </v>
    <v>       0.46617908       0.39249826       0.51652292 </v>
    <v>       0.86510503       0.99357231       0.00877482 </v>
    <v>       0.03660483       0.95519385       0.48928282 </v>
    <v>       0.58579929       0.40599939       0.10847175 </v>
    <v>       0.73606780       0.25573088       0.23540877 </v>
    <v>       0.88633632       0.10546237       0.36234580 </v>
    <v>       0.15228695       0.17284506       0.02384707 </v>
    <v>       0.30255546       0.02257655       0.15078409 </v>
    <v>       0.45282398       0.87230804       0.27772111 </v>
    <v>       0.60309249       0.72203953       0.40465814 </v>
    <v>       0.01931163       0.63915371       0.19309643 </v>
    <v>       0.16958015       0.48888520       0.32003346 </v>
    <v>       0.31984866       0.33861669       0.44697048 </v>
    <v>       0.86904312       0.78942223       0.06615941 </v>
    <v>       0.48608562       0.84214307       0.02424015 </v>
    <v>       0.63635413       0.69187455       0.15117717 </v>
    <v>       0.78662264       0.54160604       0.27811420 </v>
    <v>       0.93689115       0.39133753       0.40505122 </v>
    <v>       0.20284179       0.45872023       0.06655249 </v>
    <v>       0.35311030       0.30845172       0.19348951 </v>
    <v>       0.50337881       0.15818320       0.32042654 </v>
    <v>       0.65364732       0.00791469       0.44736356 </v>
    <v>       0.06986647       0.92502888       0.23580185 </v>
    <v>       0.22013498       0.77476037       0.36273888 </v>
    <v>       0.37040349       0.62449185       0.48967590 </v>
    <v>       0.91959796       0.07529739       0.10886483 </v>
    <v>       0.20021045       0.79158823       0.06694557 </v>
    <v>       0.35047896       0.64131972       0.19388259 </v>
    <v>       0.50074747       0.49105121       0.32081962 </v>
    <v>       0.65101599       0.34078269       0.44775664 </v>
    <v>       0.06723513       0.25789688       0.23619494 </v>
    <v>       0.21750365       0.10762837       0.36313196 </v>
    <v>       0.36777216       0.95735986       0.49006899 </v>
    <v>       0.91696662       0.40816539       0.10925791 </v>
    <v>       0.48345428       0.17501107       0.02463323 </v>
    <v>       0.63372279       0.02474256       0.15157025 </v>
    <v>       0.78399130       0.87447404       0.27850728 </v>
    <v>       0.93425982       0.72420553       0.40544430 </v>
   </varray>
  </structure>
  <varray name="forces" >
   <v>      -0.30911583       0.08925024      -0.34020405 </v>
   <v>      -0.00818357      -0.18381445      -0.07864329 </v>
   <v>      -0.02919831       0.12889873       0.27991241 </v>
   <v>      -0.54826141      -0.19018721      -1.72801058 </v>
   <v>      -0.00686597       0.18292344      -0.16316291 </v>
   <v>      -0.06600948      -0.10288613      -0.12387852 </v>
   <v>       0.29317547      -0.06223163       0.52897958 </v>
   <v>       0.29483357      -0.19470100       1.27190048 </v>
   <v>      -0.00217413       0.76517184      -0.51711401 </v>
   <v>      -0.24927713       0.04001727      -0.19887978 </v>
   <v>       0.09776971      -0.34513943       0.05878374 </v>
   <v>      -0.62677103      -0.07248796       0.52130541 </v>
   <v>      -0.07785809       0.22837709      -0.17780784 </v>
   <v>       0.18022714      -0.04086236       0.02141342 </v>
   <v>       0.11001198      -0.60591192      -0.78336620 </v>
   <v>       0.02996421      -0.17180798      -0.37878314 </v>
   <v>       0.03664673       0.02109919      -0.02121172 </v>
   <v>       0.15348539      -0.21705332       0.43624574 </v>
   <v>      -1.44513484       0.22416477      -1.81064427 </v>
   <v>       1.47014645       0.18004221       1.83269049 </v>
   <v>      -0.23648907      -0.27155835      -0.68088657 </v>
   <v>      -0.66057070       0.42259088       0.51129863 </v>
   <v>      -0.23102393       0.10345803       0.07526539 </v>
   <v>       0.20838148       0.07454008       0.21965926 </v>
   <v>      -0.30503792      -0.78531359      -0.40821894 </v>
   <v>      -0.12830794       0.35389070       1.09931618 </v>
   <v>      -0.19969387       0.12776547      -0.17944189 </v>
   <v>       0.00100391      -0.10347679      -0.01532723 </v>
   <v>       0.09450271       0.18858851      -0.81367619 </v>
   <v>      -0.02024681      -0.06752468      -0.11158522 </v>
   <v>       0.20564996       0.04154001       0.31822374 </v>
   <v>       0.14897558       0.36193941      -0.19641559 </v>
   <v>       0.08060630       0.03763350      -0.05730754 </v>
   <v>      -0.07452784      -0.02168179       0.33871537 </v>
   <v>      -0.36572322       0.70751780      -1.96866678 </v>
   <v>       0.10427868      -0.41853123       2.22698524 </v>
   <v>      -0.64143832       0.91160486       0.29484668 </v>
   <v>      -0.56999083       0.55993552      -1.57623508 </v>
   <v>      -0.03839766      -0.02874018      -0.09576345 </v>
   <v>      -0.09317975       0.30784901       0.10077129 </v>
   <v>      -1.31991705       0.16038113      -0.18761831 </v>
   <v>       0.12452310       0.07506142      -0.15093713 </v>
   <v>       0.12123233       0.09705451       0.21585945 </v>
   <v>      -0.02863595       0.26095002       0.77942723 </v>
   <v>      -0.04712991       0.06279953      -0.11790429 </v>
   <v>       0.17367476       0.20785556       0.00781403 </v>
   <v>      -0.05524359       0.74034891       1.06644237 </v>
   <v>      -0.31677839      -0.02337177      -1.84517955 </v>
   <v>       0.95519050      -0.62983107       0.05818867 </v>
   <v>      -0.23637373      -0.14859212      -0.02872448 </v>
   <v>       0.08439629       0.06789518       0.16919138 </v>
   <v>       0.41014706      -0.11195157       1.51223074 </v>
   <v>       0.04055240       0.46452100      -0.29351619 </v>
   <v>       0.06870007      -0.17868690       0.14546764 </v>
   <v>      -0.02327880      -0.16752113       0.04717582 </v>
   <v>      -0.29998788      -0.22557073       0.19033949 </v>
   <v>       0.09880573       0.00507146       0.17424014 </v>
   <v>       0.03191957      -0.18216526      -0.08237153 </v>
   <v>       0.14671679      -0.54669609       0.73654272 </v>
   <v>       0.10855944      -0.30971521      -0.95616661 </v>
   <v>       0.52037413      -0.51045552       0.12505469 </v>
   <v>       0.26274965       0.18606618       0.12939507 </v>
   <v>       0.11268570       0.03274591      -0.09482740 </v>
   <v>       0.48576736      -0.05025484       1.56166179 </v>
   <v>      -0.01417704       0.09844958      -0.19444661 </v>
   <v>       0.18421100       0.06856902       0.25711427 </v>
   <v>       0.52289787      -0.30311302      -0.66189371 </v>
   <v>      -0.22529847       0.12960818      -1.19804775 </v>
   <v>       0.54626785      -0.90428514       0.36425588 </v>
   <v>       0.32064510      -0.39523074       0.31355972 </v>
   <v>       0.19175254       0.03120259      -0.04147852 </v>
   <v>       0.47886992      -0.17602763       0.28806872 </v>
  </varray>
  <varray name="stress" >
   <v>     -25.19639217       3.65232607      -8.92298226 </v>
   <v>       3.65232625     -25.02133437       4.47846964 </v>
   <v>      -8.92298250       4.47846998     -20.69888956 </v>
  </varray>
  <energy>
   <i name="e_fr_energy">   -354.64192365 </i>
   <i name="e_wo_entrp">   -353.56000348 </i>
   <i name="e_0_energy">   -354.10096357 </i>
  </energy>
  <time name="totalsc">   76.07   76.35</time>
  <eigenvalues>
   <array>
    <dimension dim="1">band</dimension>
    <dimension dim="2">kpoint</dimension>
    <dimension dim="3">spin</dimension>
    <field>eigene</field>
    <field>occ</field>
    <set>
     <set comment="spin 1">
      <set comment="kpoint 1">
       <r>  -62.7110    1.0000 </r>
       <r>  -62.7032    1.0000 </r>
       <r>  -62.6949    1.0000 </r>
       <r>  -62.6835    1.0000 </r>
       <r>  -62.6824    1.0000 </r>
       <r>  -62.6797    1.0000 </r>
       <r>  -62.6706    1.0000 </r>
       <r>  -62.6705    1.0000 </r>
       <r>  -62.6644    1.0000 </r>
       <r>  -62.6585    1.0000 </r>
       <r>  -62.6536    1.0000 </r>
       <r>  -62.6519    1.0000 </r>
       <r>  -62.6504    1.0000 </r>
       <r>  -62.6483    1.0000 </r>
       <r>  -62.6373    1.0000 </r>
       <r>  -62.6362    1.0000 </r>
       <r>  -62.6355    1.0000 </r>
       <r>  -62.6355    1.0000 </r>
       <r>  -62.6319    1.0000 </r>
       <r>  -62.6309    1.0000 </r>
       <r>  -62.6254    1.0000 </r>
       <r>  -62.6246    1.0000 </r>
       <r>  -62.6227    1.0000 </r>
       <r>  -62.6215    1.0000 </r>
       <r>  -62.6171    1.0000 </r>
       <r>  -62.6169    1.0000 </r>
       <r>  -62.6128    1.0000 </r>
       <r>  -62.6102    1.0000 </r>
       <r>  -62.5998    1.0000 </r>
       <r>  -62.5925    1.0000 </r>
       <r>  -62.5892    1.0000 </r>
       <r>  -62.5883    1.0000 </r>
       <r>  -62.5804    1.0000 </r>
       <r>  -62.5780    1.0000 </r>
       <r>  -62.5769    1.0000 </r>
       <r>  -62.5739    1.0000 </r>
       <r>  -62.5706    1.0000 </r>
       <r>  -62.5605    1.0000 </r>
       <r>  -62.5596    1.0000 </r>
       <r>  -62.5581    1.0000 </r>
       <r>  -62.5549    1.0000 </r>
       <r>  -62.5528    1.0000 </r>
       <r>  -62.5528    1.0000 </r>
       <r>  -62.5517    1.0000 </r>
       <r>  -62.5481    1.0000 </r>
       <r>  -62.5468    1.0000 </r>
       <r>  -62.5434    1.0000 </r>
       <r>  -62.5308    1.0000 </r>
       <r>  -62.5132    1.0000 </r>
       <r>  -62.5055    1.0000 </r>
       <r>  -62.4977    1.0000 </r>
       <r>  -62.4969    1.0000 </r>
       <r>  -62.4828    1.0000 </r>
       <r>  -62.4818    1.0000 </r>
       <r>  -62.4617    1.0000 </r>
       <r>  -62.4493    1.0000 </r>
       <r>  -62.4432    1.0000 </r>
       <r>  -62.4291    1.0000 </r>
       <r>  -62.4282    1.0000 </r>
       <r>  -62.4120    1.0000 </r>
       <r>  -62.4103    1.0000 </r>
       <r>  -62.4080    1.0000 </r>
       <r>  -62.4024    1.0000 </r>
       <r>  -62.3982    1.0000 </r>
       <r>  -62.3959    1.0000 </r>
       <r>  -62.3931    1.0000 </r>
       <r>  -62.3725    1.0000 </r>
       <r>  -62.3638    1.0000 </r>
       <r>  -62.3568    1.0000 </r>
       <r>  -62.3410    1.0000 </r>
       <r>  -62.3273    1.0000 </r>
       <r>  -62.3185    1.0000 </r>
       <r>  -62.3016    1.0000 </r>
       <r>  -62.3013    1.0000 </r>
       <r>  -62.2973    1.0000 </r>
       <r>  -62.2697    1.0000 </r>
       <r>  -62.2595    1.0000 </r>
       <r>  -62.2314    1.0000 </r>
       <r>  -62.2087    1.0000 </r>
       <r>  -62.2083    1.0000 </r>
       <r>  -62.1891    1.0000 </r>
       <r>  -62.1586    1.0000 </r>
       <r>  -62.1361    1.0000 </r>
       <r>  -62.1266    1.0000 </r>
       <r>  -62.0748    1.0000 </r>
       <r>  -62.0032    1.0000 </r>
       <r>  -61.9045    1.0000 </r>
       <r>  -61.8728    1.0000 </r>
       <r>  -61.8521    1.0000 </r>
       <r>  -61.8509    1.0000 </r>
       <r>  -61.7949    1.0000 </r>
       <r>  -61.7940    1.0000 </r>
       <r>  -61.7463    1.0000 </r>
       <r>  -61.7152    1.0000 </r>
       <r>  -61.6910    1.0000 </r>
       <r>  -61.6534    1.0000 </r>
       <r>  -61.6209    1.0000 </r>
       <r>  -61.6160    1.0000 </r>
       <r>  -61.5302    1.0000 </r>
       <r>  -61.5205    1.0000 </r>
       <r>  -61.5006    1.0000 </r>
       <r>  -61.4367    1.0000 </r>
       <r>  -61.3103    1.0000 </r>
       <r>  -61.3012    1.0000 </r>
       <r>  -61.2855    1.0000 </r>
       <r>  -61.2215    1.0000 </r>
       <r>  -61.0837    1.0000 </r>
       <r>  -61.0178    1.0000 </r>
       <r>  -13.9685    1.0000 </r>
       <r>  -13.3153    1.0000 </r>
       <r>  -13.1650    1.0000 </r>
       <r>  -13.1297    1.0000 </r>
       <r>  -13.0048    1.0000 </r>
       <r>  -12.9444    1.0000 </r>
       <r>  -12.7434    1.0000 </r>
       <r>  -12.7191    1.0000 </r>
       <r>  -12.6539    1.0000 </r>
       <r>  -12.5863    1.0000 </r>
       <r>  -12.5249    1.0000 </r>
       <r>  -12.4796    1.0000 </r>
       <r>  -12.4464    1.0000 </r>
       <r>  -12.2636    1.0000 </r>
       <r>  -12.1978    1.0000 </r>
       <r>  -12.1518    1.0000 </r>
       <r>  -12.0753    1.0000 </r>
       <r>  -12.0496    1.0000 </r>
       <r>  -12.0193    1.0000 </r>
       <r>  -11.9457    1.0000 </r>
       <r>  -11.8937    1.0000 </r>
       <r>  -11.7817    1.0000 </r>
       <r>  -11.7615    1.0000 </r>
       <r>  -11.7239    1.0000 </r>
       <r>  -11.6772    1.0000 </r>
       <r>  -11.6023    1.0000 </r>
       <r>  -11.5364    1.0000 </r>
       <r>  -11.4884    1.0000 </r>
       <r>  -11.2992    1.0000 </r>
       <r>  -11.2717    1.0000 </r>
       <r>  -11.1357    1.0000 </r>
       <r>  -11.0459    1.0000 </r>
       <r>  -10.9251    1.0000 </r>
       <r>  -10.7826    1.0000 </r>
       <r>  -10.6952    1.0000 </r>
       <r>  -10.3745    1.0000 </r>
       <r>   -5.7344    1.0000 </r>
       <r>   -5.6534    1.0000 </r>
       <r>   -5.6411    1.0000 </r>
       <r>   -5.3880    1.0000 </r>
       <r>   -5.3271    1.0000 </r>
       <r>   -5.1593    1.0000 </r>
       <r>   -5.1311    1.0000 </r>
       <r>   -5.0868    1.0000 </r>
       <r>   -5.0538    1.0000 </r>
       <r>   -4.9482    1.0000 </r>
       <r>   -4.8756    1.0000 </r>
       <r>   -4.8505    1.0000 </r>
       <r>   -4.8215    1.0000 </r>
       <r>   -4.7894    1.0000 </r>
       <r>   -4.7501    1.0000 </r>
       <r>   -4.7236    1.0000 </r>
       <r>   -4.7172    1.0000 </r>
       <r>   -4.6473    1.0000 </r>
       <r>   -4.6074    1.0000 </r>
       <r>   -4.5793    1.0000 </r>
       <r>   -4.5096    1.0000 </r>
       <r>   -4.4884    1.0000 </r>
       <r>   -4.4657    1.0000 </r>
       <r>   -4.4303    1.0000 </r>
       <r>   -4.3861    1.0000 </r>
       <r>   -4.3160    1.0000 </r>
       <r>   -4.2898    1.0000 </r>
       <r>   -4.2375    1.0000 </r>
       <r>   -4.1505    1.0000 </r>
       <r>   -4.0708    1.0000 </r>
       <r>   -4.0258    1.0000 </r>
       <r>   -3.9543    1.0000 </r>
       <r>   -3.8899    1.0000 </r>
       <r>   -3.8598    1.0000 </r>
       <r>   -3.7880    1.0000 </r>
       <r>   -3.7619    1.0000 </r>
       <r>   -3.7026    1.0000 </r>
       <r>   -3.6732    1.0000 </r>
       <r>   -3.6324    1.0000 </r>
       <r>   -3.5716    1.0000 </r>
       <r>   -3.5296    1.0000 </r>
       <r>   -3.4914    1.0000 </r>
       <r>   -3.4461    1.0000 </r>
       <r>   -3.4274    1.0000 </r>
       <r>   -3.3660    1.0000 </r>
       <r>   -3.2556    1.0000 </r>
       <r>   -3.2118    1.0000 </r>
       <r>   -3.1863    1.0000 </r>
       <r>   -3.1328    1.0000 </r>
       <r>   -3.1228    1.0000 </r>
       <r>   -3.0963    1.0000 </r>
       <r>   -3.0721    1.0000 </r>
       <r>   -3.0451    1.0000 </r>
       <r>   -3.0387    1.0000 </r>
       <r>   -2.9824    1.0000 </r>
       <r>   -2.9647    1.0000 </r>
       <r>   -2.9241    1.0000 </r>
       <r>   -2.9190    1.0000 </r>
       <r>   -2.8918    1.0000 </r>
       <r>   -2.8542    1.0000 </r>
       <r>   -2.8421    1.0000 </r>
       <r>   -2.8089    1.0000 </r>
       <r>   -2.7923    1.0000 </r>
       <r>   -2.7520    1.0000 </r>
       <r>   -2.7135    1.0000 </r>
       <r>   -2.6929    1.0000 </r>
       <r>   -2.6763    1.0000 </r>
       <r>   -2.6303    1.0000 </r>
       <r>   -2.6160    1.0000 </r>
       <r>   -2.5869    1.0000 </r>
       <r>   -2.5728    1.0000 </r>
       <r>   -2.5445    1.0000 </r>
       <r>   -2.5336    1.0000 </r>
       <r>   -2.5100    1.0000 </r>
       <r>   -2.4676    1.0000 </r>
       <r>   -2.4264    1.0000 </r>
       <r>   -2.4014    1.0000 </r>
       <r>   -2.3882    1.0000 </r>
       <r>   -2.3760    1.0000 </r>
       <r>   -2.3414    1.0000 </r>
       <r>   -2.3246    1.0000 </r>
       <r>   -2.2654    1.0000 </r>
       <r>   -2.2513    1.0000 </r>
       <r>   -2.2016    1.0000 </r>
       <r>   -2.1634    1.0000 </r>
       <r>   -2.1584    1.0000 </r>
       <r>   -2.1064    1.0000 </r>
       <r>   -2.0875    1.0000 </r>
       <r>   -2.0791    1.0000 </r>
       <r>   -2.0084    1.0000 </r>
       <r>   -1.9421    1.0000 </r>
       <r>   -1.9048    1.0000 </r>
       <r>   -1.8697    1.0000 </r>
       <r>   -1.8210    1.0000 </r>
       <r>   -1.7755    1.0000 </r>
       <r>   -1.7169    1.0000 </r>
       <r>   -1.6967    1.0000 </r>
       <r>   -1.6197    1.0000 </r>
       <r>   -1.6004    1.0000 </r>
       <r>   -1.4961    1.0000 </r>
       <r>   -1.4645    1.0000 </r>
       <r>   -1.4510    1.0000 </r>
       <r>   -1.4196    1.0000 </r>
       <r>   -1.3839    1.0000 </r>
       <r>   -1.3267    1.0000 </r>
       <r>   -1.3054    1.0000 </r>
       <r>   -1.2915    1.0000 </r>
       <r>   -1.2548    1.0000 </r>
       <r>   -1.2383    1.0000 </r>
       <r>   -1.2130    1.0000 </r>
       <r>   -1.1594    1.0000 </r>
       <r>   -1.1064    1.0000 </r>
       <r>   -1.0741    1.0000 </r>
       <r>   -1.0194    1.0000 </r>
       <r>   -1.0144    1.0000 </r>
       <r>   -0.9787    1.0000 </r>
       <r>   -0.9630    1.0000 </r>
       <r>   -0.9599    1.0000 </r>
       <r>   -0.9507    1.0000 </r>
       <r>   -0.9198    1.0000 </r>
       <r>   -0.8915    1.0000 </r>
       <r>   -0.8804    1.0000 </r>
       <r>   -0.8571    1.0000 </r>
       <r>   -0.8339    1.0000 </r>
       <r>   -0.7926    1.0000 </r>
       <r>   -0.7672    1.0000 </r>
       <r>   -0.7571    1.0000 </r>
       <r>   -0.7463    1.0000 </r>
       <r>   -0.7333    1.0000 </r>
       <r>   -0.7202    1.0000 </r>
       <r>   -0.6932    1.0000 </r>
       <r>   -0.6778    1.0000 </r>
       <r>   -0.6571    1.0000 </r>
       <r>   -0.6346    1.0000 </r>
       <r>   -0.6206    1.0000 </r>
       <r>   -0.6077    1.0000 </r>
       <r>   -0.5882    1.0000 </r>
       <r>   -0.5614    1.0000 </r>
       <r>   -0.5471    1.0000 </r>
       <r>   -0.5329    1.0000 </r>
       <r>   -0.5124    1.0000 </r>
       <r>   -0.4964    1.0000 </r>
       <r>   -0.4700    1.0000 </r>
       <r>   -0.4454    1.0000 </r>
       <r>   -0.4251    1.0000 </r>
       <r>   -0.4162    1.0000 </r>
       <r>   -0.4016    1.0000 </r>
       <r>   -0.3987    1.0000 </r>
       <r>   -0.3743    1.0000 </r>
       <r>   -0.3645    1.0000 </r>
       <r>   -0.3504    1.0000 </r>
       <r>   -0.3458    1.0000 </r>
       <r>   -0.3372    1.0000 </r>
       <r>   -0.3282    1.0000 </r>
       <r>   -0.3202    1.0000 </r>
       <r>   -0.3091    1.0000 </r>
       <r>   -0.2986    1.0000 </r>
       <r>   -0.2830    1.0000 </r>
       <r>   -0.2728    1.0000 </r>
       <r>   -0.2504    1.0000 </r>
       <r>   -0.2436    1.0000 </r>
       <r>   -0.2392    1.0000 </r>
       <r>   -0.2278    1.0000 </r>
       <r>   -0.2166    1.0000 </r>
       <r>   -0.2100    1.0000 </r>
       <r>   -0.1946    1.0000 </r>
       <r>   -0.1899    1.0000 </r>
       <r>   -0.1801    1.0000 </r>
       <r>   -0.1712    1.0000 </r>
       <r>   -0.1629    1.0000 </r>
       <r>   -0.1543    1.0000 </r>
       <r>   -0.1408    1.0000 </r>
       <r>   -0.1388    1.0000 </r>
       <r>   -0.1242    1.0000 </r>
       <r>   -0.1180    1.0000 </r>
       <r>   -0.0976    1.0000 </r>
       <r>   -0.0954    1.0000 </r>
       <r>   -0.0740    1.0000 </r>
       <r>   -0.0668    1.0000 </r>
       <r>   -0.0571    1.0000 </r>
       <r>   -0.0490    1.0000 </r>
       <r>   -0.0373    1.0000 </r>
       <r>   -0.0265    1.0000 </r>
       <r>   -0.0010    1.0000 </r>
       <r>    0.0019    1.0000 </r>
       <r>    0.0162    1.0000 </r>
       <r>    0.0342    1.0000 </r>
       <r>    0.0470    1.0000 </r>
       <r>    0.0632    1.0000 </r>
       <r>    0.0729    1.0000 </r>
       <r>    0.0763    1.0000 </r>
       <r>    0.0923    1.0000 </r>
       <r>    0.0985    1.0000 </r>
       <r>    0.1157    1.0000 </r>
       <r>    0.1314    1.0000 </r>
       <r>    0.1393    1.0000 </r>
       <r>    0.1663    1.0000 </r>
       <r>    0.1743    1.0000 </r>
       <r>    0.1835    1.0000 </r>
       <r>    0.2205    1.0000 </r>
       <r>    0.2410    1.0000 </r>
       <r>    0.2486    1.0000 </r>
       <r>    0.2633    1.0000 </r>
       <r>    0.2741    1.0000 </r>
       <r>    0.3021    1.0000 </r>
       <r>    0.3048    1.0000 </r>
       <r>    0.3275    1.0000 </r>
       <r>    0.3700    1.0000 </r>
       <r>    0.3938    1.0000 </r>
       <r>    0.4046    1.0000 </r>
       <r>    0.4395    1.0000 </r>
       <r>    0.4523    1.0000 </r>
       <r>    0.4771    1.0000 </r>
       <r>    0.4897    1.0000 </r>
       <r>    0.5060    1.0000 </r>
       <r>    0.5207    1.0000 </r>
       <r>    0.5456    1.0000 </r>
       <r>    0.5585    1.0000 </r>
       <r>    0.5751    1.0000 </r>
       <r>    0.6204    1.0000 </r>
       <r>    0.6336    1.0000 </r>
       <r>    0.6471    1.0000 </r>
       <r>    0.6728    1.0000 </r>
       <r>    0.6775    1.0000 </r>
       <r>    0.6974    1.0000 </r>
       <r>    0.7229    1.0000 </r>
       <r>    0.7490    1.0000 </r>
       <r>    0.7563    1.0000 </r>
       <r>    0.7704    1.0000 </r>
       <r>    0.7841    1.0000 </r>
       <r>    0.7982    1.0000 </r>
       <r>    0.8329    1.0000 </r>
       <r>    0.8499    1.0000 </r>
       <r>    0.8690    1.0000 </r>
       <r>    0.8866    1.0000 </r>
       <r>    0.9375    0.9999 </r>
       <r>    0.9487    0.9999 </r>
       <r>    0.9765    0.9998 </r>
       <r>    1.0068    0.9995 </r>
       <r>    1.0192    0.9993 </r>
       <r>    1.0540    0.9984 </r>
       <r>    1.0606    0.9981 </r>
       <r>    1.1307    0.9919 </r>
       <r>    1.1607    0.9859 </r>
       <r>    1.1823    0.9794 </r>
       <r>    1.2408    0.9483 </r>
       <r>    1.2849    0.9059 </r>
       <r>    1.2895    0.9003 </r>
       <r>    1.3361    0.8300 </r>
       <r>    1.3641    0.7753 </r>
       <r>    1.3977    0.6979 </r>
       <r>    1.4762    0.4854 </r>
       <r>    1.4974    0.4259 </r>
       <r>    1.5436    0.3039 </r>
       <r>    1.5715    0.2387 </r>
       <r>    1.5736    0.2341 </r>
       <r>    1.6408    0.1149 </r>
       <r>    1.6614    0.0892 </r>
       <r>    1.7327    0.0322 </r>
       <r>    1.7468    0.0256 </r>
       <r>    1.7614    0.0200 </r>
       <r>    1.7995    0.0101 </r>
       <r>    1.8259    0.0061 </r>
       <r>    1.8810    0.0019 </r>
       <r>    1.8987    0.0012 </r>
       <r>    1.9332    0.0005 </r>
       <r>    1.9583    0.0003 </r>
       <r>    2.0209    0.0001 </r>
       <r>    2.0384    0.0000 </r>
       <r>    2.0481    0.0000 </r>
       <r>    2.1150    0.0000 </r>
       <r>    2.1586    0.0000 </r>
       <r>    2.1787    0.0000 </r>
       <r>    2.2167    0.0000 </r>
       <r>    2.2271    0.0000 </r>
       <r>    2.2761    0.0000 </r>
       <r>    2.3182    0.0000 </r>
       <r>    2.3438    0.0000 </r>
       <r>    2.3634    0.0000 </r>
       <r>    2.4009    0.0000 </r>
       <r>    2.4090    0.0000 </r>
       <r>    2.4704    0.0000 </r>
       <r>    2.4907    0.0000 </r>
       <r>    2.5170    0.0000 </r>
       <r>    2.5556    0.0000 </r>
       <r>    2.5937    0.0000 </r>
       <r>    2.6324    0.0000 </r>
       <r>    2.6886    0.0000 </r>
       <r>    2.8706    0.0000 </r>
       <r>    3.1198    0.0000 </r>
       <r>    3.2571    0.0000 </r>
       <r>    3.8879    0.0000 </r>
       <r>    3.9848    0.0000 </r>
       <r>    4.3809    0.0000 </r>
       <r>    4.6176    0.0000 </r>
       <r>    4.7850    0.0000 </r>
       <r>    4.8575    0.0000 </r>
       <r>    4.8801    0.0000 </r>
       <r>    4.9891    0.0000 </r>
       <r>    5.0350    0.0000 </r>
       <r>    5.2937    0.0000 </r>
       <r>    5.3901    0.0000 </r>
       <r>    5.5180    0.0000 </r>
       <r>    5.7046    0.0000 </r>
       <r>    5.7372    0.0000 </r>
       <r>    5.7646    0.0000 </r>
       <r>    5.9333    0.0000 </r>
       <r>    5.9940    0.0000 </r>
       <r>    6.0272    0.0000 </r>
       <r>    6.1857    0.0000 </r>
       <r>    6.2623    0.0000 </r>
       <r>    6.3087    0.0000 </r>
       <r>    6.3535    0.0000 </r>
       <r>    6.4035    0.0000 </r>
       <r>    6.4824    0.0000 </r>
       <r>    6.5769    0.0000 </r>
       <r>    6.6327    0.0000 </r>
       <r>    6.6917    0.0000 </r>
       <r>    6.8127    0.0000 </r>
       <r>    6.8766    0.0000 </r>
       <r>    6.9124    0.0000 </r>
       <r>    6.9554    0.0000 </r>
       <r>    7.0222    0.0000 </r>
       <r>    7.0419    0.0000 </r>
       <r>    7.0699    0.0000 </r>
       <r>    7.1099    0.0000 </r>
       <r>    7.1766    0.0000 </r>
       <r>    7.1884    0.0000 </r>
       <r>    7.2700    0.0000 </r>
       <r>    7.2993    0.0000 </r>
       <r>    7.3623    0.0000 </r>
       <r>    7.4014    0.0000 </r>
       <r>    7.4074    0.0000 </r>
       <r>    7.5093    0.0000 </r>
       <r>    7.5204    0.0000 </r>
       <r>    7.5862    0.0000 </r>
      </set>
     </set>
    </set>
   </array>
  </eigenvalues>
  <separator name="orbital magnetization" >
   <v name="MAGDIPOLOUT">      0.00000000      0.00000000      0.00000000</v>
  </separator>
  <dos>
   <i name="efermi">      1.47103451 </i>
   <total>
    <array>
     <dimension dim="1">gridpoints</dimension>
     <dimension dim="2">spin</dimension>
     <field>energy</field>
     <field>total</field>
     <field>integrated</field>
     <set>
      <set comment="spin 1">
       <r>   -66.2259     0.0000     0.0000 </r>
       <r>   -65.9681     0.0000     0.0000 </r>
       <r>   -65.7104     0.0000     0.0000 </r>
       <r>   -65.4526     0.0000     0.0000 </r>
       <r>   -65.1949     0.0000     0.0000 </r>
       <r>   -64.9371     0.0000     0.0000 </r>
       <r>   -64.6794     0.0000     0.0000 </r>
       <r>   -64.4216     0.0000     0.0000 </r>
       <r>   -64.1638     0.0000     0.0000 </r>
       <r>   -63.9061     0.0000     0.0000 </r>
       <r>   -63.6483     0.0000     0.0000 </r>
       <r>   -63.3906     0.0000     0.0000 </r>
       <r>   -63.1328     0.0941     0.0243 </r>
       <r>   -62.8751    15.2684     3.9598 </r>
       <r>   -62.6173   186.5968    52.0564 </r>
       <r>   -62.3596   294.0294   127.8444 </r>
       <r>   -62.1018   139.5324   163.8098 </r>
       <r>   -61.8440    59.3175   179.0993 </r>
       <r>   -61.5863    59.6660   194.4786 </r>
       <r>   -61.3285    44.4837   205.9446 </r>
       <r>   -61.0708    27.9814   213.1570 </r>
       <r>   -60.8130    10.2194   215.7911 </r>
       <r>   -60.5553     0.8056   215.9987 </r>
       <r>   -60.2975     0.0049   216.0000 </r>
       <r>   -60.0397     0.0000   216.0000 </r>
       <r>   -59.7820     0.0000   216.0000 </r>
       <r>   -59.5242     0.0000   216.0000 </r>
       <r>   -59.2665     0.0000   216.0000 </r>
       <r>   -59.0087     0.0000   216.0000 </r>
       <r>   -58.7510     0.0000   216.0000 </r>
       <r>   -58.4932     0.0000   216.0000 </r>
       <r>   -58.2354     0.0000   216.0000 </r>
       <r>   -57.9777     0.0000   216.0000 </r>
       <r>   -57.7199     0.0000   216.0000 </r>
       <r>   -57.4622     0.0000   216.0000 </r>
       <r>   -57.2044     0.0000   216.0000 </r>
       <r>   -56.9467     0.0000   216.0000 </r>
       <r>   -56.6889     0.0000   216.0000 </r>
       <r>   -56.4311     0.0000   216.0000 </r>
       <r>   -56.1734     0.0000   216.0000 </r>
       <r>   -55.9156     0.0000   216.0000 </r>
       <r>   -55.6579     0.0000   216.0000 </r>
       <r>   -55.4001     0.0000   216.0000 </r>
       <r>   -55.1424     0.0000   216.0000 </r>
       <r>   -54.8846     0.0000   216.0000 </r>
       <r>   -54.6269     0.0000   216.0000 </r>
       <r>   -54.3691     0.0000   216.0000 </r>
       <r>   -54.1113     0.0000   216.0000 </r>
       <r>   -53.8536     0.0000   216.0000 </r>
       <r>   -53.5958     0.0000   216.0000 </r>
       <r>   -53.3381     0.0000   216.0000 </r>
       <r>   -53.0803     0.0000   216.0000 </r>
       <r>   -52.8226     0.0000   216.0000 </r>
       <r>   -52.5648     0.0000   216.0000 </r>
       <r>   -52.3070     0.0000   216.0000 </r>
       <r>   -52.0493     0.0000   216.0000 </r>
       <r>   -51.7915     0.0000   216.0000 </r>
       <r>   -51.5338     0.0000   216.0000 </r>
       <r>   -51.2760     0.0000   216.0000 </r>
       <r>   -51.0183     0.0000   216.0000 </r>
       <r>   -50.7605     0.0000   216.0000 </r>
       <r>   -50.5027     0.0000   216.0000 </r>
       <r>   -50.2450     0.0000   216.0000 </r>
       <r>   -49.9872     0.0000   216.0000 </r>
       <r>   -49.7295     0.0000   216.0000 </r>
       <r>   -49.4717     0.0000   216.0000 </r>
       <r>   -49.2140     0.0000   216.0000 </r>
       <r>   -48.9562     0.0000   216.0000 </r>
       <r>   -48.6984     0.0000   216.0000 </r>
       <r>   -48.4407     0.0000   216.0000 </r>
       <r>   -48.1829     0.0000   216.0000 </r>
       <r>   -47.9252     0.0000   216.0000 </r>
       <r>   -47.6674     0.0000   216.0000 </r>
       <r>   -47.4097     0.0000   216.0000 </r>
       <r>   -47.1519     0.0000   216.0000 </r>
       <r>   -46.8941     0.0000   216.0000 </r>
       <r>   -46.6364     0.0000   216.0000 </r>
       <r>   -46.3786     0.0000   216.0000 </r>
       <r>   -46.1209     0.0000   216.0000 </r>
       <r>   -45.8631     0.0000   216.0000 </r>
       <r>   -45.6054     0.0000   216.0000 </r>
       <r>   -45.3476     0.0000   216.0000 </r>
       <r>   -45.0899     0.0000   216.0000 </r>
       <r>   -44.8321     0.0000   216.0000 </r>
       <r>   -44.5743     0.0000   216.0000 </r>
       <r>   -44.3166     0.0000   216.0000 </r>
       <r>   -44.0588     0.0000   216.0000 </r>
       <r>   -43.8011     0.0000   216.0000 </r>
       <r>   -43.5433     0.0000   216.0000 </r>
       <r>   -43.2856     0.0000   216.0000 </r>
       <r>   -43.0278     0.0000   216.0000 </r>
       <r>   -42.7700     0.0000   216.0000 </r>
       <r>   -42.5123     0.0000   216.0000 </r>
       <r>   -42.2545     0.0000   216.0000 </r>
       <r>   -41.9968     0.0000   216.0000 </r>
       <r>   -41.7390     0.0000   216.0000 </r>
       <r>   -41.4813     0.0000   216.0000 </r>
       <r>   -41.2235     0.0000   216.0000 </r>
       <r>   -40.9657     0.0000   216.0000 </r>
       <r>   -40.7080     0.0000   216.0000 </r>
       <r>   -40.4502     0.0000   216.0000 </r>
       <r>   -40.1925     0.0000   216.0000 </r>
       <r>   -39.9347     0.0000   216.0000 </r>
       <r>   -39.6770     0.0000   216.0000 </r>
       <r>   -39.4192     0.0000   216.0000 </r>
       <r>   -39.1614     0.0000   216.0000 </r>
       <r>   -38.9037     0.0000   216.0000 </r>
       <r>   -38.6459     0.0000   216.0000 </r>
       <r>   -38.3882     0.0000   216.0000 </r>
       <r>   -38.1304     0.0000   216.0000 </r>
       <r>   -37.8727     0.0000   216.0000 </r>
       <r>   -37.6149     0.0000   216.0000 </r>
       <r>   -37.3572     0.0000   216.0000 </r>
       <r>   -37.0994     0.0000   216.0000 </r>
       <r>   -36.8416     0.0000   216.0000 </r>
       <r>   -36.5839     0.0000   216.0000 </r>
       <r>   -36.3261     0.0000   216.0000 </r>
       <r>   -36.0684     0.0000   216.0000 </r>
       <r>   -35.8106     0.0000   216.0000 </r>
       <r>   -35.5529     0.0000   216.0000 </r>
       <r>   -35.2951     0.0000   216.0000 </r>
       <r>   -35.0373     0.0000   216.0000 </r>
       <r>   -34.7796     0.0000   216.0000 </r>
       <r>   -34.5218     0.0000   216.0000 </r>
       <r>   -34.2641     0.0000   216.0000 </r>
       <r>   -34.0063     0.0000   216.0000 </r>
       <r>   -33.7486     0.0000   216.0000 </r>
       <r>   -33.4908     0.0000   216.0000 </r>
       <r>   -33.2330     0.0000   216.0000 </r>
       <r>   -32.9753     0.0000   216.0000 </r>
       <r>   -32.7175     0.0000   216.0000 </r>
       <r>   -32.4598     0.0000   216.0000 </r>
       <r>   -32.2020     0.0000   216.0000 </r>
       <r>   -31.9443     0.0000   216.0000 </r>
       <r>   -31.6865     0.0000   216.0000 </r>
       <r>   -31.4287     0.0000   216.0000 </r>
       <r>   -31.1710     0.0000   216.0000 </r>
       <r>   -30.9132     0.0000   216.0000 </r>
       <r>   -30.6555     0.0000   216.0000 </r>
       <r>   -30.3977     0.0000   216.0000 </r>
       <r>   -30.1400     0.0000   216.0000 </r>
       <r>   -29.8822     0.0000   216.0000 </r>
       <r>   -29.6245     0.0000   216.0000 </r>
       <r>   -29.3667     0.0000   216.0000 </r>
       <r>   -29.1089     0.0000   216.0000 </r>
       <r>   -28.8512     0.0000   216.0000 </r>
       <r>   -28.5934     0.0000   216.0000 </r>
       <r>   -28.3357     0.0000   216.0000 </r>
       <r>   -28.0779     0.0000   216.0000 </r>
       <r>   -27.8202     0.0000   216.0000 </r>
       <r>   -27.5624     0.0000   216.0000 </r>
       <r>   -27.3046     0.0000   216.0000 </r>
       <r>   -27.0469     0.0000   216.0000 </r>
       <r>   -26.7891     0.0000   216.0000 </r>
       <r>   -26.5314     0.0000   216.0000 </r>
       <r>   -26.2736     0.0000   216.0000 </r>
       <r>   -26.0159     0.0000   216.0000 </r>
       <r>   -25.7581     0.0000   216.0000 </r>
       <r>   -25.5003     0.0000   216.0000 </r>
       <r>   -25.2426     0.0000   216.0000 </r>
       <r>   -24.9848     0.0000   216.0000 </r>
       <r>   -24.7271     0.0000   216.0000 </r>
       <r>   -24.4693     0.0000   216.0000 </r>
       <r>   -24.2116     0.0000   216.0000 </r>
       <r>   -23.9538     0.0000   216.0000 </r>
       <r>   -23.6960     0.0000   216.0000 </r>
       <r>   -23.4383     0.0000   216.0000 </r>
       <r>   -23.1805     0.0000   216.0000 </r>
       <r>   -22.9228     0.0000   216.0000 </r>
       <r>   -22.6650     0.0000   216.0000 </r>
       <r>   -22.4073     0.0000   216.0000 </r>
       <r>   -22.1495     0.0000   216.0000 </r>
       <r>   -21.8917     0.0000   216.0000 </r>
       <r>   -21.6340     0.0000   216.0000 </r>
       <r>   -21.3762     0.0000   216.0000 </r>
       <r>   -21.1185     0.0000   216.0000 </r>
       <r>   -20.8607     0.0000   216.0000 </r>
       <r>   -20.6030     0.0000   216.0000 </r>
       <r>   -20.3452     0.0000   216.0000 </r>
       <r>   -20.0875     0.0000   216.0000 </r>
       <r>   -19.8297     0.0000   216.0000 </r>
       <r>   -19.5719     0.0000   216.0000 </r>
       <r>   -19.3142     0.0000   216.0000 </r>
       <r>   -19.0564     0.0000   216.0000 </r>
       <r>   -18.7987     0.0000   216.0000 </r>
       <r>   -18.5409     0.0000   216.0000 </r>
       <r>   -18.2832     0.0000   216.0000 </r>
       <r>   -18.0254     0.0000   216.0000 </r>
       <r>   -17.7676     0.0000   216.0000 </r>
       <r>   -17.5099     0.0000   216.0000 </r>
       <r>   -17.2521     0.0000   216.0000 </r>
       <r>   -16.9944     0.0000   216.0000 </r>
       <r>   -16.7366     0.0000   216.0000 </r>
       <r>   -16.4789     0.0000   216.0000 </r>
       <r>   -16.2211     0.0000   216.0000 </r>
       <r>   -15.9633     0.0000   216.0000 </r>
       <r>   -15.7056     0.0000   216.0000 </r>
       <r>   -15.4478     0.0000   216.0000 </r>
       <r>   -15.1901     0.0000   216.0000 </r>
       <r>   -14.9323     0.0000   216.0000 </r>
       <r>   -14.6746     0.0000   216.0000 </r>
       <r>   -14.4168     0.0059   216.0015 </r>
       <r>   -14.1590     0.6838   216.1778 </r>
       <r>   -13.9013     4.6069   217.3653 </r>
       <r>   -13.6435     2.4614   217.9997 </r>
       <r>   -13.3858     3.1658   218.8157 </r>
       <r>   -13.1280    14.7583   222.6198 </r>
       <r>   -12.8703    20.1041   227.8017 </r>
       <r>   -12.6125    25.5765   234.3943 </r>
       <r>   -12.3548    28.5927   241.7642 </r>
       <r>   -12.0970    29.0539   249.2530 </r>
       <r>   -11.8392    35.6642   258.4457 </r>
       <r>   -11.5815    34.1220   267.2409 </r>
       <r>   -11.3237    23.7700   273.3678 </r>
       <r>   -11.0660    19.4844   278.3900 </r>
       <r>   -10.8082    16.9517   282.7594 </r>
       <r>   -10.5505    11.7891   285.7982 </r>
       <r>   -10.2927     6.3386   287.4320 </r>
       <r>   -10.0349     2.1402   287.9836 </r>
       <r>    -9.7772     0.0634   288.0000 </r>
       <r>    -9.5194     0.0001   288.0000 </r>
       <r>    -9.2617     0.0000   288.0000 </r>
       <r>    -9.0039     0.0000   288.0000 </r>
       <r>    -8.7462     0.0000   288.0000 </r>
       <r>    -8.4884     0.0000   288.0000 </r>
       <r>    -8.2306     0.0000   288.0000 </r>
       <r>    -7.9729     0.0000   288.0000 </r>
       <r>    -7.7151     0.0000   288.0000 </r>
       <r>    -7.4574     0.0000   288.0000 </r>
       <r>    -7.1996     0.0000   288.0000 </r>
       <r>    -6.9419     0.0000   288.0000 </r>
       <r>    -6.6841     0.0000   288.0000 </r>
       <r>    -6.4263     0.0000   288.0000 </r>
       <r>    -6.1686     0.0101   288.0026 </r>
       <r>    -5.9108     1.3003   288.3378 </r>
       <r>    -5.6531    12.0834   291.4523 </r>
       <r>    -5.3953    16.1890   295.6252 </r>
       <r>    -5.1376    22.5628   301.4409 </r>
       <r>    -4.8798    37.0290   310.9853 </r>
       <r>    -4.6221    51.4670   324.2513 </r>
       <r>    -4.3643    49.1530   336.9208 </r>
       <r>    -4.1065    36.6417   346.3655 </r>
       <r>    -3.8488    35.0801   355.4076 </r>
       <r>    -3.5910    42.9397   366.4756 </r>
       <r>    -3.3333    42.7826   377.5031 </r>
       <r>    -3.0755    53.6023   391.3195 </r>
       <r>    -2.8178    72.9951   410.1345 </r>
       <r>    -2.5600    76.0033   429.7248 </r>
       <r>    -2.3022    73.5686   448.6876 </r>
       <r>    -2.0445    60.5644   464.2985 </r>
       <r>    -1.7867    46.6693   476.3278 </r>
       <r>    -1.5290    43.6520   487.5794 </r>
       <r>    -1.2712    55.5702   501.9030 </r>
       <r>    -1.0135    66.9664   519.1640 </r>
       <r>    -0.7557    91.9683   542.8695 </r>
       <r>    -0.4979   112.7018   571.9191 </r>
       <r>    -0.2402   155.7239   612.0580 </r>
       <r>     0.0176   176.2163   657.4789 </r>
       <r>     0.2753   136.8949   692.7645 </r>
       <r>     0.5331   104.6013   719.7262 </r>
       <r>     0.7908   101.5836   745.9100 </r>
       <r>     1.0486    83.7130   767.4876 </r>
       <r>     1.3064    60.5089   783.0842 </r>
       <r>     1.5641    54.3762   797.1000 </r>
       <r>     1.8219    58.2332   812.1100 </r>
       <r>     2.0796    59.3303   827.4028 </r>
       <r>     2.3374    60.7867   843.0710 </r>
       <r>     2.5951    56.0984   857.5307 </r>
       <r>     2.8529    26.8761   864.4582 </r>
       <r>     3.1107    10.4637   867.1553 </r>
       <r>     3.3684     9.0569   869.4898 </r>
       <r>     3.6262     2.2355   870.0660 </r>
       <r>     3.8839     5.3835   871.4536 </r>
       <r>     4.1417     8.9152   873.7516 </r>
       <r>     4.3994     5.7434   875.2320 </r>
       <r>     4.6572    10.0933   877.8336 </r>
       <r>     4.9149    20.5099   883.1201 </r>
       <r>     5.1727    18.6852   887.9364 </r>
       <r>     5.4305    13.9086   891.5214 </r>
       <r>     5.6882    17.7164   896.0879 </r>
       <r>     5.9460    23.2197   902.0730 </r>
       <r>     6.2037    24.3004   908.3365 </r>
       <r>     6.4615    29.8266   916.0246 </r>
       <r>     6.7192    28.1613   923.2833 </r>
       <r>     6.9770    35.0081   932.3069 </r>
       <r>     7.2348    45.1790   943.9521 </r>
       <r>     7.4925    40.8299   954.4762 </r>
       <r>     7.7503    19.5842   959.5242 </r>
       <r>     8.0080     1.8309   959.9961 </r>
       <r>     8.2658     0.0151   960.0000 </r>
       <r>     8.5235     0.0000   960.0000 </r>
       <r>     8.7813     0.0000   960.0000 </r>
       <r>     9.0391     0.0000   960.0000 </r>
       <r>     9.2968     0.0000   960.0000 </r>
       <r>     9.5546     0.0000   960.0000 </r>
       <r>     9.8123     0.0000   960.0000 </r>
       <r>    10.0701     0.0000   960.0000 </r>
       <r>    10.3278     0.0000   960.0000 </r>
       <r>    10.5856     0.0000   960.0000 </r>
       <r>    10.8434     0.0000   960.0000 </r>
       <r>    11.1011     0.0000   960.0000 </r>
      </set>
     </set>
    </array>
   </total>
  </dos>
 </calculation>
 <structure name="finalpos" >
  <crystal>
   <varray name="basis" >
    <v>       9.42510255       3.57329804       0.00000000 </v>
    <v>       0.00000000      10.07973298       0.00000000 </v>
    <v>       0.00000000       0.00000000      20.68350356 </v>
   </varray>
   <i name="volume">   1964.98490008 </i>
   <varray name="rec_basis" >
    <v>       0.10609964       0.00000000       0.00000000 </v>
    <v>      -0.03761267       0.09920898       0.00000000 </v>
    <v>       0.00000000       0.00000000       0.04834771 </v>
   </varray>
  </crystal>
  <varray name="positions" >
   <v>       0.39705889       0.79495179       0.11816221 </v>
   <v>       0.54732740       0.64468328       0.24509923 </v>
   <v>       0.69759592       0.49441477       0.37203625 </v>
   <v>       0.84786443       0.34414625       0.49897328 </v>
   <v>       0.11381506       0.41152895       0.16047455 </v>
   <v>       0.26408357       0.26126044       0.28741157 </v>
   <v>       0.41435209       0.11099193       0.41434860 </v>
   <v>       0.96354655       0.56179747       0.03353752 </v>
   <v>       0.13110826       0.72756909       0.45666094 </v>
   <v>       0.83057123       0.02810612       0.20278689 </v>
   <v>       0.98083974       0.87783760       0.32972391 </v>
   <v>       0.35735705       0.57044763       0.08462468 </v>
   <v>       0.50762556       0.42017912       0.21156171 </v>
   <v>       0.65789407       0.26991061       0.33849873 </v>
   <v>       0.80816258       0.11964210       0.46543576 </v>
   <v>       0.07411322       0.18702480       0.12693702 </v>
   <v>       0.22438173       0.03675628       0.25387405 </v>
   <v>       0.37465024       0.88648777       0.38081107 </v>
   <v>       0.52491876       0.73621926       0.50774810 </v>
   <v>       0.92384471       0.33729331       0.00000000 </v>
   <v>       0.09140641       0.50306493       0.42312341 </v>
   <v>       0.64060088       0.95387047       0.04231234 </v>
   <v>       0.79086939       0.80360196       0.16924937 </v>
   <v>       0.94113790       0.65333345       0.29618639 </v>
   <v>       0.03266674       0.15934394       0.43189823 </v>
   <v>       0.58186121       0.61014948       0.05108716 </v>
   <v>       0.73212972       0.45988096       0.17802418 </v>
   <v>       0.88239823       0.30961245       0.30496121 </v>
   <v>       0.29861738       0.22672664       0.09339950 </v>
   <v>       0.44888589       0.07645813       0.22033653 </v>
   <v>       0.59915440       0.92618961       0.34727355 </v>
   <v>       0.01537355       0.84330380       0.13571184 </v>
   <v>       0.16564206       0.69303529       0.26264887 </v>
   <v>       0.31591057       0.54276678       0.38958589 </v>
   <v>       0.46617908       0.39249826       0.51652292 </v>
   <v>       0.86510503       0.99357231       0.00877482 </v>
   <v>       0.03660483       0.95519385       0.48928282 </v>
   <v>       0.58579929       0.40599939       0.10847175 </v>
   <v>       0.73606780       0.25573088       0.23540877 </v>
   <v>       0.88633632       0.10546237       0.36234580 </v>
   <v>       0.15228695       0.17284506       0.02384707 </v>
   <v>       0.30255546       0.02257655       0.15078409 </v>
   <v>       0.45282398       0.87230804       0.27772111 </v>
   <v>       0.60309249       0.72203953       0.40465814 </v>
   <v>       0.01931163       0.63915371       0.19309643 </v>
   <v>       0.16958015       0.48888520       0.32003346 </v>
   <v>       0.31984866       0.33861669       0.44697048 </v>
   <v>       0.86904312       0.78942223       0.06615941 </v>
   <v>       0.48608562       0.84214307       0.02424015 </v>
   <v>       0.63635413       0.69187455       0.15117717 </v>
   <v>       0.78662264       0.54160604       0.27811420 </v>
   <v>       0.93689115       0.39133753       0.40505122 </v>
   <v>       0.20284179       0.45872023       0.06655249 </v>
   <v>       0.35311030       0.30845172       0.19348951 </v>
   <v>       0.50337881       0.15818320       0.32042654 </v>
   <v>       0.65364732       0.00791469       0.44736356 </v>
   <v>       0.06986647       0.92502888       0.23580185 </v>
   <v>       0.22013498       0.77476037       0.36273888 </v>
   <v>       0.37040349       0.62449185       0.48967590 </v>
   <v>       0.91959796       0.07529739       0.10886483 </v>
   <v>       0.20021045       0.79158823       0.06694557 </v>
   <v>       0.35047896       0.64131972       0.19388259 </v>
   <v>       0.50074747       0.49105121       0.32081962 </v>
   <v>       0.65101599       0.34078269       0.44775664 </v>
   <v>       0.06723513       0.25789688       0.23619494 </v>
   <v>       0.21750365       0.10762837       0.36313196 </v>
   <v>       0.36777216       0.95735986       0.49006899 </v>
   <v>       0.91696662       0.40816539       0.10925791 </v>
   <v>       0.48345428       0.17501107       0.02463323 </v>
   <v>       0.63372279       0.02474256       0.15157025 </v>
   <v>       0.78399130       0.87447404       0.27850728 </v>
   <v>       0.93425982       0.72420553       0.40544430 </v>
  </varray>
 </structure>
</modeling>
