LAMMPS (5 Jun 2019)
OMP_NUM_THREADS environment is not set. Defaulting to 1 thread. (../comm.cpp:88)
  using 1 OpenMP thread(s) per MPI task
Reading data file ...
  triclinic box = (0 0 0) to (9.57841 11.2565 17.7114) with tilt (0 0 0)
  1 by 1 by 1 MPI processor grid
  reading atoms ...
  60 atoms
  read_data CPU = 0.000754874 secs
32 atoms in group bulk
WARNING: Using 'neigh_modify every 1 delay 0 check yes' setting during minimization (../min.cpp:168)
Neighbor list info ...
  update every 1 steps, delay 0 steps, check yes
  max neighbors/atom: 2000, page size: 100000
  master list distance cutoff = 8.5
  ghost atom cutoff = 8.5
  binsize = 4.25, bins = 3 3 5
  1 neighbor lists, perpetual/occasional/extra = 1 0 0
  (1) pair eam/alloy, perpetual
      attributes: half, newton on
      pair build: half/bin/newton/tri
      stencil: half/bin/3d/newton/tri
      bin: standard
Setting up cg style minimization ...
  Unit style    : metal
  Current step  : 0
Per MPI rank memory allocation (min/avg/max) = 4.109 | 4.109 | 4.109 Mbytes
Step Temp E_pair E_mol TotEng Press 
       0            0   -250.75714            0   -250.75714   -113718.71 
      27            0   -271.85939            0   -271.85939   -22226.542 
Loop time of 0.0130951 on 1 procs for 27 steps with 60 atoms

99.8% CPU use with 1 MPI tasks x 1 OpenMP threads

Minimization stats:
  Stopping criterion = energy tolerance
  Energy initial, next-to-last, final = 
        -250.757141908     -271.856738177     -271.859388207
  Force two-norm initial, final = 12.2137 0.177385
  Force max component initial, final = 3.70634 0.0806777
  Final line search alpha, max atom move = 1 0.0806777
  Iterations, force evaluations = 27 38

MPI task timing breakdown:
Section |  min time  |  avg time  |  max time  |%varavg| %total
---------------------------------------------------------------
Pair    | 0.012008   | 0.012008   | 0.012008   |   0.0 | 91.70
Neigh   | 0.00040078 | 0.00040078 | 0.00040078 |   0.0 |  3.06
Comm    | 0.00032647 | 0.00032647 | 0.00032647 |   0.0 |  2.49
Output  | 0          | 0          | 0          |   0.0 |  0.00
Modify  | 3.7573e-05 | 3.7573e-05 | 3.7573e-05 |   0.0 |  0.29
Other   |            | 0.0003224  |            |       |  2.46

Nlocal:    60 ave 60 max 60 min
Histogram: 1 0 0 0 0 0 0 0 0 0
Nghost:    804 ave 804 max 804 min
Histogram: 1 0 0 0 0 0 0 0 0 0
Neighs:    3324 ave 3324 max 3324 min
Histogram: 1 0 0 0 0 0 0 0 0 0

Total # of neighbors = 3324
Ave neighs/atom = 55.4
Neighbor list builds = 1
Dangerous builds = 0
System init for write_data ...
Total wall time: 0:00:00
