       N       E                     dE             d eps       ncg     rms          rms(c)
DAV:   1     0.982526719681E+04    0.98253E+04   -0.50822E+05  1168   0.164E+03
DAV:   2     0.621281564727E+03   -0.92040E+04   -0.88635E+04  1016   0.526E+02
DAV:   3    -0.342753318830E+03   -0.96403E+03   -0.90875E+03  1096   0.181E+02
DAV:   4    -0.406049998639E+03   -0.63297E+02   -0.62480E+02  1120   0.411E+01
DAV:   5    -0.408524377497E+03   -0.24744E+01   -0.24700E+01  1240   0.873E+00    0.817E+01
DAV:   6    -0.488393660116E+03   -0.79869E+02   -0.95971E+02  1160   0.116E+02    0.153E+02
DAV:   7    -0.378619974221E+03    0.10977E+03   -0.18099E+02  1120   0.676E+01    0.624E+01
DAV:   8    -0.520155655202E+03   -0.14154E+03   -0.13197E+02  1184   0.102E+02    0.173E+02
DAV:   9    -0.378303762244E+03    0.14185E+03   -0.16434E+02  1232   0.572E+01    0.585E+01
DAV:  10    -0.378785599370E+03   -0.48184E+00   -0.64118E+01  1328   0.474E+01    0.663E+01
DAV:  11    -0.374177681153E+03    0.46079E+01   -0.65483E+01  1312   0.449E+01    0.449E+01
DAV:  12    -0.373689737114E+03    0.48794E+00   -0.25969E+01  1264   0.347E+01    0.687E+01
DAV:  13    -0.367396210143E+03    0.62935E+01   -0.12791E+01  1296   0.172E+01    0.354E+01
DAV:  14    -0.363121593054E+03    0.42746E+01   -0.10356E+01  1304   0.216E+01    0.268E+01
DAV:  15    -0.361296299104E+03    0.18253E+01   -0.54410E+00  1272   0.145E+01    0.193E+01
DAV:  16    -0.360382898988E+03    0.91340E+00   -0.17407E+00  1264   0.785E+00    0.156E+01
DAV:  17    -0.360251221930E+03    0.13168E+00   -0.11752E+00  1264   0.602E+00    0.149E+01
DAV:  18    -0.359784418585E+03    0.46680E+00   -0.40040E-01  1296   0.387E+00    0.122E+01
DAV:  19    -0.359768762350E+03    0.15656E-01   -0.54707E-01  1248   0.517E+00    0.120E+01
DAV:  20    -0.359398628053E+03    0.37013E+00   -0.34244E-01  1352   0.417E+00    0.899E+00
DAV:  21    -0.359214543614E+03    0.18408E+00   -0.29108E-01  1288   0.329E+00    0.749E+00
DAV:  22    -0.359098063562E+03    0.11648E+00   -0.30473E-01  1304   0.327E+00    0.607E+00
DAV:  23    -0.359019193068E+03    0.78870E-01   -0.27800E-01  1304   0.343E+00    0.446E+00
DAV:  24    -0.359005972606E+03    0.13220E-01   -0.20350E-01  1296   0.288E+00    0.399E+00
DAV:  25    -0.358967813532E+03    0.38159E-01   -0.11575E-01  1184   0.211E+00    0.265E+00
DAV:  26    -0.358955641651E+03    0.12172E-01   -0.40549E-02  1304   0.119E+00    0.205E+00
DAV:  27    -0.358952693959E+03    0.29477E-02   -0.32288E-02  1208   0.132E+00    0.186E+00
DAV:  28    -0.358954873715E+03   -0.21798E-02   -0.33772E-02  1288   0.133E+00    0.187E+00
DAV:  29    -0.358945127414E+03    0.97463E-02   -0.35234E-02  1256   0.132E+00    0.138E+00
DAV:  30    -0.358942681878E+03    0.24455E-02   -0.16979E-02  1312   0.785E-01    0.103E+00
DAV:  31    -0.358938838266E+03    0.38436E-02   -0.60355E-03  1288   0.564E-01    0.492E-01
DAV:  32    -0.358939221790E+03   -0.38352E-03   -0.21108E-03  1232   0.271E-01    0.484E-01
DAV:  33    -0.358938788539E+03    0.43325E-03   -0.13026E-03  1096   0.255E-01    0.322E-01
DAV:  34    -0.358939345250E+03   -0.55671E-03   -0.10474E-03  1000   0.225E-01    0.371E-01
DAV:  35    -0.358939081281E+03    0.26397E-03   -0.73021E-04   984   0.210E-01    0.163E-01
DAV:  36    -0.358939332413E+03   -0.25113E-03   -0.19667E-04   608   0.106E-01    0.151E-01
DAV:  37    -0.358939424063E+03   -0.91651E-04   -0.15835E-04   600   0.904E-02
   1 F= -.35893942E+03 E0= -.35840501E+03  d E =-.106884E+01
