LAMMPS data file via write_data, version 5 Jun 2019, timestep = 32

96 atoms
2 atom types

0.0000000000000000e+00 1.1256463038200000e+01 xlo xhi
0.0000000000000000e+00 1.0062820337100000e+01 ylo yhi
0.0000000000000000e+00 2.2519955973199998e+01 zlo zhi
5.0445621212000002e+00 0.0000000000000000e+00 0.0000000000000000e+00 xy xz yz

Masses

1 58.71
2 32.06

Atoms # atomic

1 1 5.3522814431000008e+00 4.8178808643000002e+00 6.6478400406000011e+00 0 0 0
2 1 5.9359508271000001e+00 3.8723796037999998e+00 9.5838980147000026e+00 0 0 0
3 1 6.6013752384018165e+00 2.8124136240407798e+00 1.2104123596145305e+01 0 0 0
4 1 2.2463310804000001e+00 7.3197209720000000e-01 3.7117820891000011e+00 0 0 0
5 1 5.3967045661137880e-01 4.8299494544869986e-01 1.1058312630086030e+01 0 0 0
6 1 4.7686120570000003e+00 3.3545317850999998e+00 2.9360579516000000e+00 0 0 0
7 1 5.3522814460000001e+00 2.4090305346999998e+00 5.8721159257000002e+00 0 0 0
8 1 5.9359508186999994e+00 1.4635292742000003e+00 8.8081738772000016e+00 0 0 0
9 1 1.8774643570999998e+00 3.7383592494000006e+00 5.8721159257000002e+00 0 0 0
10 1 2.4611337298999998e+00 2.7928579888999998e+00 8.8081738772000016e+00 0 0 0
11 1 3.0793968588200173e+00 2.1162980825894691e+00 1.1157115324967025e+01 0 0 0
12 1 6.9220263184000004e+00 4.6838604998999998e+00 2.9360579516000000e+00 0 0 0
13 1 1.0980512962200001e+01 4.8178808643000002e+00 6.6478400406000011e+00 0 0 0
14 1 1.1564182346200001e+01 3.8723796037999998e+00 9.5838980147000026e+00 0 0 0
15 1 7.1015732376024197e+00 2.2154374942142736e+00 2.0417831848095678e+00 0 0 0
16 1 7.8745625994999999e+00 7.3197209720000000e-01 3.7117820891000011e+00 0 0 0
17 1 6.3878189004103865e+00 5.1986546102687847e-01 1.1301416304200618e+01 0 0 0
18 1 1.0396843576099998e+01 3.3545317850999998e+00 2.9360579516000000e+00 0 0 0
19 1 1.0980512965100001e+01 2.4090305346999998e+00 5.8721159257000002e+00 0 0 0
20 1 1.1564182337800000e+01 1.4635292742000003e+00 8.8081738772000016e+00 0 0 0
21 1 7.5056958762999999e+00 3.7383592494000006e+00 5.8721159257000002e+00 0 0 0
22 1 8.0893652490000001e+00 2.7928579888999998e+00 8.8081738772000016e+00 0 0 0
23 1 8.8277753051851562e+00 2.0004592201215980e+00 1.1207617081388744e+01 0 0 0
24 1 1.2550257837500000e+01 4.6838604998999998e+00 2.9360579516000000e+00 0 0 0
25 1 8.1846239239179557e+00 1.0337173480442642e-01 1.2189603868580916e+00 0 0 0
26 1 7.8745625037000000e+00 9.8492910329000001e+00 6.6478400406000011e+00 0 0 0
27 1 8.4582318877000002e+00 8.9037897723999997e+00 9.5838980147000026e+00 0 0 0
28 1 8.9759227725688984e+00 7.8746062157143761e+00 1.1944069107661074e+01 0 0 0
29 1 4.7686121410000002e+00 5.7633822657000016e+00 3.7117820891000011e+00 0 0 0
30 1 2.5410303853570388e+00 2.1703546282931813e-01 1.3290907071502198e+00 0 1 0
31 1 7.2908931174999996e+00 8.3859419535999997e+00 2.9360579516000000e+00 0 0 0
32 1 7.8745625066000011e+00 7.4404407032000011e+00 5.8721159257000002e+00 0 0 0
33 1 8.4582318792999995e+00 6.4949394426999998e+00 8.8081738772000016e+00 0 0 0
34 1 4.3997454177000002e+00 8.7697694178999992e+00 5.8721159257000002e+00 0 0 0
35 1 4.9834147905000004e+00 7.8242681574000015e+00 8.8081738772000016e+00 0 0 0
36 1 9.4443073789999996e+00 9.7152706684000005e+00 2.9360579516000000e+00 0 0 0
37 1 1.3502794022799998e+01 9.8492910329000001e+00 6.6478400406000011e+00 0 0 0
38 1 1.4086463406800000e+01 8.9037897723999997e+00 9.5838980147000026e+00 0 0 0
39 1 1.4442624243875448e+01 8.2780585959145441e+00 1.1904790860695394e+01 0 0 0
40 1 1.0396843660100000e+01 5.7633822657000016e+00 3.7117820891000011e+00 0 0 0
41 1 8.7783444714619243e+00 5.6256416626280599e+00 1.1163402606910527e+01 0 0 0
42 1 1.2919124636699998e+01 8.3859419535999997e+00 2.9360579516000000e+00 0 0 0
43 1 1.3502794025700000e+01 7.4404407032000011e+00 5.8721159257000002e+00 0 0 0
44 1 1.4086463398399999e+01 6.4949394426999998e+00 8.8081738772000016e+00 0 0 0
45 1 1.0027976936900000e+01 8.7697694178999992e+00 5.8721159257000002e+00 0 0 0
46 1 1.0611646309599999e+01 7.8242681574000015e+00 8.8081738772000016e+00 0 0 0
47 1 1.1349180388829421e+01 7.0591952817014887e+00 1.1191699054521312e+01 0 0 0
48 1 1.5072538898099999e+01 9.7152706684000005e+00 2.9360579516000000e+00 0 0 0
49 2 1.6618956012999999e+00 1.6787143752000000e+00 7.0115334562000013e+00 0 0 0
50 2 2.2455649853000001e+00 7.3321311469999995e-01 9.9475914302999993e+00 0 0 0
51 2 5.9971771500477784e+00 3.7734875039368561e+00 1.3510446636366589e+00 0 0 0
52 2 6.7064575737999998e+00 2.6242156256000002e+00 4.0754755046000000e+00 0 0 0
53 2 2.1049112986988412e+00 3.7795544966530676e+00 1.0591373603718644e+01 0 0 0
54 2 7.2901269524000005e+00 4.7460539319999997e+00 7.9993114444000009e+00 0 0 0
55 2 3.6713261381778954e+00 1.5682811196113835e+00 2.4100522370432551e+00 0 0 0
56 2 4.1841765896999998e+00 6.6014516489999997e-01 5.0632534928000004e+00 0 0 0
57 2 3.3503378495082297e+00 4.8259784305885800e+00 2.5380708685524915e+00 0 0 0
58 2 3.9643807088999998e+00 3.9988379098000002e+00 5.0632534928000004e+00 0 0 0
59 2 4.5480500867000000e+00 3.0533366593000002e+00 7.9993114444000009e+00 0 0 0
60 2 5.1317194706999976e+00 2.1078353987999998e+00 1.0935369395900002e+01 0 0 0
61 2 7.2901271205000002e+00 1.6787143752000000e+00 7.0115334562000013e+00 0 0 0
62 2 7.8737965043999996e+00 7.3321311469999995e-01 9.9475914302999993e+00 0 0 0
63 2 1.1554758475084334e+01 3.8831232494648606e+00 1.4085039223500795e+00 0 0 0
64 2 1.2334689093000000e+01 2.6242156256000002e+00 4.0754755046000000e+00 0 0 0
65 2 7.8737964940000005e+00 3.8005526715000006e+00 1.0935369395900002e+01 0 0 0
66 2 1.2918358471499999e+01 4.7460539319999997e+00 7.9993114444000009e+00 0 0 0
67 2 9.2287387198000026e+00 1.6056464153000001e+00 2.1271955186999998e+00 0 0 0
68 2 9.8124081087999997e+00 6.6014516489999997e-01 5.0632534928000004e+00 0 0 0
69 2 8.9821041621170021e+00 4.8201687994404683e+00 2.5252261285875259e+00 0 0 0
70 2 9.5926122281000001e+00 3.9988379098000002e+00 5.0632534928000004e+00 0 0 0
71 2 1.0176281605799995e+01 3.0533366593000002e+00 7.9993114444000009e+00 0 0 0
72 2 1.0819639128783693e+01 2.2275426739509476e+00 1.0655665619681001e+01 0 0 0
73 2 4.1841766618999996e+00 6.7101245437000001e+00 7.0115334562000013e+00 0 0 0
74 2 4.7639547496924051e+00 5.7601427247776424e+00 9.3896187685194974e+00 0 0 0
75 2 8.6587670388716838e+00 8.5806450545541146e+00 1.4084968398436128e+00 0 0 0
76 2 9.2287386344000009e+00 7.6556257941999997e+00 4.0754755046000000e+00 0 0 0
77 2 4.6746786894028753e+00 8.7465964079608316e+00 1.0655101436280493e+01 0 0 0
78 2 9.8124080130000007e+00 9.7774641004999996e+00 7.9993114444000009e+00 0 0 0
79 2 6.2368698934122904e+00 6.6094180857747924e+00 2.5312495571828557e+00 0 0 0
80 2 6.7064576503000000e+00 5.6915553334000002e+00 5.0632534928000004e+00 0 0 0
81 2 5.8820120592293739e+00 9.8819794527423088e+00 2.4189789599043405e+00 0 0 0
82 2 6.4866617695000004e+00 9.0302480782999996e+00 5.0632534928000004e+00 0 0 0
83 2 7.0703311473000010e+00 8.0847468279000001e+00 7.9993114444000009e+00 0 0 0
84 2 7.6154774317571121e+00 7.2426878061066295e+00 1.0587822406849822e+01 0 0 0
85 2 9.8124081810000003e+00 6.7101245437000001e+00 7.0115334562000013e+00 0 0 0
86 2 1.0396077565000002e+01 5.7646232831999997e+00 9.9475914302999993e+00 0 0 0
87 2 1.4333240344629058e+01 8.5023447196007815e+00 1.4506152439140287e+00 0 0 0
88 2 1.4856970153500001e+01 7.6556257941999997e+00 4.0754755046000000e+00 0 0 0
89 2 1.0396077554600000e+01 8.8319628399999992e+00 1.0935369395900002e+01 0 0 0
90 2 1.5440639532100001e+01 9.7774641004999996e+00 7.9993114444000009e+00 0 0 0
91 2 1.1872374063601349e+01 6.6150173506043775e+00 2.5432132961623251e+00 0 0 0
92 2 1.2334689169400001e+01 5.6915553334000002e+00 5.0632534928000004e+00 0 0 0
93 2 6.4631521718181597e+00 8.3920836143650257e-03 2.3504647460492833e+00 0 1 0
94 2 1.2114893288699999e+01 9.0302480782999996e+00 5.0632534928000004e+00 0 0 0
95 2 1.2698562666400003e+01 8.0847468279000001e+00 7.9993114444000009e+00 0 0 0
96 2 1.3353309351228033e+01 7.1776877800642831e+00 1.0640666709616221e+01 0 0 0

Velocities

1 0.0000000000000000e+00 0.0000000000000000e+00 0.0000000000000000e+00
2 0.0000000000000000e+00 0.0000000000000000e+00 0.0000000000000000e+00
3 0.0000000000000000e+00 0.0000000000000000e+00 0.0000000000000000e+00
4 0.0000000000000000e+00 0.0000000000000000e+00 0.0000000000000000e+00
5 0.0000000000000000e+00 0.0000000000000000e+00 0.0000000000000000e+00
6 0.0000000000000000e+00 0.0000000000000000e+00 0.0000000000000000e+00
7 0.0000000000000000e+00 0.0000000000000000e+00 0.0000000000000000e+00
8 0.0000000000000000e+00 0.0000000000000000e+00 0.0000000000000000e+00
9 0.0000000000000000e+00 0.0000000000000000e+00 0.0000000000000000e+00
10 0.0000000000000000e+00 0.0000000000000000e+00 0.0000000000000000e+00
11 0.0000000000000000e+00 0.0000000000000000e+00 0.0000000000000000e+00
12 0.0000000000000000e+00 0.0000000000000000e+00 0.0000000000000000e+00
13 0.0000000000000000e+00 0.0000000000000000e+00 0.0000000000000000e+00
14 0.0000000000000000e+00 0.0000000000000000e+00 0.0000000000000000e+00
15 0.0000000000000000e+00 0.0000000000000000e+00 0.0000000000000000e+00
16 0.0000000000000000e+00 0.0000000000000000e+00 0.0000000000000000e+00
17 0.0000000000000000e+00 0.0000000000000000e+00 0.0000000000000000e+00
18 0.0000000000000000e+00 0.0000000000000000e+00 0.0000000000000000e+00
19 0.0000000000000000e+00 0.0000000000000000e+00 0.0000000000000000e+00
20 0.0000000000000000e+00 0.0000000000000000e+00 0.0000000000000000e+00
21 0.0000000000000000e+00 0.0000000000000000e+00 0.0000000000000000e+00
22 0.0000000000000000e+00 0.0000000000000000e+00 0.0000000000000000e+00
23 0.0000000000000000e+00 0.0000000000000000e+00 0.0000000000000000e+00
24 0.0000000000000000e+00 0.0000000000000000e+00 0.0000000000000000e+00
25 0.0000000000000000e+00 0.0000000000000000e+00 0.0000000000000000e+00
26 0.0000000000000000e+00 0.0000000000000000e+00 0.0000000000000000e+00
27 0.0000000000000000e+00 0.0000000000000000e+00 0.0000000000000000e+00
28 0.0000000000000000e+00 0.0000000000000000e+00 0.0000000000000000e+00
29 0.0000000000000000e+00 0.0000000000000000e+00 0.0000000000000000e+00
30 0.0000000000000000e+00 0.0000000000000000e+00 0.0000000000000000e+00
31 0.0000000000000000e+00 0.0000000000000000e+00 0.0000000000000000e+00
32 0.0000000000000000e+00 0.0000000000000000e+00 0.0000000000000000e+00
33 0.0000000000000000e+00 0.0000000000000000e+00 0.0000000000000000e+00
34 0.0000000000000000e+00 0.0000000000000000e+00 0.0000000000000000e+00
35 0.0000000000000000e+00 0.0000000000000000e+00 0.0000000000000000e+00
36 0.0000000000000000e+00 0.0000000000000000e+00 0.0000000000000000e+00
37 0.0000000000000000e+00 0.0000000000000000e+00 0.0000000000000000e+00
38 0.0000000000000000e+00 0.0000000000000000e+00 0.0000000000000000e+00
39 0.0000000000000000e+00 0.0000000000000000e+00 0.0000000000000000e+00
40 0.0000000000000000e+00 0.0000000000000000e+00 0.0000000000000000e+00
41 0.0000000000000000e+00 0.0000000000000000e+00 0.0000000000000000e+00
42 0.0000000000000000e+00 0.0000000000000000e+00 0.0000000000000000e+00
43 0.0000000000000000e+00 0.0000000000000000e+00 0.0000000000000000e+00
44 0.0000000000000000e+00 0.0000000000000000e+00 0.0000000000000000e+00
45 0.0000000000000000e+00 0.0000000000000000e+00 0.0000000000000000e+00
46 0.0000000000000000e+00 0.0000000000000000e+00 0.0000000000000000e+00
47 0.0000000000000000e+00 0.0000000000000000e+00 0.0000000000000000e+00
48 0.0000000000000000e+00 0.0000000000000000e+00 0.0000000000000000e+00
49 0.0000000000000000e+00 0.0000000000000000e+00 0.0000000000000000e+00
50 0.0000000000000000e+00 0.0000000000000000e+00 0.0000000000000000e+00
51 0.0000000000000000e+00 0.0000000000000000e+00 0.0000000000000000e+00
52 0.0000000000000000e+00 0.0000000000000000e+00 0.0000000000000000e+00
53 0.0000000000000000e+00 0.0000000000000000e+00 0.0000000000000000e+00
54 0.0000000000000000e+00 0.0000000000000000e+00 0.0000000000000000e+00
55 0.0000000000000000e+00 0.0000000000000000e+00 0.0000000000000000e+00
56 0.0000000000000000e+00 0.0000000000000000e+00 0.0000000000000000e+00
57 0.0000000000000000e+00 0.0000000000000000e+00 0.0000000000000000e+00
58 0.0000000000000000e+00 0.0000000000000000e+00 0.0000000000000000e+00
59 0.0000000000000000e+00 0.0000000000000000e+00 0.0000000000000000e+00
60 0.0000000000000000e+00 0.0000000000000000e+00 0.0000000000000000e+00
61 0.0000000000000000e+00 0.0000000000000000e+00 0.0000000000000000e+00
62 0.0000000000000000e+00 0.0000000000000000e+00 0.0000000000000000e+00
63 0.0000000000000000e+00 0.0000000000000000e+00 0.0000000000000000e+00
64 0.0000000000000000e+00 0.0000000000000000e+00 0.0000000000000000e+00
65 0.0000000000000000e+00 0.0000000000000000e+00 0.0000000000000000e+00
66 0.0000000000000000e+00 0.0000000000000000e+00 0.0000000000000000e+00
67 0.0000000000000000e+00 0.0000000000000000e+00 0.0000000000000000e+00
68 0.0000000000000000e+00 0.0000000000000000e+00 0.0000000000000000e+00
69 0.0000000000000000e+00 0.0000000000000000e+00 0.0000000000000000e+00
70 0.0000000000000000e+00 0.0000000000000000e+00 0.0000000000000000e+00
71 0.0000000000000000e+00 0.0000000000000000e+00 0.0000000000000000e+00
72 0.0000000000000000e+00 0.0000000000000000e+00 0.0000000000000000e+00
73 0.0000000000000000e+00 0.0000000000000000e+00 0.0000000000000000e+00
74 0.0000000000000000e+00 0.0000000000000000e+00 0.0000000000000000e+00
75 0.0000000000000000e+00 0.0000000000000000e+00 0.0000000000000000e+00
76 0.0000000000000000e+00 0.0000000000000000e+00 0.0000000000000000e+00
77 0.0000000000000000e+00 0.0000000000000000e+00 0.0000000000000000e+00
78 0.0000000000000000e+00 0.0000000000000000e+00 0.0000000000000000e+00
79 0.0000000000000000e+00 0.0000000000000000e+00 0.0000000000000000e+00
80 0.0000000000000000e+00 0.0000000000000000e+00 0.0000000000000000e+00
81 0.0000000000000000e+00 0.0000000000000000e+00 0.0000000000000000e+00
82 0.0000000000000000e+00 0.0000000000000000e+00 0.0000000000000000e+00
83 0.0000000000000000e+00 0.0000000000000000e+00 0.0000000000000000e+00
84 0.0000000000000000e+00 0.0000000000000000e+00 0.0000000000000000e+00
85 0.0000000000000000e+00 0.0000000000000000e+00 0.0000000000000000e+00
86 0.0000000000000000e+00 0.0000000000000000e+00 0.0000000000000000e+00
87 0.0000000000000000e+00 0.0000000000000000e+00 0.0000000000000000e+00
88 0.0000000000000000e+00 0.0000000000000000e+00 0.0000000000000000e+00
89 0.0000000000000000e+00 0.0000000000000000e+00 0.0000000000000000e+00
90 0.0000000000000000e+00 0.0000000000000000e+00 0.0000000000000000e+00
91 0.0000000000000000e+00 0.0000000000000000e+00 0.0000000000000000e+00
92 0.0000000000000000e+00 0.0000000000000000e+00 0.0000000000000000e+00
93 0.0000000000000000e+00 0.0000000000000000e+00 0.0000000000000000e+00
94 0.0000000000000000e+00 0.0000000000000000e+00 0.0000000000000000e+00
95 0.0000000000000000e+00 0.0000000000000000e+00 0.0000000000000000e+00
96 0.0000000000000000e+00 0.0000000000000000e+00 0.0000000000000000e+00
