<?xml version="1.0" encoding="ISO-8859-1"?>
<modeling>
 <generator>
  <i name="program" type="string">vasp </i>
  <i name="version" type="string">5.4.4.18Apr17-6-g9f103f2a35  </i>
  <i name="subversion" type="string">(build Aug 13 2019 17:33:20) gamma-only         parallel </i>
  <i name="platform" type="string">LinuxIFC </i>
  <i name="date" type="string">2020 05 11 </i>
  <i name="time" type="string">13:25:50 </i>
 </generator>
 <incar>
  <i type="string" name="SYSTEM">"Millerite NiS"</i>
  <i type="string" name="PREC">normal</i>
  <i type="int" name="NSIM">     4</i>
  <i type="int" name="NELM">   100</i>
  <i name="ENCUT">    450.00000000</i>
  <i type="string" name="LREAL">A</i>
  <i type="int" name="ISMEAR">     0</i>
  <i type="int" name="NWRITE">     2</i>
  <i type="logical" name="LWAVE"> F  </i>
  <i type="logical" name="LCHARG"> F  </i>
  <v type="int" name="KPOINT_BSE">    -1     0     0     0</v>
  <i type="int" name="NELM">   100</i>
 </incar>
 <structure name="primitive_cell" >
  <crystal>
   <varray name="basis" >
    <v>      11.25646304       0.00000000       0.00000000 </v>
    <v>       5.04456212      10.06282034       0.00000000 </v>
    <v>       0.00000000       0.00000000      22.51995597 </v>
   </varray>
   <i name="volume">   2550.87516496 </i>
   <varray name="rec_basis" >
    <v>       0.08883785      -0.04453504       0.00000000 </v>
    <v>       0.00000000       0.09937572       0.00000000 </v>
    <v>       0.00000000       0.00000000       0.04440506 </v>
   </varray>
  </crystal>
  <varray name="positions" >
   <v>       0.26092069       0.47878037       0.29519774 </v>
   <v>       0.07287763      -0.33317655       0.31134757 </v>
   <v>       0.17409868       0.39738739       0.22483408 </v>
   <v>       0.34231367      -0.43439760       0.22483408 </v>
   <v>       0.26805854       0.30342752       0.35520991 </v>
   <v>       0.43627354       0.47164252       0.35520991 </v>
   <v>       0.36819893       0.23939914       0.26075166 </v>
   <v>      -0.49969806       0.37150214       0.26075166 </v>
   <v>       0.16669135      -0.42758168       0.41694659 </v>
   <v>       0.35488056       0.38482050       0.42557357 </v>
   <v>       0.16696083      -0.42725975       0.16482191 </v>
   <v>       0.47891775       0.26078331       0.18097174 </v>
   <v>      -0.42712237       0.16682345       0.31134757 </v>
   <v>       0.00030194       0.37150214       0.26075166 </v>
   <v>       0.09426180      -0.22245773       0.39112749 </v>
   <v>      -0.03784121      -0.35456073       0.39112749 </v>
   <v>       0.36819893      -0.26060086       0.26075166 </v>
   <v>      -0.06372646       0.47164252       0.35520991 </v>
   <v>       0.26805854      -0.19657248       0.35520991 </v>
   <v>       0.40634206       0.46546200       0.13037583 </v>
   <v>       0.27423906       0.33335901       0.13037583 </v>
   <v>       0.46215879       0.14543927       0.39112749 </v>
   <v>      -0.40573820       0.27754227       0.39112749 </v>
   <v>       0.09426180       0.27754227       0.39112749 </v>
   <v>       0.46215879      -0.35456073       0.39112749 </v>
   <v>       0.00030194      -0.12849786       0.26075166 </v>
   <v>      -0.13180107      -0.26060086       0.26075166 </v>
   <v>      -0.02108225      -0.23921669       0.18097174 </v>
   <v>       0.08271170       0.47958507       0.11270319 </v>
   <v>       0.25971945      -0.34318433       0.11240029 </v>
   <v>       0.34231367       0.06560240       0.22483408 </v>
   <v>      -0.32590132       0.39738739       0.22483408 </v>
   <v>      -0.15768633      -0.43439760       0.22483408 </v>
   <v>       0.17409868      -0.10261261       0.22483408 </v>
   <v>       0.07287763       0.16682345       0.31134757 </v>
   <v>      -0.42712237      -0.33317655       0.31134757 </v>
   <v>       0.36201841       0.20946766       0.48558574 </v>
   <v>      -0.46976658       0.37768265       0.48558574 </v>
   <v>       0.35398930      -0.28025270       0.47015289 </v>
   <v>       0.01867320       0.37559594       0.47031058 </v>
   <v>      -0.06372646      -0.02835748       0.35520991 </v>
   <v>      -0.23194146      -0.19657248       0.35520991 </v>
   <v>      -0.23194146       0.30342752       0.35520991 </v>
   <v>       0.43627354      -0.02835748       0.35520991 </v>
   <v>       0.36472394       0.37499303       0.05999322 </v>
   <v>      -0.02108225       0.26078331       0.18097174 </v>
   <v>       0.47891775      -0.23921669       0.18097174 </v>
   <v>      -0.41671555       0.47900774       0.11213282 </v>
   <v>       0.27423906      -0.16664099       0.13037583 </v>
   <v>      -0.09365794       0.46546200       0.13037583 </v>
   <v>      -0.46777607       0.22016069       0.09066551 </v>
   <v>       0.25630927       0.15584906       0.10701851 </v>
   <v>      -0.33303918       0.07274025       0.16482191 </v>
   <v>      -0.14511944      -0.11517949       0.42557357 </v>
   <v>       0.26092069      -0.02121963       0.29519774 </v>
   <v>      -0.23907931       0.47878037       0.29519774 </v>
   <v>       0.02575843      -0.13080070       0.47314042 </v>
   <v>      -0.13337926      -0.28671212       0.47249945 </v>
   <v>      -0.47068888      -0.44094782       0.49571156 </v>
   <v>       0.17931759       0.21030864       0.49543238 </v>
   <v>      -0.33316250       0.07286358       0.44172340 </v>
   <v>       0.16696082       0.07274025       0.16482191 </v>
   <v>      -0.14511944       0.38482050       0.42557357 </v>
   <v>       0.35488056      -0.11517949       0.42557357 </v>
   <v>      -0.23907931      -0.02121963       0.29519774 </v>
   <v>      -0.33303917      -0.42725975       0.16482191 </v>
   <v>       0.46120106       0.27948562      -0.46251566 </v>
   <v>       0.16683750       0.07286358       0.44172340 </v>
   <v>      -0.33316250      -0.42713642       0.44172340 </v>
   <v>      -0.49969806      -0.12849786       0.26075166 </v>
   <v>      -0.13180107       0.23939914       0.26075166 </v>
   <v>      -0.15768633       0.06560240       0.22483408 </v>
   <v>      -0.32590132      -0.10261261       0.22483408 </v>
   <v>      -0.09365794      -0.03453800       0.13037583 </v>
   <v>      -0.22576094      -0.16664099       0.13037583 </v>
   <v>      -0.30484992       0.19879707       0.49767491 </v>
   <v>      -0.45567212       0.05166200      -0.49815993 </v>
   <v>      -0.22576094       0.33335901       0.13037583 </v>
   <v>       0.40634206      -0.03453800       0.13037583 </v>
   <v>      -0.03784121       0.14543927       0.39112749 </v>
   <v>      -0.40573820      -0.22245773       0.39112749 </v>
   <v>      -0.23988382      -0.34262790       0.11293154 </v>
   <v>      -0.42620118       0.00083397       0.10437253 </v>
   <v>       0.08245101      -0.01797119       0.10741491 </v>
   <v>      -0.08561192      -0.17736198      -0.47136705 </v>
   <v>      -0.10531794      -0.15507339       0.06441466 </v>
   <v>      -0.25164619       0.15956227       0.09445824 </v>
   <v>       0.44670583      -0.21745535      -0.46962289 </v>
   <v>       0.02643297       0.04799797       0.49104504 </v>
   <v>       0.38708693      -0.14729223       0.06254439 </v>
   <v>      -0.13801019       0.22136365       0.47316547 </v>
   <v>      -0.30614470      -0.29848740       0.49696807 </v>
   <v>      -0.14643511       0.38588816       0.06254470 </v>
   <v>      -0.46976658      -0.12231735       0.48558574 </v>
   <v>       0.21607400       0.02156806       0.05901835 </v>
   <v>      -0.27749925       0.01027264       0.05412801 </v>
  </varray>
 </structure>
 <varray name="primitive_index" >
  <v type="int" >        1 </v>
  <v type="int" >       73 </v>
  <v type="int" >       58 </v>
  <v type="int" >       80 </v>
  <v type="int" >       59 </v>
  <v type="int" >       54 </v>
  <v type="int" >        7 </v>
  <v type="int" >       21 </v>
  <v type="int" >       74 </v>
  <v type="int" >        2 </v>
  <v type="int" >       29 </v>
  <v type="int" >       52 </v>
  <v type="int" >       61 </v>
  <v type="int" >        9 </v>
  <v type="int" >       35 </v>
  <v type="int" >       44 </v>
  <v type="int" >       32 </v>
  <v type="int" >       66 </v>
  <v type="int" >       83 </v>
  <v type="int" >       12 </v>
  <v type="int" >        6 </v>
  <v type="int" >        8 </v>
  <v type="int" >       22 </v>
  <v type="int" >       10 </v>
  <v type="int" >       33 </v>
  <v type="int" >       34 </v>
  <v type="int" >       43 </v>
  <v type="int" >       88 </v>
  <v type="int" >       57 </v>
  <v type="int" >       79 </v>
  <v type="int" >       56 </v>
  <v type="int" >       70 </v>
  <v type="int" >       92 </v>
  <v type="int" >       82 </v>
  <v type="int" >       49 </v>
  <v type="int" >       85 </v>
  <v type="int" >       60 </v>
  <v type="int" >       65 </v>
  <v type="int" >       84 </v>
  <v type="int" >       53 </v>
  <v type="int" >       90 </v>
  <v type="int" >       95 </v>
  <v type="int" >       71 </v>
  <v type="int" >       78 </v>
  <v type="int" >       51 </v>
  <v type="int" >       64 </v>
  <v type="int" >       76 </v>
  <v type="int" >       69 </v>
  <v type="int" >       31 </v>
  <v type="int" >       24 </v>
  <v type="int" >       15 </v>
  <v type="int" >       55 </v>
  <v type="int" >       16 </v>
  <v type="int" >       38 </v>
  <v type="int" >       26 </v>
  <v type="int" >       13 </v>
  <v type="int" >       77 </v>
  <v type="int" >       96 </v>
  <v type="int" >       41 </v>
  <v type="int" >       11 </v>
  <v type="int" >       62 </v>
  <v type="int" >        4 </v>
  <v type="int" >       14 </v>
  <v type="int" >       27 </v>
  <v type="int" >       37 </v>
  <v type="int" >       40 </v>
  <v type="int" >        3 </v>
  <v type="int" >       50 </v>
  <v type="int" >       86 </v>
  <v type="int" >       45 </v>
  <v type="int" >       19 </v>
  <v type="int" >       68 </v>
  <v type="int" >       94 </v>
  <v type="int" >       48 </v>
  <v type="int" >       42 </v>
  <v type="int" >       23 </v>
  <v type="int" >       17 </v>
  <v type="int" >       18 </v>
  <v type="int" >       36 </v>
  <v type="int" >       20 </v>
  <v type="int" >       46 </v>
  <v type="int" >       91 </v>
  <v type="int" >       93 </v>
  <v type="int" >       81 </v>
  <v type="int" >       39 </v>
  <v type="int" >       87 </v>
  <v type="int" >       67 </v>
  <v type="int" >       28 </v>
  <v type="int" >        5 </v>
  <v type="int" >       75 </v>
  <v type="int" >       72 </v>
  <v type="int" >       47 </v>
  <v type="int" >       63 </v>
  <v type="int" >       89 </v>
  <v type="int" >       30 </v>
  <v type="int" >       25 </v>
 </varray>
 <kpoints>
  <generation param="Gamma">
   <v type="int" name="divisions">       1        1        1 </v>
   <v name="usershift">      0.00000000       0.00000000       0.00000000 </v>
   <v name="genvec1">      1.00000000       0.00000000       0.00000000 </v>
   <v name="genvec2">      0.00000000       1.00000000       0.00000000 </v>
   <v name="genvec3">      0.00000000       0.00000000       1.00000000 </v>
   <v name="shift">      0.00000000       0.00000000       0.00000000 </v>
  </generation>
  <varray name="kpointlist" >
   <v>       0.00000000       0.00000000       0.00000000 </v>
  </varray>
  <varray name="weights" >
   <v>       1.00000000 </v>
  </varray>
 </kpoints>
 <parameters>
  <separator name="general" >
   <i type="string" name="SYSTEM">"Millerite NiS"</i>
   <i type="logical" name="LCOMPAT"> F  </i>
  </separator>
  <separator name="electronic" >
   <i type="string" name="PREC">normal</i>
   <i name="ENMAX">    450.00000000</i>
   <i name="ENAUG">    703.44300000</i>
   <i name="EDIFF">      0.00010000</i>
   <i type="int" name="IALGO">    38</i>
   <i type="int" name="IWAVPR">    10</i>
   <i type="int" name="NBANDS">   634</i>
   <i name="NELECT">   1056.00000000</i>
   <i type="int" name="TURBO">     0</i>
   <i type="int" name="IRESTART">     0</i>
   <i type="int" name="NREBOOT">     0</i>
   <i type="int" name="NMIN">     0</i>
   <i name="EREF">      0.00000000</i>
   <separator name="electronic smearing" >
    <i type="int" name="ISMEAR">     0</i>
    <i name="SIGMA">      0.20000000</i>
    <i name="KSPACING">      0.50000000</i>
    <i type="logical" name="KGAMMA"> T  </i>
   </separator>
   <separator name="electronic projectors" >
    <i type="logical" name="LREAL"> T  </i>
    <v name="ROPT">     -0.00050000     -0.00050000</v>
    <i type="int" name="LMAXPAW">  -100</i>
    <i type="int" name="LMAXMIX">     2</i>
    <i type="logical" name="NLSPLINE"> F  </i>
   </separator>
   <separator name="electronic startup" >
    <i type="int" name="ISTART">     0</i>
    <i type="int" name="ICHARG">     2</i>
    <i type="int" name="INIWAV">     1</i>
   </separator>
   <separator name="electronic spin" >
    <i type="int" name="ISPIN">     1</i>
    <i type="logical" name="LNONCOLLINEAR"> F  </i>
    <v name="MAGMOM">      1.00000000      1.00000000      1.00000000      1.00000000      1.00000000      1.00000000      1.00000000      1.00000000      1.00000000      1.00000000      1.00000000      1.00000000      1.00000000      1.00000000      1.00000000      1.00000000      1.00000000      1.00000000      1.00000000      1.00000000
      1.00000000      1.00000000      1.00000000      1.00000000      1.00000000      1.00000000      1.00000000      1.00000000      1.00000000      1.00000000      1.00000000      1.00000000      1.00000000      1.00000000      1.00000000      1.00000000      1.00000000      1.00000000      1.00000000      1.00000000
      1.00000000      1.00000000      1.00000000      1.00000000      1.00000000      1.00000000      1.00000000      1.00000000      1.00000000      1.00000000      1.00000000      1.00000000      1.00000000      1.00000000      1.00000000      1.00000000      1.00000000      1.00000000      1.00000000      1.00000000
      1.00000000      1.00000000      1.00000000      1.00000000      1.00000000      1.00000000      1.00000000      1.00000000      1.00000000      1.00000000      1.00000000      1.00000000      1.00000000      1.00000000      1.00000000      1.00000000      1.00000000      1.00000000      1.00000000      1.00000000
      1.00000000      1.00000000      1.00000000      1.00000000      1.00000000      1.00000000      1.00000000      1.00000000      1.00000000      1.00000000      1.00000000      1.00000000      1.00000000      1.00000000      1.00000000      1.00000000</v>
    <i name="NUPDOWN">     -1.00000000</i>
    <i type="logical" name="LSORBIT"> F  </i>
    <v name="SAXIS">      0.00000000      0.00000000      1.00000000</v>
    <i type="logical" name="LSPIRAL"> F  </i>
    <v name="QSPIRAL">      0.00000000      0.00000000      0.00000000</v>
    <i type="logical" name="LZEROZ"> F  </i>
   </separator>
   <separator name="electronic exchange-correlation" >
    <i type="logical" name="LASPH"> F  </i>
    <i type="logical" name="LMETAGGA"> F  </i>
   </separator>
   <separator name="electronic convergence" >
    <i type="int" name="NELM">   100</i>
    <i type="int" name="NELMDL">    -5</i>
    <i type="int" name="NELMIN">     2</i>
    <i name="ENINI">    450.00000000</i>
    <separator name="electronic convergence detail" >
     <i type="logical" name="LDIAG"> T  </i>
     <i type="logical" name="LSUBROT"> F  </i>
     <i name="WEIMIN">      0.00000000</i>
     <i name="EBREAK">      0.00000004</i>
     <i name="DEPER">      0.30000000</i>
     <i type="int" name="NRMM">     4</i>
     <i name="TIME">      0.40000000</i>
    </separator>
   </separator>
   <separator name="electronic mixer" >
    <i name="AMIX">      0.40000000</i>
    <i name="BMIX">      1.00000000</i>
    <i name="AMIN">      0.10000000</i>
    <i name="AMIX_MAG">      1.60000000</i>
    <i name="BMIX_MAG">      1.00000000</i>
    <separator name="electronic mixer details" >
     <i type="int" name="IMIX">     4</i>
     <i type="logical" name="MIXFIRST"> F  </i>
     <i type="int" name="MAXMIX">   -45</i>
     <i name="WC">    100.00000000</i>
     <i type="int" name="INIMIX">     1</i>
     <i type="int" name="MIXPRE">     1</i>
     <i type="int" name="MREMOVE">     5</i>
    </separator>
   </separator>
   <separator name="electronic dipolcorrection" >
    <i type="logical" name="LDIPOL"> F  </i>
    <i type="logical" name="LMONO"> F  </i>
    <i type="int" name="IDIPOL">     0</i>
    <i name="EPSILON">      1.00000000</i>
    <v name="DIPOL">   -100.00000000   -100.00000000   -100.00000000</v>
    <i name="EFIELD">      0.00000000</i>
   </separator>
  </separator>
  <separator name="grids" >
   <i type="int" name="NGX">    60</i>
   <i type="int" name="NGY">    60</i>
   <i type="int" name="NGZ">   120</i>
   <i type="int" name="NGXF">   120</i>
   <i type="int" name="NGYF">   120</i>
   <i type="int" name="NGZF">   240</i>
   <i type="logical" name="ADDGRID"> F  </i>
  </separator>
  <separator name="ionic" >
   <i type="int" name="NSW">     0</i>
   <i type="int" name="IBRION">    -1</i>
   <i type="int" name="MDALGO">     0</i>
   <i type="int" name="ISIF">     2</i>
   <i name="PSTRESS">      0.00000000</i>
   <i name="EDIFFG">      0.00100000</i>
   <i type="int" name="NFREE">     0</i>
   <i name="POTIM">      0.50000000</i>
   <i name="SMASS">     -3.00000000</i>
   <i name="SCALEE">      1.00000000</i>
  </separator>
  <separator name="ionic md" >
   <i name="TEBEG">      0.00010000</i>
   <i name="TEEND">      0.00010000</i>
   <i type="int" name="NBLOCK">     1</i>
   <i type="int" name="KBLOCK">     1</i>
   <i type="int" name="NPACO">   256</i>
   <i name="APACO">     16.00000000</i>
  </separator>
  <separator name="symmetry" >
   <i type="int" name="ISYM">     2</i>
   <i name="SYMPREC">      0.00001000</i>
  </separator>
  <separator name="dos" >
   <i type="int" name="LORBIT">     0</i>
   <v name="RWIGS">     -1.00000000     -1.00000000</v>
   <i type="int" name="NEDOS">   301</i>
   <i name="EMIN">     10.00000000</i>
   <i name="EMAX">    -10.00000000</i>
   <i name="EFERMI">      0.00000000</i>
  </separator>
  <separator name="writing" >
   <i type="int" name="NWRITE">     2</i>
   <i type="logical" name="LWAVE"> F  </i>
   <i type="logical" name="LDOWNSAMPLE"> F  </i>
   <i type="logical" name="LCHARG"> F  </i>
   <i type="logical" name="LPARD"> F  </i>
   <i type="logical" name="LVTOT"> F  </i>
   <i type="logical" name="LVHAR"> F  </i>
   <i type="logical" name="LELF"> F  </i>
   <i type="logical" name="LOPTICS"> F  </i>
   <v name="STM">      0.00000000      0.00000000      0.00000000      0.00000000      0.00000000      0.00000000      0.00000000</v>
  </separator>
  <separator name="performance" >
   <i type="int" name="NPAR">     2</i>
   <i type="int" name="NSIM">     4</i>
   <i type="int" name="NBLK">    -1</i>
   <i type="logical" name="LPLANE"> T  </i>
   <i type="logical" name="LSCALAPACK"> T  </i>
   <i type="logical" name="LSCAAWARE"> F  </i>
   <i type="logical" name="LSCALU"> F  </i>
   <i type="logical" name="LASYNC"> F  </i>
   <i type="logical" name="LORBITALREAL"> F  </i>
  </separator>
  <separator name="miscellaneous" >
   <i type="int" name="IDIOT">     3</i>
   <i type="int" name="ISPECIAL">     0</i>
   <i type="logical" name="LMUSIC"> F  </i>
   <v name="POMASS">     58.69000000     32.06600000</v>
   <v name="DARWINR">      0.00000000      0.00000000</v>
   <v name="DARWINV">      1.00000000      1.00000000</v>
   <i type="logical" name="LCORR"> T  </i>
  </separator>
  <i type="logical" name="GGA_COMPAT"> T  </i>
  <i type="logical" name="LBERRY"> F  </i>
  <i type="int" name="ICORELEVEL">     0</i>
  <i type="logical" name="LDAU"> F  </i>
  <i type="int" name="I_CONSTRAINED_M">     0</i>
  <separator name="electronic exchange-correlation" >
   <i type="string" name="GGA">--</i>
   <i type="int" name="VOSKOWN">     0</i>
   <i type="logical" name="LHFCALC"> F  </i>
   <i type="string" name="PRECFOCK"></i>
   <i type="logical" name="LSYMGRAD"> F  </i>
   <i type="logical" name="LHFONE"> F  </i>
   <i type="logical" name="LRHFCALC"> F  </i>
   <i type="logical" name="LTHOMAS"> F  </i>
   <i type="logical" name="LMODELHF"> F  </i>
   <i name="ENCUT4O">     -1.00000000</i>
   <i type="int" name="EXXOEP">     0</i>
   <i type="int" name="FOURORBIT">     0</i>
   <i name="AEXX">      0.00000000</i>
   <i name="HFALPHA">      0.00000000</i>
   <i name="MCALPHA">      0.00000000</i>
   <i name="ALDAX">      1.00000000</i>
   <i name="AGGAX">      1.00000000</i>
   <i name="ALDAC">      1.00000000</i>
   <i name="AGGAC">      1.00000000</i>
   <i type="int" name="NKREDX">     1</i>
   <i type="int" name="NKREDY">     1</i>
   <i type="int" name="NKREDZ">     1</i>
   <i type="logical" name="SHIFTRED"> F  </i>
   <i type="logical" name="ODDONLY"> F  </i>
   <i type="logical" name="EVENONLY"> F  </i>
   <i type="int" name="LMAXFOCK">     0</i>
   <i type="int" name="NMAXFOCKAE">     0</i>
   <i type="logical" name="LFOCKAEDFT"> F  </i>
   <i name="HFSCREEN">      0.00000000</i>
   <i name="HFSCREENC">      0.00000000</i>
   <i type="int" name="NBANDSGWLOW">     0</i>
  </separator>
  <separator name="vdW DFT" >
   <i type="logical" name="LUSE_VDW"> F  </i>
   <i name="Zab_VDW">     -0.84910000</i>
   <i name="PARAM1">      0.12340000</i>
   <i name="PARAM2">      1.00000000</i>
   <i name="PARAM3">      0.00000000</i>
  </separator>
  <separator name="model GW" >
   <i type="int" name="MODEL_GW">     0</i>
   <i name="MODEL_EPS0">     15.94296978</i>
   <i name="MODEL_ALPHA">      1.00000000</i>
  </separator>
  <separator name="linear response parameters" >
   <i type="logical" name="LEPSILON"> F  </i>
   <i type="logical" name="LRPA"> F  </i>
   <i type="logical" name="LNABLA"> F  </i>
   <i type="logical" name="LVEL"> F  </i>
   <i type="int" name="KINTER">     0</i>
   <i name="CSHIFT">      0.10000000</i>
   <i name="OMEGAMAX">     -1.00000000</i>
   <i name="DEG_THRESHOLD">      0.00200000</i>
   <i name="RTIME">     -0.10000000</i>
   <i name="WPLASMAI">      0.00000000</i>
   <v name="DFIELD">      0.00000000      0.00000000      0.00000000</v>
   <v name="WPLASMA">      0.00000000      0.00000000      0.00000000      0.00000000      0.00000000      0.00000000      0.00000000      0.00000000      0.00000000</v>
  </separator>
  <separator name="orbital magnetization" >
   <i type="logical" name="NUCIND"> F  </i>
   <v name="MAGPOS">      0.00000000      0.00000000      0.00000000</v>
   <i type="logical" name="LNICSALL"> T  </i>
   <i type="logical" name="ORBITALMAG"> F  </i>
   <i type="logical" name="LMAGBLOCH"> F  </i>
   <i type="logical" name="LCHIMAG"> F  </i>
   <i type="logical" name="LGAUGE"> T  </i>
   <i type="int" name="MAGATOM">     0</i>
   <v name="MAGDIPOL">      0.00000000      0.00000000      0.00000000</v>
   <v name="AVECCONST">      0.00000000      0.00000000      0.00000000</v>
  </separator>
  <separator name="response functions" >
   <i type="logical" name="LADDER"> F  </i>
   <i type="logical" name="LRPAFORCE"> F  </i>
   <i type="logical" name="LFXC"> F  </i>
   <i type="logical" name="LHARTREE"> T  </i>
   <i type="int" name="IBSE">     0</i>
   <v type="int" name="KPOINT">    -1     0     0     0</v>
   <i type="logical" name="LTCTE"> F  </i>
   <i type="logical" name="LTETE"> F  </i>
   <i type="logical" name="LTRIPLET"> F  </i>
   <i type="logical" name="LFXCEPS"> F  </i>
   <i type="logical" name="LFXHEG"> F  </i>
   <i type="int" name="NATURALO">     2</i>
   <i type="logical" name="L2ORDER"> F  </i>
   <i type="logical" name="LMP2LT"> F  </i>
   <i type="logical" name="LUSEW"> F  </i>
   <i name="ENCUTGW">     -2.00000000</i>
   <i name="ENCUTGWSOFT">     -2.00000000</i>
   <i name="ENCUTLF">     -1.00000000</i>
   <i type="int" name="LMAXMP2">    -1</i>
   <i name="SCISSOR">      0.00000000</i>
   <i type="int" name="NOMEGA">     0</i>
   <i type="int" name="NOMEGAR">     0</i>
   <i type="int" name="NBANDSGW">    -1</i>
   <i type="int" name="NBANDSO">    -1</i>
   <i type="int" name="NBANDSV">    -1</i>
   <i type="int" name="NELM">   100</i>
   <i type="int" name="NELMHF">     1</i>
   <i type="int" name="DIM">     3</i>
   <i type="int" name="ANTIRES">     0</i>
   <i name="OMEGAMAX">    -30.00000000</i>
   <i name="OMEGAMIN">    -30.00000000</i>
   <i name="OMEGATL">   -200.00000000</i>
   <i type="int" name="OMEGAGRID">   140</i>
   <i name="CSHIFT">     -0.10000000</i>
   <i type="logical" name="SELFENERGY"> F  </i>
   <i type="logical" name="LSPECTRAL"> F  </i>
   <i type="logical" name="LSPECTRALGW"> F  </i>
   <i type="logical" name="LSINGLES"> F  </i>
   <i type="logical" name="LFERMIGW"> F  </i>
   <i type="logical" name="ODDONLYGW"> F  </i>
   <i type="logical" name="EVENONLYGW"> F  </i>
   <i type="int" name="NKREDLFX">     1</i>
   <i type="int" name="NKREDLFY">     1</i>
   <i type="int" name="NKREDLFZ">     1</i>
   <i type="int" name="MAXMEM">  2800</i>
   <i type="int" name="TELESCOPE">     0</i>
   <i type="int" name="TAUPAR">     1</i>
   <i type="int" name="OMEGAPAR">    -1</i>
   <i name="LAMBDA">      1.00000000</i>
  </separator>
  <separator name="External order field" >
   <i name="OFIELD_KAPPA">      0.00000000</i>
   <v name="OFIELD_K">      0.00000000      0.00000000      0.00000000</v>
   <i name="OFIELD_Q6_NEAR">      0.00000000</i>
   <i name="OFIELD_Q6_FAR">      0.00000000</i>
   <i name="OFIELD_A">      0.00000000</i>
  </separator>
 </parameters>
 <atominfo>
  <atoms>      96 </atoms>
  <types>       2 </types>
  <array name="atoms" >
   <dimension dim="1">ion</dimension>
   <field type="string">element</field>
   <field type="int">atomtype</field>
   <set>
    <rc><c>Ni</c><c>   1</c></rc>
    <rc><c>Ni</c><c>   1</c></rc>
    <rc><c>Ni</c><c>   1</c></rc>
    <rc><c>Ni</c><c>   1</c></rc>
    <rc><c>Ni</c><c>   1</c></rc>
    <rc><c>Ni</c><c>   1</c></rc>
    <rc><c>Ni</c><c>   1</c></rc>
    <rc><c>Ni</c><c>   1</c></rc>
    <rc><c>Ni</c><c>   1</c></rc>
    <rc><c>Ni</c><c>   1</c></rc>
    <rc><c>Ni</c><c>   1</c></rc>
    <rc><c>Ni</c><c>   1</c></rc>
    <rc><c>Ni</c><c>   1</c></rc>
    <rc><c>Ni</c><c>   1</c></rc>
    <rc><c>Ni</c><c>   1</c></rc>
    <rc><c>Ni</c><c>   1</c></rc>
    <rc><c>Ni</c><c>   1</c></rc>
    <rc><c>Ni</c><c>   1</c></rc>
    <rc><c>Ni</c><c>   1</c></rc>
    <rc><c>Ni</c><c>   1</c></rc>
    <rc><c>Ni</c><c>   1</c></rc>
    <rc><c>Ni</c><c>   1</c></rc>
    <rc><c>Ni</c><c>   1</c></rc>
    <rc><c>Ni</c><c>   1</c></rc>
    <rc><c>Ni</c><c>   1</c></rc>
    <rc><c>Ni</c><c>   1</c></rc>
    <rc><c>Ni</c><c>   1</c></rc>
    <rc><c>Ni</c><c>   1</c></rc>
    <rc><c>Ni</c><c>   1</c></rc>
    <rc><c>Ni</c><c>   1</c></rc>
    <rc><c>Ni</c><c>   1</c></rc>
    <rc><c>Ni</c><c>   1</c></rc>
    <rc><c>Ni</c><c>   1</c></rc>
    <rc><c>Ni</c><c>   1</c></rc>
    <rc><c>Ni</c><c>   1</c></rc>
    <rc><c>Ni</c><c>   1</c></rc>
    <rc><c>Ni</c><c>   1</c></rc>
    <rc><c>Ni</c><c>   1</c></rc>
    <rc><c>Ni</c><c>   1</c></rc>
    <rc><c>Ni</c><c>   1</c></rc>
    <rc><c>Ni</c><c>   1</c></rc>
    <rc><c>Ni</c><c>   1</c></rc>
    <rc><c>Ni</c><c>   1</c></rc>
    <rc><c>Ni</c><c>   1</c></rc>
    <rc><c>Ni</c><c>   1</c></rc>
    <rc><c>Ni</c><c>   1</c></rc>
    <rc><c>Ni</c><c>   1</c></rc>
    <rc><c>Ni</c><c>   1</c></rc>
    <rc><c>S </c><c>   2</c></rc>
    <rc><c>S </c><c>   2</c></rc>
    <rc><c>S </c><c>   2</c></rc>
    <rc><c>S </c><c>   2</c></rc>
    <rc><c>S </c><c>   2</c></rc>
    <rc><c>S </c><c>   2</c></rc>
    <rc><c>S </c><c>   2</c></rc>
    <rc><c>S </c><c>   2</c></rc>
    <rc><c>S </c><c>   2</c></rc>
    <rc><c>S </c><c>   2</c></rc>
    <rc><c>S </c><c>   2</c></rc>
    <rc><c>S </c><c>   2</c></rc>
    <rc><c>S </c><c>   2</c></rc>
    <rc><c>S </c><c>   2</c></rc>
    <rc><c>S </c><c>   2</c></rc>
    <rc><c>S </c><c>   2</c></rc>
    <rc><c>S </c><c>   2</c></rc>
    <rc><c>S </c><c>   2</c></rc>
    <rc><c>S </c><c>   2</c></rc>
    <rc><c>S </c><c>   2</c></rc>
    <rc><c>S </c><c>   2</c></rc>
    <rc><c>S </c><c>   2</c></rc>
    <rc><c>S </c><c>   2</c></rc>
    <rc><c>S </c><c>   2</c></rc>
    <rc><c>S </c><c>   2</c></rc>
    <rc><c>S </c><c>   2</c></rc>
    <rc><c>S </c><c>   2</c></rc>
    <rc><c>S </c><c>   2</c></rc>
    <rc><c>S </c><c>   2</c></rc>
    <rc><c>S </c><c>   2</c></rc>
    <rc><c>S </c><c>   2</c></rc>
    <rc><c>S </c><c>   2</c></rc>
    <rc><c>S </c><c>   2</c></rc>
    <rc><c>S </c><c>   2</c></rc>
    <rc><c>S </c><c>   2</c></rc>
    <rc><c>S </c><c>   2</c></rc>
    <rc><c>S </c><c>   2</c></rc>
    <rc><c>S </c><c>   2</c></rc>
    <rc><c>S </c><c>   2</c></rc>
    <rc><c>S </c><c>   2</c></rc>
    <rc><c>S </c><c>   2</c></rc>
    <rc><c>S </c><c>   2</c></rc>
    <rc><c>S </c><c>   2</c></rc>
    <rc><c>S </c><c>   2</c></rc>
    <rc><c>S </c><c>   2</c></rc>
    <rc><c>S </c><c>   2</c></rc>
    <rc><c>S </c><c>   2</c></rc>
    <rc><c>S </c><c>   2</c></rc>
   </set>
  </array>
  <array name="atomtypes" >
   <dimension dim="1">type</dimension>
   <field type="int">atomspertype</field>
   <field type="string">element</field>
   <field>mass</field>
   <field>valence</field>
   <field type="string">pseudopotential</field>
   <set>
    <rc><c>  48</c><c>Ni</c><c>     58.69000000</c><c>     16.00000000</c><c>  PAW_PBE Ni_pv 06Sep2000               </c></rc>
    <rc><c>  48</c><c>S </c><c>     32.06600000</c><c>      6.00000000</c><c>  PAW_PBE S 06Sep2000                   </c></rc>
   </set>
  </array>
 </atominfo>
 <structure name="initialpos" >
  <crystal>
   <varray name="basis" >
    <v>      11.25646304       0.00000000       0.00000000 </v>
    <v>       5.04456212      10.06282034       0.00000000 </v>
    <v>       0.00000000       0.00000000      22.51995597 </v>
   </varray>
   <i name="volume">   2550.87516496 </i>
   <varray name="rec_basis" >
    <v>       0.08883785      -0.04453504       0.00000000 </v>
    <v>       0.00000000       0.09937572       0.00000000 </v>
    <v>       0.00000000       0.00000000       0.04440506 </v>
   </varray>
  </crystal>
  <varray name="positions" >
   <v>       0.26092069       0.47878037       0.29519774 </v>
   <v>       0.35488056       0.38482050       0.42557357 </v>
   <v>       0.46120106       0.27948562       0.53748434 </v>
   <v>       0.16696082       0.07274025       0.16482191 </v>
   <v>       0.02643297       0.04799797       0.49104504 </v>
   <v>       0.27423906       0.33335901       0.13037583 </v>
   <v>       0.36819893       0.23939914       0.26075166 </v>
   <v>       0.46215879       0.14543927       0.39112749 </v>
   <v>       0.00030194       0.37150214       0.26075166 </v>
   <v>       0.09426180       0.27754227       0.39112749 </v>
   <v>       0.17931759       0.21030864       0.49543238 </v>
   <v>       0.40634206       0.46546200       0.13037583 </v>
   <v>       0.76092069       0.47878037       0.29519774 </v>
   <v>       0.85488056       0.38482050       0.42557357 </v>
   <v>       0.53222393       0.22016069       0.09066551 </v>
   <v>       0.66696082       0.07274025       0.16482191 </v>
   <v>       0.54432788       0.05166200       0.50184007 </v>
   <v>       0.77423906       0.33335901       0.13037583 </v>
   <v>       0.86819893       0.23939914       0.26075166 </v>
   <v>       0.96215879       0.14543927       0.39112749 </v>
   <v>       0.50030194       0.37150214       0.26075166 </v>
   <v>       0.59426180       0.27754227       0.39112749 </v>
   <v>       0.69515008       0.19879707       0.49767491 </v>
   <v>       0.90634206       0.46546200       0.13037583 </v>
   <v>       0.72250075       0.01027264       0.05412801 </v>
   <v>       0.26092069       0.97878037       0.29519774 </v>
   <v>       0.35488056       0.88482051       0.42557357 </v>
   <v>       0.44670583       0.78254465       0.53037711 </v>
   <v>       0.16696083       0.57274025       0.16482191 </v>
   <v>       0.21607400       0.02156806       0.05901835 </v>
   <v>       0.27423906       0.83335901       0.13037583 </v>
   <v>       0.36819893       0.73939914       0.26075166 </v>
   <v>       0.46215879       0.64543927       0.39112749 </v>
   <v>       0.00030194       0.87150214       0.26075166 </v>
   <v>       0.09426180       0.77754227       0.39112749 </v>
   <v>       0.40634206       0.96546200       0.13037583 </v>
   <v>       0.76092069       0.97878037       0.29519774 </v>
   <v>       0.85488056       0.88482051       0.42557357 </v>
   <v>       0.91438808       0.82263802       0.52863295 </v>
   <v>       0.66696083       0.57274025       0.16482191 </v>
   <v>       0.52931112       0.55905218       0.49571156 </v>
   <v>       0.77423906       0.83335901       0.13037583 </v>
   <v>       0.86819893       0.73939914       0.26075166 </v>
   <v>       0.96215879       0.64543927       0.39112749 </v>
   <v>       0.50030194       0.87150214       0.26075166 </v>
   <v>       0.59426180       0.77754227       0.39112749 </v>
   <v>       0.69385530       0.70151260       0.49696807 </v>
   <v>       0.90634206       0.96546200       0.13037583 </v>
   <v>       0.07287763       0.16682345       0.31134757 </v>
   <v>       0.16683750       0.07286358       0.44172340 </v>
   <v>       0.36472394       0.37499303       0.05999322 </v>
   <v>       0.47891775       0.26078331       0.18097174 </v>
   <v>       0.01867320       0.37559594       0.47031058 </v>
   <v>       0.43627354       0.47164252       0.35520991 </v>
   <v>       0.25630927       0.15584906       0.10701851 </v>
   <v>       0.34231367       0.06560240       0.22483408 </v>
   <v>       0.08271170       0.47958507       0.11270319 </v>
   <v>       0.17409868       0.39738739       0.22483408 </v>
   <v>       0.26805854       0.30342752       0.35520991 </v>
   <v>       0.36201841       0.20946766       0.48558574 </v>
   <v>       0.57287763       0.16682345       0.31134757 </v>
   <v>       0.66683750       0.07286358       0.44172340 </v>
   <v>       0.85356489       0.38588816       0.06254470 </v>
   <v>       0.97891775       0.26078331       0.18097174 </v>
   <v>       0.53023342       0.37768265       0.48558574 </v>
   <v>       0.93627354       0.47164252       0.35520991 </v>
   <v>       0.74835381       0.15956227       0.09445824 </v>
   <v>       0.84231367       0.06560240       0.22483408 </v>
   <v>       0.58328445       0.47900774       0.11213282 </v>
   <v>       0.67409868       0.39738739       0.22483408 </v>
   <v>       0.76805854       0.30342752       0.35520991 </v>
   <v>       0.86198981       0.22136365       0.47316547 </v>
   <v>       0.07287763       0.66682345       0.31134757 </v>
   <v>       0.16669135       0.57241832       0.41694659 </v>
   <v>       0.38708693       0.85270777       0.06254439 </v>
   <v>       0.47891775       0.76078331       0.18097174 </v>
   <v>       0.02575843       0.86919930       0.47314042 </v>
   <v>       0.43627354       0.97164252       0.35520991 </v>
   <v>       0.25971945       0.65681567       0.11240029 </v>
   <v>       0.34231367       0.56560240       0.22483408 </v>
   <v>       0.08245101       0.98202881       0.10741491 </v>
   <v>       0.17409868       0.89738739       0.22483408 </v>
   <v>       0.26805854       0.80342752       0.35520991 </v>
   <v>       0.35398930       0.71974730       0.47015289 </v>
   <v>       0.57287763       0.66682345       0.31134757 </v>
   <v>       0.66683750       0.57286358       0.44172340 </v>
   <v>       0.89468206       0.84492661       0.06441466 </v>
   <v>       0.97891775       0.76078331       0.18097174 </v>
   <v>       0.53023342       0.87768265       0.48558574 </v>
   <v>       0.93627354       0.97164252       0.35520991 </v>
   <v>       0.76011618       0.65737210       0.11293154 </v>
   <v>       0.84231367       0.56560240       0.22483408 </v>
   <v>       0.57379882       0.00083397       0.10437253 </v>
   <v>       0.67409868       0.89738739       0.22483408 </v>
   <v>       0.76805854       0.80342752       0.35520991 </v>
   <v>       0.86662074       0.71328788       0.47249945 </v>
  </varray>
 </structure>
 <calculation>
  <scstep>
   <time name="dav">   13.48   13.48</time>
   <time name="total">   13.88   13.88</time>
   <energy>
    <i name="alphaZ">   2592.50432107 </i>
    <i name="ewald"> 320455.44095424 </i>
    <i name="hartreedc">-483721.55773805 </i>
    <i name="XCdc">   4901.87720869 </i>
    <i name="pawpsdc"> 150306.04444553 </i>
    <i name="pawaedc">-156855.34918313 </i>
    <i name="eentropy">     -0.46409461 </i>
    <i name="bandstr">  -5610.02547216 </i>
    <i name="atom"> 181336.80673834 </i>
    <i name="e_fr_energy">  13405.27717993 </i>
    <i name="e_wo_entrp">  13405.74127454 </i>
    <i name="e_0_energy">  13405.50922724 </i>
   </energy>
  </scstep>
  <scstep>
   <time name="dav">   12.34   12.34</time>
   <time name="total">   12.34   12.35</time>
   <energy>
    <i name="e_fr_energy">    863.43107264 </i>
    <i name="e_wo_entrp">    864.30833827 </i>
    <i name="e_0_energy">    863.86970546 </i>
   </energy>
  </scstep>
  <scstep>
   <time name="dav">   12.77   12.78</time>
   <time name="total">   12.77   12.78</time>
   <energy>
    <i name="e_fr_energy">   -453.49707693 </i>
    <i name="e_wo_entrp">   -452.25560279 </i>
    <i name="e_0_energy">   -452.87633986 </i>
   </energy>
  </scstep>
  <scstep>
   <time name="dav">   13.12   13.13</time>
   <time name="total">   13.13   13.13</time>
   <energy>
    <i name="e_fr_energy">   -536.45963528 </i>
    <i name="e_wo_entrp">   -535.15953417 </i>
    <i name="e_0_energy">   -535.80958472 </i>
   </energy>
  </scstep>
  <scstep>
   <time name="dav">   14.18   14.18</time>
   <time name="total">   14.60   14.60</time>
   <energy>
    <i name="e_fr_energy">   -539.64731893 </i>
    <i name="e_wo_entrp">   -538.35141440 </i>
    <i name="e_0_energy">   -538.99936667 </i>
   </energy>
  </scstep>
  <scstep>
   <time name="dav">   14.15   14.15</time>
   <time name="total">   14.94   14.95</time>
   <energy>
    <i name="e_fr_energy">   -642.12805572 </i>
    <i name="e_wo_entrp">   -641.15442188 </i>
    <i name="e_0_energy">   -641.64123880 </i>
   </energy>
  </scstep>
  <scstep>
   <time name="dav">   13.27   13.28</time>
   <time name="total">   14.06   14.07</time>
   <energy>
    <i name="e_fr_energy">   -521.84402502 </i>
    <i name="e_wo_entrp">   -520.62825378 </i>
    <i name="e_0_energy">   -521.23613940 </i>
   </energy>
  </scstep>
  <scstep>
   <time name="dav">   14.50   14.51</time>
   <time name="total">   15.29   15.29</time>
   <energy>
    <i name="e_fr_energy">   -581.93854083 </i>
    <i name="e_wo_entrp">   -580.82272238 </i>
    <i name="e_0_energy">   -581.38063160 </i>
   </energy>
  </scstep>
  <scstep>
   <time name="dav">   14.17   14.17</time>
   <time name="total">   14.97   14.98</time>
   <energy>
    <i name="e_fr_energy">   -569.45117594 </i>
    <i name="e_wo_entrp">   -568.09448323 </i>
    <i name="e_0_energy">   -568.77282959 </i>
   </energy>
  </scstep>
  <scstep>
   <time name="dav">   15.87   15.88</time>
   <time name="total">   16.65   16.66</time>
   <energy>
    <i name="e_fr_energy">   -566.59373185 </i>
    <i name="e_wo_entrp">   -564.74082891 </i>
    <i name="e_0_energy">   -565.66728038 </i>
   </energy>
  </scstep>
  <scstep>
   <time name="dav">   14.90   14.91</time>
   <time name="total">   15.69   15.69</time>
   <energy>
    <i name="e_fr_energy">   -538.36494786 </i>
    <i name="e_wo_entrp">   -537.01176617 </i>
    <i name="e_0_energy">   -537.68835702 </i>
   </energy>
  </scstep>
  <scstep>
   <time name="dav">   15.57   15.57</time>
   <time name="total">   16.35   16.35</time>
   <energy>
    <i name="e_fr_energy">   -519.49610863 </i>
    <i name="e_wo_entrp">   -518.22381577 </i>
    <i name="e_0_energy">   -518.85996220 </i>
   </energy>
  </scstep>
  <scstep>
   <time name="dav">   15.17   15.18</time>
   <time name="total">   15.99   15.99</time>
   <energy>
    <i name="e_fr_energy">   -504.17146835 </i>
    <i name="e_wo_entrp">   -502.83713144 </i>
    <i name="e_0_energy">   -503.50429989 </i>
   </energy>
  </scstep>
  <scstep>
   <time name="dav">   14.95   14.96</time>
   <time name="total">   15.74   15.75</time>
   <energy>
    <i name="e_fr_energy">   -489.96112318 </i>
    <i name="e_wo_entrp">   -488.74899306 </i>
    <i name="e_0_energy">   -489.35505812 </i>
   </energy>
  </scstep>
  <scstep>
   <time name="dav">   14.96   14.97</time>
   <time name="total">   15.99   16.00</time>
   <energy>
    <i name="e_fr_energy">   -480.03212082 </i>
    <i name="e_wo_entrp">   -478.82947172 </i>
    <i name="e_0_energy">   -479.43079627 </i>
   </energy>
  </scstep>
  <scstep>
   <time name="dav">   15.00   15.00</time>
   <time name="total">   16.04   16.04</time>
   <energy>
    <i name="e_fr_energy">   -476.39913687 </i>
    <i name="e_wo_entrp">   -475.14812211 </i>
    <i name="e_0_energy">   -475.77362949 </i>
   </energy>
  </scstep>
  <scstep>
   <time name="dav">   14.98   14.99</time>
   <time name="total">   15.78   15.78</time>
   <energy>
    <i name="e_fr_energy">   -475.40032554 </i>
    <i name="e_wo_entrp">   -474.15516765 </i>
    <i name="e_0_energy">   -474.77774659 </i>
   </energy>
  </scstep>
  <scstep>
   <time name="dav">   14.13   14.13</time>
   <time name="total">   15.05   15.05</time>
   <energy>
    <i name="e_fr_energy">   -474.88177796 </i>
    <i name="e_wo_entrp">   -473.64480578 </i>
    <i name="e_0_energy">   -474.26329187 </i>
   </energy>
  </scstep>
  <scstep>
   <time name="dav">   15.09   15.10</time>
   <time name="total">   15.99   16.00</time>
   <energy>
    <i name="e_fr_energy">   -474.35469673 </i>
    <i name="e_wo_entrp">   -473.10745574 </i>
    <i name="e_0_energy">   -473.73107624 </i>
   </energy>
  </scstep>
  <scstep>
   <time name="dav">   15.39   15.39</time>
   <time name="total">   16.20   16.20</time>
   <energy>
    <i name="e_fr_energy">   -473.51445171 </i>
    <i name="e_wo_entrp">   -472.21290351 </i>
    <i name="e_0_energy">   -472.86367761 </i>
   </energy>
  </scstep>
  <scstep>
   <time name="dav">   14.99   14.99</time>
   <time name="total">   15.80   15.81</time>
   <energy>
    <i name="e_fr_energy">   -472.39605492 </i>
    <i name="e_wo_entrp">   -471.08573968 </i>
    <i name="e_0_energy">   -471.74089730 </i>
   </energy>
  </scstep>
  <scstep>
   <time name="dav">   15.17   15.17</time>
   <time name="total">   15.99   15.99</time>
   <energy>
    <i name="e_fr_energy">   -472.32491782 </i>
    <i name="e_wo_entrp">   -471.06918520 </i>
    <i name="e_0_energy">   -471.69705151 </i>
   </energy>
  </scstep>
  <scstep>
   <time name="dav">   12.71   12.72</time>
   <time name="total">   13.53   13.53</time>
   <energy>
    <i name="e_fr_energy">   -472.18557208 </i>
    <i name="e_wo_entrp">   -470.89276999 </i>
    <i name="e_0_energy">   -471.53917104 </i>
   </energy>
  </scstep>
  <scstep>
   <time name="dav">   12.62   12.63</time>
   <time name="total">   13.55   13.55</time>
   <energy>
    <i name="e_fr_energy">   -472.15775303 </i>
    <i name="e_wo_entrp">   -470.88017828 </i>
    <i name="e_0_energy">   -471.51896565 </i>
   </energy>
  </scstep>
  <scstep>
   <time name="dav">   14.67   14.67</time>
   <time name="total">   15.51   15.52</time>
   <energy>
    <i name="e_fr_energy">   -472.19584456 </i>
    <i name="e_wo_entrp">   -470.91460076 </i>
    <i name="e_0_energy">   -471.55522266 </i>
   </energy>
  </scstep>
  <scstep>
   <time name="dav">   14.79   14.79</time>
   <time name="total">   15.60   15.61</time>
   <energy>
    <i name="e_fr_energy">   -472.07657028 </i>
    <i name="e_wo_entrp">   -470.80766293 </i>
    <i name="e_0_energy">   -471.44211661 </i>
   </energy>
  </scstep>
  <scstep>
   <time name="dav">   14.83   14.83</time>
   <time name="total">   15.84   15.84</time>
   <energy>
    <i name="e_fr_energy">   -472.07028516 </i>
    <i name="e_wo_entrp">   -470.79034829 </i>
    <i name="e_0_energy">   -471.43031672 </i>
   </energy>
  </scstep>
  <scstep>
   <time name="dav">   14.57   14.57</time>
   <time name="total">   15.42   15.43</time>
   <energy>
    <i name="e_fr_energy">   -471.99011579 </i>
    <i name="e_wo_entrp">   -470.72137284 </i>
    <i name="e_0_energy">   -471.35574432 </i>
   </energy>
  </scstep>
  <scstep>
   <time name="dav">   14.21   14.21</time>
   <time name="total">   15.03   15.03</time>
   <energy>
    <i name="e_fr_energy">   -471.99508414 </i>
    <i name="e_wo_entrp">   -470.71697013 </i>
    <i name="e_0_energy">   -471.35602714 </i>
   </energy>
  </scstep>
  <scstep>
   <time name="dav">   13.59   13.59</time>
   <time name="total">   14.42   14.42</time>
   <energy>
    <i name="e_fr_energy">   -471.98027950 </i>
    <i name="e_wo_entrp">   -470.70304544 </i>
    <i name="e_0_energy">   -471.34166247 </i>
   </energy>
  </scstep>
  <scstep>
   <time name="dav">   14.22   14.22</time>
   <time name="total">   15.09   15.09</time>
   <energy>
    <i name="e_fr_energy">   -471.97889499 </i>
    <i name="e_wo_entrp">   -470.70181304 </i>
    <i name="e_0_energy">   -471.34035401 </i>
   </energy>
  </scstep>
  <scstep>
   <time name="dav">   14.76   14.76</time>
   <time name="total">   15.73   15.73</time>
   <energy>
    <i name="e_fr_energy">   -471.96890754 </i>
    <i name="e_wo_entrp">   -470.69166413 </i>
    <i name="e_0_energy">   -471.33028583 </i>
   </energy>
  </scstep>
  <scstep>
   <time name="dav">   15.24   15.24</time>
   <time name="total">   16.08   16.08</time>
   <energy>
    <i name="e_fr_energy">   -471.97010780 </i>
    <i name="e_wo_entrp">   -470.69314319 </i>
    <i name="e_0_energy">   -471.33162549 </i>
   </energy>
  </scstep>
  <scstep>
   <time name="dav">   15.62   15.62</time>
   <time name="total">   16.45   16.45</time>
   <energy>
    <i name="e_fr_energy">   -471.95968955 </i>
    <i name="e_wo_entrp">   -470.68150790 </i>
    <i name="e_0_energy">   -471.32059872 </i>
   </energy>
  </scstep>
  <scstep>
   <time name="dav">   14.85   14.85</time>
   <time name="total">   15.69   15.70</time>
   <energy>
    <i name="e_fr_energy">   -471.95925686 </i>
    <i name="e_wo_entrp">   -470.68047502 </i>
    <i name="e_0_energy">   -471.31986594 </i>
   </energy>
  </scstep>
  <scstep>
   <time name="dav">   13.86   13.87</time>
   <time name="total">   14.72   14.72</time>
   <energy>
    <i name="e_fr_energy">   -471.95851161 </i>
    <i name="e_wo_entrp">   -470.67930600 </i>
    <i name="e_0_energy">   -471.31890881 </i>
   </energy>
  </scstep>
  <scstep>
   <time name="dav">   12.84   12.84</time>
   <time name="total">   13.68   13.68</time>
   <energy>
    <i name="e_fr_energy">   -471.95824151 </i>
    <i name="e_wo_entrp">   -470.67886730 </i>
    <i name="e_0_energy">   -471.31855440 </i>
   </energy>
  </scstep>
  <scstep>
   <time name="dav">   11.55   11.55</time>
   <time name="total">   12.00   12.01</time>
   <energy>
    <i name="alphaZ">   2592.50432107 </i>
    <i name="ewald"> 320455.44095424 </i>
    <i name="hartreedc">-482812.12027804 </i>
    <i name="XCdc">   4860.83632610 </i>
    <i name="pawpsdc"> 183547.87550620 </i>
    <i name="pawaedc">-190195.82257080 </i>
    <i name="eentropy">     -1.27892895 </i>
    <i name="bandstr"> -20256.20031523 </i>
    <i name="atom"> 181336.80673834 </i>
    <i name="e_fr_energy">   -471.95824707 </i>
    <i name="e_wo_entrp">   -470.67931812 </i>
    <i name="e_0_energy">   -471.31878259 </i>
   </energy>
  </scstep>
  <structure>
   <crystal>
    <varray name="basis" >
     <v>      11.25646304       0.00000000       0.00000000 </v>
     <v>       5.04456212      10.06282034       0.00000000 </v>
     <v>       0.00000000       0.00000000      22.51995597 </v>
    </varray>
    <i name="volume">   2550.87516496 </i>
    <varray name="rec_basis" >
     <v>       0.08883785      -0.04453504       0.00000000 </v>
     <v>       0.00000000       0.09937572       0.00000000 </v>
     <v>       0.00000000       0.00000000       0.04440506 </v>
    </varray>
   </crystal>
   <varray name="positions" >
    <v>       0.26092069       0.47878037       0.29519774 </v>
    <v>       0.35488056       0.38482050       0.42557357 </v>
    <v>       0.46120106       0.27948562       0.53748434 </v>
    <v>       0.16696082       0.07274025       0.16482191 </v>
    <v>       0.02643297       0.04799797       0.49104504 </v>
    <v>       0.27423906       0.33335901       0.13037583 </v>
    <v>       0.36819893       0.23939914       0.26075166 </v>
    <v>       0.46215879       0.14543927       0.39112749 </v>
    <v>       0.00030194       0.37150214       0.26075166 </v>
    <v>       0.09426180       0.27754227       0.39112749 </v>
    <v>       0.17931759       0.21030864       0.49543238 </v>
    <v>       0.40634206       0.46546200       0.13037583 </v>
    <v>       0.76092069       0.47878037       0.29519774 </v>
    <v>       0.85488056       0.38482050       0.42557357 </v>
    <v>       0.53222393       0.22016069       0.09066551 </v>
    <v>       0.66696082       0.07274025       0.16482191 </v>
    <v>       0.54432788       0.05166200       0.50184007 </v>
    <v>       0.77423906       0.33335901       0.13037583 </v>
    <v>       0.86819893       0.23939914       0.26075166 </v>
    <v>       0.96215879       0.14543927       0.39112749 </v>
    <v>       0.50030194       0.37150214       0.26075166 </v>
    <v>       0.59426180       0.27754227       0.39112749 </v>
    <v>       0.69515008       0.19879707       0.49767491 </v>
    <v>       0.90634206       0.46546200       0.13037583 </v>
    <v>       0.72250075       0.01027264       0.05412801 </v>
    <v>       0.26092069       0.97878037       0.29519774 </v>
    <v>       0.35488056       0.88482051       0.42557357 </v>
    <v>       0.44670583       0.78254465       0.53037711 </v>
    <v>       0.16696083       0.57274025       0.16482191 </v>
    <v>       0.21607400       0.02156806       0.05901835 </v>
    <v>       0.27423906       0.83335901       0.13037583 </v>
    <v>       0.36819893       0.73939914       0.26075166 </v>
    <v>       0.46215879       0.64543927       0.39112749 </v>
    <v>       0.00030194       0.87150214       0.26075166 </v>
    <v>       0.09426180       0.77754227       0.39112749 </v>
    <v>       0.40634206       0.96546200       0.13037583 </v>
    <v>       0.76092069       0.97878037       0.29519774 </v>
    <v>       0.85488056       0.88482051       0.42557357 </v>
    <v>       0.91438808       0.82263802       0.52863295 </v>
    <v>       0.66696083       0.57274025       0.16482191 </v>
    <v>       0.52931112       0.55905218       0.49571156 </v>
    <v>       0.77423906       0.83335901       0.13037583 </v>
    <v>       0.86819893       0.73939914       0.26075166 </v>
    <v>       0.96215879       0.64543927       0.39112749 </v>
    <v>       0.50030194       0.87150214       0.26075166 </v>
    <v>       0.59426180       0.77754227       0.39112749 </v>
    <v>       0.69385530       0.70151260       0.49696807 </v>
    <v>       0.90634206       0.96546200       0.13037583 </v>
    <v>       0.07287763       0.16682345       0.31134757 </v>
    <v>       0.16683750       0.07286358       0.44172340 </v>
    <v>       0.36472394       0.37499303       0.05999322 </v>
    <v>       0.47891775       0.26078331       0.18097174 </v>
    <v>       0.01867320       0.37559594       0.47031058 </v>
    <v>       0.43627354       0.47164252       0.35520991 </v>
    <v>       0.25630927       0.15584906       0.10701851 </v>
    <v>       0.34231367       0.06560240       0.22483408 </v>
    <v>       0.08271170       0.47958507       0.11270319 </v>
    <v>       0.17409868       0.39738739       0.22483408 </v>
    <v>       0.26805854       0.30342752       0.35520991 </v>
    <v>       0.36201841       0.20946766       0.48558574 </v>
    <v>       0.57287763       0.16682345       0.31134757 </v>
    <v>       0.66683750       0.07286358       0.44172340 </v>
    <v>       0.85356489       0.38588816       0.06254470 </v>
    <v>       0.97891775       0.26078331       0.18097174 </v>
    <v>       0.53023342       0.37768265       0.48558574 </v>
    <v>       0.93627354       0.47164252       0.35520991 </v>
    <v>       0.74835381       0.15956227       0.09445824 </v>
    <v>       0.84231367       0.06560240       0.22483408 </v>
    <v>       0.58328445       0.47900774       0.11213282 </v>
    <v>       0.67409868       0.39738739       0.22483408 </v>
    <v>       0.76805854       0.30342752       0.35520991 </v>
    <v>       0.86198981       0.22136365       0.47316547 </v>
    <v>       0.07287763       0.66682345       0.31134757 </v>
    <v>       0.16669135       0.57241832       0.41694659 </v>
    <v>       0.38708693       0.85270777       0.06254439 </v>
    <v>       0.47891775       0.76078331       0.18097174 </v>
    <v>       0.02575843       0.86919930       0.47314042 </v>
    <v>       0.43627354       0.97164252       0.35520991 </v>
    <v>       0.25971945       0.65681567       0.11240029 </v>
    <v>       0.34231367       0.56560240       0.22483408 </v>
    <v>       0.08245101       0.98202881       0.10741491 </v>
    <v>       0.17409868       0.89738739       0.22483408 </v>
    <v>       0.26805854       0.80342752       0.35520991 </v>
    <v>       0.35398930       0.71974730       0.47015289 </v>
    <v>       0.57287763       0.66682345       0.31134757 </v>
    <v>       0.66683750       0.57286358       0.44172340 </v>
    <v>       0.89468206       0.84492661       0.06441466 </v>
    <v>       0.97891775       0.76078331       0.18097174 </v>
    <v>       0.53023342       0.87768265       0.48558574 </v>
    <v>       0.93627354       0.97164252       0.35520991 </v>
    <v>       0.76011618       0.65737210       0.11293154 </v>
    <v>       0.84231367       0.56560240       0.22483408 </v>
    <v>       0.57379882       0.00083397       0.10437253 </v>
    <v>       0.67409868       0.89738739       0.22483408 </v>
    <v>       0.76805854       0.80342752       0.35520991 </v>
    <v>       0.86662074       0.71328788       0.47249945 </v>
   </varray>
  </structure>
  <varray name="forces" >
   <v>       0.15016900      -0.24891082      -0.09259222 </v>
   <v>       0.04586033      -0.05212817      -0.10218065 </v>
   <v>      -0.01304826       0.02896052       1.41116813 </v>
   <v>      -0.51599636       0.73599187       2.29973708 </v>
   <v>      -0.00867576      -0.41371676       1.29288796 </v>
   <v>      -0.51593076      -0.96523975       1.78959771 </v>
   <v>      -0.15480864      -0.04688943      -0.02828015 </v>
   <v>       0.09602630       0.06424424      -0.19702374 </v>
   <v>      -0.15219507       0.03274080       0.06866479 </v>
   <v>       0.08708021      -0.32753824      -1.95664786 </v>
   <v>       0.50929030      -0.27896721       1.45379996 </v>
   <v>       0.93831806       0.03665765       1.92647772 </v>
   <v>       0.14364361      -0.23067530      -0.16748680 </v>
   <v>      -0.82430447       0.78699531      -1.32427007 </v>
   <v>       0.38666791      -0.75938514      -0.73423570 </v>
   <v>       0.61072268       0.10476460       2.22306495 </v>
   <v>       0.15404254      -0.23897242       1.15640911 </v>
   <v>      -0.59652359      -1.57281453       2.49282220 </v>
   <v>       0.03187370       0.14351174      -0.04323263 </v>
   <v>       0.08328465       0.02087796      -1.59742785 </v>
   <v>      -0.00921326       0.09358459       0.02496453 </v>
   <v>      -0.12983922      -0.07717221      -0.26632736 </v>
   <v>       0.20225841      -0.06827890       1.09907551 </v>
   <v>       1.30196582      -0.15531042       2.79512962 </v>
   <v>      -0.74083427       0.46999789      -2.08643383 </v>
   <v>       0.09940152      -0.24483365      -0.09604121 </v>
   <v>       0.23102757       0.85600530      -0.69165363 </v>
   <v>      -0.06112474      -0.10803333       1.47093979 </v>
   <v>      -0.34460512       0.57904807       1.99154769 </v>
   <v>      -0.71842851       1.18158256      -1.92864759 </v>
   <v>      -0.31826979      -1.43782091       2.31726393 </v>
   <v>       0.00851119       0.08738379       0.04392897 </v>
   <v>       0.34342984      -0.18667841      -1.42751212 </v>
   <v>      -0.07949296      -0.10081419      -0.10252736 </v>
   <v>       0.10426517      -0.21029086      -1.63582053 </v>
   <v>       1.62962325      -0.22737498       2.05886964 </v>
   <v>       0.10525598      -0.22015339      -0.12381023 </v>
   <v>      -0.72443169       0.93346901      -2.10564795 </v>
   <v>      -0.00663617       0.07010236       1.46845833 </v>
   <v>      -0.41006548       0.49497503       2.08317331 </v>
   <v>       0.04358720      -0.15733027       1.40101783 </v>
   <v>      -0.71214494      -0.55990499       2.03756183 </v>
   <v>       0.12136353       0.10446449      -0.05127783 </v>
   <v>       0.04760853      -0.18951502      -1.60842589 </v>
   <v>      -0.04701080      -0.00135165      -0.03567816 </v>
   <v>      -0.09291043      -0.08275132      -0.33332515 </v>
   <v>       0.38642366      -0.25076846       1.01409785 </v>
   <v>       0.92171635       0.41724144       1.75833865 </v>
   <v>       0.18315961      -0.28179343       0.06342754 </v>
   <v>       0.68556496      -1.41472307      -0.72709401 </v>
   <v>      -0.28477583       0.19743622      -4.07654001 </v>
   <v>      -0.00003237       0.03860493       1.36624088 </v>
   <v>       0.76296262       2.22960083       2.35432474 </v>
   <v>       0.22150260      -0.25659024      -0.08782732 </v>
   <v>       0.38494424       1.84339014      -1.47032711 </v>
   <v>       0.06890531      -0.17186410       0.54405355 </v>
   <v>      -1.14051385       0.53294381      -2.25531414 </v>
   <v>      -0.08662633      -0.22796382       0.75757636 </v>
   <v>       0.11830123      -0.32082295      -0.05118577 </v>
   <v>      -1.65924150       0.35048324      -0.49429253 </v>
   <v>       0.00462516      -0.01912168       0.10808784 </v>
   <v>       0.75153387      -1.37918825      -1.77470713 </v>
   <v>       0.37808422      -0.52220850      -4.41766106 </v>
   <v>      -0.06101553      -0.21076205      -0.09596948 </v>
   <v>       0.38826219       1.51236943      -0.57388905 </v>
   <v>      -0.15567898       0.15625153      -0.58106956 </v>
   <v>       1.34246047       1.51525856      -0.13624915 </v>
   <v>      -0.01352157       0.13069608       0.06755479 </v>
   <v>      -0.86037419       0.89323933      -2.32719505 </v>
   <v>      -0.15384839      -0.33472934       0.57388087 </v>
   <v>      -0.30753408       0.09276931      -0.58014011 </v>
   <v>      -0.91724836       0.09861607       1.96331923 </v>
   <v>      -0.20308996       0.38356705      -0.87790216 </v>
   <v>       0.40140372      -0.71366692       1.78341753 </v>
   <v>       1.28730609      -2.05934655      -3.45326469 </v>
   <v>       0.15285080       0.08495278       0.31825448 </v>
   <v>       1.62051110       0.19148662       1.94271570 </v>
   <v>       0.16313420       0.16669570      -0.02442315 </v>
   <v>      -0.00857781       1.29526949      -2.25484325 </v>
   <v>       0.18910052      -0.02222003       0.81352338 </v>
   <v>      -1.96933174       0.41108058      -1.36311451 </v>
   <v>       0.07139391      -0.07656017       0.77289501 </v>
   <v>      -0.02481967       0.30939667      -0.68916094 </v>
   <v>      -2.74560316      -0.21962346       1.39227595 </v>
   <v>       0.15649982      -0.06961058      -0.06582364 </v>
   <v>       0.83106905      -1.48456047      -1.24785305 </v>
   <v>       1.36008148      -2.19700618      -3.31486615 </v>
   <v>       0.12864181      -0.03509830       0.72403709 </v>
   <v>       0.39701046       1.70998606      -0.46430848 </v>
   <v>      -0.04158589       0.29415144      -0.28683365 </v>
   <v>      -0.19431819       1.39940044      -2.48106538 </v>
   <v>       0.27996337       0.03112209       0.79499763 </v>
   <v>      -1.88566425      -0.55151712      -1.11330300 </v>
   <v>       0.02100308      -0.01207031       0.39228908 </v>
   <v>      -0.32203304       0.18162532      -0.30850548 </v>
   <v>      -0.92176822      -1.29832470       1.91936676 </v>
  </varray>
  <varray name="stress" >
   <v>      59.97154405       3.17442358      -0.09503030 </v>
   <v>       3.17442312      57.38672091       1.61207115 </v>
   <v>      -0.09502979       1.61207124      61.44629948 </v>
  </varray>
  <energy>
   <i name="e_fr_energy">   -471.95824707 </i>
   <i name="e_wo_entrp">   -471.31878259 </i>
   <i name="e_0_energy">     -1.27892895 </i>
  </energy>
  <time name="totalsc">  583.26  583.42</time>
  <eigenvalues>
   <array>
    <dimension dim="1">band</dimension>
    <dimension dim="2">kpoint</dimension>
    <dimension dim="3">spin</dimension>
    <field>eigene</field>
    <field>occ</field>
    <set>
     <set comment="spin 1">
      <set comment="kpoint 1">
       <r>  -63.1950    1.0000 </r>
       <r>  -63.1456    1.0000 </r>
       <r>  -63.0648    1.0000 </r>
       <r>  -63.0583    1.0000 </r>
       <r>  -63.0559    1.0000 </r>
       <r>  -63.0275    1.0000 </r>
       <r>  -62.9973    1.0000 </r>
       <r>  -62.9951    1.0000 </r>
       <r>  -62.9603    1.0000 </r>
       <r>  -62.9320    1.0000 </r>
       <r>  -62.9278    1.0000 </r>
       <r>  -62.9275    1.0000 </r>
       <r>  -62.9103    1.0000 </r>
       <r>  -62.9052    1.0000 </r>
       <r>  -62.8980    1.0000 </r>
       <r>  -62.8766    1.0000 </r>
       <r>  -62.8715    1.0000 </r>
       <r>  -62.8674    1.0000 </r>
       <r>  -62.8630    1.0000 </r>
       <r>  -62.8565    1.0000 </r>
       <r>  -62.8368    1.0000 </r>
       <r>  -62.8240    1.0000 </r>
       <r>  -62.7841    1.0000 </r>
       <r>  -62.7795    1.0000 </r>
       <r>  -62.7772    1.0000 </r>
       <r>  -62.7720    1.0000 </r>
       <r>  -62.7559    1.0000 </r>
       <r>  -62.7471    1.0000 </r>
       <r>  -62.7308    1.0000 </r>
       <r>  -62.7279    1.0000 </r>
       <r>  -62.7222    1.0000 </r>
       <r>  -62.7183    1.0000 </r>
       <r>  -62.7060    1.0000 </r>
       <r>  -62.7057    1.0000 </r>
       <r>  -62.6933    1.0000 </r>
       <r>  -62.6633    1.0000 </r>
       <r>  -62.6616    1.0000 </r>
       <r>  -62.6392    1.0000 </r>
       <r>  -62.6352    1.0000 </r>
       <r>  -62.6341    1.0000 </r>
       <r>  -62.6104    1.0000 </r>
       <r>  -62.6033    1.0000 </r>
       <r>  -62.6008    1.0000 </r>
       <r>  -62.5799    1.0000 </r>
       <r>  -62.5557    1.0000 </r>
       <r>  -62.5362    1.0000 </r>
       <r>  -62.5250    1.0000 </r>
       <r>  -62.5154    1.0000 </r>
       <r>  -62.5061    1.0000 </r>
       <r>  -62.5025    1.0000 </r>
       <r>  -62.4970    1.0000 </r>
       <r>  -62.4936    1.0000 </r>
       <r>  -62.4885    1.0000 </r>
       <r>  -62.4870    1.0000 </r>
       <r>  -62.4855    1.0000 </r>
       <r>  -62.4750    1.0000 </r>
       <r>  -62.4749    1.0000 </r>
       <r>  -62.4671    1.0000 </r>
       <r>  -62.4620    1.0000 </r>
       <r>  -62.4500    1.0000 </r>
       <r>  -62.4442    1.0000 </r>
       <r>  -62.4418    1.0000 </r>
       <r>  -62.4291    1.0000 </r>
       <r>  -62.4252    1.0000 </r>
       <r>  -62.4223    1.0000 </r>
       <r>  -62.4220    1.0000 </r>
       <r>  -62.4216    1.0000 </r>
       <r>  -62.4195    1.0000 </r>
       <r>  -62.4085    1.0000 </r>
       <r>  -62.4060    1.0000 </r>
       <r>  -62.4052    1.0000 </r>
       <r>  -62.4035    1.0000 </r>
       <r>  -62.4033    1.0000 </r>
       <r>  -62.3950    1.0000 </r>
       <r>  -62.3921    1.0000 </r>
       <r>  -62.3914    1.0000 </r>
       <r>  -62.3905    1.0000 </r>
       <r>  -62.3898    1.0000 </r>
       <r>  -62.3855    1.0000 </r>
       <r>  -62.3849    1.0000 </r>
       <r>  -62.3795    1.0000 </r>
       <r>  -62.3758    1.0000 </r>
       <r>  -62.3735    1.0000 </r>
       <r>  -62.3729    1.0000 </r>
       <r>  -62.3719    1.0000 </r>
       <r>  -62.3702    1.0000 </r>
       <r>  -62.3692    1.0000 </r>
       <r>  -62.3636    1.0000 </r>
       <r>  -62.3625    1.0000 </r>
       <r>  -62.3607    1.0000 </r>
       <r>  -62.3570    1.0000 </r>
       <r>  -62.3542    1.0000 </r>
       <r>  -62.3525    1.0000 </r>
       <r>  -62.3503    1.0000 </r>
       <r>  -62.3487    1.0000 </r>
       <r>  -62.3485    1.0000 </r>
       <r>  -62.3458    1.0000 </r>
       <r>  -62.3373    1.0000 </r>
       <r>  -62.3354    1.0000 </r>
       <r>  -62.3331    1.0000 </r>
       <r>  -62.3326    1.0000 </r>
       <r>  -62.3321    1.0000 </r>
       <r>  -62.3192    1.0000 </r>
       <r>  -62.3178    1.0000 </r>
       <r>  -62.3164    1.0000 </r>
       <r>  -62.3089    1.0000 </r>
       <r>  -62.3021    1.0000 </r>
       <r>  -62.2826    1.0000 </r>
       <r>  -62.2817    1.0000 </r>
       <r>  -62.2563    1.0000 </r>
       <r>  -62.2547    1.0000 </r>
       <r>  -62.2490    1.0000 </r>
       <r>  -62.2414    1.0000 </r>
       <r>  -62.2358    1.0000 </r>
       <r>  -62.2332    1.0000 </r>
       <r>  -62.2308    1.0000 </r>
       <r>  -62.2242    1.0000 </r>
       <r>  -62.1991    1.0000 </r>
       <r>  -62.1942    1.0000 </r>
       <r>  -62.1899    1.0000 </r>
       <r>  -62.1797    1.0000 </r>
       <r>  -62.1665    1.0000 </r>
       <r>  -62.1574    1.0000 </r>
       <r>  -62.1491    1.0000 </r>
       <r>  -62.1371    1.0000 </r>
       <r>  -62.1292    1.0000 </r>
       <r>  -62.1288    1.0000 </r>
       <r>  -62.1258    1.0000 </r>
       <r>  -62.1160    1.0000 </r>
       <r>  -62.0884    1.0000 </r>
       <r>  -62.0834    1.0000 </r>
       <r>  -62.0499    1.0000 </r>
       <r>  -62.0457    1.0000 </r>
       <r>  -62.0333    1.0000 </r>
       <r>  -61.8825    1.0000 </r>
       <r>  -61.8791    1.0000 </r>
       <r>  -61.8647    1.0000 </r>
       <r>  -61.8592    1.0000 </r>
       <r>  -61.8385    1.0000 </r>
       <r>  -61.8103    1.0000 </r>
       <r>  -61.8066    1.0000 </r>
       <r>  -61.7286    1.0000 </r>
       <r>  -61.6627    1.0000 </r>
       <r>  -61.2502    1.0000 </r>
       <r>  -14.3019    1.0000 </r>
       <r>  -14.0567    1.0000 </r>
       <r>  -13.5917    1.0000 </r>
       <r>  -13.5805    1.0000 </r>
       <r>  -13.5408    1.0000 </r>
       <r>  -13.5086    1.0000 </r>
       <r>  -13.4479    1.0000 </r>
       <r>  -13.3725    1.0000 </r>
       <r>  -13.2315    1.0000 </r>
       <r>  -13.1815    1.0000 </r>
       <r>  -13.1096    1.0000 </r>
       <r>  -13.0779    1.0000 </r>
       <r>  -13.0357    1.0000 </r>
       <r>  -12.9819    1.0000 </r>
       <r>  -12.9498    1.0000 </r>
       <r>  -12.7145    1.0000 </r>
       <r>  -12.6619    1.0000 </r>
       <r>  -12.6013    1.0000 </r>
       <r>  -12.5870    1.0000 </r>
       <r>  -12.5513    1.0000 </r>
       <r>  -12.5379    1.0000 </r>
       <r>  -12.5096    1.0000 </r>
       <r>  -12.4387    1.0000 </r>
       <r>  -12.4219    1.0000 </r>
       <r>  -12.3837    1.0000 </r>
       <r>  -12.3411    1.0000 </r>
       <r>  -12.3027    1.0000 </r>
       <r>  -12.2575    1.0000 </r>
       <r>  -12.2455    1.0000 </r>
       <r>  -12.1677    1.0000 </r>
       <r>  -12.1198    1.0000 </r>
       <r>  -12.0647    1.0000 </r>
       <r>  -12.0134    1.0000 </r>
       <r>  -11.9613    1.0000 </r>
       <r>  -11.8784    1.0000 </r>
       <r>  -11.8389    1.0000 </r>
       <r>  -11.8001    1.0000 </r>
       <r>  -11.7878    1.0000 </r>
       <r>  -11.7083    1.0000 </r>
       <r>  -11.6682    1.0000 </r>
       <r>  -11.6225    1.0000 </r>
       <r>  -11.6115    1.0000 </r>
       <r>  -11.5464    1.0000 </r>
       <r>  -11.4874    1.0000 </r>
       <r>  -11.4579    1.0000 </r>
       <r>  -11.2876    1.0000 </r>
       <r>  -11.1228    1.0000 </r>
       <r>  -11.0680    1.0000 </r>
       <r>   -6.1172    1.0000 </r>
       <r>   -6.0280    1.0000 </r>
       <r>   -6.0077    1.0000 </r>
       <r>   -5.9541    1.0000 </r>
       <r>   -5.9240    1.0000 </r>
       <r>   -5.8923    1.0000 </r>
       <r>   -5.8210    1.0000 </r>
       <r>   -5.7392    1.0000 </r>
       <r>   -5.6429    1.0000 </r>
       <r>   -5.6011    1.0000 </r>
       <r>   -5.4123    1.0000 </r>
       <r>   -5.3572    1.0000 </r>
       <r>   -5.3095    1.0000 </r>
       <r>   -5.2797    1.0000 </r>
       <r>   -5.2178    1.0000 </r>
       <r>   -5.1994    1.0000 </r>
       <r>   -5.1666    1.0000 </r>
       <r>   -5.1392    1.0000 </r>
       <r>   -5.1130    1.0000 </r>
       <r>   -5.0841    1.0000 </r>
       <r>   -5.0604    1.0000 </r>
       <r>   -5.0525    1.0000 </r>
       <r>   -5.0396    1.0000 </r>
       <r>   -5.0049    1.0000 </r>
       <r>   -4.9959    1.0000 </r>
       <r>   -4.9807    1.0000 </r>
       <r>   -4.9124    1.0000 </r>
       <r>   -4.9047    1.0000 </r>
       <r>   -4.8733    1.0000 </r>
       <r>   -4.8206    1.0000 </r>
       <r>   -4.8047    1.0000 </r>
       <r>   -4.7814    1.0000 </r>
       <r>   -4.7408    1.0000 </r>
       <r>   -4.7113    1.0000 </r>
       <r>   -4.6868    1.0000 </r>
       <r>   -4.6140    1.0000 </r>
       <r>   -4.5836    1.0000 </r>
       <r>   -4.5684    1.0000 </r>
       <r>   -4.5428    1.0000 </r>
       <r>   -4.4782    1.0000 </r>
       <r>   -4.4536    1.0000 </r>
       <r>   -4.4154    1.0000 </r>
       <r>   -4.3440    1.0000 </r>
       <r>   -4.2968    1.0000 </r>
       <r>   -4.2773    1.0000 </r>
       <r>   -4.2160    1.0000 </r>
       <r>   -4.1696    1.0000 </r>
       <r>   -4.1560    1.0000 </r>
       <r>   -4.1372    1.0000 </r>
       <r>   -4.1175    1.0000 </r>
       <r>   -4.1053    1.0000 </r>
       <r>   -4.0597    1.0000 </r>
       <r>   -4.0527    1.0000 </r>
       <r>   -4.0203    1.0000 </r>
       <r>   -3.9866    1.0000 </r>
       <r>   -3.9696    1.0000 </r>
       <r>   -3.9168    1.0000 </r>
       <r>   -3.9146    1.0000 </r>
       <r>   -3.8954    1.0000 </r>
       <r>   -3.8507    1.0000 </r>
       <r>   -3.8099    1.0000 </r>
       <r>   -3.7831    1.0000 </r>
       <r>   -3.7466    1.0000 </r>
       <r>   -3.7302    1.0000 </r>
       <r>   -3.7098    1.0000 </r>
       <r>   -3.6957    1.0000 </r>
       <r>   -3.6691    1.0000 </r>
       <r>   -3.6311    1.0000 </r>
       <r>   -3.5965    1.0000 </r>
       <r>   -3.5873    1.0000 </r>
       <r>   -3.5526    1.0000 </r>
       <r>   -3.5152    1.0000 </r>
       <r>   -3.4966    1.0000 </r>
       <r>   -3.4614    1.0000 </r>
       <r>   -3.4412    1.0000 </r>
       <r>   -3.4067    1.0000 </r>
       <r>   -3.3831    1.0000 </r>
       <r>   -3.3570    1.0000 </r>
       <r>   -3.3377    1.0000 </r>
       <r>   -3.3215    1.0000 </r>
       <r>   -3.3056    1.0000 </r>
       <r>   -3.2791    1.0000 </r>
       <r>   -3.2638    1.0000 </r>
       <r>   -3.2605    1.0000 </r>
       <r>   -3.2468    1.0000 </r>
       <r>   -3.2230    1.0000 </r>
       <r>   -3.2014    1.0000 </r>
       <r>   -3.1923    1.0000 </r>
       <r>   -3.1633    1.0000 </r>
       <r>   -3.1224    1.0000 </r>
       <r>   -3.1157    1.0000 </r>
       <r>   -3.0831    1.0000 </r>
       <r>   -3.0666    1.0000 </r>
       <r>   -3.0064    1.0000 </r>
       <r>   -2.9942    1.0000 </r>
       <r>   -2.9568    1.0000 </r>
       <r>   -2.9543    1.0000 </r>
       <r>   -2.9353    1.0000 </r>
       <r>   -2.9198    1.0000 </r>
       <r>   -2.8896    1.0000 </r>
       <r>   -2.8685    1.0000 </r>
       <r>   -2.8179    1.0000 </r>
       <r>   -2.7857    1.0000 </r>
       <r>   -2.7727    1.0000 </r>
       <r>   -2.7461    1.0000 </r>
       <r>   -2.7056    1.0000 </r>
       <r>   -2.6860    1.0000 </r>
       <r>   -2.6785    1.0000 </r>
       <r>   -2.6656    1.0000 </r>
       <r>   -2.6226    1.0000 </r>
       <r>   -2.6126    1.0000 </r>
       <r>   -2.5764    1.0000 </r>
       <r>   -2.5598    1.0000 </r>
       <r>   -2.5320    1.0000 </r>
       <r>   -2.4666    1.0000 </r>
       <r>   -2.4571    1.0000 </r>
       <r>   -2.4390    1.0000 </r>
       <r>   -2.4141    1.0000 </r>
       <r>   -2.3897    1.0000 </r>
       <r>   -2.3693    1.0000 </r>
       <r>   -2.3617    1.0000 </r>
       <r>   -2.3294    1.0000 </r>
       <r>   -2.3254    1.0000 </r>
       <r>   -2.3112    1.0000 </r>
       <r>   -2.2866    1.0000 </r>
       <r>   -2.2643    1.0000 </r>
       <r>   -2.2521    1.0000 </r>
       <r>   -2.2290    1.0000 </r>
       <r>   -2.2096    1.0000 </r>
       <r>   -2.1800    1.0000 </r>
       <r>   -2.1123    1.0000 </r>
       <r>   -2.0467    1.0000 </r>
       <r>   -1.9840    1.0000 </r>
       <r>   -1.9189    1.0000 </r>
       <r>   -1.8926    1.0000 </r>
       <r>   -1.8639    1.0000 </r>
       <r>   -1.8080    1.0000 </r>
       <r>   -1.7815    1.0000 </r>
       <r>   -1.7349    1.0000 </r>
       <r>   -1.7053    1.0000 </r>
       <r>   -1.6753    1.0000 </r>
       <r>   -1.6025    1.0000 </r>
       <r>   -1.5556    1.0000 </r>
       <r>   -1.5442    1.0000 </r>
       <r>   -1.5032    1.0000 </r>
       <r>   -1.4758    1.0000 </r>
       <r>   -1.4630    1.0000 </r>
       <r>   -1.4382    1.0000 </r>
       <r>   -1.4330    1.0000 </r>
       <r>   -1.4243    1.0000 </r>
       <r>   -1.3918    1.0000 </r>
       <r>   -1.3788    1.0000 </r>
       <r>   -1.3682    1.0000 </r>
       <r>   -1.3453    1.0000 </r>
       <r>   -1.3144    1.0000 </r>
       <r>   -1.2782    1.0000 </r>
       <r>   -1.2713    1.0000 </r>
       <r>   -1.2458    1.0000 </r>
       <r>   -1.2179    1.0000 </r>
       <r>   -1.1931    1.0000 </r>
       <r>   -1.1899    1.0000 </r>
       <r>   -1.1521    1.0000 </r>
       <r>   -1.1316    1.0000 </r>
       <r>   -1.1159    1.0000 </r>
       <r>   -1.0895    1.0000 </r>
       <r>   -1.0741    1.0000 </r>
       <r>   -1.0499    1.0000 </r>
       <r>   -1.0370    1.0000 </r>
       <r>   -1.0200    1.0000 </r>
       <r>   -0.9900    1.0000 </r>
       <r>   -0.9799    1.0000 </r>
       <r>   -0.9649    1.0000 </r>
       <r>   -0.9475    1.0000 </r>
       <r>   -0.9336    1.0000 </r>
       <r>   -0.9270    1.0000 </r>
       <r>   -0.9128    1.0000 </r>
       <r>   -0.9009    1.0000 </r>
       <r>   -0.8907    1.0000 </r>
       <r>   -0.8857    1.0000 </r>
       <r>   -0.8693    1.0000 </r>
       <r>   -0.8500    1.0000 </r>
       <r>   -0.8452    1.0000 </r>
       <r>   -0.8367    1.0000 </r>
       <r>   -0.8057    1.0000 </r>
       <r>   -0.7975    1.0000 </r>
       <r>   -0.7883    1.0000 </r>
       <r>   -0.7849    1.0000 </r>
       <r>   -0.7790    1.0000 </r>
       <r>   -0.7581    1.0000 </r>
       <r>   -0.7487    1.0000 </r>
       <r>   -0.7238    1.0000 </r>
       <r>   -0.7188    1.0000 </r>
       <r>   -0.7017    1.0000 </r>
       <r>   -0.6891    1.0000 </r>
       <r>   -0.6667    1.0000 </r>
       <r>   -0.6638    1.0000 </r>
       <r>   -0.6539    1.0000 </r>
       <r>   -0.6373    1.0000 </r>
       <r>   -0.6215    1.0000 </r>
       <r>   -0.6061    1.0000 </r>
       <r>   -0.5903    1.0000 </r>
       <r>   -0.5870    1.0000 </r>
       <r>   -0.5631    1.0000 </r>
       <r>   -0.5502    1.0000 </r>
       <r>   -0.5237    1.0000 </r>
       <r>   -0.5072    1.0000 </r>
       <r>   -0.5017    1.0000 </r>
       <r>   -0.4924    1.0000 </r>
       <r>   -0.4771    1.0000 </r>
       <r>   -0.4581    1.0000 </r>
       <r>   -0.4447    1.0000 </r>
       <r>   -0.4379    1.0000 </r>
       <r>   -0.4277    1.0000 </r>
       <r>   -0.4089    1.0000 </r>
       <r>   -0.4066    1.0000 </r>
       <r>   -0.3936    1.0000 </r>
       <r>   -0.3828    1.0000 </r>
       <r>   -0.3501    1.0000 </r>
       <r>   -0.3463    1.0000 </r>
       <r>   -0.3314    1.0000 </r>
       <r>   -0.3250    1.0000 </r>
       <r>   -0.3219    1.0000 </r>
       <r>   -0.2959    1.0000 </r>
       <r>   -0.2925    1.0000 </r>
       <r>   -0.2837    1.0000 </r>
       <r>   -0.2775    1.0000 </r>
       <r>   -0.2647    1.0000 </r>
       <r>   -0.2564    1.0000 </r>
       <r>   -0.2457    1.0000 </r>
       <r>   -0.2262    1.0000 </r>
       <r>   -0.2125    1.0000 </r>
       <r>   -0.1989    1.0000 </r>
       <r>   -0.1865    1.0000 </r>
       <r>   -0.1711    1.0000 </r>
       <r>   -0.1614    1.0000 </r>
       <r>   -0.1589    1.0000 </r>
       <r>   -0.1412    1.0000 </r>
       <r>   -0.1299    1.0000 </r>
       <r>   -0.1222    1.0000 </r>
       <r>   -0.1162    1.0000 </r>
       <r>   -0.1123    1.0000 </r>
       <r>   -0.0949    1.0000 </r>
       <r>   -0.0855    1.0000 </r>
       <r>   -0.0827    1.0000 </r>
       <r>   -0.0711    1.0000 </r>
       <r>   -0.0625    1.0000 </r>
       <r>   -0.0451    1.0000 </r>
       <r>   -0.0375    1.0000 </r>
       <r>   -0.0262    1.0000 </r>
       <r>   -0.0189    1.0000 </r>
       <r>   -0.0073    1.0000 </r>
       <r>    0.0080    1.0000 </r>
       <r>    0.0142    1.0000 </r>
       <r>    0.0157    1.0000 </r>
       <r>    0.0242    1.0000 </r>
       <r>    0.0369    1.0000 </r>
       <r>    0.0531    1.0000 </r>
       <r>    0.0598    1.0000 </r>
       <r>    0.0641    1.0000 </r>
       <r>    0.0731    1.0000 </r>
       <r>    0.0883    1.0000 </r>
       <r>    0.0955    1.0000 </r>
       <r>    0.1075    1.0000 </r>
       <r>    0.1246    1.0000 </r>
       <r>    0.1299    1.0000 </r>
       <r>    0.1452    1.0000 </r>
       <r>    0.1568    1.0000 </r>
       <r>    0.1668    1.0000 </r>
       <r>    0.1751    1.0000 </r>
       <r>    0.1932    1.0000 </r>
       <r>    0.2207    1.0000 </r>
       <r>    0.2229    1.0000 </r>
       <r>    0.2344    1.0000 </r>
       <r>    0.2605    1.0000 </r>
       <r>    0.2631    1.0000 </r>
       <r>    0.2845    1.0000 </r>
       <r>    0.2955    1.0000 </r>
       <r>    0.3088    1.0000 </r>
       <r>    0.3144    1.0000 </r>
       <r>    0.3358    1.0000 </r>
       <r>    0.3518    1.0000 </r>
       <r>    0.3617    1.0000 </r>
       <r>    0.3816    1.0000 </r>
       <r>    0.3939    1.0000 </r>
       <r>    0.3969    1.0000 </r>
       <r>    0.4104    1.0000 </r>
       <r>    0.4268    1.0000 </r>
       <r>    0.4409    1.0000 </r>
       <r>    0.4672    1.0000 </r>
       <r>    0.4858    1.0000 </r>
       <r>    0.4999    1.0000 </r>
       <r>    0.5099    1.0000 </r>
       <r>    0.5291    1.0000 </r>
       <r>    0.5526    1.0000 </r>
       <r>    0.5614    1.0000 </r>
       <r>    0.5696    1.0000 </r>
       <r>    0.5809    1.0000 </r>
       <r>    0.6056    1.0000 </r>
       <r>    0.6335    1.0000 </r>
       <r>    0.6359    1.0000 </r>
       <r>    0.6741    1.0000 </r>
       <r>    0.6850    1.0000 </r>
       <r>    0.6952    1.0000 </r>
       <r>    0.7316    1.0000 </r>
       <r>    0.7946    1.0000 </r>
       <r>    0.8138    1.0000 </r>
       <r>    0.8532    1.0000 </r>
       <r>    0.8632    1.0000 </r>
       <r>    0.9060    1.0000 </r>
       <r>    0.9168    1.0000 </r>
       <r>    0.9567    1.0000 </r>
       <r>    0.9886    1.0000 </r>
       <r>    1.0209    1.0000 </r>
       <r>    1.0296    1.0000 </r>
       <r>    1.0336    1.0000 </r>
       <r>    1.0634    1.0000 </r>
       <r>    1.1013    0.9999 </r>
       <r>    1.1209    0.9998 </r>
       <r>    1.1412    0.9997 </r>
       <r>    1.1608    0.9996 </r>
       <r>    1.1803    0.9993 </r>
       <r>    1.1972    0.9989 </r>
       <r>    1.2265    0.9979 </r>
       <r>    1.2603    0.9956 </r>
       <r>    1.2859    0.9926 </r>
       <r>    1.3308    0.9831 </r>
       <r>    1.3481    0.9772 </r>
       <r>    1.3546    0.9746 </r>
[...]
       <r>   -58.6745     0.0000   288.0000 </r>
       <r>   -58.4141     0.0000   288.0000 </r>
       <r>   -58.1538     0.0000   288.0000 </r>
       <r>   -57.8934     0.0000   288.0000 </r>
       <r>   -57.6331     0.0000   288.0000 </r>
       <r>   -57.3727     0.0000   288.0000 </r>
       <r>   -57.1124     0.0000   288.0000 </r>
       <r>   -56.8521     0.0000   288.0000 </r>
       <r>   -56.5917     0.0000   288.0000 </r>
       <r>   -56.3314     0.0000   288.0000 </r>
       <r>   -56.0710     0.0000   288.0000 </r>
       <r>   -55.8107     0.0000   288.0000 </r>
       <r>   -55.5503     0.0000   288.0000 </r>
       <r>   -55.2900     0.0000   288.0000 </r>
       <r>   -55.0296     0.0000   288.0000 </r>
       <r>   -54.7693     0.0000   288.0000 </r>
       <r>   -54.5090     0.0000   288.0000 </r>
       <r>   -54.2486     0.0000   288.0000 </r>
       <r>   -53.9883     0.0000   288.0000 </r>
       <r>   -53.7279     0.0000   288.0000 </r>
       <r>   -53.4676     0.0000   288.0000 </r>
       <r>   -53.2072     0.0000   288.0000 </r>
       <r>   -52.9469     0.0000   288.0000 </r>
       <r>   -52.6865     0.0000   288.0000 </r>
       <r>   -52.4262     0.0000   288.0000 </r>
       <r>   -52.1659     0.0000   288.0000 </r>
       <r>   -51.9055     0.0000   288.0000 </r>
       <r>   -51.6452     0.0000   288.0000 </r>
       <r>   -51.3848     0.0000   288.0000 </r>
       <r>   -51.1245     0.0000   288.0000 </r>
       <r>   -50.8641     0.0000   288.0000 </r>
       <r>   -50.6038     0.0000   288.0000 </r>
       <r>   -50.3434     0.0000   288.0000 </r>
       <r>   -50.0831     0.0000   288.0000 </r>
       <r>   -49.8228     0.0000   288.0000 </r>
       <r>   -49.5624     0.0000   288.0000 </r>
       <r>   -49.3021     0.0000   288.0000 </r>
       <r>   -49.0417     0.0000   288.0000 </r>
       <r>   -48.7814     0.0000   288.0000 </r>
       <r>   -48.5210     0.0000   288.0000 </r>
       <r>   -48.2607     0.0000   288.0000 </r>
       <r>   -48.0003     0.0000   288.0000 </r>
       <r>   -47.7400     0.0000   288.0000 </r>
       <r>   -47.4796     0.0000   288.0000 </r>
       <r>   -47.2193     0.0000   288.0000 </r>
       <r>   -46.9590     0.0000   288.0000 </r>
       <r>   -46.6986     0.0000   288.0000 </r>
       <r>   -46.4383     0.0000   288.0000 </r>
       <r>   -46.1779     0.0000   288.0000 </r>
       <r>   -45.9176     0.0000   288.0000 </r>
       <r>   -45.6572     0.0000   288.0000 </r>
       <r>   -45.3969     0.0000   288.0000 </r>
       <r>   -45.1365     0.0000   288.0000 </r>
       <r>   -44.8762     0.0000   288.0000 </r>
       <r>   -44.6159     0.0000   288.0000 </r>
       <r>   -44.3555     0.0000   288.0000 </r>
       <r>   -44.0952     0.0000   288.0000 </r>
       <r>   -43.8348     0.0000   288.0000 </r>
       <r>   -43.5745     0.0000   288.0000 </r>
       <r>   -43.3141     0.0000   288.0000 </r>
       <r>   -43.0538     0.0000   288.0000 </r>
       <r>   -42.7934     0.0000   288.0000 </r>
       <r>   -42.5331     0.0000   288.0000 </r>
       <r>   -42.2728     0.0000   288.0000 </r>
       <r>   -42.0124     0.0000   288.0000 </r>
       <r>   -41.7521     0.0000   288.0000 </r>
       <r>   -41.4917     0.0000   288.0000 </r>
       <r>   -41.2314     0.0000   288.0000 </r>
       <r>   -40.9710     0.0000   288.0000 </r>
       <r>   -40.7107     0.0000   288.0000 </r>
       <r>   -40.4503     0.0000   288.0000 </r>
       <r>   -40.1900     0.0000   288.0000 </r>
       <r>   -39.9296     0.0000   288.0000 </r>
       <r>   -39.6693     0.0000   288.0000 </r>
       <r>   -39.4090     0.0000   288.0000 </r>
       <r>   -39.1486     0.0000   288.0000 </r>
       <r>   -38.8883     0.0000   288.0000 </r>
       <r>   -38.6279     0.0000   288.0000 </r>
       <r>   -38.3676     0.0000   288.0000 </r>
       <r>   -38.1072     0.0000   288.0000 </r>
       <r>   -37.8469     0.0000   288.0000 </r>
       <r>   -37.5865     0.0000   288.0000 </r>
       <r>   -37.3262     0.0000   288.0000 </r>
       <r>   -37.0659     0.0000   288.0000 </r>
       <r>   -36.8055     0.0000   288.0000 </r>
       <r>   -36.5452     0.0000   288.0000 </r>
       <r>   -36.2848     0.0000   288.0000 </r>
       <r>   -36.0245     0.0000   288.0000 </r>
       <r>   -35.7641     0.0000   288.0000 </r>
       <r>   -35.5038     0.0000   288.0000 </r>
       <r>   -35.2434     0.0000   288.0000 </r>
       <r>   -34.9831     0.0000   288.0000 </r>
       <r>   -34.7228     0.0000   288.0000 </r>
       <r>   -34.4624     0.0000   288.0000 </r>
       <r>   -34.2021     0.0000   288.0000 </r>
       <r>   -33.9417     0.0000   288.0000 </r>
       <r>   -33.6814     0.0000   288.0000 </r>
       <r>   -33.4210     0.0000   288.0000 </r>
       <r>   -33.1607     0.0000   288.0000 </r>
       <r>   -32.9003     0.0000   288.0000 </r>
       <r>   -32.6400     0.0000   288.0000 </r>
       <r>   -32.3797     0.0000   288.0000 </r>
       <r>   -32.1193     0.0000   288.0000 </r>
       <r>   -31.8590     0.0000   288.0000 </r>
       <r>   -31.5986     0.0000   288.0000 </r>
       <r>   -31.3383     0.0000   288.0000 </r>
       <r>   -31.0779     0.0000   288.0000 </r>
       <r>   -30.8176     0.0000   288.0000 </r>
       <r>   -30.5572     0.0000   288.0000 </r>
       <r>   -30.2969     0.0000   288.0000 </r>
       <r>   -30.0365     0.0000   288.0000 </r>
       <r>   -29.7762     0.0000   288.0000 </r>
       <r>   -29.5159     0.0000   288.0000 </r>
       <r>   -29.2555     0.0000   288.0000 </r>
       <r>   -28.9952     0.0000   288.0000 </r>
       <r>   -28.7348     0.0000   288.0000 </r>
       <r>   -28.4745     0.0000   288.0000 </r>
       <r>   -28.2141     0.0000   288.0000 </r>
       <r>   -27.9538     0.0000   288.0000 </r>
       <r>   -27.6934     0.0000   288.0000 </r>
       <r>   -27.4331     0.0000   288.0000 </r>
       <r>   -27.1728     0.0000   288.0000 </r>
       <r>   -26.9124     0.0000   288.0000 </r>
       <r>   -26.6521     0.0000   288.0000 </r>
       <r>   -26.3917     0.0000   288.0000 </r>
       <r>   -26.1314     0.0000   288.0000 </r>
       <r>   -25.8710     0.0000   288.0000 </r>
       <r>   -25.6107     0.0000   288.0000 </r>
       <r>   -25.3503     0.0000   288.0000 </r>
       <r>   -25.0900     0.0000   288.0000 </r>
       <r>   -24.8297     0.0000   288.0000 </r>
       <r>   -24.5693     0.0000   288.0000 </r>
       <r>   -24.3090     0.0000   288.0000 </r>
       <r>   -24.0486     0.0000   288.0000 </r>
       <r>   -23.7883     0.0000   288.0000 </r>
       <r>   -23.5279     0.0000   288.0000 </r>
       <r>   -23.2676     0.0000   288.0000 </r>
       <r>   -23.0072     0.0000   288.0000 </r>
       <r>   -22.7469     0.0000   288.0000 </r>
       <r>   -22.4865     0.0000   288.0000 </r>
       <r>   -22.2262     0.0000   288.0000 </r>
       <r>   -21.9659     0.0000   288.0000 </r>
       <r>   -21.7055     0.0000   288.0000 </r>
       <r>   -21.4452     0.0000   288.0000 </r>
       <r>   -21.1848     0.0000   288.0000 </r>
       <r>   -20.9245     0.0000   288.0000 </r>
       <r>   -20.6641     0.0000   288.0000 </r>
       <r>   -20.4038     0.0000   288.0000 </r>
       <r>   -20.1434     0.0000   288.0000 </r>
       <r>   -19.8831     0.0000   288.0000 </r>
       <r>   -19.6228     0.0000   288.0000 </r>
       <r>   -19.3624     0.0000   288.0000 </r>
       <r>   -19.1021     0.0000   288.0000 </r>
       <r>   -18.8417     0.0000   288.0000 </r>
       <r>   -18.5814     0.0000   288.0000 </r>
       <r>   -18.3210     0.0000   288.0000 </r>
       <r>   -18.0607     0.0000   288.0000 </r>
       <r>   -17.8003     0.0000   288.0000 </r>
       <r>   -17.5400     0.0000   288.0000 </r>
       <r>   -17.2797     0.0000   288.0000 </r>
       <r>   -17.0193     0.0000   288.0000 </r>
       <r>   -16.7590     0.0000   288.0000 </r>
       <r>   -16.4986     0.0000   288.0000 </r>
       <r>   -16.2383     0.0000   288.0000 </r>
       <r>   -15.9779     0.0000   288.0000 </r>
       <r>   -15.7176     0.0000   288.0000 </r>
       <r>   -15.4572     0.0000   288.0000 </r>
       <r>   -15.1969     0.0000   288.0000 </r>
       <r>   -14.9366     0.0000   288.0000 </r>
       <r>   -14.6762     0.0312   288.0081 </r>
       <r>   -14.4159     1.6252   288.4312 </r>
       <r>   -14.1555     6.7324   290.1840 </r>
       <r>   -13.8952     6.2871   291.8208 </r>
       <r>   -13.6348    10.6473   294.5927 </r>
       <r>   -13.3745    28.9861   302.1391 </r>
       <r>   -13.1141    29.4913   309.8170 </r>
       <r>   -12.8538    29.2827   317.4406 </r>
       <r>   -12.5934    31.9819   325.7670 </r>
       <r>   -12.3331    51.2991   339.1224 </r>
       <r>   -12.0728    43.9705   350.5699 </r>
       <r>   -11.8124    39.7930   360.9298 </r>
       <r>   -11.5521    42.3971   371.9676 </r>
       <r>   -11.2917    26.2022   378.7892 </r>
       <r>   -11.0314    14.6836   382.6120 </r>
       <r>   -10.7710     5.1435   383.9511 </r>
       <r>   -10.5107     0.1874   383.9999 </r>
       <r>   -10.2503     0.0004   384.0000 </r>
       <r>    -9.9900     0.0000   384.0000 </r>
       <r>    -9.7297     0.0000   384.0000 </r>
       <r>    -9.4693     0.0000   384.0000 </r>
       <r>    -9.2090     0.0000   384.0000 </r>
       <r>    -8.9486     0.0000   384.0000 </r>
       <r>    -8.6883     0.0000   384.0000 </r>
       <r>    -8.4279     0.0000   384.0000 </r>
       <r>    -8.1676     0.0000   384.0000 </r>
       <r>    -7.9072     0.0000   384.0000 </r>
       <r>    -7.6469     0.0000   384.0000 </r>
       <r>    -7.3866     0.0000   384.0000 </r>
       <r>    -7.1262     0.0000   384.0000 </r>
       <r>    -6.8659     0.0000   384.0000 </r>
       <r>    -6.6055     0.0024   384.0006 </r>
       <r>    -6.3452     0.6086   384.1591 </r>
       <r>    -6.0848    12.1305   387.3172 </r>
       <r>    -5.8245    33.3082   395.9888 </r>
       <r>    -5.5641    26.4752   402.8815 </r>
       <r>    -5.3038    30.7774   410.8942 </r>
       <r>    -5.0434    64.1437   427.5937 </r>
       <r>    -4.7831    70.4136   445.9255 </r>
       <r>    -4.5228    56.9175   460.7436 </r>
       <r>    -4.2624    51.5893   474.1746 </r>
       <r>    -4.0021    67.7078   491.8020 </r>
       <r>    -3.7417    72.8738   510.7743 </r>
       <r>    -3.4814    75.7018   530.4829 </r>
       <r>    -3.2210    89.6038   553.8108 </r>
       <r>    -2.9607    86.3304   576.2864 </r>
       <r>    -2.7003    79.1589   596.8951 </r>
       <r>    -2.4400    81.6339   618.1480 </r>
       <r>    -2.1797    81.5713   639.3847 </r>
       <r>    -1.9193    49.9179   652.3805 </r>
       <r>    -1.6590    50.3031   665.4767 </r>
       <r>    -1.3986    74.1567   684.7830 </r>
       <r>    -1.1383    95.5948   709.6706 </r>
       <r>    -0.8779   124.5193   742.0886 </r>
       <r>    -0.6176   149.4075   780.9860 </r>
       <r>    -0.3572   154.1230   821.1112 </r>
       <r>    -0.0969   179.2730   867.7839 </r>
       <r>     0.1634   184.1833   915.7351 </r>
       <r>     0.4238   149.2576   954.5936 </r>
       <r>     0.6841   114.0364   984.2823 </r>
       <r>     0.9445    79.5372  1004.9894 </r>
       <r>     1.2048    80.8505  1026.0384 </r>
       <r>     1.4652    72.6966  1044.9646 </r>
       <r>     1.7255    64.4177  1061.7354 </r>
       <r>     1.9859    50.3080  1074.8329 </r>
       <r>     2.2462    65.1521  1091.7949 </r>
       <r>     2.5065    76.0964  1111.6062 </r>
       <r>     2.7669    61.6564  1127.6581 </r>
       <r>     3.0272    50.7194  1140.8626 </r>
       <r>     3.2876    30.5267  1148.8101 </r>
       <r>     3.5479    14.3915  1152.5568 </r>
       <r>     3.8083     7.1343  1154.4142 </r>
       <r>     4.0686     7.4627  1156.3571 </r>
       <r>     4.3290     5.8438  1157.8785 </r>
       <r>     4.5893     6.4502  1159.5577 </r>
       <r>     4.8497    15.8318  1163.6795 </r>
       <r>     5.1100    16.8783  1168.0737 </r>
       <r>     5.3703    15.4951  1172.1077 </r>
       <r>     5.6307    17.0879  1176.5565 </r>
       <r>     5.8910    28.3836  1183.9460 </r>
       <r>     6.1514    32.1509  1192.3163 </r>
       <r>     6.4117    29.9327  1200.1091 </r>
       <r>     6.6721    28.2364  1207.4603 </r>
       <r>     6.9324    39.4142  1217.7216 </r>
       <r>     7.1928    54.9388  1232.0246 </r>
       <r>     7.4531    56.5612  1246.7501 </r>
       <r>     7.7134    55.8293  1261.2849 </r>
       <r>     7.9738    23.9083  1267.5094 </r>
       <r>     8.2341     1.8712  1267.9965 </r>
       <r>     8.4945     0.0134  1268.0000 </r>
       <r>     8.7548     0.0000  1268.0000 </r>
       <r>     9.0152     0.0000  1268.0000 </r>
       <r>     9.2755     0.0000  1268.0000 </r>
       <r>     9.5359     0.0000  1268.0000 </r>
       <r>     9.7962     0.0000  1268.0000 </r>
       <r>    10.0565     0.0000  1268.0000 </r>
       <r>    10.3169     0.0000  1268.0000 </r>
       <r>    10.5772     0.0000  1268.0000 </r>
       <r>    10.8376     0.0000  1268.0000 </r>
       <r>    11.0979     0.0000  1268.0000 </r>
       <r>    11.3583     0.0000  1268.0000 </r>
      </set>
     </set>
    </array>
   </total>
  </dos>
 </calculation>
 <structure name="finalpos" >
  <crystal>
   <varray name="basis" >
    <v>      11.25646304       0.00000000       0.00000000 </v>
    <v>       5.04456212      10.06282034       0.00000000 </v>
    <v>       0.00000000       0.00000000      22.51995597 </v>
   </varray>
   <i name="volume">   2550.87516496 </i>
   <varray name="rec_basis" >
    <v>       0.08883785      -0.04453504       0.00000000 </v>
    <v>       0.00000000       0.09937572       0.00000000 </v>
    <v>       0.00000000       0.00000000       0.04440506 </v>
   </varray>
  </crystal>
  <varray name="positions" >
   <v>       0.26092069       0.47878037       0.29519774 </v>
   <v>       0.35488056       0.38482050       0.42557357 </v>
   <v>       0.46120106       0.27948562       0.53748434 </v>
   <v>       0.16696082       0.07274025       0.16482191 </v>
   <v>       0.02643297       0.04799797       0.49104504 </v>
   <v>       0.27423906       0.33335901       0.13037583 </v>
   <v>       0.36819893       0.23939914       0.26075166 </v>
   <v>       0.46215879       0.14543927       0.39112749 </v>
   <v>       0.00030194       0.37150214       0.26075166 </v>
   <v>       0.09426180       0.27754227       0.39112749 </v>
   <v>       0.17931759       0.21030864       0.49543238 </v>
   <v>       0.40634206       0.46546200       0.13037583 </v>
   <v>       0.76092069       0.47878037       0.29519774 </v>
   <v>       0.85488056       0.38482050       0.42557357 </v>
   <v>       0.53222393       0.22016069       0.09066551 </v>
   <v>       0.66696082       0.07274025       0.16482191 </v>
   <v>       0.54432788       0.05166200       0.50184007 </v>
   <v>       0.77423906       0.33335901       0.13037583 </v>
   <v>       0.86819893       0.23939914       0.26075166 </v>
   <v>       0.96215879       0.14543927       0.39112749 </v>
   <v>       0.50030194       0.37150214       0.26075166 </v>
   <v>       0.59426180       0.27754227       0.39112749 </v>
   <v>       0.69515008       0.19879707       0.49767491 </v>
   <v>       0.90634206       0.46546200       0.13037583 </v>
   <v>       0.72250075       0.01027264       0.05412801 </v>
   <v>       0.26092069       0.97878037       0.29519774 </v>
   <v>       0.35488056       0.88482051       0.42557357 </v>
   <v>       0.44670583       0.78254465       0.53037711 </v>
   <v>       0.16696083       0.57274025       0.16482191 </v>
   <v>       0.21607400       0.02156806       0.05901835 </v>
   <v>       0.27423906       0.83335901       0.13037583 </v>
   <v>       0.36819893       0.73939914       0.26075166 </v>
   <v>       0.46215879       0.64543927       0.39112749 </v>
   <v>       0.00030194       0.87150214       0.26075166 </v>
   <v>       0.09426180       0.77754227       0.39112749 </v>
   <v>       0.40634206       0.96546200       0.13037583 </v>
   <v>       0.76092069       0.97878037       0.29519774 </v>
   <v>       0.85488056       0.88482051       0.42557357 </v>
   <v>       0.91438808       0.82263802       0.52863295 </v>
   <v>       0.66696083       0.57274025       0.16482191 </v>
   <v>       0.52931112       0.55905218       0.49571156 </v>
   <v>       0.77423906       0.83335901       0.13037583 </v>
   <v>       0.86819893       0.73939914       0.26075166 </v>
   <v>       0.96215879       0.64543927       0.39112749 </v>
   <v>       0.50030194       0.87150214       0.26075166 </v>
   <v>       0.59426180       0.77754227       0.39112749 </v>
   <v>       0.69385530       0.70151260       0.49696807 </v>
   <v>       0.90634206       0.96546200       0.13037583 </v>
   <v>       0.07287763       0.16682345       0.31134757 </v>
   <v>       0.16683750       0.07286358       0.44172340 </v>
   <v>       0.36472394       0.37499303       0.05999322 </v>
   <v>       0.47891775       0.26078331       0.18097174 </v>
   <v>       0.01867320       0.37559594       0.47031058 </v>
   <v>       0.43627354       0.47164252       0.35520991 </v>
   <v>       0.25630927       0.15584906       0.10701851 </v>
   <v>       0.34231367       0.06560240       0.22483408 </v>
   <v>       0.08271170       0.47958507       0.11270319 </v>
   <v>       0.17409868       0.39738739       0.22483408 </v>
   <v>       0.26805854       0.30342752       0.35520991 </v>
   <v>       0.36201841       0.20946766       0.48558574 </v>
   <v>       0.57287763       0.16682345       0.31134757 </v>
   <v>       0.66683750       0.07286358       0.44172340 </v>
   <v>       0.85356489       0.38588816       0.06254470 </v>
   <v>       0.97891775       0.26078331       0.18097174 </v>
   <v>       0.53023342       0.37768265       0.48558574 </v>
   <v>       0.93627354       0.47164252       0.35520991 </v>
   <v>       0.74835381       0.15956227       0.09445824 </v>
   <v>       0.84231367       0.06560240       0.22483408 </v>
   <v>       0.58328445       0.47900774       0.11213282 </v>
   <v>       0.67409868       0.39738739       0.22483408 </v>
   <v>       0.76805854       0.30342752       0.35520991 </v>
   <v>       0.86198981       0.22136365       0.47316547 </v>
   <v>       0.07287763       0.66682345       0.31134757 </v>
   <v>       0.16669135       0.57241832       0.41694659 </v>
   <v>       0.38708693       0.85270777       0.06254439 </v>
   <v>       0.47891775       0.76078331       0.18097174 </v>
   <v>       0.02575843       0.86919930       0.47314042 </v>
   <v>       0.43627354       0.97164252       0.35520991 </v>
   <v>       0.25971945       0.65681567       0.11240029 </v>
   <v>       0.34231367       0.56560240       0.22483408 </v>
   <v>       0.08245101       0.98202881       0.10741491 </v>
   <v>       0.17409868       0.89738739       0.22483408 </v>
   <v>       0.26805854       0.80342752       0.35520991 </v>
   <v>       0.35398930       0.71974730       0.47015289 </v>
   <v>       0.57287763       0.66682345       0.31134757 </v>
   <v>       0.66683750       0.57286358       0.44172340 </v>
   <v>       0.89468206       0.84492661       0.06441466 </v>
   <v>       0.97891775       0.76078331       0.18097174 </v>
   <v>       0.53023342       0.87768265       0.48558574 </v>
   <v>       0.93627354       0.97164252       0.35520991 </v>
   <v>       0.76011618       0.65737210       0.11293154 </v>
   <v>       0.84231367       0.56560240       0.22483408 </v>
   <v>       0.57379882       0.00083397       0.10437253 </v>
   <v>       0.67409868       0.89738739       0.22483408 </v>
   <v>       0.76805854       0.80342752       0.35520991 </v>
   <v>       0.86662074       0.71328788       0.47249945 </v>
  </varray>
 </structure>
</modeling>
