"Millerite NiS"                         
           1
    11.256463    0.000000    0.000000
     5.044562   10.062820    0.000000
     0.000000    0.000000   22.519956
   Ty   Ty
  48  48
Direct configuration=     1
   0.26092069  0.47878037  0.29519774
   0.35488056  0.38482050  0.42557357
   0.46120106  0.27948562  0.53748434
   0.16696082  0.07274025  0.16482191
   0.02643297  0.04799797  0.49104504
   0.27423906  0.33335901  0.13037583
   0.36819893  0.23939914  0.26075166
   0.46215879  0.14543927  0.39112749
   0.00030194  0.37150214  0.26075166
   0.09426180  0.27754227  0.39112749
   0.17931759  0.21030864  0.49543238
   0.40634206  0.46546200  0.13037583
   0.76092069  0.47878037  0.29519774
   0.85488056  0.38482050  0.42557357
   0.53222393  0.22016069  0.09066551
   0.66696082  0.07274025  0.16482191
   0.54432788  0.05166200  0.50184007
   0.77423906  0.33335901  0.13037583
   0.86819893  0.23939914  0.26075166
   0.96215879  0.14543927  0.39112749
   0.50030194  0.37150214  0.26075166
   0.59426180  0.27754227  0.39112749
   0.69515008  0.19879707  0.49767491
   0.90634206  0.46546200  0.13037583
   0.72250075  0.01027264  0.05412801
   0.26092069  0.97878037  0.29519774
   0.35488056  0.88482051  0.42557357
   0.44670583  0.78254465  0.53037711
   0.16696083  0.57274025  0.16482191
   0.21607400  0.02156806  0.05901835
   0.27423906  0.83335901  0.13037583
   0.36819893  0.73939914  0.26075166
   0.46215879  0.64543927  0.39112749
   0.00030194  0.87150214  0.26075166
   0.09426180  0.77754227  0.39112749
   0.40634206  0.96546200  0.13037583
   0.76092069  0.97878037  0.29519774
   0.85488056  0.88482051  0.42557357
   0.91438808  0.82263802  0.52863295
   0.66696083  0.57274025  0.16482191
   0.52931112  0.55905218  0.49571156
   0.77423906  0.83335901  0.13037583
   0.86819893  0.73939914  0.26075166
   0.96215879  0.64543927  0.39112749
   0.50030194  0.87150214  0.26075166
   0.59426180  0.77754227  0.39112749
   0.69385530  0.70151260  0.49696807
   0.90634206  0.96546200  0.13037583
   0.07287763  0.16682345  0.31134757
   0.16683750  0.07286358  0.44172340
   0.36472394  0.37499303  0.05999322
   0.47891775  0.26078331  0.18097174
   0.01867320  0.37559594  0.47031058
   0.43627354  0.47164252  0.35520991
   0.25630927  0.15584906  0.10701851
   0.34231367  0.06560240  0.22483408
   0.08271170  0.47958507  0.11270319
   0.17409868  0.39738739  0.22483408
   0.26805854  0.30342752  0.35520991
   0.36201841  0.20946766  0.48558574
   0.57287763  0.16682345  0.31134757
   0.66683750  0.07286358  0.44172340
   0.85356489  0.38588816  0.06254470
   0.97891775  0.26078331  0.18097174
   0.53023342  0.37768265  0.48558574
   0.93627354  0.47164252  0.35520991
   0.74835381  0.15956227  0.09445824
   0.84231367  0.06560240  0.22483408
   0.58328445  0.47900774  0.11213282
   0.67409868  0.39738739  0.22483408
   0.76805854  0.30342752  0.35520991
   0.86198981  0.22136365  0.47316547
   0.07287763  0.66682345  0.31134757
   0.16669135  0.57241832  0.41694659
   0.38708693  0.85270777  0.06254439
   0.47891775  0.76078331  0.18097174
   0.02575843  0.86919930  0.47314042
   0.43627354  0.97164252  0.35520991
   0.25971945  0.65681567  0.11240029
   0.34231367  0.56560240  0.22483408
   0.08245101  0.98202881  0.10741491
   0.17409868  0.89738739  0.22483408
   0.26805854  0.80342752  0.35520991
   0.35398930  0.71974730  0.47015289
   0.57287763  0.66682345  0.31134757
   0.66683750  0.57286358  0.44172340
   0.89468206  0.84492661  0.06441466
   0.97891775  0.76078331  0.18097174
   0.53023342  0.87768265  0.48558574
   0.93627354  0.97164252  0.35520991
   0.76011618  0.65737210  0.11293154
   0.84231367  0.56560240  0.22483408
   0.57379882  0.00083397  0.10437253
   0.67409868  0.89738739  0.22483408
   0.76805854  0.80342752  0.35520991
   0.86662074  0.71328788  0.47249945
