       N       E                     dE             d eps       ncg     rms          rms(c)
DAV:   1     0.145624383994E+05    0.14562E+05   -0.67781E+05  1528   0.175E+03
DAV:   2     0.117901146034E+04   -0.13383E+05   -0.12929E+05  1296   0.571E+02
DAV:   3    -0.408331843897E+03   -0.15873E+04   -0.14599E+04  1432   0.208E+02
DAV:   4    -0.541531105109E+03   -0.13320E+03   -0.13021E+03  1496   0.515E+01
DAV:   5    -0.546354775301E+03   -0.48237E+01   -0.48037E+01  1552   0.110E+01    0.963E+01
DAV:   6    -0.908435910715E+03   -0.36208E+03   -0.11984E+03  1696   0.153E+02    0.257E+02
DAV:   7    -0.604747219612E+03    0.30369E+03   -0.34343E+02  1536   0.714E+01    0.140E+02
DAV:   8    -0.599472803615E+03    0.52744E+01   -0.24057E+02  1656   0.908E+01    0.185E+02
DAV:   9    -0.725019945486E+03   -0.12555E+03   -0.42171E+02  1688   0.104E+02    0.194E+02
DAV:  10    -0.564692085326E+03    0.16033E+03   -0.25438E+02  1768   0.661E+01    0.120E+02
DAV:  11    -0.531181831502E+03    0.33510E+02   -0.83822E+01  1800   0.439E+01    0.788E+01
DAV:  12    -0.584194795943E+03   -0.53013E+02   -0.11380E+02  1776   0.675E+01    0.161E+02
DAV:  13    -0.546850137938E+03    0.37345E+02   -0.97644E+01  1736   0.469E+01    0.109E+02
DAV:  14    -0.523852973534E+03    0.22997E+02   -0.60199E+01  1832   0.344E+01    0.830E+01
DAV:  15    -0.521648303830E+03    0.22047E+01   -0.76771E+01  1760   0.319E+01    0.822E+01
DAV:  16    -0.506148042001E+03    0.15500E+02   -0.60166E+01  1712   0.314E+01    0.494E+01
DAV:  17    -0.496863159697E+03    0.92849E+01   -0.17441E+01  1696   0.235E+01    0.377E+01
DAV:  18    -0.493597331498E+03    0.32658E+01   -0.72676E+00  1752   0.136E+01    0.344E+01
DAV:  19    -0.492321143477E+03    0.12762E+01   -0.45036E+00  1696   0.719E+00    0.325E+01
DAV:  20    -0.490899961196E+03    0.14212E+01   -0.11272E+00  1648   0.551E+00    0.307E+01
DAV:  21    -0.487808731280E+03    0.30912E+01   -0.10149E+00  1880   0.626E+00    0.271E+01
DAV:  22    -0.486073384102E+03    0.17353E+01   -0.69387E-01  1792   0.452E+00    0.246E+01
DAV:  23    -0.484468568425E+03    0.16048E+01   -0.45345E-01  1752   0.386E+00    0.219E+01
DAV:  24    -0.483395482316E+03    0.10731E+01   -0.44575E-01  1768   0.312E+00    0.197E+01
DAV:  25    -0.482571960823E+03    0.82352E+00   -0.45836E-01  1776   0.357E+00    0.176E+01
DAV:  26    -0.481508702694E+03    0.10633E+01   -0.62453E-01  1840   0.506E+00    0.138E+01
DAV:  27    -0.480806893619E+03    0.70181E+00   -0.76258E-01  1832   0.458E+00    0.981E+00
DAV:  28    -0.480521230301E+03    0.28566E+00   -0.59580E-01  1752   0.416E+00    0.732E+00
DAV:  29    -0.480690243067E+03   -0.16901E+00   -0.87090E-01  1512   0.377E+00    0.850E+00
DAV:  30    -0.480620495355E+03    0.69748E-01   -0.63078E-01  1536   0.388E+00    0.767E+00
DAV:  31    -0.480447609798E+03    0.17289E+00   -0.55907E-01  1760   0.362E+00    0.492E+00
DAV:  32    -0.480408888642E+03    0.38721E-01   -0.64241E-01  1792   0.334E+00    0.475E+00
DAV:  33    -0.480399497743E+03    0.93909E-02   -0.19112E-01  1720   0.148E+00    0.459E+00
DAV:  34    -0.480371077718E+03    0.28420E-01   -0.95445E-02  1592   0.106E+00    0.394E+00
DAV:  35    -0.480343621967E+03    0.27456E-01   -0.35749E-02  1576   0.758E-01    0.291E+00
DAV:  36    -0.480355790974E+03   -0.12169E-01   -0.86656E-02  1608   0.127E+00    0.319E+00
DAV:  37    -0.480329227352E+03    0.26564E-01   -0.64983E-02  1800   0.125E+00    0.190E+00
DAV:  38    -0.480315469492E+03    0.13758E-01   -0.35647E-02  1768   0.939E-01    0.969E-01
DAV:  39    -0.480318574904E+03   -0.31054E-02   -0.13035E-02  1680   0.590E-01    0.112E+00
DAV:  40    -0.480316711949E+03    0.18630E-02   -0.13120E-02  1832   0.585E-01    0.990E-01
DAV:  41    -0.480318753104E+03   -0.20412E-02   -0.13629E-02  1752   0.487E-01    0.110E+00
DAV:  42    -0.480315151619E+03    0.36015E-02   -0.49973E-03  1536   0.254E-01    0.677E-01
DAV:  43    -0.480314170825E+03    0.98079E-03   -0.25089E-03  1496   0.250E-01    0.549E-01
DAV:  44    -0.480313619779E+03    0.55105E-03   -0.14155E-03  1264   0.171E-01    0.458E-01
DAV:  45    -0.480313498676E+03    0.12110E-03   -0.64235E-04  1208   0.110E-01    0.414E-01
DAV:  46    -0.480313461563E+03    0.37113E-04   -0.41329E-04   960   0.110E-01
   1 F= -.48031346E+03 E0= -.47965750E+03  d E =-.131192E+01
