 vasp.6.1.0 28Jan20 (build Mar 31 2020 17:42:31) gamma-only                     
  
 executed on             LinuxIFC date 2020.04.13  05:07:06
 running on   48 total cores
 distrk:  each k-point on   48 cores,    1 groups
 distr:  one band on NCORE=   6 cores,    8 groups


--------------------------------------------------------------------------------------------------------


 INCAR:
 POTCAR:    PAW_PBE Ni_pv 06Sep2000               
 POTCAR:    PAW_PBE S 06Sep2000                   
 POTCAR:    PAW_PBE Ni_pv 06Sep2000               
   VRHFIN =Ni:                                                                                      
   LEXCH  = PE                                                                                      
   EATOM  =  3501.1230 eV,  257.3253 Ry                                                             
                                                                                                    
   TITEL  = PAW_PBE Ni_pv 06Sep2000                                                                 
   LULTRA =        F    use ultrasoft PP ?                                                          
   IUNSCR =        1    unscreen: 0-lin 1-nonlin 2-no                                               
   RPACOR =    1.500    partial core radius                                                         
   POMASS =   58.690; ZVAL   =   16.000    mass and valenz                                          
   RCORE  =    2.000    outmost cutoff radius                                                       
   RWIGS  =    2.000; RWIGS  =    1.058    wigner-seitz radius (au A)                               
   ENMAX  =  367.986; ENMIN  =  275.989 eV                                                          
   RCLOC  =    1.301    cutoff for local pot                                                        
   LCOR   =        T    correct aug charges                                                         
   LPAW   =        T    paw PP                                                                      
   EAUG   =  703.443                                                                                
   DEXC   =    0.000                                                                                
   RMAX   =    2.041    core radius for proj-oper                                                   
   RAUG   =    1.300    factor for augmentation sphere                                              
   RDEP   =    2.103    radius for radial grids                                                     
   RDEPT  =    1.618    core radius for aug-charge                                                  
                                                                                                    
   Atomic configuration                                                                             
    8 entries                                                                                       
     n  l   j            E        occ.                                                              
     1  0  0.50     -8206.4253   2.0000                                                             
     2  0  0.50      -976.1748   2.0000                                                             
     2  1  1.50      -839.0571   6.0000                                                             
     3  0  0.50      -105.9991   2.0000                                                             
     3  1  1.50       -66.4603   6.0000                                                             
     3  2  2.50        -4.6458   9.0000                                                             
     4  0  0.50        -4.4926   1.0000                                                             
     4  3  2.50        -1.3606   0.0000                                                             
   Description                                                                                      
     l       E           TYP  RCUT    TYP  RCUT                                                     
     1    -66.4602962     23  1.700                                                                 
     1     -1.3605826     23  1.700                                                                 
     2     -4.6457867     23  2.000                                                                 
     2     -6.0063693     23  2.000                                                                 
     0     -4.4925576     23  1.900                                                                 
     0     16.3626226     23  1.900                                                                 
  local pseudopotential read in
  partial core-charges read in
  partial kinetic energy density read in
  atomic valenz-charges read in
  non local Contribution for L=           1  read in
    real space projection operators read in
  non local Contribution for L=           1  read in
    real space projection operators read in
  non local Contribution for L=           2  read in
    real space projection operators read in
  non local Contribution for L=           2  read in
    real space projection operators read in
  non local Contribution for L=           0  read in
    real space projection operators read in
  non local Contribution for L=           0  read in
    real space projection operators read in
    PAW grid and wavefunctions read in
 
   number of l-projection  operators is LMAX  =           6
   number of lm-projection operators is LMMAX =          18
 
 POTCAR:    PAW_PBE S 06Sep2000                   
   VRHFIN =S : s2p4                                                                                 
   LEXCH  = PE                                                                                      
   EATOM  =   276.8230 eV,   20.3459 Ry                                                             
                                                                                                    
   TITEL  = PAW_PBE S 06Sep2000                                                                     
   LULTRA =        F    use ultrasoft PP ?                                                          
   IUNSCR =        1    unscreen: 0-lin 1-nonlin 2-no                                               
   RPACOR =    1.500    partial core radius                                                         
   POMASS =   32.066; ZVAL   =    6.000    mass and valenz                                          
   RCORE  =    1.900    outmost cutoff radius                                                       
   RWIGS  =    2.200; RWIGS  =    1.164    wigner-seitz radius (au A)                               
   ENMAX  =  258.689; ENMIN  =  194.016 eV                                                          
   ICORE  =        2    local potential                                                             
   LCOR   =        T    correct aug charges                                                         
   LPAW   =        T    paw PP                                                                      
   EAUG   =  335.092                                                                                
   DEXC   =    0.000                                                                                
   RMAX   =    1.942    core radius for proj-oper                                                   
   RAUG   =    1.300    factor for augmentation sphere                                              
   RDEP   =    1.954    radius for radial grids                                                     
   RDEPT  =    1.744    core radius for aug-charge                                                  
                                                                                                    
   Atomic configuration                                                                             
    6 entries                                                                                       
     n  l   j            E        occ.                                                              
     1  0  0.50     -2405.8406   2.0000                                                             
     2  0  0.50      -211.7007   2.0000                                                             
     2  1  1.50      -156.4958   6.0000                                                             
     3  0  0.50       -17.2562   2.0000                                                             
     3  1  0.50        -7.0085   4.0000                                                             
     3  2  1.50        -6.8029   0.0000                                                             
   Description                                                                                      
     l       E           TYP  RCUT    TYP  RCUT                                                     
     0    -17.2561641     23  1.900                                                                 
     0    -15.8743224     23  1.900                                                                 
     1     -7.0085400     23  1.900                                                                 
     1     -2.7779785     23  1.900                                                                 
     2     -6.8029130     23  1.900                                                                 
  local pseudopotential read in
  partial core-charges read in
  partial kinetic energy density read in
  atomic valenz-charges read in
  non local Contribution for L=           0  read in
    real space projection operators read in
  non local Contribution for L=           0  read in
    real space projection operators read in
  non local Contribution for L=           1  read in
    real space projection operators read in
  non local Contribution for L=           1  read in
    real space projection operators read in
    PAW grid and wavefunctions read in
 
   number of l-projection  operators is LMAX  =           4
   number of lm-projection operators is LMMAX =           8
 
 Optimization of the real space projectors (new method)

 maximal supplied QI-value         = 18.90
 optimisation between [QCUT,QGAM] = [ 10.77, 21.73] = [ 32.49,132.25] Ry 
 Optimized for a Real-space Cutoff    1.38 Angstroem

   l    n(q)    QCUT    max X(q) W(low)/X(q) W(high)/X(q)  e(spline) 
   1      8    10.771     2.836    0.40E-04    0.29E-04    0.12E-06
   1      8    10.771     4.023    0.10E-03    0.48E-04    0.29E-06
   2      8    10.771    73.368    0.42E-03    0.97E-04    0.44E-06
   2      8    10.771    69.010    0.42E-03    0.99E-04    0.45E-06
   0      9    10.771    54.797    0.10E-03    0.56E-04    0.74E-07
   0      9    10.771    24.266    0.89E-04    0.49E-04    0.67E-07
 Optimization of the real space projectors (new method)

 maximal supplied QI-value         = 19.84
 optimisation between [QCUT,QGAM] = [ 10.71, 21.63] = [ 32.15,130.99] Ry 
 Optimized for a Real-space Cutoff    1.19 Angstroem

   l    n(q)    QCUT    max X(q) W(low)/X(q) W(high)/X(q)  e(spline) 
   0      8    10.715   187.594    0.41E-03    0.53E-04    0.66E-07
   0      8    10.715   164.243    0.41E-03    0.53E-04    0.65E-07
   1      7    10.715    67.533    0.19E-03    0.59E-03    0.68E-07
   1      7    10.715    50.729    0.19E-03    0.58E-03    0.67E-07
  PAW_PBE Ni_pv 06Sep2000               :
 energy of atom  1       EATOM=-3501.1230
 kinetic energy error for atom=    0.0925 (will be added to EATOM!!)
  PAW_PBE S 06Sep2000                   :
 energy of atom  2       EATOM= -276.8230
 kinetic energy error for atom=    0.0033 (will be added to EATOM!!)
 
 
 POSCAR: Structure 17 made from 02-1-7.xsd file
  positions in direct lattice
  No initial velocities read in
 exchange correlation table for  LEXCH =        8
   RHO(1)=    0.500       N(1)  =     2000
   RHO(2)=  100.500       N(2)  =     4000
 


--------------------------------------------------------------------------------------------------------


 ion  position               nearest neighbor table
   1  0.580  0.074  0.354-  44 2.25  66 2.26  51 2.26  63 2.36  52 2.36  26 2.53  15 2.53
   2  0.763  0.165  0.233-  45 2.25  52 2.26  63 2.26  53 2.36  64 2.36  16 2.53  27 2.53
   3  0.945  0.256  0.111-  42 2.25  53 2.26  64 2.26  50 2.36  17 2.53  28 2.53
   4  0.398  0.983  0.475-  65 2.26  51 2.36  66 2.36  14 2.53
   5  0.035  0.802  0.273-  46 2.25  57 2.26  70 2.26  54 2.36  67 2.36  21 2.53  29 2.53
   6  0.217  0.893  0.152-  47 2.25  67 2.26  54 2.26  68 2.36  55 2.36  30 2.53  18 2.53
   7  0.399  0.984  0.031-  48 2.25  68 2.26  55 2.26  56 2.36  31 2.53
   8  0.671  0.620  0.516-  58 2.36  69 2.36  19 2.53  32 2.53
   9  0.853  0.711  0.394-  49 2.25  69 2.26  58 2.26  57 2.36  70 2.36  33 2.53  20 2.53
  10  0.126  0.347  0.435-  38 2.25  74 2.26  59 2.36  71 2.36  34 2.53  25 2.53
  11  0.308  0.438  0.313-  39 2.25  59 2.26  71 2.26  60 2.36  72 2.36  22 2.53  35 2.53
  12  0.490  0.529  0.192-  40 2.25  60 2.26  72 2.26  61 2.36  73 2.36  36 2.53  23 2.53
  13  0.672  0.620  0.071-  41 2.25  73 2.26  61 2.26  62 2.36  37 2.53
  14  0.230  0.031  0.411-  57 2.25  65 2.26  38 2.26  66 2.36  39 2.36   4 2.53
  15  0.412  0.122  0.290-  54 2.25  39 2.26  66 2.26  63 2.36  40 2.36  26 2.53   1 2.53
  16  0.595  0.214  0.169-  55 2.25  63 2.26  40 2.26  64 2.36  41 2.36   2 2.53  27 2.53
  17  0.777  0.305  0.047-  56 2.25  64 2.26  41 2.26   3 2.53  28 2.53
  18  0.049  0.941  0.088-  62 2.25  42 2.26  67 2.26  43 2.36  68 2.36  30 2.53   6 2.53
  19  0.503  0.668  0.451-  59 2.25  44 2.36  69 2.36   8 2.53  32 2.53
  20  0.685  0.759  0.330-  60 2.25  44 2.26  69 2.26  70 2.36  45 2.36  33 2.53   9 2.53
  21  0.867  0.850  0.209-  61 2.25  70 2.26  45 2.26  42 2.36  67 2.36   5 2.53  29 2.53
  22  0.140  0.486  0.249-  53 2.25  46 2.26  71 2.26  72 2.36  47 2.36  11 2.53  35 2.53
  23  0.322  0.577  0.128-  50 2.25  47 2.26  72 2.26  48 2.36  73 2.36  36 2.53  12 2.53
  24  0.776  0.304  0.492-  51 2.25  74 2.36  49 2.36
  25  0.958  0.395  0.371-  52 2.25  74 2.26  49 2.26  46 2.36  71 2.36  34 2.53  10 2.53
  26  0.580  0.339  0.354-  69 2.25  39 2.26  51 2.26  52 2.36  40 2.36  15 2.53   1 2.53
  27  0.763  0.430  0.233-  70 2.25  52 2.26  40 2.26  53 2.36  41 2.36   2 2.53  16 2.53
  28  0.945  0.521  0.111-  67 2.25  53 2.26  41 2.26  50 2.36   3 2.53  17 2.53
  29  0.035  0.066  0.273-  71 2.25  45 2.26  57 2.26  42 2.36  54 2.36   5 2.53  21 2.53
  30  0.217  0.157  0.152-  72 2.25  42 2.26  54 2.26  55 2.36  43 2.36  18 2.53   6 2.53
  31  0.399  0.248  0.031-  73 2.25  43 2.26  55 2.26  56 2.36   7 2.53
  32  0.671  0.884  0.516-  58 2.36  44 2.36   8 2.53  19 2.53
  33  0.853  0.975  0.394-  74 2.25  44 2.26  58 2.26  45 2.36  57 2.36  20 2.53   9 2.53
  34  0.126  0.611  0.435-  65 2.25  49 2.26  59 2.36  46 2.36  25 2.53  10 2.53
  35  0.308  0.702  0.313-  66 2.25  59 2.26  46 2.26  60 2.36  47 2.36  11 2.53  22 2.53
  36  0.490  0.793  0.192-  63 2.25  60 2.26  47 2.26  61 2.36  48 2.36  23 2.53  12 2.53
  37  0.672  0.884  0.071-  64 2.25  48 2.26  61 2.26  62 2.36  13 2.53
  38  0.184  0.177  0.484-  10 2.25  14 2.26
  39  0.367  0.268  0.363-  11 2.25  26 2.26  15 2.26  14 2.36
  40  0.549  0.359  0.242-  12 2.25  27 2.26  16 2.26  15 2.36  26 2.36
  41  0.731  0.450  0.121-  13 2.25  17 2.26  28 2.26  16 2.36  27 2.36
  42  0.003  0.086  0.161-   3 2.25  30 2.26  18 2.26  21 2.36  29 2.36
  43  0.185  0.177  0.040-  31 2.26  18 2.36  30 2.36
  44  0.639  0.904  0.403-   1 2.25  33 2.26  20 2.26  19 2.36  32 2.36
  45  0.821  0.995  0.282-   2 2.25  29 2.26  21 2.26  20 2.36  33 2.36
  46  0.094  0.631  0.323-   5 2.25  22 2.26  35 2.26  25 2.36  34 2.36
  47  0.276  0.722  0.201-   6 2.25  23 2.26  36 2.26  22 2.36  35 2.36
  48  0.458  0.814  0.080-   7 2.25  37 2.26  23 2.36  36 2.36
  49  0.912  0.540  0.444-   9 2.25  25 2.26  34 2.26  24 2.36
  50  0.127  0.480  0.081-  23 2.25   3 2.36  28 2.36
  51  0.580  0.206  0.445-  24 2.25   1 2.26  26 2.26   4 2.36
  52  0.763  0.298  0.323-  25 2.25  27 2.26   2 2.26  26 2.36   1 2.36
  53  0.945  0.389  0.202-  22 2.25   3 2.26  28 2.26  27 2.36   2 2.36
  54  0.217  0.025  0.243-  15 2.25   6 2.26  30 2.26   5 2.36  29 2.36
  55  0.399  0.116  0.121-  16 2.25  31 2.26   7 2.26  30 2.36   6 2.36
  56  0.582  0.207  0.000-  17 2.25   7 2.36  31 2.36
  57  0.035  0.934  0.364-  14 2.25   5 2.26  29 2.26   9 2.36  33 2.36
  58  0.853  0.843  0.485-  33 2.26   9 2.26  32 2.36   8 2.36
  59  0.308  0.570  0.404-  19 2.25  11 2.26  35 2.26  10 2.36  34 2.36
  60  0.490  0.661  0.283-  20 2.25  36 2.26  12 2.26  11 2.36  35 2.36
  61  0.672  0.752  0.162-  21 2.25  13 2.26  37 2.26  36 2.36  12 2.36
  62  0.854  0.843  0.040-  18 2.25  13 2.36  37 2.36
  63  0.549  0.022  0.242-  36 2.25  16 2.26   2 2.26  15 2.36   1 2.36
  64  0.731  0.113  0.121-  37 2.25  17 2.26   3 2.26  16 2.36   2 2.36
  65  0.184  0.840  0.484-  34 2.25   4 2.26  14 2.26
  66  0.367  0.931  0.363-  35 2.25   1 2.26  15 2.26  14 2.36   4 2.36
  67  0.003  0.750  0.161-  28 2.25   6 2.26  18 2.26  21 2.36   5 2.36
  68  0.185  0.841  0.040-   7 2.26  18 2.36   6 2.36
  69  0.639  0.568  0.403-  26 2.25   9 2.26  20 2.26  19 2.36   8 2.36
  70  0.821  0.659  0.282-  27 2.25   5 2.26  21 2.26  20 2.36   9 2.36
  71  0.094  0.295  0.323-  29 2.25  22 2.26  11 2.26  25 2.36  10 2.36
  72  0.276  0.386  0.201-  30 2.25  23 2.26  12 2.26  22 2.36  11 2.36
  73  0.458  0.477  0.080-  31 2.25  13 2.26  12 2.36  23 2.36
  74  0.912  0.204  0.444-  33 2.25  25 2.26  10 2.26  24 2.36
 
  Warning from LATTYP: Monoclinic adjustment (A1->A3, A2->A1, A3->A2)!
  LATTYP: Found a base centered orthorhombic cell.
 ALAT       =     9.5784100000
 B/A-ratio  =     2.1722506661
 C/A-ratio  =     2.1551480229
  
  Lattice vectors:
  
 A1 = (  10.4033537511,  -4.7892050000,   0.0000000000)
 A2 = ( -10.4033537511,  -4.7892050000,   0.0000000000)
 A3 = (   0.0000000000,   0.0000000000, -20.6428913744)


Analysis of symmetry for initial positions (statically):
=====================================================================
 Subroutine PRICEL returns:
 Original cell was already a primitive cell.
 

 Routine SETGRP: Setting up the symmetry group for a 
 base centered orthorhombic supercell.


 Subroutine GETGRP returns: Found  1 space group operations
 (whereof  1 operations were pure point group operations)
 out of a pool of  8 trial point group operations.


The static configuration has the point symmetry C_1 .


Analysis of symmetry for dynamics (positions and initial velocities):
=====================================================================
 Subroutine PRICEL returns:
 Original cell was already a primitive cell.
 

 Routine SETGRP: Setting up the symmetry group for a 
 base centered orthorhombic supercell.


 Subroutine GETGRP returns: Found  1 space group operations
 (whereof  1 operations were pure point group operations)
 out of a pool of  8 trial point group operations.


The dynamic configuration has the point symmetry C_1 .


 Subroutine INISYM returns: Found  1 space group operations
 (whereof  1 operations are pure point group operations),
 and found     1 'primitive' translations


----------------------------------------------------------------------------------------

                                     Primitive cell                                     

  volume of cell :    2057.0143

  direct lattice vectors                    reciprocal lattice vectors
    10.403353751 -4.789205000  0.000000000     0.096122849  0.000000000  0.000000000
     0.000000000  9.578410000  0.000000000     0.048061424  0.104401461  0.000000000
     0.000000000  0.000000000 20.642891374     0.000000000  0.000000000  0.048442826

  length of vectors
    11.452783670  9.578410000 20.642891374     0.096122849  0.114932874  0.048442826

  position of ions in fractional coordinates (direct lattice)
     0.580446796  0.074375138  0.353894474
     0.762560812  0.165432146  0.232636526
     0.944674827  0.256489154  0.111378578
     0.398332781  0.983318131  0.475152422
     0.035189473  0.801746477  0.273055842
     0.217303488  0.892803484  0.151797894
     0.399417503  0.983860492  0.030539946
     0.670961443  0.619632462  0.515571738
     0.853075458  0.710689469  0.394313790
     0.125704120  0.347003800  0.434733106
     0.307818135  0.438060808  0.313475158
     0.489932150  0.529117815  0.192217210
     0.672046165  0.620174823  0.070959262
     0.230358012  0.031433746  0.411078267
     0.412472027  0.122490754  0.289820319
     0.594586043  0.213547761  0.168562371
     0.776700058  0.304604769  0.047304423
     0.049328719  0.940919100  0.087723739
     0.502986674  0.667748077  0.451497583
     0.685100689  0.758805085  0.330239635
     0.867214704  0.849862092  0.208981687
     0.139843366  0.486176423  0.249401003
     0.321957381  0.577233431  0.128143055
     0.775615336  0.304062408  0.491916899
     0.957729351  0.395119416  0.370658951
     0.580446796  0.338581138  0.353894474
     0.762560812  0.429638146  0.232636526
     0.944674827  0.520695154  0.111378578
     0.035189473  0.065952477  0.273055842
     0.217303488  0.157009484  0.151797894
     0.399417503  0.248066492  0.030539946
     0.670961443  0.883838462  0.515571738
     0.853075458  0.974895469  0.394313790
     0.125704120  0.611209800  0.434733106
     0.307818135  0.702266808  0.313475158
     0.489932150  0.793323815  0.192217210
     0.672046165  0.884380823  0.070959262
     0.184411117  0.176675299  0.484280801
     0.366525132  0.267732306  0.363022853
     0.548639147  0.358789314  0.241764905
     0.730753162  0.449846321  0.120506957
     0.003381824  0.086160652  0.160926273
     0.185495839  0.177217660  0.039668325
     0.639153794  0.904046637  0.403442169
     0.821267809  0.995103645  0.282184221
     0.093896470  0.631417975  0.322603537
     0.276010485  0.722474983  0.201345589
     0.458124501  0.813531990  0.080087641
     0.911782455  0.540360968  0.443861485
     0.126759941  0.479634711  0.080838632
     0.580417896  0.206463688  0.444612476
     0.762531911  0.297520696  0.323354528
     0.944645926  0.388577703  0.202096580
     0.217274588  0.024892034  0.242515896
     0.399388603  0.115949042  0.121257948
     0.581502618  0.207006049  0.000000000
     0.035160573  0.933835026  0.363773844
     0.853046557  0.842778019  0.485031792
     0.307789234  0.570149357  0.404193160
     0.489903249  0.661206365  0.282935212
     0.672017264  0.752263372  0.161677264
     0.854131279  0.843320380  0.040419316
     0.548639147  0.022359314  0.241764905
     0.730753162  0.113416321  0.120506957
     0.184411117  0.840245299  0.484280801
     0.366525132  0.931302306  0.363022853
     0.003381824  0.749730652  0.160926273
     0.185495839  0.840787660  0.039668325
     0.639153794  0.567616637  0.403442169
     0.821267809  0.658673645  0.282184221
     0.093896470  0.294987975  0.322603537
     0.276010485  0.386044983  0.201345589
     0.458124501  0.477101990  0.080087641
     0.911782455  0.203930968  0.443861485

  ion indices of the primitive-cell ions
   primitive index   ion index
                 1           1
                 2           2
                 3           3
                 4           4
                 5           5
                 6           6
                 7           7
                 8           8
                 9           9
                10          10
                11          11
                12          12
                13          13
                14          14
                15          15
                16          16
                17          17
                18          18
                19          19
                20          20
                21          21
                22          22
                23          23
                24          24
                25          25
                26          26
                27          27
                28          28
                29          29
                30          30
                31          31
                32          32
                33          33
                34          34
                35          35
                36          36
                37          37
                38          38
                39          39
                40          40
                41          41
                42          42
                43          43
                44          44
                45          45
                46          46
                47          47
                48          48
                49          49
                50          50
                51          51
                52          52
                53          53
                54          54
                55          55
                56          56
                57          57
                58          58
                59          59
                60          60
                61          61
                62          62
                63          63
                64          64
                65          65
                66          66
                67          67
                68          68
                69          69
                70          70
                71          71
                72          72
                73          73
                74          74

----------------------------------------------------------------------------------------

 
 
 KPOINTS: gamma-point-only calculation. no periodi

Automatic generation of k-mesh.
Space group operators:
 irot       det(A)        alpha          n_x          n_y          n_z        tau_x        tau_y        tau_z
    1     1.000000     0.000000     1.000000     0.000000     0.000000     0.000000     0.000000     0.000000
 
 Subroutine IBZKPT returns following result:
 ===========================================
 
 Found      1 irreducible k-points:
 
 Following reciprocal coordinates:
            Coordinates               Weight
  0.000000  0.000000  0.000000      1.000000
 
 Following cartesian coordinates:
            Coordinates               Weight
  0.000000  0.000000  0.000000      1.000000
 


--------------------------------------------------------------------------------------------------------




 Dimension of arrays:
   k-points           NKPTS =      1   k-points in BZ     NKDIM =      1   number of bands    NBANDS=    488
   number of dos      NEDOS =    301   number of ions     NIONS =     74
   non local maximal  LDIM  =      6   non local SUM 2l+1 LMDIM =     18
   total plane-waves  NPLWV = 324000
   max r-space proj   IRMAX =   1787   max aug-charges    IRDMAX=   5161
   dimension x,y,z NGX =    60 NGY =   50 NGZ =  108
   dimension x,y,z NGXF=   120 NGYF=  100 NGZF=  216
   support grid    NGXF=   120 NGYF=  100 NGZF=  216
   ions per type =              37  37
   NGX,Y,Z   is equivalent  to a cutoff of   8.71,  8.68,  8.70 a.u.
   NGXF,Y,Z  is equivalent  to a cutoff of  17.42, 17.36, 17.40 a.u.

 SYSTEM =  "Millerite NiS"                         
 POSCAR =  Structure 17 made from 02-1-7.xsd file  

 Startparameter for this run:
   NWRITE =      2    write-flag & timer
   PREC   = normal    normal or accurate (medium, high low for compatibility)
   ISTART =      0    job   : 0-new  1-cont  2-samecut
   ICHARG =      2    charge: 1-file 2-atom 10-const
   ISPIN  =      1    spin polarized calculation?
   LNONCOLLINEAR =      F non collinear calculations
   LSORBIT =      F    spin-orbit coupling
   INIWAV =      1    electr: 0-lowe 1-rand  2-diag
   LASPH  =      F    aspherical Exc in radial PAW
   METAGGA=      F    non-selfconsistent MetaGGA calc.

 Electronic Relaxation 1
   ENCUT  =  450.0 eV  33.07 Ry    5.75 a.u.  19.81 16.57 35.71*2*pi/ulx,y,z
   ENINI  =  450.0     initial cutoff
   ENAUG  =  703.4 eV  augmentation charge cutoff
   NELM   =    100;   NELMIN=  2; NELMDL= -5     # of ELM steps 
   EDIFF  = 0.1E-03   stopping-criterion for ELM
   LREAL  =      T    real-space projection
   NLSPLINE    = F    spline interpolate recip. space projectors
   LCOMPAT=      F    compatible to vasp.4.4
   GGA_COMPAT  = T    GGA compatible to vasp.4.4-vasp.4.6
   LMAXPAW     = -100 max onsite density
   LMAXMIX     =    2 max onsite mixed and CHGCAR
   VOSKOWN=      0    Vosko Wilk Nusair interpolation
   ROPT   =   -0.00050  -0.00050
 Ionic relaxation
   EDIFFG = 0.1E-02   stopping-criterion for IOM
   NSW    =      0    number of steps for IOM
   NBLOCK =      1;   KBLOCK =      1    inner block; outer block 
   IBRION =     -1    ionic relax: 0-MD 1-quasi-New 2-CG
   NFREE  =      0    steps in history (QN), initial steepest desc. (CG)
   ISIF   =      2    stress and relaxation
   IWAVPR =     10    prediction:  0-non 1-charg 2-wave 3-comb
   ISYM   =      2    0-nonsym 1-usesym 2-fastsym
   LCORR  =      T    Harris-Foulkes like correction to forces

   POTIM  = 0.5000    time-step for ionic-motion
   TEIN   =    0.0    initial temperature
   TEBEG  =    0.0;   TEEND  =   0.0 temperature during run
   SMASS  =  -3.00    Nose mass-parameter (am)
   estimated Nose-frequenzy (Omega)   =  0.10E-29 period in steps = 0.13E+47 mass=  -0.300E-26a.u.
   SCALEE = 1.0000    scale energy and forces
   NPACO  =    256;   APACO  = 16.0  distance and # of slots for P.C.
   PSTRESS=    0.0 pullay stress

  Mass of Ions in am
   POMASS =  58.69 32.07
  Ionic Valenz
   ZVAL   =  16.00  6.00
  Atomic Wigner-Seitz radii
   RWIGS  =  -1.00 -1.00
  virtual crystal weights 
   VCA    =   1.00  1.00
   NELECT =     814.0000    total number of electrons
   NUPDOWN=      -1.0000    fix difference up-down

 DOS related values:
   EMIN   =  10.00;   EMAX   =-10.00  energy-range for DOS
   EFERMI =   0.00
   ISMEAR =     0;   SIGMA  =   0.20  broadening in eV -4-tet -1-fermi 0-gaus

 Electronic relaxation 2 (details)
   IALGO  =     38    algorithm
   LDIAG  =      T    sub-space diagonalisation (order eigenvalues)
   LSUBROT=      F    optimize rotation matrix (better conditioning)
   TURBO    =      0    0=normal 1=particle mesh
   IRESTART =      0    0=no restart 2=restart with 2 vectors
   NREBOOT  =      0    no. of reboots
   NMIN     =      0    reboot dimension
   EREF     =   0.00    reference energy to select bands
   IMIX   =      4    mixing-type and parameters
     AMIX     =   0.40;   BMIX     =  1.00
     AMIX_MAG =   1.60;   BMIX_MAG =  1.00
     AMIN     =   0.10
     WC   =   100.;   INIMIX=   1;  MIXPRE=   1;  MAXMIX= -45

 Intra band minimization:
   WEIMIN = 0.0000     energy-eigenvalue tresh-hold
   EBREAK =  0.51E-07  absolut break condition
   DEPER  =   0.30     relativ break condition  

   TIME   =   0.40     timestep for ELM

  volume/ion in A,a.u.               =      27.80       187.59
  Fermi-wavevector in a.u.,A,eV,Ry     =   1.201906  2.271273 19.654680  1.444578
  Thomas-Fermi vector in A             =   2.337702
 
 Write flags
   LWAVE        =      F    write WAVECAR
   LDOWNSAMPLE  =      F    k-point downsampling of WAVECAR
   LCHARG       =      F    write CHGCAR
   LVTOT        =      F    write LOCPOT, total local potential
   LVHAR        =      F    write LOCPOT, Hartree potential only
   LELF         =      F    write electronic localiz. function (ELF)
   LORBIT       =      0    0 simple, 1 ext, 2 COOP (PROOUT), +10 PAW based schemes


 Dipole corrections
   LMONO  =      F    monopole corrections only (constant potential shift)
   LDIPOL =      F    correct potential (dipole corrections)
   IDIPOL =      0    1-x, 2-y, 3-z, 4-all directions 
   EPSILON=  1.0000000 bulk dielectric constant

 Exchange correlation treatment:
   GGA     =    --    GGA type
   LEXCH   =     8    internal setting for exchange type
   VOSKOWN=      0    Vosko Wilk Nusair interpolation
   LHFCALC =     F    Hartree Fock is set to
   LHFONE  =     F    Hartree Fock one center treatment
   AEXX    =    0.0000 exact exchange contribution

 Linear response parameters
   LEPSILON=     F    determine dielectric tensor
   LRPA    =     F    only Hartree local field effects (RPA)
   LNABLA  =     F    use nabla operator in PAW spheres
   LVEL    =     F    velocity operator in full k-point grid
   LINTERFAST=   F  fast interpolation
   KINTER  =     0    interpolate to denser k-point grid
   CSHIFT  =0.1000    complex shift for real part using Kramers Kronig
   OMEGAMAX=  -1.0    maximum frequency
   DEG_THRESHOLD= 0.2000000E-02 threshold for treating states as degnerate
   RTIME   =   -0.100 relaxation time in fs
  (WPLASMAI=    0.000 imaginary part of plasma frequency in eV, 0.658/RTIME)
   DFIELD  = 0.0000000 0.0000000 0.0000000 field for delta impulse in time
 
 Orbital magnetization related:
   ORBITALMAG=     F  switch on orbital magnetization
   LCHIMAG   =     F  perturbation theory with respect to B field
   DQ        =  0.001000  dq finite difference perturbation B field
   LLRAUG    =     F  two centre corrections for induced B field



--------------------------------------------------------------------------------------------------------


 Static calculation
 charge density and potential will be updated during run
 non-spin polarized calculation
 Variant of blocked Davidson
 Davidson routine will perform the subspace rotation
 perform sub-space diagonalisation
    after iterative eigenvector-optimisation
 modified Broyden-mixing scheme, WC =      100.0
 initial mixing is a Kerker type mixing with AMIX =  0.4000 and BMIX =      1.0000
 Hartree-type preconditioning will be used
 using additional bands           81
 real space projection scheme for non local part
 use partial core corrections
 calculate Harris-corrections to forces 
   (improved forces if not selfconsistent)
 use gradient corrections 
 use of overlap-Matrix (Vanderbilt PP)
 Gauss-broadening in eV      SIGMA  =   0.20


--------------------------------------------------------------------------------------------------------


  energy-cutoff  :      450.00
  volume of cell :     2057.01
      direct lattice vectors                 reciprocal lattice vectors
    10.403353751 -4.789205000  0.000000000     0.096122849  0.000000000  0.000000000
     0.000000000  9.578410000  0.000000000     0.048061424  0.104401461  0.000000000
     0.000000000  0.000000000 20.642891374     0.000000000  0.000000000  0.048442826

  length of vectors
    11.452783670  9.578410000 20.642891374     0.096122849  0.114932874  0.048442826


 
 k-points in units of 2pi/SCALE and weight: gamma-point-only calculation. no periodi
   0.00000000  0.00000000  0.00000000       1.000
 
 k-points in reciprocal lattice and weights: gamma-point-only calculation. no periodi
   0.00000000  0.00000000  0.00000000       1.000
 
 position of ions in fractional coordinates (direct lattice) 
   0.58044680  0.07437514  0.35389447
   0.76256081  0.16543215  0.23263653
   0.94467483  0.25648915  0.11137858
   0.39833278  0.98331813  0.47515242
   0.03518947  0.80174648  0.27305584
   0.21730349  0.89280348  0.15179789
   0.39941750  0.98386049  0.03053995
   0.67096144  0.61963246  0.51557174
   0.85307546  0.71068947  0.39431379
   0.12570412  0.34700380  0.43473311
   0.30781813  0.43806081  0.31347516
   0.48993215  0.52911781  0.19221721
   0.67204616  0.62017482  0.07095926
   0.23035801  0.03143375  0.41107827
   0.41247203  0.12249075  0.28982032
   0.59458604  0.21354776  0.16856237
   0.77670006  0.30460477  0.04730442
   0.04932872  0.94091910  0.08772374
   0.50298667  0.66774808  0.45149758
   0.68510069  0.75880508  0.33023963
   0.86721470  0.84986209  0.20898169
   0.13984337  0.48617642  0.24940100
   0.32195738  0.57723343  0.12814306
   0.77561534  0.30406241  0.49191690
   0.95772935  0.39511942  0.37065895
   0.58044680  0.33858114  0.35389447
   0.76256081  0.42963815  0.23263653
   0.94467483  0.52069515  0.11137858
   0.03518947  0.06595248  0.27305584
   0.21730349  0.15700948  0.15179789
   0.39941750  0.24806649  0.03053995
   0.67096144  0.88383846  0.51557174
   0.85307546  0.97489547  0.39431379
   0.12570412  0.61120980  0.43473311
   0.30781813  0.70226681  0.31347516
   0.48993215  0.79332382  0.19221721
   0.67204616  0.88438082  0.07095926
   0.18441112  0.17667530  0.48428080
   0.36652513  0.26773231  0.36302285
   0.54863915  0.35878931  0.24176490
   0.73075316  0.44984632  0.12050696
   0.00338182  0.08616065  0.16092627
   0.18549584  0.17721766  0.03966833
   0.63915379  0.90404664  0.40344217
   0.82126781  0.99510365  0.28218422
   0.09389647  0.63141797  0.32260354
   0.27601049  0.72247498  0.20134559
   0.45812450  0.81353199  0.08008764
   0.91178246  0.54036097  0.44386148
   0.12675994  0.47963471  0.08083863
   0.58041790  0.20646369  0.44461248
   0.76253191  0.29752070  0.32335453
   0.94464593  0.38857770  0.20209658
   0.21727459  0.02489203  0.24251590
   0.39938860  0.11594904  0.12125795
   0.58150262  0.20700605  0.00000000
   0.03516057  0.93383503  0.36377384
   0.85304656  0.84277802  0.48503179
   0.30778923  0.57014936  0.40419316
   0.48990325  0.66120636  0.28293521
   0.67201726  0.75226337  0.16167726
   0.85413128  0.84332038  0.04041932
   0.54863915  0.02235931  0.24176490
   0.73075316  0.11341632  0.12050696
   0.18441112  0.84024530  0.48428080
   0.36652513  0.93130231  0.36302285
   0.00338182  0.74973065  0.16092627
   0.18549584  0.84078766  0.03966833
   0.63915379  0.56761664  0.40344217
   0.82126781  0.65867365  0.28218422
   0.09389647  0.29498797  0.32260354
   0.27601049  0.38604498  0.20134559
   0.45812450  0.47710199  0.08008764
   0.91178246  0.20393097  0.44386148
 
 position of ions in cartesian coordinates  (Angst):
   6.03859335 -2.06748313  7.30540518
   7.93318988 -2.06748313  4.80229054
   9.82778641 -2.06748313  2.29917589
   4.14399683  7.51092687  9.80851983
   0.36608854  7.51092687  5.63666209
   2.26068506  7.51092687  3.13354744
   4.15528158  7.51092687  0.63043279
   6.98024924  2.72172187 10.64289138
   8.87484577  2.72172187  8.13977673
   1.30774443  2.72172187  8.97414828
   3.20234095  2.72172187  6.47103364
   5.09693747  2.72172187  3.96791899
   6.99153399  2.72172187  1.46480434
   2.39649589 -0.80214644  8.48584401
   4.29109241 -0.80214643  5.98272936
   6.18568894 -0.80214644  3.47961471
   8.08028546 -0.80214644  0.97650007
   0.51318411  8.77626357  1.81087162
   5.23274830  3.98705856  9.32021556
   7.12734482  3.98705857  6.81710091
   9.02194134  3.98705856  4.31398626
   1.45484001  3.98705856  5.14835781
   3.34943653  3.98705857  2.64524316
   8.06900072 -0.80214644 10.15458711
   9.96359724 -0.80214643  7.65147246
   6.03859335  0.46319026  7.30540518
   7.93318988  0.46319026  4.80229054
   9.82778641  0.46319027  2.29917589
   0.36608854  0.46319027  5.63666209
   2.26068506  0.46319026  3.13354744
   4.15528158  0.46319027  0.63043279
   6.98024924  5.25239527 10.64289138
   8.87484577  5.25239526  8.13977673
   1.30774443  5.25239526  8.97414828
   3.20234095  5.25239527  6.47103364
   5.09693747  5.25239526  3.96791899
   6.99153399  5.25239527  1.46480434
   1.91849409  0.80908581  9.99695597
   3.81309061  0.80908580  7.49384132
   5.70768713  0.80908581  4.99072667
   7.60228365  0.80908580  2.48761202
   0.03518231  0.80908580  3.32198357
   1.92977883  0.80908581  0.81886892
   6.64934302  5.59829080  8.32821287
   8.54393954  5.59829081  5.82509822
   0.97683819  5.59829080  6.65946977
   2.87143471  5.59829081  4.15635512
   4.76603125  5.59829080  1.65324047
   9.48559542  0.80908581  9.16258442
   1.31872851  3.98705857  1.66874310
   6.03829270 -0.80214644  9.17808705
   7.93288922 -0.80214643  6.67497240
   9.82748574 -0.80214644  4.17185775
   2.26038440 -0.80214644  5.00622930
   4.15498092 -0.80214643  2.50311465
   6.04957744 -0.80214644  0.00000000
   0.36578788  8.77626356  7.50934395
   8.87454510  3.98705857 10.01245860
   3.20204028  3.98705856  8.34371550
   5.09663680  3.98705857  5.84060085
   6.99123332  3.98705856  3.33748620
   8.88582985  3.98705857  0.83437155
   5.70768713 -2.41337867  4.99072667
   7.60228365 -2.41337867  2.48761202
   1.91849409  7.16503133  9.99695597
   3.81309061  7.16503133  7.49384132
   0.03518231  7.16503133  3.32198357
   1.92977883  7.16503133  0.81886892
   6.64934302  2.37582633  8.32821287
   8.54393954  2.37582633  5.82509822
   0.97683819  2.37582633  6.65946977
   2.87143471  2.37582633  4.15635512
   4.76603125  2.37582632  1.65324047
   9.48559542 -2.41337867  9.16258442
 


--------------------------------------------------------------------------------------------------------


 use parallel FFT for orbitals z direction half grid
 k-point   1 :   0.0000 0.0000 0.0000  plane waves:   22299

 maximum and minimum number of plane-waves per node :      3721     3709

 maximum number of plane-waves:     22299
 maximum index in each direction: 
   IXMAX=   19   IYMAX=   16   IZMAX=   35
   IXMIN=  -19   IYMIN=  -16   IZMIN=    0


 real space projection operators:
  total allocation   :      11261.98 KBytes
  max/ min on nodes  :       1882.00       1872.59


 parallel 3D FFT for wavefunctions:
    minimum data exchange during FFTs selected (reduces bandwidth)
 parallel 3D FFT for charge:
    minimum data exchange during FFTs selected (reduces bandwidth)


 total amount of memory used by VASP MPI-rank0    45230. kBytes
=======================================================================

   base      :      30000. kBytes
   nonlr-proj:       2303. kBytes
   fftplans  :       3298. kBytes
   grid      :       5820. kBytes
   one-center:        101. kBytes
   wavefun   :       3708. kBytes
 
     INWAV:  cpu time    0.0000: real time    0.0000
 Broyden mixing: mesh for mixing (old mesh)
   NGX = 39   NGY = 33   NGZ = 71
  (NGX  =120   NGY  =100   NGZ  =216)
  gives a total of  91377 points

 initial charge density was supplied:
 charge density of overlapping atoms calculated
 number of electron     814.0000000 magnetization 
 keeping initial charge density in first step


--------------------------------------------------------------------------------------------------------


 Maximum index for non-local projection operator          297
 Maximum index for augmentation-charges          322 (set IRDMAX)


--------------------------------------------------------------------------------------------------------


 First call to EWALD:  gamma=   0.139
 Maximum number of real-space cells 3x 4x 2
 Maximum number of reciprocal cells 3x 2x 4

    FEWALD:  cpu time    0.0032: real time    0.0033


--------------------------------------- Iteration      1(   1)  ---------------------------------------


    POTLOK:  cpu time    0.0497: real time    0.0538
    SETDIJ:  cpu time    0.0053: real time    0.0073
     EDDAV:  cpu time    2.3525: real time    2.3596
       DOS:  cpu time    0.0009: real time    0.0010
    --------------------------------------------
      LOOP:  cpu time    2.4084: real time    2.4216

 eigenvalue-minimisations  :  1200
 total energy-change (2. order) : 0.9954429E+04  (-0.5239740E+05)
 number of electron     814.0000000 magnetization 
 augmentation part      814.0000000 magnetization 

 Free energy of the ion-electron system (eV)
  ---------------------------------------------------
  alpha Z        PSCENC =      1910.25942632
  Ewald energy   TEWEN  =    177593.82869995
  -Hartree energ DENC   =   -303437.18338112
  -exchange      EXHF   =         0.00000000
  -V(xc)+E(xc)   XCENC  =      3753.55943905
  PAW double counting   =    115860.90926010  -120909.33166199
  entropy T*S    EENTRO =        -0.36990696
  eigenvalues    EBANDS =     -4597.69840600
  atomic energy  EATOM  =    139780.45519414
  Solvation  Ediel_sol  =         0.00000000
  ---------------------------------------------------
  free energy    TOTEN  =      9954.42866348 eV

  energy without entropy =     9954.79857044  energy(sigma->0) =     9954.61361696


--------------------------------------------------------------------------------------------------------




--------------------------------------- Iteration      1(   2)  ---------------------------------------


     EDDAV:  cpu time    2.0575: real time    2.0635
       DOS:  cpu time    0.0057: real time    0.0057
    --------------------------------------------
      LOOP:  cpu time    2.0632: real time    2.0692

 eigenvalue-minimisations  :  1032
 total energy-change (2. order) :-0.9339214E+04  (-0.9011134E+04)
 number of electron     814.0000000 magnetization 
 augmentation part      814.0000000 magnetization 

 Free energy of the ion-electron system (eV)
  ---------------------------------------------------
  alpha Z        PSCENC =      1910.25942632
  Ewald energy   TEWEN  =    177593.82869995
  -Hartree energ DENC   =   -303437.18338112
  -exchange      EXHF   =         0.00000000
  -V(xc)+E(xc)   XCENC  =      3753.55943905
  PAW double counting   =    115860.90926010  -120909.33166199
  entropy T*S    EENTRO =        -0.90101301
  eigenvalues    EBANDS =    -13936.38158469
  atomic energy  EATOM  =    139780.45519414
  Solvation  Ediel_sol  =         0.00000000
  ---------------------------------------------------
  free energy    TOTEN  =       615.21437875 eV

  energy without entropy =      616.11539175  energy(sigma->0) =      615.66488525


--------------------------------------------------------------------------------------------------------




--------------------------------------- Iteration      1(   3)  ---------------------------------------


     EDDAV:  cpu time    2.1830: real time    2.1883
       DOS:  cpu time    0.0055: real time    0.0055
    --------------------------------------------
      LOOP:  cpu time    2.1885: real time    2.1939

 eigenvalue-minimisations  :  1112
 total energy-change (2. order) :-0.9673768E+03  (-0.9122783E+03)
 number of electron     814.0000000 magnetization 
 augmentation part      814.0000000 magnetization 

 Free energy of the ion-electron system (eV)
  ---------------------------------------------------
  alpha Z        PSCENC =      1910.25942632
  Ewald energy   TEWEN  =    177593.82869995
  -Hartree energ DENC   =   -303437.18338112
  -exchange      EXHF   =         0.00000000
  -V(xc)+E(xc)   XCENC  =      3753.55943905
  PAW double counting   =    115860.90926010  -120909.33166199
  entropy T*S    EENTRO =        -1.29330636
  eigenvalues    EBANDS =    -14903.36613880
  atomic energy  EATOM  =    139780.45519414
  Solvation  Ediel_sol  =         0.00000000
  ---------------------------------------------------
  free energy    TOTEN  =      -352.16246873 eV

  energy without entropy =     -350.86916236  energy(sigma->0) =     -351.51581554


--------------------------------------------------------------------------------------------------------




--------------------------------------- Iteration      1(   4)  ---------------------------------------


     EDDAV:  cpu time    2.2972: real time    2.3040
       DOS:  cpu time    0.0056: real time    0.0056
    --------------------------------------------
      LOOP:  cpu time    2.3027: real time    2.3096

 eigenvalue-minimisations  :  1168
 total energy-change (2. order) :-0.6393270E+02  (-0.6311003E+02)
 number of electron     814.0000000 magnetization 
 augmentation part      814.0000000 magnetization 

 Free energy of the ion-electron system (eV)
  ---------------------------------------------------
  alpha Z        PSCENC =      1910.25942632
  Ewald energy   TEWEN  =    177593.82869995
  -Hartree energ DENC   =   -303437.18338112
  -exchange      EXHF   =         0.00000000
  -V(xc)+E(xc)   XCENC  =      3753.55943905
  PAW double counting   =    115860.90926010  -120909.33166199
  entropy T*S    EENTRO =        -1.39805758
  eigenvalues    EBANDS =    -14967.19408506
  atomic energy  EATOM  =    139780.45519414
  Solvation  Ediel_sol  =         0.00000000
  ---------------------------------------------------
  free energy    TOTEN  =      -416.09516620 eV

  energy without entropy =     -414.69710862  energy(sigma->0) =     -415.39613741


--------------------------------------------------------------------------------------------------------




--------------------------------------- Iteration      1(   5)  ---------------------------------------


     EDDAV:  cpu time    2.3878: real time    2.3957
       DOS:  cpu time    0.0054: real time    0.0055
    CHARGE:  cpu time    0.0409: real time    0.0410
    MIXING:  cpu time    0.0026: real time    0.0028
    --------------------------------------------
      LOOP:  cpu time    2.4368: real time    2.4450

 eigenvalue-minimisations  :  1248
 total energy-change (2. order) :-0.2210661E+01  (-0.2206782E+01)
 number of electron     814.0000230 magnetization 
 augmentation part      294.0706619 magnetization 

 Broyden mixing:
  rms(total) = 0.83750E+01    rms(broyden)= 0.83584E+01
  rms(prec ) = 0.87945E+01
  weight for this iteration     100.00

 Free energy of the ion-electron system (eV)
  ---------------------------------------------------
  alpha Z        PSCENC =      1910.25942632
  Ewald energy   TEWEN  =    177593.82869995
  -Hartree energ DENC   =   -303437.18338112
  -exchange      EXHF   =         0.00000000
  -V(xc)+E(xc)   XCENC  =      3753.55943905
  PAW double counting   =    115860.90926010  -120909.33166199
  entropy T*S    EENTRO =        -1.39298852
  eigenvalues    EBANDS =    -14969.40981546
  atomic energy  EATOM  =    139780.45519414
  Solvation  Ediel_sol  =         0.00000000
  ---------------------------------------------------
  free energy    TOTEN  =      -418.30582753 eV

  energy without entropy =     -416.91283902  energy(sigma->0) =     -417.60933328


--------------------------------------------------------------------------------------------------------




--------------------------------------- Iteration      1(   6)  ---------------------------------------


    POTLOK:  cpu time    0.0484: real time    0.0485
    SETDIJ:  cpu time    0.0046: real time    0.0064
     EDDAV:  cpu time    2.2573: real time    2.2627
       DOS:  cpu time    0.0018: real time    0.0018
    CHARGE:  cpu time    0.0391: real time    0.0392
    MIXING:  cpu time    0.0026: real time    0.0026
    --------------------------------------------
      LOOP:  cpu time    2.3538: real time    2.3612

 eigenvalue-minimisations  :  1176
 total energy-change (2. order) :-0.8552305E+02  (-0.1027985E+03)
 number of electron     814.0000239 magnetization 
 augmentation part      362.5491368 magnetization 

 Broyden mixing:
  rms(total) = 0.15978E+02    rms(broyden)= 0.15974E+02
  rms(prec ) = 0.16597E+02
  weight for this iteration     100.00

 eigenvalues of (default mixing * dielectric matrix)
  average eigenvalue GAMMA=   0.2282
  0.2282

 Free energy of the ion-electron system (eV)
  ---------------------------------------------------
  alpha Z        PSCENC =      1910.25942632
  Ewald energy   TEWEN  =    177593.82869995
  -Hartree energ DENC   =   -300586.79667738
  -exchange      EXHF   =         0.00000000
  -V(xc)+E(xc)   XCENC  =      3674.14602746
  PAW double counting   =    117742.02494788  -122542.97582259
  entropy T*S    EENTRO =        -1.11867566
  eigenvalues    EBANDS =    -18073.65199378
  atomic energy  EATOM  =    139780.45519414
  Solvation  Ediel_sol  =         0.00000000
  ---------------------------------------------------
  free energy    TOTEN  =      -503.82887366 eV

  energy without entropy =     -502.71019800  energy(sigma->0) =     -503.26953583


--------------------------------------------------------------------------------------------------------




--------------------------------------- Iteration      1(   7)  ---------------------------------------


    POTLOK:  cpu time    0.0469: real time    0.0470
    SETDIJ:  cpu time    0.0051: real time    0.0051
     EDDAV:  cpu time    2.2337: real time    2.2423
       DOS:  cpu time    0.0018: real time    0.0018
    CHARGE:  cpu time    0.0397: real time    0.0398
    MIXING:  cpu time    0.0022: real time    0.0022
    --------------------------------------------
      LOOP:  cpu time    2.3294: real time    2.3383

 eigenvalue-minimisations  :  1144
 total energy-change (2. order) : 0.1179893E+03  (-0.1849233E+02)
 number of electron     814.0000244 magnetization 
 augmentation part      341.3803613 magnetization 

 Broyden mixing:
  rms(total) = 0.62161E+01    rms(broyden)= 0.62146E+01
  rms(prec ) = 0.65003E+01
  weight for this iteration     100.00

 eigenvalues of (default mixing * dielectric matrix)
  average eigenvalue GAMMA=   0.5218
  0.5218  0.5218

 Free energy of the ion-electron system (eV)
  ---------------------------------------------------
  alpha Z        PSCENC =      1910.25942632
  Ewald energy   TEWEN  =    177593.82869995
  -Hartree energ DENC   =   -301856.12586546
  -exchange      EXHF   =         0.00000000
  -V(xc)+E(xc)   XCENC  =      3704.25769208
  PAW double counting   =    121993.25337694  -126944.39239083
  entropy T*S    EENTRO =        -0.93531327
  eigenvalues    EBANDS =    -16566.44039580
  atomic energy  EATOM  =    139780.45519414
  Solvation  Ediel_sol  =         0.00000000
  ---------------------------------------------------
  free energy    TOTEN  =      -385.83957593 eV

  energy without entropy =     -384.90426266  energy(sigma->0) =     -385.37191929


--------------------------------------------------------------------------------------------------------




--------------------------------------- Iteration      1(   8)  ---------------------------------------


    POTLOK:  cpu time    0.0490: real time    0.0501
    SETDIJ:  cpu time    0.0045: real time    0.0064
     EDDAV:  cpu time    2.5480: real time    2.5541
       DOS:  cpu time    0.0018: real time    0.0018
    CHARGE:  cpu time    0.0395: real time    0.0396
    MIXING:  cpu time    0.0022: real time    0.0023
    --------------------------------------------
      LOOP:  cpu time    2.6451: real time    2.6543

 eigenvalue-minimisations  :  1360
 total energy-change (2. order) :-0.3822932E+02  (-0.1732657E+02)
 number of electron     814.0000164 magnetization 
 augmentation part      311.7106570 magnetization 

 Broyden mixing:
  rms(total) = 0.14418E+02    rms(broyden)= 0.14415E+02
  rms(prec ) = 0.17232E+02
  weight for this iteration     100.00

 eigenvalues of (default mixing * dielectric matrix)
  average eigenvalue GAMMA=   0.4176
  0.6918  0.4575  0.1035

 Free energy of the ion-electron system (eV)
  ---------------------------------------------------
  alpha Z        PSCENC =      1910.25942632
  Ewald energy   TEWEN  =    177593.82869995
  -Hartree energ DENC   =   -302441.95075774
  -exchange      EXHF   =         0.00000000
  -V(xc)+E(xc)   XCENC  =      3728.41589447
  PAW double counting   =    127904.57447658  -132974.36489627
  entropy T*S    EENTRO =        -1.27216640
  eigenvalues    EBANDS =    -15924.01476849
  atomic energy  EATOM  =    139780.45519414
  Solvation  Ediel_sol  =         0.00000000
  ---------------------------------------------------
  free energy    TOTEN  =      -424.06889743 eV

  energy without entropy =     -422.79673104  energy(sigma->0) =     -423.43281423


--------------------------------------------------------------------------------------------------------




--------------------------------------- Iteration      1(   9)  ---------------------------------------


    POTLOK:  cpu time    0.0476: real time    0.0477
    SETDIJ:  cpu time    0.0050: real time    0.0050
     EDDAV:  cpu time    2.3832: real time    2.3889
       DOS:  cpu time    0.0019: real time    0.0019
    CHARGE:  cpu time    0.0396: real time    0.0397
    MIXING:  cpu time    0.0024: real time    0.0024
    --------------------------------------------
      LOOP:  cpu time    2.4796: real time    2.4856

 eigenvalue-minimisations  :  1248
 total energy-change (2. order) : 0.3704352E+02  (-0.1109558E+02)
 number of electron     814.0000255 magnetization 
 augmentation part      315.0713783 magnetization 

 Broyden mixing:
  rms(total) = 0.58577E+01    rms(broyden)= 0.58507E+01
  rms(prec ) = 0.70123E+01
  weight for this iteration     100.00

 eigenvalues of (default mixing * dielectric matrix)
  average eigenvalue GAMMA=   0.4291
  0.9890  0.3236  0.3236  0.0803

 Free energy of the ion-electron system (eV)
  ---------------------------------------------------
  alpha Z        PSCENC =      1910.25942632
  Ewald energy   TEWEN  =    177593.82869995
  -Hartree energ DENC   =   -302571.82809229
  -exchange      EXHF   =         0.00000000
  -V(xc)+E(xc)   XCENC  =      3727.12036992
  PAW double counting   =    128976.81165150  -134052.18308558
  entropy T*S    EENTRO =        -1.41698411
  eigenvalues    EBANDS =    -15750.07255644
  atomic energy  EATOM  =    139780.45519414
  Solvation  Ediel_sol  =         0.00000000
  ---------------------------------------------------
  free energy    TOTEN  =      -387.02537660 eV

  energy without entropy =     -385.60839249  energy(sigma->0) =     -386.31688455


--------------------------------------------------------------------------------------------------------




--------------------------------------- Iteration      1(  10)  ---------------------------------------


    POTLOK:  cpu time    0.0468: real time    0.0469
    SETDIJ:  cpu time    0.0050: real time    0.0050
     EDDAV:  cpu time    2.6201: real time    2.6264
       DOS:  cpu time    0.0018: real time    0.0018
    CHARGE:  cpu time    0.0395: real time    0.0396
    MIXING:  cpu time    0.0024: real time    0.0024
    --------------------------------------------
      LOOP:  cpu time    2.7156: real time    2.7221

 eigenvalue-minimisations  :  1408
 total energy-change (2. order) :-0.7211128E+01  (-0.6819030E+01)
 number of electron     814.0000232 magnetization 
 augmentation part      313.6659950 magnetization 

 Broyden mixing:
  rms(total) = 0.69950E+01    rms(broyden)= 0.69884E+01
  rms(prec ) = 0.82448E+01
  weight for this iteration     100.00

 eigenvalues of (default mixing * dielectric matrix)
  average eigenvalue GAMMA=   0.5280
  1.6534  0.3983  0.3983  0.0950  0.0950

 Free energy of the ion-electron system (eV)
  ---------------------------------------------------
  alpha Z        PSCENC =      1910.25942632
  Ewald energy   TEWEN  =    177593.82869995
  -Hartree energ DENC   =   -302670.14909677
  -exchange      EXHF   =         0.00000000
  -V(xc)+E(xc)   XCENC  =      3726.11958138
  PAW double counting   =    130693.27898484  -135782.22026096
  entropy T*S    EENTRO =        -1.24229019
  eigenvalues    EBANDS =    -15644.56674299
  atomic energy  EATOM  =    139780.45519414
  Solvation  Ediel_sol  =         0.00000000
  ---------------------------------------------------
  free energy    TOTEN  =      -394.23650429 eV

  energy without entropy =     -392.99421410  energy(sigma->0) =     -393.61535919


--------------------------------------------------------------------------------------------------------




--------------------------------------- Iteration      1(  11)  ---------------------------------------


    POTLOK:  cpu time    0.0472: real time    0.0473
    SETDIJ:  cpu time    0.0051: real time    0.0051
     EDDAV:  cpu time    2.5483: real time    2.5544
       DOS:  cpu time    0.0006: real time    0.0006
    CHARGE:  cpu time    0.0447: real time    0.0448
    MIXING:  cpu time    0.0022: real time    0.0022
    --------------------------------------------
      LOOP:  cpu time    2.6481: real time    2.6544

 eigenvalue-minimisations  :  1360
 total energy-change (2. order) : 0.3458233E+01  (-0.7063112E+01)
 number of electron     814.0000234 magnetization 
 augmentation part      316.8010826 magnetization 

 Broyden mixing:
  rms(total) = 0.70010E+01    rms(broyden)= 0.69974E+01
  rms(prec ) = 0.83664E+01
  weight for this iteration     100.00

 eigenvalues of (default mixing * dielectric matrix)
  average eigenvalue GAMMA=   0.5347
  2.0515  0.4125  0.4125  0.1267  0.1267  0.0784

 Free energy of the ion-electron system (eV)
  ---------------------------------------------------
  alpha Z        PSCENC =      1910.25942632
  Ewald energy   TEWEN  =    177593.82869995
  -Hartree energ DENC   =   -302571.56128693
  -exchange      EXHF   =         0.00000000
  -V(xc)+E(xc)   XCENC  =      3722.77409588
  PAW double counting   =    133799.99272195  -138907.62211242
  entropy T*S    EENTRO =        -1.30178846
  eigenvalues    EBANDS =    -15717.60322157
  atomic energy  EATOM  =    139780.45519414
  Solvation  Ediel_sol  =         0.00000000
  ---------------------------------------------------
  free energy    TOTEN  =      -390.77827114 eV

  energy without entropy =     -389.47648268  energy(sigma->0) =     -390.12737691


--------------------------------------------------------------------------------------------------------




--------------------------------------- Iteration      1(  12)  ---------------------------------------


    POTLOK:  cpu time    0.0476: real time    0.0477
    SETDIJ:  cpu time    0.0050: real time    0.0050
     EDDAV:  cpu time    2.6334: real time    2.6411
       DOS:  cpu time    0.0006: real time    0.0006
    CHARGE:  cpu time    0.0449: real time    0.0450
    MIXING:  cpu time    0.0026: real time    0.0027
    --------------------------------------------
      LOOP:  cpu time    2.7341: real time    2.7421

 eigenvalue-minimisations  :  1392
 total energy-change (2. order) : 0.1196706E+02  (-0.3781997E+01)
 number of electron     814.0000260 magnetization 
 augmentation part      321.9049829 magnetization 

 Broyden mixing:
  rms(total) = 0.39309E+01    rms(broyden)= 0.39262E+01
  rms(prec ) = 0.44430E+01
  weight for this iteration     100.00

 eigenvalues of (default mixing * dielectric matrix)
  average eigenvalue GAMMA=   0.5005
  2.1475  0.4159  0.4159  0.1707  0.1707  0.0990  0.0836

 Free energy of the ion-electron system (eV)
  ---------------------------------------------------
  alpha Z        PSCENC =      1910.25942632
  Ewald energy   TEWEN  =    177593.82869995
  -Hartree energ DENC   =   -302483.16451600
  -exchange      EXHF   =         0.00000000
  -V(xc)+E(xc)   XCENC  =      3720.30941019
  PAW double counting   =    135748.58994993  -140866.46005044
  entropy T*S    EENTRO =        -0.87182315
  eigenvalues    EBANDS =    -15781.75750066
  atomic energy  EATOM  =    139780.45519414
  Solvation  Ediel_sol  =         0.00000000
  ---------------------------------------------------
  free energy    TOTEN  =      -378.81120973 eV

  energy without entropy =     -377.93938658  energy(sigma->0) =     -378.37529815


--------------------------------------------------------------------------------------------------------




--------------------------------------- Iteration      1(  13)  ---------------------------------------


    POTLOK:  cpu time    0.0481: real time    0.0504
    SETDIJ:  cpu time    0.0046: real time    0.0064
     EDDAV:  cpu time    2.3646: real time    2.3703
       DOS:  cpu time    0.0006: real time    0.0006
    CHARGE:  cpu time    0.0447: real time    0.0448
    MIXING:  cpu time    0.0025: real time    0.0025
    --------------------------------------------
      LOOP:  cpu time    2.4651: real time    2.4749

 eigenvalue-minimisations  :  1240
 total energy-change (2. order) : 0.7061829E+01  (-0.1226551E+01)
 number of electron     814.0000251 magnetization 
 augmentation part      323.1761381 magnetization 

 Broyden mixing:
  rms(total) = 0.22610E+01    rms(broyden)= 0.22582E+01
  rms(prec ) = 0.26701E+01
  weight for this iteration     100.00

 eigenvalues of (default mixing * dielectric matrix)
  average eigenvalue GAMMA=   0.4859
  2.0897  0.4629  0.3918  0.3918  0.2254  0.1225  0.1225  0.0803

 Free energy of the ion-electron system (eV)
  ---------------------------------------------------
  alpha Z        PSCENC =      1910.25942632
  Ewald energy   TEWEN  =    177593.82869995
  -Hartree energ DENC   =   -302475.83755961
  -exchange      EXHF   =         0.00000000
  -V(xc)+E(xc)   XCENC  =      3720.48767688
  PAW double counting   =    136223.07565639  -141347.09676948
  entropy T*S    EENTRO =        -1.00605789
  eigenvalues    EBANDS =    -15775.91564789
  atomic energy  EATOM  =    139780.45519414
  Solvation  Ediel_sol  =         0.00000000
  ---------------------------------------------------
  free energy    TOTEN  =      -371.74938119 eV

  energy without entropy =     -370.74332330  energy(sigma->0) =     -371.24635224


--------------------------------------------------------------------------------------------------------




--------------------------------------- Iteration      1(  14)  ---------------------------------------


    POTLOK:  cpu time    0.0477: real time    0.0478
    SETDIJ:  cpu time    0.0050: real time    0.0050
     EDDAV:  cpu time    2.4964: real time    2.5023
       DOS:  cpu time    0.0006: real time    0.0006
    CHARGE:  cpu time    0.0446: real time    0.0447
    MIXING:  cpu time    0.0024: real time    0.0024
    --------------------------------------------
      LOOP:  cpu time    2.5967: real time    2.6028

 eigenvalue-minimisations  :  1328
 total energy-change (2. order) :-0.1173455E+01  (-0.1205276E+01)
 number of electron     814.0000243 magnetization 
 augmentation part      321.7267397 magnetization 

 Broyden mixing:
  rms(total) = 0.31685E+01    rms(broyden)= 0.31662E+01
  rms(prec ) = 0.36048E+01
  weight for this iteration     100.00

 eigenvalues of (default mixing * dielectric matrix)
  average eigenvalue GAMMA=   0.4675
  2.0546  0.6509  0.4212  0.4212  0.1711  0.1711  0.0808  0.1185  0.1185

 Free energy of the ion-electron system (eV)
  ---------------------------------------------------
  alpha Z        PSCENC =      1910.25942632
  Ewald energy   TEWEN  =    177593.82869995
  -Hartree energ DENC   =   -302504.05136812
  -exchange      EXHF   =         0.00000000
  -V(xc)+E(xc)   XCENC  =      3721.47914164
  PAW double counting   =    135976.35237700  -141101.28508563
  entropy T*S    EENTRO =        -0.92851305
  eigenvalues    EBANDS =    -15749.03270827
  atomic energy  EATOM  =    139780.45519414
  Solvation  Ediel_sol  =         0.00000000
  ---------------------------------------------------
  free energy    TOTEN  =      -372.92283603 eV

  energy without entropy =     -371.99432298  energy(sigma->0) =     -372.45857950


--------------------------------------------------------------------------------------------------------




--------------------------------------- Iteration      1(  15)  ---------------------------------------


    POTLOK:  cpu time    0.0478: real time    0.0480
    SETDIJ:  cpu time    0.0050: real time    0.0050
     EDDAV:  cpu time    2.3239: real time    2.3294
       DOS:  cpu time    0.0008: real time    0.0008
    CHARGE:  cpu time    0.0529: real time    0.0530
    MIXING:  cpu time    0.0032: real time    0.0033
    --------------------------------------------
      LOOP:  cpu time    2.4337: real time    2.4394

 eigenvalue-minimisations  :  1208
 total energy-change (2. order) : 0.3369818E+01  (-0.6064319E+00)
 number of electron     814.0000250 magnetization 
 augmentation part      321.7097828 magnetization 

 Broyden mixing:
  rms(total) = 0.19477E+01    rms(broyden)= 0.19460E+01
  rms(prec ) = 0.23274E+01
  weight for this iteration     100.00

 eigenvalues of (default mixing * dielectric matrix)
  average eigenvalue GAMMA=   0.4500
  2.0276  0.5227  0.5227  0.3982  0.3982  0.1581  0.1581  0.0805  0.1169  0.1169

 Free energy of the ion-electron system (eV)
  ---------------------------------------------------
  alpha Z        PSCENC =      1910.25942632
  Ewald energy   TEWEN  =    177593.82869995
  -Hartree energ DENC   =   -302532.34143440
  -exchange      EXHF   =         0.00000000
  -V(xc)+E(xc)   XCENC  =      3722.25095326
  PAW double counting   =    135813.96129188  -140940.60957929
  entropy T*S    EENTRO =        -0.97543463
  eigenvalues    EBANDS =    -15716.38213564
  atomic energy  EATOM  =    139780.45519414
  Solvation  Ediel_sol  =         0.00000000
  ---------------------------------------------------
  free energy    TOTEN  =      -369.55301842 eV

  energy without entropy =     -368.57758379  energy(sigma->0) =     -369.06530111


--------------------------------------------------------------------------------------------------------




--------------------------------------- Iteration      1(  16)  ---------------------------------------


    POTLOK:  cpu time    0.0473: real time    0.0474
    SETDIJ:  cpu time    0.0049: real time    0.0049
     EDDAV:  cpu time    2.5170: real time    2.5230
       DOS:  cpu time    0.0006: real time    0.0006
    CHARGE:  cpu time    0.0406: real time    0.0407
    MIXING:  cpu time    0.0027: real time    0.0027
    --------------------------------------------
      LOOP:  cpu time    2.6131: real time    2.6193

 eigenvalue-minimisations  :  1336
 total energy-change (2. order) : 0.6663847E+00  (-0.1483224E+00)
 number of electron     814.0000246 magnetization 
 augmentation part      321.5184126 magnetization 

 Broyden mixing:
  rms(total) = 0.17402E+01    rms(broyden)= 0.17397E+01
  rms(prec ) = 0.21324E+01
  weight for this iteration     100.00

 eigenvalues of (default mixing * dielectric matrix)
  average eigenvalue GAMMA=   0.4735
  2.0189  0.7949  0.7949  0.4032  0.4032  0.1647  0.1647  0.0806  0.1501  0.1168
  0.1168

 Free energy of the ion-electron system (eV)
  ---------------------------------------------------
  alpha Z        PSCENC =      1910.25942632
  Ewald energy   TEWEN  =    177593.82869995
  -Hartree energ DENC   =   -302534.32823751
  -exchange      EXHF   =         0.00000000
  -V(xc)+E(xc)   XCENC  =      3722.45698574
  PAW double counting   =    135687.07535383  -140812.91862315
  entropy T*S    EENTRO =        -1.00628986
  eigenvalues    EBANDS =    -15714.70914315
  atomic energy  EATOM  =    139780.45519414
  Solvation  Ediel_sol  =         0.00000000
  ---------------------------------------------------
  free energy    TOTEN  =      -368.88663370 eV

  energy without entropy =     -367.88034384  energy(sigma->0) =     -368.38348877


--------------------------------------------------------------------------------------------------------




--------------------------------------- Iteration      1(  17)  ---------------------------------------


    POTLOK:  cpu time    0.0481: real time    0.0482
    SETDIJ:  cpu time    0.0050: real time    0.0050
     EDDAV:  cpu time    2.4796: real time    2.4855
       DOS:  cpu time    0.0006: real time    0.0006
    CHARGE:  cpu time    0.0400: real time    0.0401
    MIXING:  cpu time    0.0027: real time    0.0027
    --------------------------------------------
      LOOP:  cpu time    2.5760: real time    2.5822

 eigenvalue-minimisations  :  1312
 total energy-change (2. order) : 0.1076075E+01  (-0.8304394E-01)
 number of electron     814.0000244 magnetization 
 augmentation part      321.4215107 magnetization 

 Broyden mixing:
  rms(total) = 0.12956E+01    rms(broyden)= 0.12952E+01
  rms(prec ) = 0.15737E+01
  weight for this iteration     100.00

 eigenvalues of (default mixing * dielectric matrix)
  average eigenvalue GAMMA=   0.4763
  2.0110  0.9079  0.9079  0.3997  0.3997  0.3135  0.1574  0.1574  0.0805  0.1495
  0.1155  0.1155

 Free energy of the ion-electron system (eV)
  ---------------------------------------------------
  alpha Z        PSCENC =      1910.25942632
  Ewald energy   TEWEN  =    177593.82869995
  -Hartree energ DENC   =   -302536.56141445
  -exchange      EXHF   =         0.00000000
  -V(xc)+E(xc)   XCENC  =      3722.67007045
  PAW double counting   =    135493.67107124  -140617.67470804
  entropy T*S    EENTRO =        -1.01847803
  eigenvalues    EBANDS =    -15713.44041997
  atomic energy  EATOM  =    139780.45519414
  Solvation  Ediel_sol  =         0.00000000
  ---------------------------------------------------
  free energy    TOTEN  =      -367.81055840 eV

  energy without entropy =     -366.79208036  energy(sigma->0) =     -367.30131938


--------------------------------------------------------------------------------------------------------




--------------------------------------- Iteration      1(  18)  ---------------------------------------


    POTLOK:  cpu time    0.0475: real time    0.0476
    SETDIJ:  cpu time    0.0050: real time    0.0050
     EDDAV:  cpu time    2.5152: real time    2.5212
       DOS:  cpu time    0.0005: real time    0.0006
    CHARGE:  cpu time    0.0397: real time    0.0398
    MIXING:  cpu time    0.0032: real time    0.0032
    --------------------------------------------
      LOOP:  cpu time    2.6113: real time    2.6175

 eigenvalue-minimisations  :  1336
 total energy-change (2. order) : 0.5063494E+00  (-0.3603962E-01)
 number of electron     814.0000241 magnetization 
 augmentation part      321.2572503 magnetization 

 Broyden mixing:
  rms(total) = 0.10728E+01    rms(broyden)= 0.10726E+01
  rms(prec ) = 0.12882E+01
  weight for this iteration     100.00

 eigenvalues of (default mixing * dielectric matrix)
  average eigenvalue GAMMA=   0.4902
  2.0100  1.0684  1.0684  0.4378  0.4094  0.4094  0.2062  0.1582  0.1582  0.0806
  0.1171  0.1171  0.1317

 Free energy of the ion-electron system (eV)
  ---------------------------------------------------
  alpha Z        PSCENC =      1910.25942632
  Ewald energy   TEWEN  =    177593.82869995
  -Hartree energ DENC   =   -302546.72078113
  -exchange      EXHF   =         0.00000000
  -V(xc)+E(xc)   XCENC  =      3722.80284680
  PAW double counting   =    135329.96923662  -140452.20407128
  entropy T*S    EENTRO =        -1.06561619
  eigenvalues    EBANDS =    -15704.62914420
  atomic energy  EATOM  =    139780.45519414
  Solvation  Ediel_sol  =         0.00000000
  ---------------------------------------------------
  free energy    TOTEN  =      -367.30420897 eV

  energy without entropy =     -366.23859277  energy(sigma->0) =     -366.77140087


--------------------------------------------------------------------------------------------------------




--------------------------------------- Iteration      1(  19)  ---------------------------------------


    POTLOK:  cpu time    0.0482: real time    0.0483
    SETDIJ:  cpu time    0.0050: real time    0.0050
     EDDAV:  cpu time    2.4908: real time    2.4967
       DOS:  cpu time    0.0006: real time    0.0006
    CHARGE:  cpu time    0.0400: real time    0.0401
    MIXING:  cpu time    0.0029: real time    0.0029
    --------------------------------------------
      LOOP:  cpu time    2.5875: real time    2.5936

 eigenvalue-minimisations  :  1320
 total energy-change (2. order) : 0.2819653E+00  (-0.2962354E-01)
 number of electron     814.0000243 magnetization 
 augmentation part      321.1800377 magnetization 

 Broyden mixing:
  rms(total) = 0.89770E+00    rms(broyden)= 0.89739E+00
  rms(prec ) = 0.10567E+01
  weight for this iteration     100.00

 eigenvalues of (default mixing * dielectric matrix)
  average eigenvalue GAMMA=   0.4925
  2.0076  1.1727  1.1727  0.4235  0.4235  0.3949  0.3949  0.1631  0.1631  0.0806
  0.1153  0.1153  0.1341  0.1341

 Free energy of the ion-electron system (eV)
  ---------------------------------------------------
  alpha Z        PSCENC =      1910.25942632
  Ewald energy   TEWEN  =    177593.82869995
  -Hartree energ DENC   =   -302556.38665779
  -exchange      EXHF   =         0.00000000
  -V(xc)+E(xc)   XCENC  =      3722.84805992
  PAW double counting   =    135173.06873961  -140293.23106760
  entropy T*S    EENTRO =        -1.08864979
  eigenvalues    EBANDS =    -15696.77598839
  atomic energy  EATOM  =    139780.45519414
  Solvation  Ediel_sol  =         0.00000000
  ---------------------------------------------------
  free energy    TOTEN  =      -367.02224364 eV

  energy without entropy =     -365.93359385  energy(sigma->0) =     -366.47791875


--------------------------------------------------------------------------------------------------------




--------------------------------------- Iteration      1(  20)  ---------------------------------------


    POTLOK:  cpu time    0.0481: real time    0.0482
    SETDIJ:  cpu time    0.0050: real time    0.0050
     EDDAV:  cpu time    2.4307: real time    2.4366
       DOS:  cpu time    0.0006: real time    0.0006
    CHARGE:  cpu time    0.0402: real time    0.0403
    MIXING:  cpu time    0.0030: real time    0.0030
    --------------------------------------------
      LOOP:  cpu time    2.5276: real time    2.5337

 eigenvalue-minimisations  :  1280
 total energy-change (2. order) : 0.1156673E+00  (-0.1375517E-01)
 number of electron     814.0000241 magnetization 
 augmentation part      321.0646850 magnetization 

 Broyden mixing:
  rms(total) = 0.80447E+00    rms(broyden)= 0.80433E+00
  rms(prec ) = 0.94613E+00
  weight for this iteration     100.00

 eigenvalues of (default mixing * dielectric matrix)
  average eigenvalue GAMMA=   0.5270
  2.0386  1.4011  1.4011  0.5723  0.5723  0.4104  0.4104  0.0806  0.1611  0.1611
  0.1673  0.1673  0.1162  0.1162  0.1286

 Free energy of the ion-electron system (eV)
  ---------------------------------------------------
  alpha Z        PSCENC =      1910.25942632
  Ewald energy   TEWEN  =    177593.82869995
  -Hartree energ DENC   =   -302564.46649836
  -exchange      EXHF   =         0.00000000
  -V(xc)+E(xc)   XCENC  =      3722.90629641
  PAW double counting   =    135054.56234434  -140173.22637296
  entropy T*S    EENTRO =        -1.08973497
  eigenvalues    EBANDS =    -15690.13593123
  atomic energy  EATOM  =    139780.45519414
  Solvation  Ediel_sol  =         0.00000000
  ---------------------------------------------------
  free energy    TOTEN  =      -366.90657636 eV

  energy without entropy =     -365.81684139  energy(sigma->0) =     -366.36170888


--------------------------------------------------------------------------------------------------------




--------------------------------------- Iteration      1(  21)  ---------------------------------------


    POTLOK:  cpu time    0.0475: real time    0.0476
    SETDIJ:  cpu time    0.0050: real time    0.0050
     EDDAV:  cpu time    2.4668: real time    2.4738
       DOS:  cpu time    0.0006: real time    0.0006
    CHARGE:  cpu time    0.0404: real time    0.0405
    MIXING:  cpu time    0.0035: real time    0.0035
    --------------------------------------------
      LOOP:  cpu time    2.5638: real time    2.5710

 eigenvalue-minimisations  :  1272
 total energy-change (2. order) : 0.8751049E-01  (-0.1857683E-01)
 number of electron     814.0000240 magnetization 
 augmentation part      321.0863577 magnetization 

 Broyden mixing:
  rms(total) = 0.72900E+00    rms(broyden)= 0.72872E+00
  rms(prec ) = 0.85917E+00
  weight for this iteration     100.00

 eigenvalues of (default mixing * dielectric matrix)
  average eigenvalue GAMMA=   0.5611
  2.0554  1.6327  1.6327  0.7233  0.7233  0.4083  0.4083  0.3386  0.1610  0.1610
  0.0806  0.1603  0.1161  0.1161  0.1367  0.1230

 Free energy of the ion-electron system (eV)
  ---------------------------------------------------
  alpha Z        PSCENC =      1910.25942632
  Ewald energy   TEWEN  =    177593.82869995
  -Hartree energ DENC   =   -302571.11449048
  -exchange      EXHF   =         0.00000000
  -V(xc)+E(xc)   XCENC  =      3722.86800521
  PAW double counting   =    134898.21914535  -140014.36113903
  entropy T*S    EENTRO =        -1.10794110
  eigenvalues    EBANDS =    -15685.86596623
  atomic energy  EATOM  =    139780.45519414
  Solvation  Ediel_sol  =         0.00000000
[...]
  Alpha Z  1910.25943  1910.25943  1910.25943
  Ewald  228585.27613228625.98278************  -230.04091  -295.56871  -815.44299
  Hartree266184.60054266643.27379************  -229.37712  -236.88385  -593.97701
  E(xc)   -5164.53271 -5166.61264 -5170.58305     0.15229    -0.07998    -0.78429
  Local  ************************496467.52451   463.46280   531.43593  1376.49477
  n-local  -692.16102  -706.91821  -712.64668     0.62816    -0.35324    -2.66175
  augment  5936.09826  5968.48268  5968.77911    -1.59615     0.24063    14.12239
  Kinetic 11235.60362 11292.31583 11311.16634    -4.28792     0.89608    34.94646
  Fock        0.00000     0.00000     0.00000     0.00000     0.00000     0.00000
  -------------------------------------------------------------------------------------
  Total     -43.19313   -25.40009   -22.17338    -1.05885    -0.31313    12.69758
  in kB     -33.64247   -19.78374   -17.27051    -0.82472    -0.24389     9.88995
  external pressure =      -23.57 kB  Pullay stress =        0.00 kB


 VOLUME and BASIS-vectors are now :
 -----------------------------------------------------------------------------
  energy-cutoff  :      450.00
  volume of cell :     2057.01
      direct lattice vectors                 reciprocal lattice vectors
    10.403353751 -4.789205000  0.000000000     0.096122849  0.000000000  0.000000000
     0.000000000  9.578410000  0.000000000     0.048061424  0.104401461  0.000000000
     0.000000000  0.000000000 20.642891374     0.000000000  0.000000000  0.048442826

  length of vectors
    11.452783670  9.578410000 20.642891374     0.096122849  0.114932874  0.048442826


 FORCES acting on ions
    electron-ion (+dipol)            ewald-force                    non-local-force                 convergence-correction
 -----------------------------------------------------------------------------------------------
   -.138E+03 0.354E+03 -.225E+04   0.138E+03 -.355E+03 0.225E+04   -.827E-01 0.656E+00 -.209E+01   -.651E-01 0.937E-02 0.406E+00
   -.268E+03 0.446E+03 0.570E+03   0.268E+03 -.447E+03 -.570E+03   0.146E-01 0.499E+00 -.981E+00   0.113E-01 -.136E-01 0.401E+00
   -.433E+03 0.402E+03 0.364E+04   0.434E+03 -.399E+03 -.364E+04   -.773E+00 -.195E+01 -.549E+00   0.688E-01 0.755E-01 0.607E-01
   -.323E+02 -.275E+01 -.469E+04   0.261E+02 0.442E+01 0.469E+04   0.568E+01 -.145E+01 0.451E+01   0.124E+00 -.201E-01 0.191E+00
   -.265E+03 0.445E+03 -.385E+03   0.265E+03 -.446E+03 0.386E+03   0.610E+00 0.783E+00 -.102E+01   -.115E-01 0.359E-01 0.186E+00
   -.163E+03 0.512E+03 0.244E+04   0.163E+03 -.513E+03 -.244E+04   0.321E+00 0.151E+01 0.143E+01   -.163E+00 0.569E-02 0.735E-01
   0.419E+02 0.516E+03 0.467E+04   -.421E+02 -.515E+03 -.467E+04   0.492E+00 -.596E+00 -.317E+01   -.118E+00 -.576E-01 -.145E+00
   0.860E+02 0.701E+03 -.483E+04   -.852E+02 -.690E+03 0.482E+04   0.895E-02 -.107E+02 0.843E+01   -.654E-02 0.208E-01 0.112E+00
   -.359E+03 0.480E+03 -.310E+04   0.360E+03 -.481E+03 0.310E+04   -.130E+00 0.140E+01 -.185E+01   -.776E-01 0.600E-01 0.986E-01
   -.308E+03 0.437E+03 -.424E+04   0.308E+03 -.442E+03 0.424E+04   -.246E+00 0.374E+01 -.218E+01   -.668E-01 -.258E-01 0.122E+00
   -.223E+03 0.509E+03 -.141E+04   0.223E+03 -.511E+03 0.142E+04   0.228E+00 0.216E+01 -.133E+01   0.824E-01 -.556E-01 0.225E+00
   -.192E+03 0.397E+03 0.154E+04   0.192E+03 -.398E+03 -.154E+04   0.389E+00 0.127E+01 0.235E+00   -.489E-01 -.331E-01 0.283E+00
   -.120E+03 0.184E+03 0.438E+04   0.121E+03 -.181E+03 -.437E+04   -.334E+00 -.175E+01 -.259E+01   0.114E+00 -.123E+00 -.384E-01
   0.187E+03 -.261E+03 -.340E+04   -.190E+03 0.264E+03 0.341E+04   0.286E+01 -.172E+01 -.362E+01   0.240E+00 -.233E+00 0.279E+00
   0.431E+03 -.519E+02 -.430E+03   -.433E+03 0.530E+02 0.431E+03   0.203E+01 -.965E+00 -.765E+00   0.550E-01 -.793E-01 0.403E+00
   0.367E+03 -.535E+01 0.241E+04   -.369E+03 0.532E+01 -.241E+04   0.150E+01 0.318E-01 0.102E+00   0.131E-01 0.117E-01 0.247E+00
   -.123E+03 -.592E+00 0.492E+04   0.118E+03 0.424E+00 -.491E+04   0.364E+01 0.602E-01 -.545E+01   0.928E-01 0.109E+00 -.117E+00
   0.418E+03 -.759E+00 0.435E+04   -.419E+03 0.870E+00 -.435E+04   0.871E+00 0.250E-01 0.339E+01   0.370E-01 -.115E+00 0.249E-01
   0.776E+03 0.165E+03 -.394E+04   -.775E+03 -.165E+03 0.394E+04   -.784E+00 -.837E-01 0.801E+00   0.127E+00 0.168E+00 0.149E+00
   0.413E+03 0.276E+02 -.117E+04   -.414E+03 -.277E+02 0.117E+04   0.129E+01 0.578E-01 0.202E+00   0.461E-01 0.357E-01 0.295E+00
   0.368E+03 0.833E+00 0.162E+04   -.369E+03 -.837E+00 -.162E+04   0.140E+01 0.487E-01 0.245E+00   0.136E+00 -.611E-01 0.291E+00
   0.373E+03 0.122E+02 0.677E+03   -.375E+03 -.123E+02 -.676E+03   0.157E+01 -.385E-02 -.221E+00   -.304E-01 0.387E-01 0.164E+00
   0.443E+03 0.340E+01 0.367E+04   -.445E+03 -.351E+01 -.367E+04   0.194E+01 0.478E-01 0.236E+01   -.123E+00 0.442E-01 0.357E-01
   0.159E+02 -.425E+02 -.468E+04   -.179E+02 0.424E+02 0.467E+04   0.230E+01 0.146E+00 0.904E+01   -.167E+00 -.574E-01 0.695E-01
   0.308E+03 0.873E+01 -.224E+04   -.309E+03 -.870E+01 0.224E+04   0.148E+01 -.525E-01 -.167E+01   -.180E+00 -.122E-02 0.170E+00
   -.244E+02 -.453E+03 -.240E+04   0.229E+02 0.454E+03 0.240E+04   0.103E+01 -.913E+00 -.210E+01   0.277E-01 -.128E+00 0.281E+00
   -.258E+03 -.454E+03 0.562E+03   0.258E+03 0.454E+03 -.561E+03   0.208E-01 -.596E+00 -.110E+01   0.669E-01 0.504E-01 0.315E+00
   -.431E+03 -.401E+03 0.364E+04   0.432E+03 0.399E+03 -.364E+04   -.744E+00 0.200E+01 -.560E+00   0.800E-01 0.161E+00 0.336E-01
   -.282E+03 -.458E+03 -.398E+03   0.282E+03 0.459E+03 0.399E+03   0.513E+00 -.757E+00 -.951E+00   -.285E-01 -.892E-01 0.234E+00
   -.166E+03 -.517E+03 0.244E+04   0.165E+03 0.519E+03 -.244E+04   0.287E+00 -.151E+01 0.146E+01   -.126E+00 -.120E+00 0.116E+00
   0.418E+02 -.517E+03 0.467E+04   -.421E+02 0.516E+03 -.467E+04   0.451E+00 0.597E+00 -.314E+01   -.790E-01 -.635E-01 -.136E+00
   -.276E+02 -.581E+03 -.486E+04   0.276E+02 0.570E+03 0.485E+04   0.726E+00 0.989E+01 0.791E+01   -.961E-01 0.136E+00 0.800E-01
   -.402E+03 -.468E+03 -.309E+04   0.402E+03 0.469E+03 0.310E+04   -.441E+00 -.120E+01 -.182E+01   -.146E+00 -.289E-01 0.124E+00
   -.196E+03 -.319E+03 -.421E+04   0.195E+03 0.322E+03 0.421E+04   0.158E+00 -.273E+01 -.160E+01   0.399E-01 0.163E+00 0.178E+00
   -.201E+03 -.428E+03 -.134E+04   0.200E+03 0.429E+03 0.134E+04   0.730E+00 -.900E+00 -.895E+00   0.107E+00 0.145E+00 0.285E+00
   -.195E+03 -.384E+03 0.156E+04   0.194E+03 0.386E+03 -.156E+04   0.383E+00 -.126E+01 0.229E+00   -.825E-01 0.411E-01 0.287E+00
   -.121E+03 -.182E+03 0.438E+04   0.122E+03 0.180E+03 -.437E+04   -.322E+00 0.170E+01 -.251E+01   0.392E-01 0.643E-01 -.592E-01
   -.486E+02 -.314E+01 -.184E+04   0.486E+02 0.300E+01 0.184E+04   -.221E+00 0.621E+00 -.455E+01   0.311E-01 -.587E-01 0.554E-01
   0.866E+02 -.119E+03 -.106E+04   -.873E+02 0.121E+03 0.106E+04   0.557E+00 -.230E+01 -.290E+01   0.518E-01 -.571E-01 0.838E-01
   0.104E+03 -.152E+03 0.172E+03   -.106E+03 0.154E+03 -.173E+03   0.162E+01 -.209E+01 0.101E+01   0.127E-01 -.160E-02 0.159E+00
   0.396E+02 -.173E+03 0.123E+04   -.409E+02 0.175E+03 -.123E+04   0.175E+01 -.200E+01 0.286E+00   0.959E-01 -.966E-02 0.458E-01
   0.826E+02 -.166E+03 0.925E+03   -.839E+02 0.169E+03 -.926E+03   0.122E+01 -.227E+01 0.107E+01   0.336E-01 -.713E-01 0.495E-01
   0.164E+03 -.243E+03 0.186E+04   -.166E+03 0.246E+03 -.186E+04   0.232E+01 -.417E+01 0.355E+01   -.605E-01 -.381E-01 -.296E-01
   0.121E+03 -.157E+03 -.114E+04   -.123E+03 0.159E+03 0.114E+04   0.862E+00 -.187E+01 0.154E+01   -.889E-02 0.520E-01 0.581E-01
   0.757E+02 -.146E+03 -.145E+03   -.774E+02 0.148E+03 0.144E+03   0.156E+01 -.229E+01 0.346E+00   -.172E-01 -.164E-01 0.146E+00
   0.805E+02 -.141E+03 -.518E+03   -.820E+02 0.143E+03 0.518E+03   0.155E+01 -.238E+01 0.191E+00   -.292E-01 0.594E-01 0.712E-01
   0.105E+03 -.125E+03 0.569E+03   -.106E+03 0.127E+03 -.570E+03   0.165E+01 -.207E+01 0.962E+00   -.312E-01 0.370E-01 0.364E-01
   0.863E+02 0.449E+02 0.162E+04   -.869E+02 -.452E+02 -.162E+04   0.112E+01 0.368E-01 0.217E+01   -.101E+00 0.186E-01 -.238E-01
   0.199E+02 -.895E+02 -.161E+04   -.199E+02 0.904E+02 0.161E+04   0.147E+00 -.184E+01 -.667E+00   -.434E-01 0.141E-01 0.342E-01
   -.922E+02 0.364E+00 0.170E+04   0.926E+02 -.431E+00 -.171E+04   -.178E+01 0.510E-02 0.414E+01   0.530E-02 0.552E-01 -.831E-02
   0.701E+02 -.121E+03 -.166E+04   -.703E+02 0.123E+03 0.166E+04   0.795E+00 -.217E+01 -.659E+00   -.100E+00 -.100E+00 0.494E-01
   -.109E+03 -.698E+01 -.666E+03   0.111E+03 0.682E+01 0.668E+03   -.158E+01 0.203E+00 -.176E+01   -.463E-01 -.110E-01 0.121E+00
   -.136E+03 0.477E+00 0.421E+03   0.138E+03 -.441E+00 -.420E+03   -.165E+01 -.781E-01 -.161E+01   -.206E-01 0.547E-01 0.580E-01
   -.107E+03 -.641E+01 0.178E+02   0.108E+03 0.643E+01 -.163E+02   -.123E+01 -.238E-01 -.188E+01   -.314E-01 -.268E-01 0.835E-01
   -.698E+02 -.128E+01 0.104E+04   0.712E+02 0.128E+01 -.103E+04   -.159E+01 0.439E-01 -.269E+01   -.664E-01 -.375E-01 0.318E-01
   -.115E+03 -.247E+00 0.186E+04   0.116E+03 0.243E+00 -.186E+04   -.145E+01 0.225E-01 0.326E+01   0.644E-02 -.177E-01 -.106E+00
   -.160E+03 -.104E+02 -.106E+04   0.161E+03 0.105E+02 0.106E+04   -.132E+01 -.265E-02 -.904E+00   -.279E-01 -.150E-01 0.444E-01
   -.368E+03 0.327E+01 -.185E+04   0.374E+03 -.341E+01 0.186E+04   -.686E+01 0.965E-01 -.253E+01   -.349E-01 0.160E-01 0.181E-01
   -.930E+02 0.498E+02 -.141E+04   0.944E+02 -.496E+02 0.141E+04   -.145E+01 -.180E+00 0.865E-01   0.411E-01 0.380E-01 0.597E-01
   -.895E+02 0.121E+02 -.312E+03   0.908E+02 -.121E+02 0.313E+03   -.139E+01 0.432E-01 -.211E+01   0.561E-01 0.585E-02 0.151E+00
   -.941E+02 0.127E+01 0.779E+03   0.951E+02 -.131E+01 -.776E+03   -.125E+01 0.622E-01 -.296E+01   0.327E-01 -.178E-01 0.141E+00
   -.858E+02 0.823E-01 0.184E+04   0.857E+02 -.532E-01 -.185E+04   -.168E+01 0.240E-02 0.426E+01   0.137E+00 -.283E-01 -.476E-01
   0.995E+02 0.146E+03 0.185E+03   -.101E+03 -.148E+03 -.186E+03   0.130E+01 0.219E+01 0.914E+00   0.869E-03 0.435E-02 0.188E+00
   0.389E+02 0.172E+03 0.123E+04   -.401E+02 -.174E+03 -.123E+04   0.175E+01 0.195E+01 0.144E+00   0.188E-01 0.289E-01 0.538E-01
   0.149E+03 -.172E+02 -.185E+04   -.152E+03 0.180E+02 0.186E+04   0.353E+01 -.113E+01 -.373E+01   0.162E+00 0.348E-01 0.530E-01
   0.111E+03 0.966E+02 -.887E+03   -.112E+03 -.984E+02 0.886E+03   0.173E+01 0.223E+01 0.106E+01   0.796E-01 0.374E-01 0.204E+00
   0.841E+02 0.166E+03 0.926E+03   -.854E+02 -.168E+03 -.927E+03   0.118E+01 0.226E+01 0.109E+01   0.302E-01 -.441E-02 0.112E-01
   0.164E+03 0.242E+03 0.186E+04   -.167E+03 -.246E+03 -.187E+04   0.233E+01 0.417E+01 0.350E+01   -.431E-01 0.133E-01 -.712E-02
   0.172E+03 0.199E+03 -.117E+04   -.173E+03 -.201E+03 0.117E+04   0.798E+00 0.207E+01 0.144E+01   0.276E-01 -.440E-02 0.202E-01
   0.826E+02 0.148E+03 -.148E+03   -.845E+02 -.150E+03 0.147E+03   0.184E+01 0.213E+01 0.145E+00   0.123E-02 0.135E-01 0.122E+00
   0.654E+02 0.151E+03 -.531E+03   -.669E+02 -.153E+03 0.531E+03   0.154E+01 0.245E+01 0.220E+00   -.349E-01 -.400E-01 0.752E-01
   0.103E+03 0.129E+03 0.562E+03   -.105E+03 -.130E+03 -.563E+03   0.166E+01 0.210E+01 0.823E+00   -.603E-02 -.717E-02 0.551E-01
   0.864E+02 -.443E+02 0.162E+04   -.870E+02 0.446E+02 -.162E+04   0.111E+01 -.278E-01 0.221E+01   -.645E-01 0.208E-01 0.221E-03
   -.334E+01 0.915E+02 -.161E+04   0.302E+01 -.924E+02 0.162E+04   0.469E+00 0.177E+01 -.760E+00   -.732E-01 -.145E-01 0.322E-01
 -----------------------------------------------------------------------------------------------
   -.400E+02 0.485E+01 -.106E+02   -.203E-12 -.423E-11 0.227E-11   0.400E+02 -.488E+01 0.287E+01   -.125E+00 -.345E-02 0.781E+01
 
 
 POSITION                                       TOTAL-FORCE (eV/Angst)
 -----------------------------------------------------------------------------------
      6.03859     -2.06748      7.30541        -0.012574      0.097176      0.145814
      7.93319     -2.06748      4.80229         0.176267      0.032153      0.034074
      9.82779     -2.06748      2.29918         0.466311      0.607389      0.657674
      4.14400      7.51093      9.80852        -0.348629      0.200044     -1.253805
      0.36609      7.51093      5.63666        -0.034610      0.000723      0.103444
      2.26069      7.51093      3.13355         0.006814      0.044657     -0.237620
      4.15528      7.51093      0.63043         0.135109      0.552919      1.004169
      6.98025      2.72172     10.64289         0.833491      0.860108     -1.788125
      8.87485      2.72172      8.13978        -0.104584      0.015793      0.272133
      1.30774      2.72172      8.97415         0.052847     -0.993931     -0.115786
      3.20234      2.72172      6.47103        -0.143325     -0.148006      0.069949
      5.09694      2.72172      3.96792        -0.036802     -0.025272     -0.109943
      6.99153      2.72172      1.46480         0.457576      0.579231      0.966002
      2.39650     -0.80215      8.48584         0.126206      0.348844      0.556509
      4.29109     -0.80215      5.98273         0.170971      0.100043      0.054465
      6.18569     -0.80215      3.47961         0.170652      0.017383     -0.027836
      8.08029     -0.80215      0.97650        -1.492183      0.001767      0.852999
      0.51318      8.77626      1.81087         0.406564      0.021567     -0.689104
      5.23275      3.98706      9.32022         0.531870      0.110367     -0.797660
      7.12734      3.98706      6.81710        -0.069031      0.023200      0.148425
      9.02194      3.98706      4.31399         0.241384     -0.015367      0.121374
      1.45484      3.98706      5.14836         0.027021     -0.028157      0.170653
      3.34944      3.98706      2.64524         0.063562     -0.016165     -0.510608
      8.06900     -0.80215     10.15459         0.197864     -0.014611     -1.736351
      9.96360     -0.80215      7.65147         0.117739     -0.026924      0.323610
      6.03859      0.46319      7.30541        -0.403522     -0.048807      0.107671
      7.93319      0.46319      4.80229         0.149426     -0.034905      0.032298
      9.82779      0.46319      2.29918         0.496902     -0.601943      0.668150
      0.36609      0.46319      5.63666        -0.032962      0.024732      0.111773
      2.26069      0.46319      3.13355         0.014981     -0.045367     -0.231684
      4.15528      0.46319      0.63043         0.127346     -0.550919      1.005287
      6.98025      5.25240     10.64289         0.674217     -0.763448     -1.761038
      8.87485      5.25240      8.13978        -0.190379      0.037794      0.257476
      1.30774      5.25240      8.97415        -0.094499      0.646018     -0.332016
      3.20234      5.25240      6.47103        -0.083220      0.056998      0.120385
      5.09694      5.25240      3.96792        -0.031438      0.037917     -0.102416
      6.99153      5.25240      1.46480         0.470287     -0.579145      0.967614
      1.91849      0.80909      9.99696        -0.215698      0.420159     -0.662279
      3.81309      0.80909      7.49384        -0.048592     -0.297157     -0.468681
      5.70769      0.80909      4.99073         0.023730     -0.107405      0.014325
      7.60228      0.80909      2.48761         0.542134     -0.113412     -0.987895
      0.03518      0.80909      3.32198        -0.017746     -0.154225     -0.315471
      1.92978      0.80909      0.81887         0.243154     -0.306845      0.660139
      6.64934      5.59829      8.32821        -0.453859     -0.202328      0.885680
      8.54394      5.59829      5.82510        -0.123296     -0.064456     -0.069503
      0.97684      5.59829      6.65947         0.024180     -0.276060     -0.171860
      2.87143      5.59829      4.15636        -0.007340     -0.179165     -0.099569
      4.76603      5.59829      1.65324         0.481628     -0.254210     -0.416258
      9.48560      0.80909      9.16258         0.035574     -0.882132      0.566249
      1.31873      3.98706      1.66874        -1.376982     -0.005970     -0.506039
      6.03829     -0.80215      9.17809         0.485896     -0.645729      1.400892
      7.93289     -0.80215      6.67497        -0.042422      0.031857     -0.018343
      9.82749     -0.80215      4.17186        -0.134105      0.013063     -0.095546
      2.26038     -0.80215      5.00623         0.163232     -0.029197     -0.265258
      4.15498     -0.80215      2.50311        -0.265618     -0.002970     -0.423195
      6.04958     -0.80215      0.00000        -0.965874      0.001162     -0.148903
      0.36579      8.77626      7.50934         0.041988      0.056836      0.184759
      8.87455      3.98706     10.01246        -1.233105     -0.030327      1.211562
      3.20204      3.98706      8.34372        -0.042717     -0.017312      1.555502
      5.09664      3.98706      5.84060        -0.009305     -0.031281     -0.177451
      6.99123      3.98706      3.33749        -0.187943      0.010746     -0.529652
      8.88583      3.98706      0.83437        -1.725559      0.003615     -0.329760
      5.70769     -2.41338      4.99073        -0.157906      0.137397     -0.055539
      7.60228     -2.41338      2.48761         0.570799      0.096668     -1.009375
      1.91849      7.16503      9.99696         1.115536     -0.289168     -0.044355
      3.81309      7.16503      7.49384        -0.018569      0.417389      0.239551
      0.03518      7.16503      3.32198        -0.024577      0.139951     -0.283805
      1.92978      7.16503      0.81887         0.243590      0.282017      0.637149
      6.64934      2.37583      8.32821        -0.493226      0.125922      1.030736
      8.54394      2.37583      5.82510        -0.091338      0.050468     -0.160125
      0.97684      2.37583      6.65947         0.083418      0.267849     -0.204622
      2.87143      2.37583      4.15636        -0.021676      0.188144     -0.123186
      4.76603      2.37583      1.65324         0.486693      0.276225     -0.399963
      9.48560     -2.41338      9.16258         0.078253      0.846024      0.522136
 -----------------------------------------------------------------------------------
    total drift:                               -0.122477     -0.033904      0.133720


--------------------------------------------------------------------------------------------------------



  FREE ENERGIE OF THE ION-ELECTRON SYSTEM (eV)
  ---------------------------------------------------
  free  energy   TOTEN  =      -366.55557261 eV

  energy  without entropy=     -365.39657502  energy(sigma->0) =     -365.97607382
 


--------------------------------------------------------------------------------------------------------


    POTLOK:  cpu time    0.0518: real time    0.0529


--------------------------------------------------------------------------------------------------------


     LOOP+:  cpu time   88.0641: real time   88.3380
    4ORBIT:  cpu time    0.0000: real time    0.0000

 total amount of memory used by VASP MPI-rank0    45230. kBytes
=======================================================================

   base      :      30000. kBytes
   nonlr-proj:       2303. kBytes
   fftplans  :       3298. kBytes
   grid      :       5820. kBytes
   one-center:        101. kBytes
   wavefun   :       3708. kBytes
 
  
  
 General timing and accounting informations for this job:
 ========================================================
  
                  Total CPU time used (sec):       90.216
                            User time (sec):       89.577
                          System time (sec):        0.639
                         Elapsed time (sec):       90.957
  
                   Maximum memory used (kb):      227772.
                   Average memory used (kb):           0.
  
                          Minor page faults:        79104
                          Major page faults:            0
                 Voluntary context switches:          956
