"Millerite NiS"                         
           1
    16.884694    0.000000    0.000000
     0.000000    9.578410    0.000000
     0.000000    0.000000   16.548033
   Ty   Ty
  37  37
Direct configuration=     1
   0.77124938  0.10923698  0.11632339
   0.80702830  0.12256077  0.26194177
   0.21543073  0.62541120  0.09329662
   0.29733028  0.64529696  0.21102333
   0.38648485  0.12094627  0.12277339
   0.46975828  0.14529696  0.24208990
   0.95247430  0.64529696  0.14889020
   0.97449384  0.64550845  0.31275870
   0.12490229  0.14529696  0.17995677
   0.11437838  0.14519679  0.32344804
   0.57004756  0.64284829  0.15636895
   0.64218627  0.64529696  0.27315647
   0.94912469  0.01619723  0.22718809
   0.35792022  0.64347709  0.05654253
   0.42486675  0.51319396  0.18639941
   0.46925598  0.45741842  0.32025247
   0.63676875  0.94275128  0.07663342
   0.59729475  0.01319396  0.21746598
   0.08001077  0.51319396  0.12426628
   0.11192992  0.50636019  0.29059832
   0.25243876  0.01319396  0.15533284
   0.29066066  0.98116183  0.30376119
   0.77249455  0.42938415  0.11591229
   0.76972274  0.51319396  0.24853255
   0.90405004  0.29359110  0.10896910
   0.95027473  0.27228253  0.24945601
   0.41754339  0.87855620  0.05726250
   0.42486675  0.77739996  0.18639941
   0.46328846  0.82199052  0.32696195
   0.52941566  0.14505221  0.08681511
   0.59729475  0.27739996  0.21746598
   0.08001077  0.77739996  0.12426628
   0.11168406  0.78439945  0.29032271
   0.25243876  0.27739996  0.15533284
   0.29177509  0.31445899  0.30081475
   0.76507391  0.83252746  0.10758000
   0.76972274  0.77739996  0.24853255
   0.99490763  0.12205336  0.32539802
   0.99909564  0.16561844  0.15094441
   0.47417723  0.64529696  0.08503286
   0.50874518  0.64529696  0.27143228
   0.64660522  0.14529696  0.11609943
   0.68441430  0.14316754  0.27162580
   0.11275350  0.64441490  0.03150596
   0.16388920  0.64529696  0.20929914
   0.07770889  0.64556774  0.37768659
   0.28210842  0.14546466  0.06148423
   0.33631719  0.14529696  0.24036571
   0.81903321  0.64529696  0.14716600
   0.85044209  0.64502140  0.30880521
   0.80407658  0.27222958  0.04050952
   0.82906105  0.31351196  0.20958775
   0.31177707  0.81351196  0.11638804
   0.34837398  0.79484628  0.29121503
   0.48420507  0.31351196  0.14745461
   0.53081006  0.27916025  0.32119740
   0.00148905  0.81351196  0.24065432
   0.97381417  0.79844047  0.06905238
   0.14195618  0.32477831  0.10686760
   0.17391704  0.31351196  0.27172089
   0.65663306  0.81351196  0.17852118
   0.69694102  0.78714616  0.34505892
   0.31177707  0.47708196  0.11638804
   0.35272976  0.49768518  0.29128758
   0.74357944  0.97559296  0.02077698
   0.83238648  0.95325533  0.19025905
   0.00148905  0.47708196  0.24065432
   0.96760709  0.47114555  0.07573731
   0.48420507  0.97708196  0.14745461
   0.52568055  0.99951808  0.31901280
   0.65663306  0.47708196  0.17852118
   0.69461969  0.49740867  0.34281134
   0.13982975  0.96832357  0.10790028
   0.17391704  0.97708196  0.27172089
