LAMMPS data file via write_data, version 5 Jun 2019, timestep = 35

52 atoms
2 atom types

0.0000000000000000e+00 1.1256463038200000e+01 xlo xhi
0.0000000000000000e+00 9.5784099999999999e+00 ylo yhi
0.0000000000000000e+00 1.7192492404700001e+01 zlo zhi
0.0000000000000000e+00 0.0000000000000000e+00 0.0000000000000000e+00 xy xz yz

Masses

1 58.71
2 32.06

Atoms # atomic

1 1 4.9453580762999998e+00 4.4433094293000002e+00 2.7995183711000000e+00 0 0 0
2 1 5.1788251623011696e+00 4.7807971792232946e+00 5.3213315238518302e+00 0 0 0
3 1 1.8040837006187957e+00 9.2693687152876194e+00 1.6149116602395661e+00 0 0 0
4 1 2.2785056632681897e+00 9.3625077779087498e+00 4.0268311497585145e+00 0 0 0
5 1 4.9453580762999998e+00 1.9126360368999999e+00 2.7995183711000000e+00 0 0 0
6 1 5.6295578172900447e+00 2.2439080147518213e+00 5.5477871873183853e+00 0 0 0
7 1 1.7843519234051426e+00 6.6198104553439592e+00 1.6645527042345167e+00 0 0 0
8 1 2.3295251112151525e+00 6.5742951185125449e+00 4.1116433818318443e+00 0 0 0
9 1 1.4705409881000000e+00 3.1779727330999998e+00 2.3920409138999998e+00 0 0 0
10 1 2.0542103667000000e+00 3.1779727330999998e+00 5.4765844701999997e+00 0 0 0
11 1 5.1328131894343958e+00 7.9901138845620014e+00 1.6347506793303637e+00 0 0 0
12 1 4.2473736228557648e+00 7.9736907645456654e+00 3.8361744953369246e+00 0 0 0
13 1 5.9214904633344920e+00 7.0503972517487972e+00 5.1576346835355693e+00 0 0 0
14 1 1.0573589595400000e+01 4.4433094293000002e+00 2.7995183711000000e+00 0 0 0
15 1 1.1077594251320908e+01 4.4866229240970350e+00 5.5590169620480276e+00 0 0 0
16 1 7.4381298177791830e+00 9.3589777330969461e+00 1.7454511817011151e+00 0 0 0
17 1 8.0513086039000008e+00 9.2325144293000001e+00 4.3417901406999988e+00 0 0 0
18 1 1.0573589595400000e+01 1.9126360368999999e+00 2.7995183711000000e+00 0 0 0
19 1 1.1083513503090924e+01 1.8708873827261545e+00 5.5619188848569792e+00 0 0 0
20 1 7.4280146049308708e+00 6.5687818601388708e+00 1.7524652029683816e+00 0 0 0
21 1 8.0513086039000008e+00 6.7018410369000003e+00 4.3417901406999988e+00 0 0 0
22 1 7.0987725071999987e+00 3.1779727330999998e+00 2.3920409138999998e+00 0 0 0
23 1 7.7652729807607610e+00 3.1933742305481050e+00 5.0021633111618806e+00 0 0 0
24 1 1.0704868767881488e+01 7.9715517470989052e+00 1.6338428351244214e+00 0 0 0
25 1 1.0204722865999999e+01 7.9671777330999998e+00 3.9343126834000000e+00 0 0 0
26 1 9.4235725782399520e+00 7.9659155798370964e+00 6.2766666810912435e+00 0 0 0
27 2 7.8021945365595835e-01 1.4984283314115936e+00 1.3912508103171404e+00 0 0 0
28 2 1.2549722353999999e+00 1.5667404949999999e+00 4.1079488450000001e+00 0 0 0
29 2 1.3692828348045909e+00 1.8642140614464475e+00 6.8497024694162265e+00 0 0 0
30 2 3.7772532155999996e+00 6.3559454950000003e+00 2.5656770582999990e+00 0 0 0
31 2 3.9603401110229841e+00 6.5342783001506488e+00 5.4411648947956168e+00 0 0 0
32 2 7.6188692944919734e-01 4.8291343946477276e+00 1.3706828942704046e+00 0 0 0
33 2 1.2549722353999999e+00 4.7892049713000002e+00 4.1079488450000001e+00 0 0 0
34 2 1.3437838232511201e+00 4.4579236748590416e+00 6.8689204819866418e+00 0 0 0
35 2 3.7772532155999996e+00 9.5784099712999993e+00 2.5656770582999990e+00 0 -1 0
36 2 3.5338291244547877e+00 3.1702335967799198e+00 1.9395982077589251e+00 0 0 0
37 2 4.1411267131000002e+00 3.1779727330999998e+00 4.6268153430999996e+00 0 0 0
38 2 9.7805021263338987e-01 7.9336419912822311e+00 2.9868737309280596e-01 0 0 0
39 2 1.0351763544000001e+00 7.9671777330999998e+00 3.0845435562999990e+00 0 0 0
40 2 6.3783745352621954e+00 1.5293390772712725e+00 1.3644795257127245e+00 0 0 0
41 2 6.8832037545000002e+00 1.5667404949999999e+00 4.1079488450000001e+00 0 0 0
42 2 9.4054847346999999e+00 6.3559454950000003e+00 2.5656770582999990e+00 0 0 0
43 2 9.9634841371329053e+00 6.2788928800567447e+00 5.2802028899505391e+00 0 0 0
44 2 6.3808705063478000e+00 4.8159468610955445e+00 1.3488391393292394e+00 0 0 0
45 2 6.8832037545000002e+00 4.7892049713000002e+00 4.1079488450000001e+00 0 0 0
46 2 9.4054847346999999e+00 9.5784099712999993e+00 2.5656770582999990e+00 0 -1 0
47 2 9.9631177284387391e+00 7.8308649989002180e-02 5.2768201691378103e+00 0 0 0
48 2 9.1666246802247286e+00 3.1770603813404779e+00 1.9418362979334283e+00 0 0 0
49 2 9.7693582322000001e+00 3.1779727330999998e+00 4.6268153430999996e+00 0 0 0
50 2 6.7460661460445612e+00 7.9650064364173936e+00 3.9026285876220224e-01 0 0 0
51 2 6.6634078734999997e+00 7.9671777330999998e+00 3.0845435562999990e+00 0 0 0
52 2 7.4385844883161436e+00 8.0878445439487940e+00 5.9918908561343462e+00 0 0 0

Velocities

1 0.0000000000000000e+00 0.0000000000000000e+00 0.0000000000000000e+00
2 0.0000000000000000e+00 0.0000000000000000e+00 0.0000000000000000e+00
3 0.0000000000000000e+00 0.0000000000000000e+00 0.0000000000000000e+00
4 0.0000000000000000e+00 0.0000000000000000e+00 0.0000000000000000e+00
5 0.0000000000000000e+00 0.0000000000000000e+00 0.0000000000000000e+00
6 0.0000000000000000e+00 0.0000000000000000e+00 0.0000000000000000e+00
7 0.0000000000000000e+00 0.0000000000000000e+00 0.0000000000000000e+00
8 0.0000000000000000e+00 0.0000000000000000e+00 0.0000000000000000e+00
9 0.0000000000000000e+00 0.0000000000000000e+00 0.0000000000000000e+00
10 0.0000000000000000e+00 0.0000000000000000e+00 0.0000000000000000e+00
11 0.0000000000000000e+00 0.0000000000000000e+00 0.0000000000000000e+00
12 0.0000000000000000e+00 0.0000000000000000e+00 0.0000000000000000e+00
13 0.0000000000000000e+00 0.0000000000000000e+00 0.0000000000000000e+00
14 0.0000000000000000e+00 0.0000000000000000e+00 0.0000000000000000e+00
15 0.0000000000000000e+00 0.0000000000000000e+00 0.0000000000000000e+00
16 0.0000000000000000e+00 0.0000000000000000e+00 0.0000000000000000e+00
17 0.0000000000000000e+00 0.0000000000000000e+00 0.0000000000000000e+00
18 0.0000000000000000e+00 0.0000000000000000e+00 0.0000000000000000e+00
19 0.0000000000000000e+00 0.0000000000000000e+00 0.0000000000000000e+00
20 0.0000000000000000e+00 0.0000000000000000e+00 0.0000000000000000e+00
21 0.0000000000000000e+00 0.0000000000000000e+00 0.0000000000000000e+00
22 0.0000000000000000e+00 0.0000000000000000e+00 0.0000000000000000e+00
23 0.0000000000000000e+00 0.0000000000000000e+00 0.0000000000000000e+00
24 0.0000000000000000e+00 0.0000000000000000e+00 0.0000000000000000e+00
25 0.0000000000000000e+00 0.0000000000000000e+00 0.0000000000000000e+00
26 0.0000000000000000e+00 0.0000000000000000e+00 0.0000000000000000e+00
27 0.0000000000000000e+00 0.0000000000000000e+00 0.0000000000000000e+00
28 0.0000000000000000e+00 0.0000000000000000e+00 0.0000000000000000e+00
29 0.0000000000000000e+00 0.0000000000000000e+00 0.0000000000000000e+00
30 0.0000000000000000e+00 0.0000000000000000e+00 0.0000000000000000e+00
31 0.0000000000000000e+00 0.0000000000000000e+00 0.0000000000000000e+00
32 0.0000000000000000e+00 0.0000000000000000e+00 0.0000000000000000e+00
33 0.0000000000000000e+00 0.0000000000000000e+00 0.0000000000000000e+00
34 0.0000000000000000e+00 0.0000000000000000e+00 0.0000000000000000e+00
35 0.0000000000000000e+00 0.0000000000000000e+00 0.0000000000000000e+00
36 0.0000000000000000e+00 0.0000000000000000e+00 0.0000000000000000e+00
37 0.0000000000000000e+00 0.0000000000000000e+00 0.0000000000000000e+00
38 0.0000000000000000e+00 0.0000000000000000e+00 0.0000000000000000e+00
39 0.0000000000000000e+00 0.0000000000000000e+00 0.0000000000000000e+00
40 0.0000000000000000e+00 0.0000000000000000e+00 0.0000000000000000e+00
41 0.0000000000000000e+00 0.0000000000000000e+00 0.0000000000000000e+00
42 0.0000000000000000e+00 0.0000000000000000e+00 0.0000000000000000e+00
43 0.0000000000000000e+00 0.0000000000000000e+00 0.0000000000000000e+00
44 0.0000000000000000e+00 0.0000000000000000e+00 0.0000000000000000e+00
45 0.0000000000000000e+00 0.0000000000000000e+00 0.0000000000000000e+00
46 0.0000000000000000e+00 0.0000000000000000e+00 0.0000000000000000e+00
47 0.0000000000000000e+00 0.0000000000000000e+00 0.0000000000000000e+00
48 0.0000000000000000e+00 0.0000000000000000e+00 0.0000000000000000e+00
49 0.0000000000000000e+00 0.0000000000000000e+00 0.0000000000000000e+00
50 0.0000000000000000e+00 0.0000000000000000e+00 0.0000000000000000e+00
51 0.0000000000000000e+00 0.0000000000000000e+00 0.0000000000000000e+00
52 0.0000000000000000e+00 0.0000000000000000e+00 0.0000000000000000e+00
