 vasp.6.1.0 28Jan20 (build Mar 31 2020 17:42:31) gamma-only                     
  
 executed on             LinuxIFC date 2020.04.12  21:20:37
 running on   48 total cores
 distrk:  each k-point on   48 cores,    1 groups
 distr:  one band on NCORE=   6 cores,    8 groups


--------------------------------------------------------------------------------------------------------


 INCAR:
 POTCAR:    PAW_PBE Ni_pv 06Sep2000               
 POTCAR:    PAW_PBE S 06Sep2000                   
 POTCAR:    PAW_PBE Ni_pv 06Sep2000               
   VRHFIN =Ni:                                                                                      
   LEXCH  = PE                                                                                      
   EATOM  =  3501.1230 eV,  257.3253 Ry                                                             
                                                                                                    
   TITEL  = PAW_PBE Ni_pv 06Sep2000                                                                 
   LULTRA =        F    use ultrasoft PP ?                                                          
   IUNSCR =        1    unscreen: 0-lin 1-nonlin 2-no                                               
   RPACOR =    1.500    partial core radius                                                         
   POMASS =   58.690; ZVAL   =   16.000    mass and valenz                                          
   RCORE  =    2.000    outmost cutoff radius                                                       
   RWIGS  =    2.000; RWIGS  =    1.058    wigner-seitz radius (au A)                               
   ENMAX  =  367.986; ENMIN  =  275.989 eV                                                          
   RCLOC  =    1.301    cutoff for local pot                                                        
   LCOR   =        T    correct aug charges                                                         
   LPAW   =        T    paw PP                                                                      
   EAUG   =  703.443                                                                                
   DEXC   =    0.000                                                                                
   RMAX   =    2.041    core radius for proj-oper                                                   
   RAUG   =    1.300    factor for augmentation sphere                                              
   RDEP   =    2.103    radius for radial grids                                                     
   RDEPT  =    1.618    core radius for aug-charge                                                  
                                                                                                    
   Atomic configuration                                                                             
    8 entries                                                                                       
     n  l   j            E        occ.                                                              
     1  0  0.50     -8206.4253   2.0000                                                             
     2  0  0.50      -976.1748   2.0000                                                             
     2  1  1.50      -839.0571   6.0000                                                             
     3  0  0.50      -105.9991   2.0000                                                             
     3  1  1.50       -66.4603   6.0000                                                             
     3  2  2.50        -4.6458   9.0000                                                             
     4  0  0.50        -4.4926   1.0000                                                             
     4  3  2.50        -1.3606   0.0000                                                             
   Description                                                                                      
     l       E           TYP  RCUT    TYP  RCUT                                                     
     1    -66.4602962     23  1.700                                                                 
     1     -1.3605826     23  1.700                                                                 
     2     -4.6457867     23  2.000                                                                 
     2     -6.0063693     23  2.000                                                                 
     0     -4.4925576     23  1.900                                                                 
     0     16.3626226     23  1.900                                                                 
  local pseudopotential read in
  partial core-charges read in
  partial kinetic energy density read in
  atomic valenz-charges read in
  non local Contribution for L=           1  read in
    real space projection operators read in
  non local Contribution for L=           1  read in
    real space projection operators read in
  non local Contribution for L=           2  read in
    real space projection operators read in
  non local Contribution for L=           2  read in
    real space projection operators read in
  non local Contribution for L=           0  read in
    real space projection operators read in
  non local Contribution for L=           0  read in
    real space projection operators read in
    PAW grid and wavefunctions read in
 
   number of l-projection  operators is LMAX  =           6
   number of lm-projection operators is LMMAX =          18
 
 POTCAR:    PAW_PBE S 06Sep2000                   
   VRHFIN =S : s2p4                                                                                 
   LEXCH  = PE                                                                                      
   EATOM  =   276.8230 eV,   20.3459 Ry                                                             
                                                                                                    
   TITEL  = PAW_PBE S 06Sep2000                                                                     
   LULTRA =        F    use ultrasoft PP ?                                                          
   IUNSCR =        1    unscreen: 0-lin 1-nonlin 2-no                                               
   RPACOR =    1.500    partial core radius                                                         
   POMASS =   32.066; ZVAL   =    6.000    mass and valenz                                          
   RCORE  =    1.900    outmost cutoff radius                                                       
   RWIGS  =    2.200; RWIGS  =    1.164    wigner-seitz radius (au A)                               
   ENMAX  =  258.689; ENMIN  =  194.016 eV                                                          
   ICORE  =        2    local potential                                                             
   LCOR   =        T    correct aug charges                                                         
   LPAW   =        T    paw PP                                                                      
   EAUG   =  335.092                                                                                
   DEXC   =    0.000                                                                                
   RMAX   =    1.942    core radius for proj-oper                                                   
   RAUG   =    1.300    factor for augmentation sphere                                              
   RDEP   =    1.954    radius for radial grids                                                     
   RDEPT  =    1.744    core radius for aug-charge                                                  
                                                                                                    
   Atomic configuration                                                                             
    6 entries                                                                                       
     n  l   j            E        occ.                                                              
     1  0  0.50     -2405.8406   2.0000                                                             
     2  0  0.50      -211.7007   2.0000                                                             
     2  1  1.50      -156.4958   6.0000                                                             
     3  0  0.50       -17.2562   2.0000                                                             
     3  1  0.50        -7.0085   4.0000                                                             
     3  2  1.50        -6.8029   0.0000                                                             
   Description                                                                                      
     l       E           TYP  RCUT    TYP  RCUT                                                     
     0    -17.2561641     23  1.900                                                                 
     0    -15.8743224     23  1.900                                                                 
     1     -7.0085400     23  1.900                                                                 
     1     -2.7779785     23  1.900                                                                 
     2     -6.8029130     23  1.900                                                                 
  local pseudopotential read in
  partial core-charges read in
  partial kinetic energy density read in
  atomic valenz-charges read in
  non local Contribution for L=           0  read in
    real space projection operators read in
  non local Contribution for L=           0  read in
    real space projection operators read in
  non local Contribution for L=           1  read in
    real space projection operators read in
  non local Contribution for L=           1  read in
    real space projection operators read in
    PAW grid and wavefunctions read in
 
   number of l-projection  operators is LMAX  =           4
   number of lm-projection operators is LMMAX =           8
 
 Optimization of the real space projectors (new method)

 maximal supplied QI-value         = 18.90
 optimisation between [QCUT,QGAM] = [ 10.77, 21.73] = [ 32.49,132.25] Ry 
 Optimized for a Real-space Cutoff    1.38 Angstroem

   l    n(q)    QCUT    max X(q) W(low)/X(q) W(high)/X(q)  e(spline) 
   1      8    10.771     2.836    0.40E-04    0.29E-04    0.12E-06
   1      8    10.771     4.023    0.10E-03    0.48E-04    0.29E-06
   2      8    10.771    73.368    0.42E-03    0.97E-04    0.44E-06
   2      8    10.771    69.010    0.42E-03    0.99E-04    0.45E-06
   0      9    10.771    54.797    0.10E-03    0.56E-04    0.74E-07
   0      9    10.771    24.266    0.89E-04    0.49E-04    0.67E-07
 Optimization of the real space projectors (new method)

 maximal supplied QI-value         = 19.84
 optimisation between [QCUT,QGAM] = [ 10.71, 21.63] = [ 32.15,130.99] Ry 
 Optimized for a Real-space Cutoff    1.19 Angstroem

   l    n(q)    QCUT    max X(q) W(low)/X(q) W(high)/X(q)  e(spline) 
   0      8    10.715   187.594    0.41E-03    0.53E-04    0.66E-07
   0      8    10.715   164.243    0.41E-03    0.53E-04    0.65E-07
   1      7    10.715    67.533    0.19E-03    0.59E-03    0.68E-07
   1      7    10.715    50.729    0.19E-03    0.58E-03    0.67E-07
  PAW_PBE Ni_pv 06Sep2000               :
 energy of atom  1       EATOM=-3501.1230
 kinetic energy error for atom=    0.0925 (will be added to EATOM!!)
  PAW_PBE S 06Sep2000                   :
 energy of atom  2       EATOM= -276.8230
 kinetic energy error for atom=    0.0033 (will be added to EATOM!!)
 
 
 POSCAR: Structure 37 made from 0-21-10.xsd file
  positions in direct lattice
  No initial velocities read in
 exchange correlation table for  LEXCH =        8
   RHO(1)=    0.500       N(1)  =     2000
   RHO(2)=  100.500       N(2)  =     4000
 


--------------------------------------------------------------------------------------------------------


 ion  position               nearest neighbor table
   1  0.638  0.429  0.080-  46 2.25  66 2.26  67 2.36  55 2.36  29 2.53  15 2.53
   2  0.729  0.611  0.200-  47 2.25  55 2.26  67 2.26  68 2.36  56 2.36  16 2.53  30 2.53
   3  0.820  0.793  0.320-  48 2.25  56 2.26  68 2.26  69 2.36  54 2.36  27 2.53  17 2.53
   4  0.911  0.975  0.440-  44 2.25  54 2.26  69 2.26  53 2.36  18 2.53  28 2.53
   5  0.456  0.066  0.280-  49 2.25  74 2.26  57 2.26  70 2.36  58 2.36  31 2.53  22 2.53
   6  0.547  0.248  0.400-  50 2.25  70 2.26  58 2.26  71 2.36  59 2.36  19 2.53  32 2.53
   7  0.638  0.430  0.520-  51 2.25  59 2.26  71 2.26
   8  0.365  0.884  0.160-  52 2.25  60 2.26  73 2.26  74 2.36  57 2.36  21 2.53  34 2.53
   9  0.002  0.156  0.120-  42 2.25  61 2.26  78 2.26  77 2.36  62 2.36  25 2.53  35 2.53
  10  0.093  0.339  0.240-  43 2.25  62 2.26  77 2.26  75 2.36  63 2.36  36 2.53  23 2.53
  11  0.184  0.521  0.360-  40 2.25  75 2.26  63 2.26  76 2.36  64 2.36  24 2.53  37 2.53
  12  0.275  0.703  0.480-  41 2.25  76 2.26  64 2.26  65 2.36  38 2.53
  13  0.911  0.974  0.000-  78 2.36  61 2.36  26 2.53  39 2.53
  14  0.595  0.079  0.023-  60 2.25  66 2.36  42 2.36
  15  0.686  0.261  0.143-  57 2.25  42 2.26  66 2.26  67 2.36  43 2.36  29 2.53   1 2.53
  16  0.777  0.443  0.264-  58 2.25  67 2.26  43 2.26  68 2.36  40 2.36   2 2.53  30 2.53
  17  0.868  0.625  0.384-  59 2.25  40 2.26  68 2.26  69 2.36  41 2.36  27 2.53   3 2.53
  18  0.959  0.807  0.504-  69 2.26  41 2.26   4 2.53  28 2.53
  19  0.596  0.080  0.464-  65 2.25  70 2.26  44 2.26  71 2.36  45 2.36   6 2.53  32 2.53
  20  0.322  0.534  0.103-  62 2.25  46 2.26  72 2.26  47 2.36  73 2.36  33 2.53
  21  0.413  0.716  0.224-  63 2.25  47 2.26  73 2.26  74 2.36  48 2.36   8 2.53  34 2.53
  22  0.504  0.898  0.344-  64 2.25  48 2.26  74 2.26  70 2.36  44 2.36  31 2.53   5 2.53
  23  0.141  0.171  0.304-  54 2.25  49 2.26  77 2.26  50 2.36  75 2.36  36 2.53  10 2.53
  24  0.232  0.353  0.424-  53 2.25  50 2.26  75 2.26  76 2.36  51 2.36  11 2.53  37 2.53
  25  0.050  0.988  0.184-  56 2.25  52 2.26  78 2.26  77 2.36  49 2.36   9 2.53  35 2.53
  26  0.959  0.806  0.063-  55 2.25  78 2.36  52 2.36  13 2.53  39 2.53
  27  0.084  0.793  0.320-  74 2.25  56 2.26  40 2.26  54 2.36  41 2.36  17 2.53   3 2.53
  28  0.175  0.975  0.440-  70 2.25  54 2.26  41 2.26  53 2.36   4 2.53  18 2.53
  29  0.902  0.429  0.080-  72 2.25  42 2.26  43 2.36  55 2.36  15 2.53   1 2.53
  30  0.993  0.611  0.200-  73 2.25  55 2.26  43 2.26  40 2.36  56 2.36   2 2.53  16 2.53
  31  0.721  0.066  0.280-  77 2.25  48 2.26  57 2.26  44 2.36  58 2.36  22 2.53   5 2.53
  32  0.812  0.248  0.400-  75 2.25  44 2.26  58 2.26  45 2.36  59 2.36   6 2.53  19 2.53
  33  0.538  0.702  0.040-  46 2.26  47 2.36  60 2.36  20 2.53
  34  0.630  0.884  0.160-  78 2.25  47 2.26  60 2.26  48 2.36  57 2.36   8 2.53  21 2.53
  35  0.266  0.156  0.120-  66 2.25  61 2.26  52 2.26  49 2.36  62 2.36   9 2.53  25 2.53
  36  0.357  0.339  0.240-  67 2.25  62 2.26  49 2.26  50 2.36  63 2.36  23 2.53  10 2.53
  37  0.448  0.521  0.360-  68 2.25  50 2.26  63 2.26  51 2.36  64 2.36  11 2.53  24 2.53
  38  0.539  0.703  0.480-  69 2.25  51 2.26  64 2.26  65 2.36  12 2.53
  39  0.175  0.974  0.000-  52 2.36  61 2.36  13 2.53  26 2.53
  40  0.013  0.579  0.311-  11 2.25  17 2.26  27 2.26  30 2.36  16 2.36
  41  0.104  0.761  0.431-  12 2.25  28 2.26  18 2.26  27 2.36  17 2.36
  42  0.831  0.215  0.071-   9 2.25  29 2.26  15 2.26  14 2.36
  43  0.922  0.397  0.191-  10 2.25  30 2.26  16 2.26  29 2.36  15 2.36
  44  0.741  0.034  0.391-   4 2.25  32 2.26  19 2.26  31 2.36  22 2.36
  45  0.832  0.216  0.511-  32 2.36  19 2.36
  46  0.468  0.488  0.031-   1 2.25  33 2.26  20 2.26
  47  0.559  0.670  0.151-   2 2.25  34 2.26  21 2.26  33 2.36  20 2.36
  48  0.650  0.852  0.271-   3 2.25  31 2.26  22 2.26  34 2.36  21 2.36
  49  0.286  0.125  0.231-   5 2.25  23 2.26  36 2.26  35 2.36  25 2.36
  50  0.377  0.307  0.351-   6 2.25  37 2.26  24 2.26  36 2.36  23 2.36
  51  0.468  0.489  0.471-   7 2.25  38 2.26  37 2.36  24 2.36
  52  0.195  0.942  0.111-   8 2.25  25 2.26  35 2.26  39 2.36  26 2.36
  53  0.134  0.157  0.471-  24 2.25  28 2.36   4 2.36
  54  0.043  0.975  0.350-  23 2.25  28 2.26   4 2.26  27 2.36   3 2.36
  55  0.861  0.611  0.110-  26 2.25  30 2.26   2 2.26  29 2.36   1 2.36
  56  0.952  0.793  0.230-  25 2.25  27 2.26   3 2.26  30 2.36   2 2.36
  57  0.588  0.066  0.190-  15 2.25   5 2.26  31 2.26   8 2.36  34 2.36
  58  0.680  0.248  0.310-  16 2.25   6 2.26  32 2.26   5 2.36  31 2.36
  59  0.771  0.430  0.430-  17 2.25   7 2.26   6 2.36  32 2.36
  60  0.497  0.884  0.070-  14 2.25   8 2.26  34 2.26  33 2.36
  61  0.134  0.156  0.030-   9 2.26  35 2.26  39 2.36  13 2.36
  62  0.225  0.339  0.150-  20 2.25  36 2.26  10 2.26  35 2.36   9 2.36
  63  0.316  0.521  0.270-  21 2.25  11 2.26  37 2.26  36 2.36  10 2.36
  64  0.407  0.703  0.390-  22 2.25  12 2.26  38 2.26  11 2.36  37 2.36
  65  0.498  0.885  0.511-  19 2.25  12 2.36  38 2.36
  66  0.495  0.215  0.071-  35 2.25   1 2.26  15 2.26  14 2.36
  67  0.586  0.397  0.191-  36 2.25  16 2.26   2 2.26   1 2.36  15 2.36
  68  0.677  0.579  0.311-  37 2.25  17 2.26   3 2.26  16 2.36   2 2.36
  69  0.768  0.761  0.431-  38 2.25  18 2.26   4 2.26  17 2.36   3 2.36
  70  0.404  0.034  0.391-  28 2.25   6 2.26  19 2.26   5 2.36  22 2.36
  71  0.495  0.216  0.511-   7 2.26   6 2.36  19 2.36
  72  0.131  0.488  0.031-  29 2.25  20 2.26
  73  0.222  0.670  0.151-  30 2.25   8 2.26  21 2.26  20 2.36
  74  0.313  0.852  0.271-  27 2.25   5 2.26  22 2.26   8 2.36  21 2.36
  75  0.041  0.307  0.351-  32 2.25  11 2.26  24 2.26  10 2.36  23 2.36
  76  0.132  0.489  0.471-  12 2.26  11 2.36  24 2.36
  77  0.950  0.125  0.231-  31 2.25  23 2.26  10 2.26  25 2.36   9 2.36
  78  0.859  0.942  0.111-  34 2.25  25 2.26   9 2.26  26 2.36  13 2.36
 
  LATTYP: Found a base centered orthorhombic cell.
 ALAT       =     9.5784100000
 B/A-ratio  =     2.1722506660
 C/A-ratio  =     2.1764395278
  
  Lattice vectors:
  
 A1 = (   8.7007307979,   7.4473846003,   0.0000000000)
 A2 = (   0.0000000000, -11.4527836704,   0.0000000000)
 A3 = (   0.0000000000,   0.0000000000, -20.8468301371)


Analysis of symmetry for initial positions (statically):
=====================================================================
 Subroutine PRICEL returns:
 Original cell was already a primitive cell.
 

 Routine SETGRP: Setting up the symmetry group for a 
 base centered orthorhombic supercell.


 Subroutine GETGRP returns: Found  1 space group operations
 (whereof  1 operations were pure point group operations)
 out of a pool of  8 trial point group operations.


The static configuration has the point symmetry C_1 .


Analysis of symmetry for dynamics (positions and initial velocities):
=====================================================================
 Subroutine PRICEL returns:
 Original cell was already a primitive cell.
 

 Routine SETGRP: Setting up the symmetry group for a 
 base centered orthorhombic supercell.


 Subroutine GETGRP returns: Found  1 space group operations
 (whereof  1 operations were pure point group operations)
 out of a pool of  8 trial point group operations.


The dynamic configuration has the point symmetry C_1 .


 Subroutine INISYM returns: Found  1 space group operations
 (whereof  1 operations are pure point group operations),
 and found     1 'primitive' translations


----------------------------------------------------------------------------------------

                                     Primitive cell                                     

  volume of cell :    2077.3363

  direct lattice vectors                    reciprocal lattice vectors
     8.700730798 -4.005399070  0.000000000     0.114932874  0.000000000  0.000000000
     0.000000000 11.452783670  0.000000000     0.040195645  0.087315017  0.000000000
     0.000000000  0.000000000 20.846830137     0.000000000  0.000000000  0.047968923

  length of vectors
     9.578410000 11.452783670 20.846830137     0.114932874  0.096122849  0.047968923

  position of ions in fractional coordinates (direct lattice)
     0.637935914  0.429045576  0.080047810
     0.728992922  0.611159592  0.200119525
     0.820049929  0.793273607  0.320191240
     0.911106937  0.975387622  0.440262955
     0.456364260  0.065902268  0.280167335
     0.547421268  0.248016283  0.400239050
     0.638478275  0.430130299  0.520310765
     0.365307253  0.883788253  0.160095620
     0.001621584  0.156416915  0.120071715
     0.092678591  0.338530930  0.240143430
     0.183735599  0.520644945  0.360215145
     0.274792606  0.702758960  0.480286860
     0.910564576  0.974302900  0.000000000
     0.594994522  0.078956792  0.023423430
     0.686051530  0.261070807  0.143495145
     0.777108537  0.443184823  0.263566860
     0.868165545  0.625298838  0.383638575
     0.959222552  0.807412853  0.503710290
     0.595536883  0.080041514  0.463686385
     0.322365861  0.533699469  0.103471240
     0.413422868  0.715813484  0.223542955
     0.504479876  0.897927499  0.343614670
     0.140794207  0.170556161  0.303590765
     0.231851214  0.352670176  0.423662480
     0.049737199  0.988442146  0.183519050
     0.958680191  0.806328131  0.063447335
     0.084255929  0.793273607  0.320191240
     0.175312937  0.975387622  0.440262955
     0.902141914  0.429045576  0.080047810
     0.993198922  0.611159592  0.200119525
     0.720570260  0.065902268  0.280167335
     0.811627268  0.248016283  0.400239050
     0.538456245  0.701674238  0.040023905
     0.629513253  0.883788253  0.160095620
     0.265827584  0.156416915  0.120071715
     0.356884591  0.338530930  0.240143430
     0.447941599  0.520644945  0.360215145
     0.538998606  0.702758960  0.480286860
     0.174770576  0.974302900  0.000000000
     0.013407097  0.579351942  0.311152161
     0.104464105  0.761465957  0.431223876
     0.831293082  0.215123912  0.071008731
     0.922350090  0.397237927  0.191080446
     0.740778436  0.034094619  0.391199971
     0.831835443  0.216208634  0.511271686
     0.467607413  0.487752574  0.030984826
     0.558664420  0.669866589  0.151056541
     0.649721428  0.851980604  0.271128256
     0.286035759  0.124609265  0.231104351
     0.377092766  0.306723281  0.351176066
     0.468149774  0.488837296  0.471247781
     0.194978751  0.942495250  0.111032636
     0.134252494  0.157472736  0.470504137
     0.043195487  0.975358721  0.350432422
     0.861081472  0.611130691  0.110288992
     0.952138479  0.793244706  0.230360707
     0.588452810  0.065873368  0.190336802
     0.679509817  0.247987383  0.310408517
     0.770566825  0.430101398  0.430480232
     0.497395802  0.883759353  0.070265087
     0.133710133  0.156388014  0.030241182
     0.224767141  0.338502029  0.150312897
     0.315824148  0.520616044  0.270384612
     0.406881156  0.702730060  0.390456327
     0.497938163  0.884844075  0.510528042
     0.494863082  0.215123912  0.071008731
     0.585920090  0.397237927  0.191080446
     0.676977097  0.579351942  0.311152161
     0.768034105  0.761465957  0.431223876
     0.404348436  0.034094619  0.391199971
     0.495405443  0.216208634  0.511271686
     0.131177413  0.487752574  0.030984826
     0.222234420  0.669866589  0.151056541
     0.313291428  0.851980604  0.271128256
     0.040662766  0.306723281  0.351176066
     0.131719774  0.488837296  0.471247781
     0.949605759  0.124609265  0.231104351
     0.858548751  0.942495250  0.111032636

  ion indices of the primitive-cell ions
   primitive index   ion index
                 1           1
                 2           2
                 3           3
                 4           4
                 5           5
                 6           6
                 7           7
                 8           8
                 9           9
                10          10
                11          11
                12          12
                13          13
                14          14
                15          15
                16          16
                17          17
                18          18
                19          19
                20          20
                21          21
                22          22
                23          23
                24          24
                25          25
                26          26
                27          27
                28          28
                29          29
                30          30
                31          31
                32          32
                33          33
                34          34
                35          35
                36          36
                37          37
                38          38
                39          39
                40          40
                41          41
                42          42
                43          43
                44          44
                45          45
                46          46
                47          47
                48          48
                49          49
                50          50
                51          51
                52          52
                53          53
                54          54
                55          55
                56          56
                57          57
                58          58
                59          59
                60          60
                61          61
                62          62
                63          63
                64          64
                65          65
                66          66
                67          67
                68          68
                69          69
                70          70
                71          71
                72          72
                73          73
                74          74
                75          75
                76          76
                77          77
                78          78

----------------------------------------------------------------------------------------

 
 
 KPOINTS: gamma-point-only calculation. no periodi

Automatic generation of k-mesh.
Space group operators:
 irot       det(A)        alpha          n_x          n_y          n_z        tau_x        tau_y        tau_z
    1     1.000000     0.000000     1.000000     0.000000     0.000000     0.000000     0.000000     0.000000
 
 Subroutine IBZKPT returns following result:
 ===========================================
 
 Found      1 irreducible k-points:
 
 Following reciprocal coordinates:
            Coordinates               Weight
  0.000000  0.000000  0.000000      1.000000
 
 Following cartesian coordinates:
            Coordinates               Weight
  0.000000  0.000000  0.000000      1.000000
 


--------------------------------------------------------------------------------------------------------




 Dimension of arrays:
   k-points           NKPTS =      1   k-points in BZ     NKDIM =      1   number of bands    NBANDS=    520
   number of dos      NEDOS =    301   number of ions     NIONS =     78
   non local maximal  LDIM  =      6   non local SUM 2l+1 LMDIM =     18
   total plane-waves  NPLWV = 324000
   max r-space proj   IRMAX =   1770   max aug-charges    IRDMAX=   5113
   dimension x,y,z NGX =    50 NGY =   60 NGZ =  108
   dimension x,y,z NGXF=   100 NGYF=  120 NGZF=  216
   support grid    NGXF=   100 NGYF=  120 NGZF=  216
   ions per type =              39  39
   NGX,Y,Z   is equivalent  to a cutoff of   8.68,  8.71,  8.61 a.u.
   NGXF,Y,Z  is equivalent  to a cutoff of  17.36, 17.42, 17.23 a.u.

 SYSTEM =  "Millerite NiS"                         
 POSCAR =  Structure 37 made from 0-21-10.xsd file 

 Startparameter for this run:
   NWRITE =      2    write-flag & timer
   PREC   = normal    normal or accurate (medium, high low for compatibility)
   ISTART =      0    job   : 0-new  1-cont  2-samecut
   ICHARG =      2    charge: 1-file 2-atom 10-const
   ISPIN  =      1    spin polarized calculation?
   LNONCOLLINEAR =      F non collinear calculations
   LSORBIT =      F    spin-orbit coupling
   INIWAV =      1    electr: 0-lowe 1-rand  2-diag
   LASPH  =      F    aspherical Exc in radial PAW
   METAGGA=      F    non-selfconsistent MetaGGA calc.

 Electronic Relaxation 1
   ENCUT  =  450.0 eV  33.07 Ry    5.75 a.u.  16.57 19.81 36.06*2*pi/ulx,y,z
   ENINI  =  450.0     initial cutoff
   ENAUG  =  703.4 eV  augmentation charge cutoff
   NELM   =    100;   NELMIN=  2; NELMDL= -5     # of ELM steps 
   EDIFF  = 0.1E-03   stopping-criterion for ELM
   LREAL  =      T    real-space projection
   NLSPLINE    = F    spline interpolate recip. space projectors
   LCOMPAT=      F    compatible to vasp.4.4
   GGA_COMPAT  = T    GGA compatible to vasp.4.4-vasp.4.6
   LMAXPAW     = -100 max onsite density
   LMAXMIX     =    2 max onsite mixed and CHGCAR
   VOSKOWN=      0    Vosko Wilk Nusair interpolation
   ROPT   =   -0.00050  -0.00050
 Ionic relaxation
   EDIFFG = 0.1E-02   stopping-criterion for IOM
   NSW    =      0    number of steps for IOM
   NBLOCK =      1;   KBLOCK =      1    inner block; outer block 
   IBRION =     -1    ionic relax: 0-MD 1-quasi-New 2-CG
   NFREE  =      0    steps in history (QN), initial steepest desc. (CG)
   ISIF   =      2    stress and relaxation
   IWAVPR =     10    prediction:  0-non 1-charg 2-wave 3-comb
   ISYM   =      2    0-nonsym 1-usesym 2-fastsym
   LCORR  =      T    Harris-Foulkes like correction to forces

   POTIM  = 0.5000    time-step for ionic-motion
   TEIN   =    0.0    initial temperature
   TEBEG  =    0.0;   TEEND  =   0.0 temperature during run
   SMASS  =  -3.00    Nose mass-parameter (am)
   estimated Nose-frequenzy (Omega)   =  0.10E-29 period in steps = 0.13E+47 mass=  -0.210E-26a.u.
   SCALEE = 1.0000    scale energy and forces
   NPACO  =    256;   APACO  = 16.0  distance and # of slots for P.C.
   PSTRESS=    0.0 pullay stress

  Mass of Ions in am
   POMASS =  58.69 32.07
  Ionic Valenz
   ZVAL   =  16.00  6.00
  Atomic Wigner-Seitz radii
   RWIGS  =  -1.00 -1.00
  virtual crystal weights 
   VCA    =   1.00  1.00
   NELECT =     858.0000    total number of electrons
   NUPDOWN=      -1.0000    fix difference up-down

 DOS related values:
   EMIN   =  10.00;   EMAX   =-10.00  energy-range for DOS
   EFERMI =   0.00
   ISMEAR =     0;   SIGMA  =   0.20  broadening in eV -4-tet -1-fermi 0-gaus

 Electronic relaxation 2 (details)
   IALGO  =     38    algorithm
   LDIAG  =      T    sub-space diagonalisation (order eigenvalues)
   LSUBROT=      F    optimize rotation matrix (better conditioning)
   TURBO    =      0    0=normal 1=particle mesh
   IRESTART =      0    0=no restart 2=restart with 2 vectors
   NREBOOT  =      0    no. of reboots
   NMIN     =      0    reboot dimension
   EREF     =   0.00    reference energy to select bands
   IMIX   =      4    mixing-type and parameters
     AMIX     =   0.40;   BMIX     =  1.00
     AMIX_MAG =   1.60;   BMIX_MAG =  1.00
     AMIN     =   0.10
     WC   =   100.;   INIMIX=   1;  MIXPRE=   1;  MAXMIX= -45

 Intra band minimization:
   WEIMIN = 0.0000     energy-eigenvalue tresh-hold
   EBREAK =  0.48E-07  absolut break condition
   DEPER  =   0.30     relativ break condition  

   TIME   =   0.40     timestep for ELM

  volume/ion in A,a.u.               =      26.63       179.73
  Fermi-wavevector in a.u.,A,eV,Ry     =   1.219181  2.303919 20.223744  1.486403
  Thomas-Fermi vector in A             =   2.354442
 
 Write flags
   LWAVE        =      F    write WAVECAR
   LDOWNSAMPLE  =      F    k-point downsampling of WAVECAR
   LCHARG       =      F    write CHGCAR
   LVTOT        =      F    write LOCPOT, total local potential
   LVHAR        =      F    write LOCPOT, Hartree potential only
   LELF         =      F    write electronic localiz. function (ELF)
   LORBIT       =      0    0 simple, 1 ext, 2 COOP (PROOUT), +10 PAW based schemes


 Dipole corrections
   LMONO  =      F    monopole corrections only (constant potential shift)
   LDIPOL =      F    correct potential (dipole corrections)
   IDIPOL =      0    1-x, 2-y, 3-z, 4-all directions 
   EPSILON=  1.0000000 bulk dielectric constant

 Exchange correlation treatment:
   GGA     =    --    GGA type
   LEXCH   =     8    internal setting for exchange type
   VOSKOWN=      0    Vosko Wilk Nusair interpolation
   LHFCALC =     F    Hartree Fock is set to
   LHFONE  =     F    Hartree Fock one center treatment
   AEXX    =    0.0000 exact exchange contribution

 Linear response parameters
   LEPSILON=     F    determine dielectric tensor
   LRPA    =     F    only Hartree local field effects (RPA)
   LNABLA  =     F    use nabla operator in PAW spheres
   LVEL    =     F    velocity operator in full k-point grid
   LINTERFAST=   F  fast interpolation
   KINTER  =     0    interpolate to denser k-point grid
   CSHIFT  =0.1000    complex shift for real part using Kramers Kronig
   OMEGAMAX=  -1.0    maximum frequency
   DEG_THRESHOLD= 0.2000000E-02 threshold for treating states as degnerate
   RTIME   =   -0.100 relaxation time in fs
  (WPLASMAI=    0.000 imaginary part of plasma frequency in eV, 0.658/RTIME)
   DFIELD  = 0.0000000 0.0000000 0.0000000 field for delta impulse in time
 
 Orbital magnetization related:
   ORBITALMAG=     F  switch on orbital magnetization
   LCHIMAG   =     F  perturbation theory with respect to B field
   DQ        =  0.001000  dq finite difference perturbation B field
   LLRAUG    =     F  two centre corrections for induced B field



--------------------------------------------------------------------------------------------------------


 Static calculation
 charge density and potential will be updated during run
 non-spin polarized calculation
 Variant of blocked Davidson
 Davidson routine will perform the subspace rotation
 perform sub-space diagonalisation
    after iterative eigenvector-optimisation
 modified Broyden-mixing scheme, WC =      100.0
 initial mixing is a Kerker type mixing with AMIX =  0.4000 and BMIX =      1.0000
 Hartree-type preconditioning will be used
 using additional bands           91
 real space projection scheme for non local part
 use partial core corrections
 calculate Harris-corrections to forces 
   (improved forces if not selfconsistent)
 use gradient corrections 
 use of overlap-Matrix (Vanderbilt PP)
 Gauss-broadening in eV      SIGMA  =   0.20


--------------------------------------------------------------------------------------------------------


  energy-cutoff  :      450.00
  volume of cell :     2077.34
      direct lattice vectors                 reciprocal lattice vectors
     8.700730798 -4.005399070  0.000000000     0.114932874  0.000000000  0.000000000
     0.000000000 11.452783670  0.000000000     0.040195645  0.087315017  0.000000000
     0.000000000  0.000000000 20.846830137     0.000000000  0.000000000  0.047968923

  length of vectors
     9.578410000 11.452783670 20.846830137     0.114932874  0.096122849  0.047968923


 
 k-points in units of 2pi/SCALE and weight: gamma-point-only calculation. no periodi
   0.00000000  0.00000000  0.00000000       1.000
 
 k-points in reciprocal lattice and weights: gamma-point-only calculation. no periodi
   0.00000000  0.00000000  0.00000000       1.000
 
 position of ions in fractional coordinates (direct lattice) 
   0.63793591  0.42904558  0.08004781
   0.72899292  0.61115959  0.20011952
   0.82004993  0.79327361  0.32019124
   0.91110694  0.97538762  0.44026296
   0.45636426  0.06590227  0.28016734
   0.54742127  0.24801628  0.40023905
   0.63847827  0.43013030  0.52031076
   0.36530725  0.88378825  0.16009562
   0.00162158  0.15641692  0.12007172
   0.09267859  0.33853093  0.24014343
   0.18373560  0.52064495  0.36021514
   0.27479261  0.70275896  0.48028686
   0.91056458  0.97430290  0.00000000
   0.59499452  0.07895679  0.02342343
   0.68605153  0.26107081  0.14349515
   0.77710854  0.44318482  0.26356686
   0.86816554  0.62529884  0.38363857
   0.95922255  0.80741285  0.50371029
   0.59553688  0.08004151  0.46368639
   0.32236586  0.53369947  0.10347124
   0.41342287  0.71581348  0.22354295
   0.50447988  0.89792750  0.34361467
   0.14079421  0.17055616  0.30359077
   0.23185121  0.35267018  0.42366248
   0.04973720  0.98844215  0.18351905
   0.95868019  0.80632813  0.06344733
   0.08425593  0.79327361  0.32019124
   0.17531294  0.97538762  0.44026296
   0.90214191  0.42904558  0.08004781
   0.99319892  0.61115959  0.20011952
   0.72057026  0.06590227  0.28016734
   0.81162727  0.24801628  0.40023905
   0.53845624  0.70167424  0.04002390
   0.62951325  0.88378825  0.16009562
   0.26582758  0.15641692  0.12007172
   0.35688459  0.33853093  0.24014343
   0.44794160  0.52064495  0.36021514
   0.53899861  0.70275896  0.48028686
   0.17477058  0.97430290  0.00000000
   0.01340710  0.57935194  0.31115216
   0.10446410  0.76146596  0.43122388
   0.83129308  0.21512391  0.07100873
   0.92235009  0.39723793  0.19108045
   0.74077844  0.03409462  0.39119997
   0.83183544  0.21620863  0.51127169
   0.46760741  0.48775257  0.03098483
   0.55866442  0.66986659  0.15105654
   0.64972143  0.85198060  0.27112826
   0.28603576  0.12460926  0.23110435
   0.37709277  0.30672328  0.35117607
   0.46814977  0.48883730  0.47124778
   0.19497875  0.94249525  0.11103264
   0.13425249  0.15747274  0.47050414
   0.04319549  0.97535872  0.35043242
   0.86108147  0.61113069  0.11028899
   0.95213848  0.79324471  0.23036071
   0.58845281  0.06587337  0.19033680
   0.67950982  0.24798738  0.31040852
   0.77056683  0.43010140  0.43048023
   0.49739580  0.88375935  0.07026509
   0.13371013  0.15638801  0.03024118
   0.22476714  0.33850203  0.15031290
   0.31582415  0.52061604  0.27038461
   0.40688116  0.70273006  0.39045633
   0.49793816  0.88484407  0.51052804
   0.49486308  0.21512391  0.07100873
   0.58592009  0.39723793  0.19108045
   0.67697710  0.57935194  0.31115216
   0.76803410  0.76146596  0.43122388
   0.40434844  0.03409462  0.39119997
   0.49540544  0.21620863  0.51127169
   0.13117741  0.48775257  0.03098483
   0.22223442  0.66986659  0.15105654
   0.31329143  0.85198060  0.27112826
   0.04066277  0.30672328  0.35117607
   0.13171977  0.48883730  0.47124778
   0.94960576  0.12460926  0.23110435
   0.85854875  0.94249525  0.11103264
 
 position of ions in cartesian coordinates  (Angst):
   5.55050865  2.35857825  1.66874310
   6.34277117  4.07957102  4.17185774
   7.13503367  5.80056379  6.67497239
   7.92729619  7.52155655  9.17808704
   3.97070257 -1.07315656  5.84060084
   4.76296509  0.64783620  8.34371549
   5.55522759  2.36882898 10.84683014
   3.17844007  8.65863434  3.33748620
   0.01410897  1.78491400  2.50311465
   0.80637147  3.50590676  5.00622929
   1.59863398  5.22689953  7.50934394
   2.39089649  6.94789229 10.01245859
   7.92257725  7.51130584  0.00000000
   5.17688716 -1.47891545  0.48830427
   5.96914968  0.24207731  2.99141891
   6.76141218  1.96307009  5.49453356
   7.55367470  3.68406285  7.99764821
   8.34593720  5.40505562 10.50076285
   5.18160610 -1.46866473  9.66639130
   2.80481857  4.82114064  2.15704736
   3.59708108  6.54213341  4.66016201
   4.38934359  8.26312617  7.16327666
   1.22501249  1.38940583  6.32890511
   2.01727500  3.11039860  8.83201976
   0.43274998 11.12119674  3.82579046
   8.34121826  5.39480491  1.32267582
   0.73308816  8.74771239  6.67497239
   1.52535067 10.46870515  9.17808704
   7.84929394  1.30032778  1.66874310
   8.64155645  3.02132056  4.17185774
   6.26948785 -2.13140703  5.84060084
   7.06175037 -0.41041427  8.34371549
   4.68496283  5.87939111  0.83437155
   5.47722535  7.60038387  3.33748620
   2.31289425  0.72666353  2.50311465
   3.10515675  2.44765630  5.00622929
   3.89741927  4.16864906  7.50934394
   4.68968177  5.88964183 10.01245859
   1.52063173 10.45845444  0.00000000
   0.11665154  6.58149169  6.48653625
   0.90891406  8.30248445  8.98965089
   7.23285732 -0.86589291  1.48030695
   8.02511983  0.85509985  3.98342160
   6.44531375 -2.57663496  8.15527935
   7.23757626 -0.85564220 10.65839399
   4.06852622  3.71317042  0.64593540
   4.86078872  5.43416318  3.14905005
   5.65305124  7.15515595  5.65216470
   2.48872014  0.28143559  4.81779315
   3.28098264  2.00242837  7.32090780
   4.07324516  3.72342113  9.82402244
   1.69645762 10.01322650  2.31467850
   1.16809481  1.26576636  9.80851982
   0.37583230 10.99755727  7.30540518
   7.49203808  3.55017267  2.29917588
   8.28430059  5.27116544  4.80229053
   5.11996949 -1.60255490  3.96791898
   5.91223199  0.11843786  6.47103363
   6.70449451  1.83943062  8.97414827
   4.32770697  8.12923600  1.46480433
   1.16337587  1.25551565  0.63043278
   1.95563839  2.97650841  3.13354743
   2.74790089  4.69750118  5.63666208
   3.54016341  6.41849395  8.13977672
   4.33242591  8.13948672 10.64289137
   4.30567046  0.48164350  1.48030695
   5.09793297  2.20263626  3.98342160
   5.89019548  3.92362903  6.48653625
   6.68245799  5.64462179  8.98965089
   3.51812689 -1.22909855  8.15527935
   4.31038940  0.49189421 10.65839399
   1.14133936  5.06070683  0.64593540
   1.93360186  6.78169959  3.14905005
   2.72586438  8.50269235  5.65216470
   0.35379578  3.34996478  7.32090780
   1.14605829  5.07095754  9.82402244
   8.26226407 -2.37642707  4.81779315
   7.47000156  7.35536384  2.31467850
 


--------------------------------------------------------------------------------------------------------


 use parallel FFT for orbitals z direction half grid
 k-point   1 :   0.0000 0.0000 0.0000  plane waves:   22514

 maximum and minimum number of plane-waves per node :      3754     3751

 maximum number of plane-waves:     22514
 maximum index in each direction: 
   IXMAX=   16   IYMAX=   19   IZMAX=   36
   IXMIN=  -16   IYMIN=  -19   IZMIN=    0


 real space projection operators:
  total allocation   :      11768.30 KBytes
  max/ min on nodes  :       2115.89       1881.09


 parallel 3D FFT for wavefunctions:
    minimum data exchange during FFTs selected (reduces bandwidth)
 parallel 3D FFT for charge:
    minimum data exchange during FFTs selected (reduces bandwidth)


 total amount of memory used by VASP MPI-rank0    47145. kBytes
=======================================================================

   base      :      30000. kBytes
   nonlr-proj:       2599. kBytes
   fftplans  :       3720. kBytes
   grid      :       6724. kBytes
   one-center:        101. kBytes
   wavefun   :       4001. kBytes
 
     INWAV:  cpu time    0.0000: real time    0.0000
 Broyden mixing: mesh for mixing (old mesh)
   NGX = 33   NGY = 39   NGZ = 73
  (NGX  =100   NGY  =120   NGZ  =216)
  gives a total of  93951 points

 initial charge density was supplied:
 charge density of overlapping atoms calculated
 number of electron     858.0000000 magnetization 
 keeping initial charge density in first step


--------------------------------------------------------------------------------------------------------


 Maximum index for non-local projection operator          388
 Maximum index for augmentation-charges          579 (set IRDMAX)


--------------------------------------------------------------------------------------------------------


 First call to EWALD:  gamma=   0.139
 Maximum number of real-space cells 4x 3x 2
 Maximum number of reciprocal cells 2x 3x 4

    FEWALD:  cpu time    0.0034: real time    0.0045


--------------------------------------- Iteration      1(   1)  ---------------------------------------


    POTLOK:  cpu time    0.0474: real time    0.0507
    SETDIJ:  cpu time    0.0052: real time    0.0071
     EDDAV:  cpu time    2.4206: real time    2.4302
       DOS:  cpu time    0.0058: real time    0.0059
    --------------------------------------------
      LOOP:  cpu time    2.4790: real time    2.4938

 eigenvalue-minimisations  :  1256
 total energy-change (2. order) : 0.1066371E+05  (-0.5505166E+05)
 number of electron     858.0000000 magnetization 
 augmentation part      858.0000000 magnetization 

 Free energy of the ion-electron system (eV)
  ---------------------------------------------------
  alpha Z        PSCENC =      2101.59301765
  Ewald energy   TEWEN  =    179474.26636240
  -Hartree energ DENC   =   -312455.59303266
  -exchange      EXHF   =         0.00000000
  -V(xc)+E(xc)   XCENC  =      3956.88776238
  PAW double counting   =    122123.66111200  -127444.97121129
  entropy T*S    EENTRO =        -0.51252709
  eigenvalues    EBANDS =     -4427.77391555
  atomic energy  EATOM  =    147336.15547490
  Solvation  Ediel_sol  =         0.00000000
  ---------------------------------------------------
  free energy    TOTEN  =     10663.71304274 eV

  energy without entropy =    10664.22556983  energy(sigma->0) =    10663.96930628


--------------------------------------------------------------------------------------------------------




--------------------------------------- Iteration      1(   2)  ---------------------------------------


     EDDAV:  cpu time    2.1502: real time    2.1583
       DOS:  cpu time    0.0005: real time    0.0005
    --------------------------------------------
      LOOP:  cpu time    2.1507: real time    2.1589

 eigenvalue-minimisations  :  1096
 total energy-change (2. order) :-0.9989463E+04  (-0.9640227E+04)
 number of electron     858.0000000 magnetization 
 augmentation part      858.0000000 magnetization 

 Free energy of the ion-electron system (eV)
  ---------------------------------------------------
  alpha Z        PSCENC =      2101.59301765
  Ewald energy   TEWEN  =    179474.26636240
  -Hartree energ DENC   =   -312455.59303266
  -exchange      EXHF   =         0.00000000
  -V(xc)+E(xc)   XCENC  =      3956.88776238
  PAW double counting   =    122123.66111200  -127444.97121129
  entropy T*S    EENTRO =        -0.76047972
  eigenvalues    EBANDS =    -14416.98892315
  atomic energy  EATOM  =    147336.15547490
  Solvation  Ediel_sol  =         0.00000000
  ---------------------------------------------------
  free energy    TOTEN  =       674.25008251 eV

  energy without entropy =      675.01056223  energy(sigma->0) =      674.63032237


--------------------------------------------------------------------------------------------------------




--------------------------------------- Iteration      1(   3)  ---------------------------------------


     EDDAV:  cpu time    2.3046: real time    2.3102
       DOS:  cpu time    0.0009: real time    0.0009
    --------------------------------------------
      LOOP:  cpu time    2.3055: real time    2.3111

 eigenvalue-minimisations  :  1192
 total energy-change (2. order) :-0.1043383E+04  (-0.9823086E+03)
 number of electron     858.0000000 magnetization 
 augmentation part      858.0000000 magnetization 

 Free energy of the ion-electron system (eV)
  ---------------------------------------------------
  alpha Z        PSCENC =      2101.59301765
  Ewald energy   TEWEN  =    179474.26636240
  -Hartree energ DENC   =   -312455.59303266
  -exchange      EXHF   =         0.00000000
  -V(xc)+E(xc)   XCENC  =      3956.88776238
  PAW double counting   =    122123.66111200  -127444.97121129
  entropy T*S    EENTRO =        -1.28066428
  eigenvalues    EBANDS =    -15459.85221361
  atomic energy  EATOM  =    147336.15547490
  Solvation  Ediel_sol  =         0.00000000
  ---------------------------------------------------
  free energy    TOTEN  =      -369.13339251 eV

  energy without entropy =     -367.85272823  energy(sigma->0) =     -368.49306037


--------------------------------------------------------------------------------------------------------




--------------------------------------- Iteration      1(   4)  ---------------------------------------


     EDDAV:  cpu time    2.3691: real time    2.3774
       DOS:  cpu time    0.0007: real time    0.0007
    --------------------------------------------
      LOOP:  cpu time    2.3697: real time    2.3781

 eigenvalue-minimisations  :  1224
 total energy-change (2. order) :-0.6843859E+02  (-0.6756865E+02)
 number of electron     858.0000000 magnetization 
 augmentation part      858.0000000 magnetization 

 Free energy of the ion-electron system (eV)
  ---------------------------------------------------
  alpha Z        PSCENC =      2101.59301765
  Ewald energy   TEWEN  =    179474.26636240
  -Hartree energ DENC   =   -312455.59303266
  -exchange      EXHF   =         0.00000000
  -V(xc)+E(xc)   XCENC  =      3956.88776238
  PAW double counting   =    122123.66111200  -127444.97121129
  entropy T*S    EENTRO =        -1.42493576
  eigenvalues    EBANDS =    -15528.14652943
  atomic energy  EATOM  =    147336.15547490
  Solvation  Ediel_sol  =         0.00000000
  ---------------------------------------------------
  free energy    TOTEN  =      -437.57197981 eV

  energy without entropy =     -436.14704405  energy(sigma->0) =     -436.85951193


--------------------------------------------------------------------------------------------------------




--------------------------------------- Iteration      1(   5)  ---------------------------------------


     EDDAV:  cpu time    2.5009: real time    2.5096
       DOS:  cpu time    0.0008: real time    0.0008
    CHARGE:  cpu time    0.0463: real time    0.0465
    MIXING:  cpu time    0.0025: real time    0.0026
    --------------------------------------------
      LOOP:  cpu time    2.5505: real time    2.5595

 eigenvalue-minimisations  :  1328
 total energy-change (2. order) :-0.2542592E+01  (-0.2538545E+01)
 number of electron     857.9999604 magnetization 
 augmentation part      310.0212013 magnetization 

 Broyden mixing:
  rms(total) = 0.85851E+01    rms(broyden)= 0.85691E+01
  rms(prec ) = 0.90127E+01
  weight for this iteration     100.00

 Free energy of the ion-electron system (eV)
  ---------------------------------------------------
  alpha Z        PSCENC =      2101.59301765
  Ewald energy   TEWEN  =    179474.26636240
  -Hartree energ DENC   =   -312455.59303266
  -exchange      EXHF   =         0.00000000
  -V(xc)+E(xc)   XCENC  =      3956.88776238
  PAW double counting   =    122123.66111200  -127444.97121129
  entropy T*S    EENTRO =        -1.42381127
  eigenvalues    EBANDS =    -15530.69024640
  atomic energy  EATOM  =    147336.15547490
  Solvation  Ediel_sol  =         0.00000000
  ---------------------------------------------------
  free energy    TOTEN  =      -440.11457228 eV

  energy without entropy =     -438.69076102  energy(sigma->0) =     -439.40266665


--------------------------------------------------------------------------------------------------------




--------------------------------------- Iteration      1(   6)  ---------------------------------------


    POTLOK:  cpu time    0.0463: real time    0.0464
    SETDIJ:  cpu time    0.0047: real time    0.0065
     EDDAV:  cpu time    2.3938: real time    2.3996
       DOS:  cpu time    0.0009: real time    0.0009
    CHARGE:  cpu time    0.0442: real time    0.0443
    MIXING:  cpu time    0.0023: real time    0.0023
    --------------------------------------------
      LOOP:  cpu time    2.4922: real time    2.5000

 eigenvalue-minimisations  :  1240
 total energy-change (2. order) :-0.9289922E+02  (-0.1052862E+03)
 number of electron     857.9999532 magnetization 
 augmentation part      382.1344419 magnetization 

 Broyden mixing:
  rms(total) = 0.16448E+02    rms(broyden)= 0.16444E+02
  rms(prec ) = 0.17117E+02
  weight for this iteration     100.00

 eigenvalues of (default mixing * dielectric matrix)
  average eigenvalue GAMMA=   0.2265
  0.2265

 Free energy of the ion-electron system (eV)
  ---------------------------------------------------
  alpha Z        PSCENC =      2101.59301765
  Ewald energy   TEWEN  =    179474.26636240
  -Hartree energ DENC   =   -309454.79235589
  -exchange      EXHF   =         0.00000000
  -V(xc)+E(xc)   XCENC  =      3873.38137145
  PAW double counting   =    124088.27712079  -129148.84740065
  entropy T*S    EENTRO =        -0.96363488
  eigenvalues    EBANDS =    -18802.08374972
  atomic energy  EATOM  =    147336.15547490
  Solvation  Ediel_sol  =         0.00000000
  ---------------------------------------------------
  free energy    TOTEN  =      -533.01379395 eV

  energy without entropy =     -532.05015907  energy(sigma->0) =     -532.53197651


--------------------------------------------------------------------------------------------------------




--------------------------------------- Iteration      1(   7)  ---------------------------------------


    POTLOK:  cpu time    0.0447: real time    0.0448
    SETDIJ:  cpu time    0.0051: real time    0.0052
     EDDAV:  cpu time    2.3764: real time    2.3852
       DOS:  cpu time    0.0010: real time    0.0010
    CHARGE:  cpu time    0.0453: real time    0.0454
    MIXING:  cpu time    0.0018: real time    0.0018
    --------------------------------------------
      LOOP:  cpu time    2.4744: real time    2.4834

 eigenvalue-minimisations  :  1208
 total energy-change (2. order) : 0.1261670E+03  (-0.1895972E+02)
 number of electron     857.9999545 magnetization 
 augmentation part      360.0872716 magnetization 

 Broyden mixing:
  rms(total) = 0.64661E+01    rms(broyden)= 0.64647E+01
  rms(prec ) = 0.67617E+01
  weight for this iteration     100.00

 eigenvalues of (default mixing * dielectric matrix)
  average eigenvalue GAMMA=   0.5154
  0.5154  0.5154

 Free energy of the ion-electron system (eV)
  ---------------------------------------------------
  alpha Z        PSCENC =      2101.59301765
  Ewald energy   TEWEN  =    179474.26636240
  -Hartree energ DENC   =   -310821.24826229
  -exchange      EXHF   =         0.00000000
  -V(xc)+E(xc)   XCENC  =      3904.83788540
  PAW double counting   =    128522.36046232  -133739.63916140
  entropy T*S    EENTRO =        -0.96105780
  eigenvalues    EBANDS =    -17184.21147592
  atomic energy  EATOM  =    147336.15547490
  Solvation  Ediel_sol  =         0.00000000
  ---------------------------------------------------
  free energy    TOTEN  =      -406.84675475 eV

  energy without entropy =     -405.88569694  energy(sigma->0) =     -406.36622585


--------------------------------------------------------------------------------------------------------




--------------------------------------- Iteration      1(   8)  ---------------------------------------


    POTLOK:  cpu time    0.0465: real time    0.0477
    SETDIJ:  cpu time    0.0047: real time    0.0065
     EDDAV:  cpu time    2.7291: real time    2.7358
       DOS:  cpu time    0.0012: real time    0.0012
    CHARGE:  cpu time    0.0441: real time    0.0442
    MIXING:  cpu time    0.0022: real time    0.0022
    --------------------------------------------
      LOOP:  cpu time    2.8278: real time    2.8377

 eigenvalue-minimisations  :  1448
 total energy-change (2. order) :-0.5370924E+02  (-0.1788965E+02)
 number of electron     857.9999682 magnetization 
 augmentation part      328.3091514 magnetization 

 Broyden mixing:
  rms(total) = 0.15817E+02    rms(broyden)= 0.15815E+02
  rms(prec ) = 0.18641E+02
  weight for this iteration     100.00

 eigenvalues of (default mixing * dielectric matrix)
  average eigenvalue GAMMA=   0.4168
  0.6897  0.4581  0.1026

 Free energy of the ion-electron system (eV)
  ---------------------------------------------------
  alpha Z        PSCENC =      2101.59301765
  Ewald energy   TEWEN  =    179474.26636240
  -Hartree energ DENC   =   -311365.01682885
  -exchange      EXHF   =         0.00000000
  -V(xc)+E(xc)   XCENC  =      3930.28337273
  PAW double counting   =    134557.95292960  -139899.16084062
  entropy T*S    EENTRO =        -1.40137245
  eigenvalues    EBANDS =    -16595.22811146
  atomic energy  EATOM  =    147336.15547490
  Solvation  Ediel_sol  =         0.00000000
  ---------------------------------------------------
  free energy    TOTEN  =      -460.55599610 eV

  energy without entropy =     -459.15462364  energy(sigma->0) =     -459.85530987


--------------------------------------------------------------------------------------------------------




--------------------------------------- Iteration      1(   9)  ---------------------------------------


    POTLOK:  cpu time    0.0448: real time    0.0449
    SETDIJ:  cpu time    0.0051: real time    0.0051
     EDDAV:  cpu time    2.5908: real time    2.5971
       DOS:  cpu time    0.0011: real time    0.0011
    CHARGE:  cpu time    0.0447: real time    0.0448
    MIXING:  cpu time    0.0020: real time    0.0020
    --------------------------------------------
      LOOP:  cpu time    2.6885: real time    2.6950

 eigenvalue-minimisations  :  1360
 total energy-change (2. order) : 0.5187927E+02  (-0.1165346E+02)
 number of electron     857.9999548 magnetization 
 augmentation part      332.8403193 magnetization 

 Broyden mixing:
  rms(total) = 0.61909E+01    rms(broyden)= 0.61840E+01
  rms(prec ) = 0.71697E+01
  weight for this iteration     100.00

 eigenvalues of (default mixing * dielectric matrix)
  average eigenvalue GAMMA=   0.4241
  0.9785  0.3167  0.3167  0.0842

 Free energy of the ion-electron system (eV)
  ---------------------------------------------------
  alpha Z        PSCENC =      2101.59301765
  Ewald energy   TEWEN  =    179474.26636240
  -Hartree energ DENC   =   -311550.37451463
  -exchange      EXHF   =         0.00000000
  -V(xc)+E(xc)   XCENC  =      3928.97536949
  PAW double counting   =    135869.90156352  -141219.04422765
  entropy T*S    EENTRO =        -1.50956044
  eigenvalues    EBANDS =    -16348.64021336
  atomic energy  EATOM  =    147336.15547490
  Solvation  Ediel_sol  =         0.00000000
  ---------------------------------------------------
  free energy    TOTEN  =      -408.67672812 eV

  energy without entropy =     -407.16716768  energy(sigma->0) =     -407.92194790


--------------------------------------------------------------------------------------------------------




--------------------------------------- Iteration      1(  10)  ---------------------------------------


    POTLOK:  cpu time    0.0467: real time    0.0468
    SETDIJ:  cpu time    0.0050: real time    0.0050
     EDDAV:  cpu time    2.8173: real time    2.8242
       DOS:  cpu time    0.0017: real time    0.0017
    CHARGE:  cpu time    0.0440: real time    0.0441
    MIXING:  cpu time    0.0020: real time    0.0020
    --------------------------------------------
      LOOP:  cpu time    2.9166: real time    2.9237

 eigenvalue-minimisations  :  1504
 total energy-change (2. order) :-0.1086119E+01  (-0.6930183E+01)
 number of electron     857.9999549 magnetization 
 augmentation part      331.1798466 magnetization 

 Broyden mixing:
  rms(total) = 0.68840E+01    rms(broyden)= 0.68766E+01
  rms(prec ) = 0.80531E+01
  weight for this iteration     100.00

 eigenvalues of (default mixing * dielectric matrix)
  average eigenvalue GAMMA=   0.5592
  1.7852  0.4038  0.4038  0.1017  0.1017

 Free energy of the ion-electron system (eV)
  ---------------------------------------------------
  alpha Z        PSCENC =      2101.59301765
  Ewald energy   TEWEN  =    179474.26636240
  -Hartree energ DENC   =   -311664.55652328
  -exchange      EXHF   =         0.00000000
  -V(xc)+E(xc)   XCENC  =      3928.37239650
  PAW double counting   =    137763.24730119  -143128.50374767
  entropy T*S    EENTRO =        -1.27479787
  eigenvalues    EBANDS =    -16219.06233078
  atomic energy  EATOM  =    147336.15547490
  Solvation  Ediel_sol  =         0.00000000
  ---------------------------------------------------
  free energy    TOTEN  =      -409.76284697 eV

  energy without entropy =     -408.48804910  energy(sigma->0) =     -409.12544803


--------------------------------------------------------------------------------------------------------




--------------------------------------- Iteration      1(  11)  ---------------------------------------


    POTLOK:  cpu time    0.0447: real time    0.0448
    SETDIJ:  cpu time    0.0052: real time    0.0052
     EDDAV:  cpu time    2.7236: real time    2.7304
       DOS:  cpu time    0.0007: real time    0.0007
    CHARGE:  cpu time    0.0443: real time    0.0444
    MIXING:  cpu time    0.0020: real time    0.0020
    --------------------------------------------
      LOOP:  cpu time    2.8205: real time    2.8275

 eigenvalue-minimisations  :  1456
 total energy-change (2. order) :-0.1869685E+01  (-0.6129806E+01)
 number of electron     857.9999547 magnetization 
 augmentation part      334.4023806 magnetization 

 Broyden mixing:
  rms(total) = 0.70319E+01    rms(broyden)= 0.70272E+01
  rms(prec ) = 0.88433E+01
  weight for this iteration     100.00

 eigenvalues of (default mixing * dielectric matrix)
  average eigenvalue GAMMA=   0.5365
  2.0666  0.4123  0.4123  0.1197  0.1197  0.0884

 Free energy of the ion-electron system (eV)
  ---------------------------------------------------
  alpha Z        PSCENC =      2101.59301765
  Ewald energy   TEWEN  =    179474.26636240
  -Hartree energ DENC   =   -311559.63717009
  -exchange      EXHF   =         0.00000000
  -V(xc)+E(xc)   XCENC  =      3924.33166517
  PAW double counting   =    141668.60686544  -147057.42432427
  entropy T*S    EENTRO =        -1.44671655
  eigenvalues    EBANDS =    -16298.07770687
  atomic energy  EATOM  =    147336.15547490
  Solvation  Ediel_sol  =         0.00000000
  ---------------------------------------------------
  free energy    TOTEN  =      -411.63253222 eV

  energy without entropy =     -410.18581566  energy(sigma->0) =     -410.90917394


--------------------------------------------------------------------------------------------------------




--------------------------------------- Iteration      1(  12)  ---------------------------------------


    POTLOK:  cpu time    0.0445: real time    0.0446
    SETDIJ:  cpu time    0.0051: real time    0.0052
     EDDAV:  cpu time    2.7689: real time    2.7766
       DOS:  cpu time    0.0008: real time    0.0008
    CHARGE:  cpu time    0.0455: real time    0.0456
    MIXING:  cpu time    0.0022: real time    0.0022
    --------------------------------------------
      LOOP:  cpu time    2.8670: real time    2.8750

 eigenvalue-minimisations  :  1464
 total energy-change (2. order) : 0.1683093E+02  (-0.3884059E+01)
 number of electron     857.9999558 magnetization 
 augmentation part      339.1596525 magnetization 

 Broyden mixing:
  rms(total) = 0.33651E+01    rms(broyden)= 0.33591E+01
  rms(prec ) = 0.37983E+01
  weight for this iteration     100.00

 eigenvalues of (default mixing * dielectric matrix)
  average eigenvalue GAMMA=   0.5164
  2.1568  0.4108  0.4108  0.3205  0.1283  0.0940  0.0940

 Free energy of the ion-electron system (eV)
  ---------------------------------------------------
  alpha Z        PSCENC =      2101.59301765
  Ewald energy   TEWEN  =    179474.26636240
  -Hartree energ DENC   =   -311509.62744417
  -exchange      EXHF   =         0.00000000
  -V(xc)+E(xc)   XCENC  =      3922.58701927
  PAW double counting   =    143201.56823059  -148599.05260256
  entropy T*S    EENTRO =        -0.96153266
  eigenvalues    EBANDS =    -16321.33012620
  atomic energy  EATOM  =    147336.15547490
  Solvation  Ediel_sol  =         0.00000000
  ---------------------------------------------------
  free energy    TOTEN  =      -394.80160078 eV

  energy without entropy =     -393.84006812  energy(sigma->0) =     -394.32083445


--------------------------------------------------------------------------------------------------------




--------------------------------------- Iteration      1(  13)  ---------------------------------------


    POTLOK:  cpu time    0.0452: real time    0.0483
    SETDIJ:  cpu time    0.0045: real time    0.0063
     EDDAV:  cpu time    2.6133: real time    2.6198
       DOS:  cpu time    0.0007: real time    0.0007
    CHARGE:  cpu time    0.0448: real time    0.0449
    MIXING:  cpu time    0.0022: real time    0.0022
    --------------------------------------------
      LOOP:  cpu time    2.7107: real time    2.7221

 eigenvalue-minimisations  :  1376
 total energy-change (2. order) : 0.2901581E+01  (-0.1376286E+01)
 number of electron     857.9999552 magnetization 
 augmentation part      340.1375015 magnetization 

 Broyden mixing:
  rms(total) = 0.28603E+01    rms(broyden)= 0.28573E+01
  rms(prec ) = 0.32921E+01
  weight for this iteration     100.00

 eigenvalues of (default mixing * dielectric matrix)
  average eigenvalue GAMMA=   0.4967
  2.1335  0.5236  0.4154  0.4154  0.1673  0.1215  0.0985  0.0985

 Free energy of the ion-electron system (eV)
  ---------------------------------------------------
  alpha Z        PSCENC =      2101.59301765
  Ewald energy   TEWEN  =    179474.26636240
  -Hartree energ DENC   =   -311483.31792791
  -exchange      EXHF   =         0.00000000
  -V(xc)+E(xc)   XCENC  =      3922.56555012
  PAW double counting   =    143639.63895191  -149042.01801820
  entropy T*S    EENTRO =        -0.93169779
  eigenvalues    EBANDS =    -16339.85173254
  atomic energy  EATOM  =    147336.15547490
  Solvation  Ediel_sol  =         0.00000000
  ---------------------------------------------------
  free energy    TOTEN  =      -391.90001946 eV

  energy without entropy =     -390.96832167  energy(sigma->0) =     -391.43417056


--------------------------------------------------------------------------------------------------------




--------------------------------------- Iteration      1(  14)  ---------------------------------------


    POTLOK:  cpu time    0.0447: real time    0.0448
    SETDIJ:  cpu time    0.0051: real time    0.0051
     EDDAV:  cpu time    2.5830: real time    2.5895
       DOS:  cpu time    0.0007: real time    0.0007
    CHARGE:  cpu time    0.0449: real time    0.0450
    MIXING:  cpu time    0.0023: real time    0.0023
    --------------------------------------------
      LOOP:  cpu time    2.6806: real time    2.6873

 eigenvalue-minimisations  :  1360
 total energy-change (2. order) : 0.2191799E+01  (-0.6796114E+00)
 number of electron     857.9999548 magnetization 
 augmentation part      339.8695722 magnetization 

 Broyden mixing:
  rms(total) = 0.24589E+01    rms(broyden)= 0.24566E+01
  rms(prec ) = 0.27992E+01
  weight for this iteration     100.00

 eigenvalues of (default mixing * dielectric matrix)
  average eigenvalue GAMMA=   0.4745
  2.0486  0.5229  0.4553  0.4553  0.3326  0.1389  0.1257  0.0955  0.0955

 Free energy of the ion-electron system (eV)
  ---------------------------------------------------
  alpha Z        PSCENC =      2101.59301765
  Ewald energy   TEWEN  =    179474.26636240
  -Hartree energ DENC   =   -311504.95383448
  -exchange      EXHF   =         0.00000000
  -V(xc)+E(xc)   XCENC  =      3923.30037046
  PAW double counting   =    143486.19029038  -148890.07824250
  entropy T*S    EENTRO =        -1.02073377
  eigenvalues    EBANDS =    -16315.16092505
  atomic energy  EATOM  =    147336.15547490
  Solvation  Ediel_sol  =         0.00000000
  ---------------------------------------------------
  free energy    TOTEN  =      -389.70822000 eV

  energy without entropy =     -388.68748622  energy(sigma->0) =     -389.19785311


--------------------------------------------------------------------------------------------------------




--------------------------------------- Iteration      1(  15)  ---------------------------------------


    POTLOK:  cpu time    0.0450: real time    0.0451
    SETDIJ:  cpu time    0.0051: real time    0.0052
     EDDAV:  cpu time    2.5467: real time    2.5529
       DOS:  cpu time    0.0006: real time    0.0006
    CHARGE:  cpu time    0.0449: real time    0.0450
    MIXING:  cpu time    0.0024: real time    0.0024
    --------------------------------------------
      LOOP:  cpu time    2.6448: real time    2.6512

 eigenvalue-minimisations  :  1336
 total energy-change (2. order) : 0.1137069E+01  (-0.3990348E+00)
 number of electron     857.9999569 magnetization 
 augmentation part      339.3337178 magnetization 

 Broyden mixing:
  rms(total) = 0.21230E+01    rms(broyden)= 0.21219E+01
  rms(prec ) = 0.25276E+01
  weight for this iteration     100.00

 eigenvalues of (default mixing * dielectric matrix)
  average eigenvalue GAMMA=   0.4539
  2.0273  0.5620  0.5620  0.4005  0.4005  0.1532  0.1311  0.1007  0.1007  0.1011

 Free energy of the ion-electron system (eV)
  ---------------------------------------------------
  alpha Z        PSCENC =      2101.59301765
  Ewald energy   TEWEN  =    179474.26636240
  -Hartree energ DENC   =   -311528.66092686
  -exchange      EXHF   =         0.00000000
  -V(xc)+E(xc)   XCENC  =      3923.95610509
  PAW double counting   =    143162.81928204  -148565.85541000
  entropy T*S    EENTRO =        -0.97382443
  eigenvalues    EBANDS =    -16291.87123218
  atomic energy  EATOM  =    147336.15547490
  Solvation  Ediel_sol  =         0.00000000
  ---------------------------------------------------
  free energy    TOTEN  =      -388.57115139 eV

  energy without entropy =     -387.59732697  energy(sigma->0) =     -388.08423918


--------------------------------------------------------------------------------------------------------




--------------------------------------- Iteration      1(  16)  ---------------------------------------


    POTLOK:  cpu time    0.0450: real time    0.0451
    SETDIJ:  cpu time    0.0051: real time    0.0051
     EDDAV:  cpu time    2.5288: real time    2.5353
       DOS:  cpu time    0.0006: real time    0.0006
    CHARGE:  cpu time    0.0449: real time    0.0450
    MIXING:  cpu time    0.0025: real time    0.0025
    --------------------------------------------
      LOOP:  cpu time    2.6268: real time    2.6336

 eigenvalue-minimisations  :  1328
 total energy-change (2. order) : 0.1321296E+01  (-0.1276099E+00)
 number of electron     857.9999561 magnetization 
 augmentation part      339.1694479 magnetization 

 Broyden mixing:
  rms(total) = 0.16188E+01    rms(broyden)= 0.16183E+01
  rms(prec ) = 0.19153E+01
  weight for this iteration     100.00

 eigenvalues of (default mixing * dielectric matrix)
  average eigenvalue GAMMA=   0.4497
  2.0125  0.6487  0.6487  0.3899  0.3899  0.2647  0.0958  0.0958  0.1375  0.1375
  0.1257

 Free energy of the ion-electron system (eV)
  ---------------------------------------------------
  alpha Z        PSCENC =      2101.59301765
  Ewald energy   TEWEN  =    179474.26636240
  -Hartree energ DENC   =   -311539.41084735
  -exchange      EXHF   =         0.00000000
  -V(xc)+E(xc)   XCENC  =      3924.30811667
  PAW double counting   =    143035.21064901  -148438.02108975
  entropy T*S    EENTRO =        -0.99456609
  eigenvalues    EBANDS =    -16280.35697242
  atomic energy  EATOM  =    147336.15547490
  Solvation  Ediel_sol  =         0.00000000
  ---------------------------------------------------
  free energy    TOTEN  =      -387.24985498 eV

  energy without entropy =     -386.25528889  energy(sigma->0) =     -386.75257194


--------------------------------------------------------------------------------------------------------




--------------------------------------- Iteration      1(  17)  ---------------------------------------


    POTLOK:  cpu time    0.0449: real time    0.0450
    SETDIJ:  cpu time    0.0051: real time    0.0051
     EDDAV:  cpu time    2.6912: real time    2.6978
       DOS:  cpu time    0.0006: real time    0.0006
    CHARGE:  cpu time    0.0447: real time    0.0448
    MIXING:  cpu time    0.0026: real time    0.0026
    --------------------------------------------
      LOOP:  cpu time    2.7891: real time    2.7959

 eigenvalue-minimisations  :  1432
 total energy-change (2. order) : 0.4426533E+00  (-0.6293314E-01)
 number of electron     857.9999563 magnetization 
 augmentation part      338.8014261 magnetization 

 Broyden mixing:
  rms(total) = 0.14746E+01    rms(broyden)= 0.14742E+01
  rms(prec ) = 0.17661E+01
  weight for this iteration     100.00

 eigenvalues of (default mixing * dielectric matrix)
  average eigenvalue GAMMA=   0.4771
  2.0143  0.8817  0.8817  0.4095  0.4095  0.3986  0.1525  0.1525  0.0966  0.0966
  0.1160  0.1160

 Free energy of the ion-electron system (eV)
  ---------------------------------------------------
  alpha Z        PSCENC =      2101.59301765
  Ewald energy   TEWEN  =    179474.26636240
  -Hartree energ DENC   =   -311545.33490628
  -exchange      EXHF   =         0.00000000
  -V(xc)+E(xc)   XCENC  =      3924.55475857
  PAW double counting   =    142906.99996361  -148308.80719620
  entropy T*S    EENTRO =        -1.02626858
  eigenvalues    EBANDS =    -16275.20840778
  atomic energy  EATOM  =    147336.15547490
  Solvation  Ediel_sol  =         0.00000000
  ---------------------------------------------------
  free energy    TOTEN  =      -386.80720172 eV

  energy without entropy =     -385.78093314  energy(sigma->0) =     -386.29406743


--------------------------------------------------------------------------------------------------------




--------------------------------------- Iteration      1(  18)  ---------------------------------------


    POTLOK:  cpu time    0.0445: real time    0.0446
    SETDIJ:  cpu time    0.0051: real time    0.0051
     EDDAV:  cpu time    2.6550: real time    2.6614
       DOS:  cpu time    0.0006: real time    0.0006
    CHARGE:  cpu time    0.0447: real time    0.0448
    MIXING:  cpu time    0.0026: real time    0.0027
    --------------------------------------------
      LOOP:  cpu time    2.7526: real time    2.7593

 eigenvalue-minimisations  :  1400
 total energy-change (2. order) : 0.4947961E+00  (-0.1143026E+00)
 number of electron     857.9999561 magnetization 
 augmentation part      338.8101712 magnetization 

 Broyden mixing:
  rms(total) = 0.12484E+01    rms(broyden)= 0.12474E+01
  rms(prec ) = 0.14428E+01
  weight for this iteration     100.00

 eigenvalues of (default mixing * dielectric matrix)
  average eigenvalue GAMMA=   0.4840
  2.0168  1.0504  1.0504  0.4566  0.4195  0.4195  0.1903  0.1417  0.1417  0.1124
  0.0964  0.0964  0.1004

 Free energy of the ion-electron system (eV)
  ---------------------------------------------------
  alpha Z        PSCENC =      2101.59301765
  Ewald energy   TEWEN  =    179474.26636240
  -Hartree energ DENC   =   -311553.75758673
  -exchange      EXHF   =         0.00000000
  -V(xc)+E(xc)   XCENC  =      3924.61286623
  PAW double counting   =    142704.93760634  -148103.82287138
  entropy T*S    EENTRO =        -1.02827920
  eigenvalues    EBANDS =    -16269.26899580
  atomic energy  EATOM  =    147336.15547490
  Solvation  Ediel_sol  =         0.00000000
  ---------------------------------------------------
  free energy    TOTEN  =      -386.31240559 eV

  energy without entropy =     -385.28412640  energy(sigma->0) =     -385.79826600


--------------------------------------------------------------------------------------------------------




--------------------------------------- Iteration      1(  19)  ---------------------------------------


    POTLOK:  cpu time    0.0444: real time    0.0445
    SETDIJ:  cpu time    0.0050: real time    0.0050
     EDDAV:  cpu time    2.6803: real time    2.6869
       DOS:  cpu time    0.0016: real time    0.0016
    CHARGE:  cpu time    0.0509: real time    0.0516
    MIXING:  cpu time    0.0035: real time    0.0035
    --------------------------------------------
      LOOP:  cpu time    2.7857: real time    2.7931

 eigenvalue-minimisations  :  1424
 total energy-change (2. order) : 0.4363444E+00  (-0.3443781E-01)
 number of electron     857.9999566 magnetization 
 augmentation part      338.6263194 magnetization 

 Broyden mixing:
  rms(total) = 0.98045E+00    rms(broyden)= 0.98017E+00
  rms(prec ) = 0.11250E+01
  weight for this iteration     100.00

 eigenvalues of (default mixing * dielectric matrix)
  average eigenvalue GAMMA=   0.5085
  2.0246  1.2699  1.2699  0.4392  0.4392  0.4044  0.4044  0.1576  0.1576  0.0963
  0.0963  0.1273  0.1157  0.1157

 Free energy of the ion-electron system (eV)
  ---------------------------------------------------
  alpha Z        PSCENC =      2101.59301765
  Ewald energy   TEWEN  =    179474.26636240
  -Hartree energ DENC   =   -311565.29406418
  -exchange      EXHF   =         0.00000000
  -V(xc)+E(xc)   XCENC  =      3924.73964262
  PAW double counting   =    142538.66087890  -147935.42181305
  entropy T*S    EENTRO =        -1.07656910
  eigenvalues    EBANDS =    -16259.49899137
  atomic energy  EATOM  =    147336.15547490
  Solvation  Ediel_sol  =         0.00000000
  ---------------------------------------------------
  free energy    TOTEN  =      -385.87606122 eV

  energy without entropy =     -384.79949213  energy(sigma->0) =     -385.33777668


--------------------------------------------------------------------------------------------------------




--------------------------------------- Iteration      1(  20)  ---------------------------------------


    POTLOK:  cpu time    0.0469: real time    0.0502
    SETDIJ:  cpu time    0.0045: real time    0.0064
     EDDAV:  cpu time    2.6530: real time    2.6608
       DOS:  cpu time    0.0006: real time    0.0006
    CHARGE:  cpu time    0.0451: real time    0.0452
    MIXING:  cpu time    0.0034: real time    0.0034
    --------------------------------------------
      LOOP:  cpu time    2.7536: real time    2.7666

 eigenvalue-minimisations  :  1408
 total energy-change (2. order) : 0.1726058E+00  (-0.2202971E-01)
 number of electron     857.9999565 magnetization 
 augmentation part      338.5030232 magnetization 

 Broyden mixing:
  rms(total) = 0.85627E+00    rms(broyden)= 0.85598E+00
  rms(prec ) = 0.97296E+00
  weight for this iteration     100.00

 eigenvalues of (default mixing * dielectric matrix)
  average eigenvalue GAMMA=   0.5293
  2.0572  1.4794  1.4794  0.5253  0.5253  0.4144  0.4144  0.1790  0.1790  0.1361
  0.1361  0.0963  0.0963  0.1104  0.1104

 Free energy of the ion-electron system (eV)
  ---------------------------------------------------
  alpha Z        PSCENC =      2101.59301765
  Ewald energy   TEWEN  =    179474.26636240
  -Hartree energ DENC   =   -311577.28258921
  -exchange      EXHF   =         0.00000000
  -V(xc)+E(xc)   XCENC  =      3924.77741440
  PAW double counting   =    142335.28133788  -147729.10895189
  entropy T*S    EENTRO =        -1.08691315
  eigenvalues    EBANDS =    -16250.29860844
  atomic energy  EATOM  =    147336.15547490
  Solvation  Ediel_sol  =         0.00000000
  ---------------------------------------------------
  free energy    TOTEN  =      -385.70345546 eV

  energy without entropy =     -384.61654231  energy(sigma->0) =     -385.15999889


--------------------------------------------------------------------------------------------------------




--------------------------------------- Iteration      1(  21)  ---------------------------------------


    POTLOK:  cpu time    0.0453: real time    0.0486
    SETDIJ:  cpu time    0.0050: real time    0.0050
     EDDAV:  cpu time    2.6969: real time    2.7035
       DOS:  cpu time    0.0009: real time    0.0009
    CHARGE:  cpu time    0.0446: real time    0.0447
    MIXING:  cpu time    0.0029: real time    0.0029
    --------------------------------------------
      LOOP:  cpu time    2.7957: real time    2.8057

 eigenvalue-minimisations  :  1448
 total energy-change (2. order) : 0.2104836E+00  (-0.2442317E-01)
 number of electron     857.9999568 magnetization 
 augmentation part      338.3927915 magnetization 

 Broyden mixing:
  rms(total) = 0.60376E+00    rms(broyden)= 0.60332E+00
  rms(prec ) = 0.68178E+00
[...]
  in kB     -21.82215   -28.63861   -21.15958    -2.51253    -8.81960    -5.06297
  external pressure =      -23.87 kB  Pullay stress =        0.00 kB


 VOLUME and BASIS-vectors are now :
 -----------------------------------------------------------------------------
  energy-cutoff  :      450.00
  volume of cell :     2077.34
      direct lattice vectors                 reciprocal lattice vectors
     8.700730798 -4.005399070  0.000000000     0.114932874  0.000000000  0.000000000
     0.000000000 11.452783670  0.000000000     0.040195645  0.087315017  0.000000000
     0.000000000  0.000000000 20.846830137     0.000000000  0.000000000  0.047968923

  length of vectors
     9.578410000 11.452783670 20.846830137     0.114932874  0.096122849  0.047968923


 FORCES acting on ions
    electron-ion (+dipol)            ewald-force                    non-local-force                 convergence-correction
 -----------------------------------------------------------------------------------------------
   0.209E+03 -.311E+03 0.434E+04   -.212E+03 0.312E+03 -.434E+04   0.259E+01 -.106E+01 0.161E+01   0.237E-01 -.571E-02 -.599E-01
   0.309E+03 -.367E+03 0.160E+04   -.310E+03 0.366E+03 -.160E+04   0.107E+01 0.134E+00 0.108E+01   0.181E-01 0.373E-02 -.945E-01
   0.304E+03 -.382E+03 -.112E+04   -.305E+03 0.382E+03 0.112E+04   0.510E+00 -.391E-01 0.133E+01   0.962E-02 -.228E-02 -.690E-01
   0.191E+03 -.550E+03 -.395E+04   -.188E+03 0.550E+03 0.395E+04   -.180E+01 0.121E+00 0.798E+00   0.169E-01 -.276E-01 0.768E-02
   0.308E+03 -.400E+03 -.232E+03   -.309E+03 0.400E+03 0.231E+03   0.794E+00 -.118E+00 0.113E+01   -.289E-02 -.432E-02 -.769E-01
   0.259E+03 -.421E+03 -.294E+04   -.260E+03 0.422E+03 0.294E+04   0.622E+00 -.108E+01 -.164E+01   -.106E-01 0.107E-01 -.243E-01
   -.181E+03 -.919E+02 -.481E+04   0.176E+03 0.854E+02 0.480E+04   0.394E+01 0.563E+01 0.102E+02   0.833E-02 0.696E-02 0.618E-01
   0.399E+03 -.209E+03 0.260E+04   -.400E+03 0.208E+03 -.261E+04   0.124E+01 0.656E+00 0.214E+01   -.803E-02 0.206E-01 -.966E-01
   0.257E+03 -.561E+03 0.326E+04   -.258E+03 0.562E+03 -.326E+04   0.932E+00 -.850E+00 0.190E+01   -.738E-02 -.493E-01 -.117E+00
   0.292E+03 -.448E+03 0.678E+03   -.293E+03 0.448E+03 -.679E+03   0.993E+00 0.972E-01 0.813E+00   -.560E-02 -.656E-02 -.927E-01
   0.360E+03 -.363E+03 -.213E+04   -.362E+03 0.363E+03 0.213E+04   0.159E+01 -.288E+00 -.141E+01   -.185E-02 0.121E-01 -.490E-01
   0.346E+03 -.876E+02 -.462E+04   -.345E+03 0.863E+02 0.461E+04   -.102E+01 0.132E+01 0.231E+01   -.257E-01 0.190E-01 0.298E-01
   0.516E+03 -.268E+03 0.490E+04   -.507E+03 0.264E+03 -.489E+04   -.855E+01 0.468E+01 -.791E+01   0.532E-01 -.418E-01 -.101E-01
   0.456E+02 -.205E+01 0.475E+04   -.463E+02 0.998E-01 -.474E+04   0.798E+00 0.212E+01 -.899E+01   0.303E-02 -.168E-01 -.441E-01
   0.120E+03 0.287E+03 0.244E+04   -.121E+03 -.288E+03 -.244E+04   0.634E+00 0.127E+01 0.167E+01   0.852E-02 -.429E-02 -.100E+00
   0.133E+03 0.355E+03 -.325E+03   -.134E+03 -.356E+03 0.325E+03   0.692E+00 0.153E+01 0.434E+00   0.320E-02 0.506E-02 -.843E-01
   0.135E+03 0.471E+03 -.306E+04   -.136E+03 -.473E+03 0.306E+04   0.102E+01 0.222E+01 -.464E+00   0.987E-02 0.703E-02 -.255E-01
   0.725E+02 0.261E+03 -.516E+04   -.711E+02 -.258E+03 0.515E+04   -.153E+01 -.352E+01 0.137E+02   0.149E-01 -.794E-02 0.438E-01
   0.677E+02 0.260E+03 -.462E+04   -.665E+02 -.260E+03 0.462E+04   -.870E+00 0.658E+00 -.409E+01   -.191E-01 0.872E-03 0.181E-01
   0.317E+03 0.595E+02 0.355E+04   -.320E+03 -.611E+02 -.356E+04   0.274E+01 0.183E+01 0.365E+01   -.361E-02 0.272E-02 -.716E-01
   0.231E+03 0.367E+03 0.689E+03   -.232E+03 -.368E+03 -.690E+03   0.165E+01 0.139E+01 0.847E+00   0.437E-02 0.340E-02 -.770E-01
   0.173E+03 0.357E+03 -.210E+04   -.173E+03 -.358E+03 0.210E+04   0.586E+00 0.121E+01 -.895E-01   -.589E-02 0.684E-02 -.657E-01
   0.159E+03 0.316E+03 -.128E+04   -.160E+03 -.317E+03 0.128E+04   0.565E+00 0.132E+01 -.275E+00   -.973E-03 -.125E-01 -.798E-01
   0.258E+03 0.305E+03 -.407E+04   -.259E+03 -.305E+03 0.408E+04   0.164E+01 0.102E+01 -.274E+01   0.774E-02 -.313E-02 -.829E-02
   0.146E+03 0.382E+03 0.141E+04   -.147E+03 -.384E+03 -.141E+04   0.447E+00 0.117E+01 -.213E+00   -.721E-02 -.401E-02 -.135E+00
   0.174E+03 0.773E+03 0.405E+04   -.173E+03 -.772E+03 -.405E+04   -.243E+00 -.795E+00 -.780E+00   0.266E-01 0.877E-01 -.114E+00
   -.502E+03 0.112E+02 -.112E+04   0.503E+03 -.114E+02 0.112E+04   -.391E+00 0.345E+00 0.140E+01   0.250E-02 0.549E-02 -.573E-01
   -.514E+03 -.178E+03 -.394E+04   0.512E+03 0.180E+03 0.394E+04   0.123E+01 -.145E+01 0.699E+00   -.569E-02 -.206E-01 0.101E-01
   -.528E+03 -.958E+02 0.437E+04   0.532E+03 0.941E+02 -.437E+04   -.360E+01 0.135E+01 0.213E+01   -.464E-02 0.555E-02 -.624E-01
   -.566E+03 0.143E+02 0.167E+04   0.568E+03 -.155E+02 -.167E+04   -.189E+01 0.100E+01 0.141E+01   -.978E-02 0.117E-01 -.964E-01
   -.512E+03 -.433E+02 -.248E+03   0.513E+03 0.430E+02 0.247E+03   -.656E+00 0.365E+00 0.893E+00   -.508E-02 -.429E-02 -.878E-01
   -.627E+03 -.142E+03 -.308E+04   0.629E+03 0.142E+03 0.309E+04   -.158E+01 0.221E+00 -.312E+01   0.221E-02 0.805E-02 -.355E-01
   -.101E+02 -.317E+02 0.478E+04   0.597E+01 0.269E+02 -.477E+04   0.377E+01 0.459E+01 -.451E+01   0.439E-01 0.190E-01 -.469E-01
   -.377E+03 0.212E+02 0.245E+04   0.377E+03 -.214E+02 -.246E+04   -.613E+00 0.243E+00 0.205E+01   0.321E-01 0.355E-02 -.102E+00
   -.585E+03 -.126E+03 0.327E+04   0.586E+03 0.125E+03 -.327E+04   -.130E+01 0.518E+00 0.192E+01   -.384E-01 -.306E-01 -.110E+00
   -.500E+03 -.622E+02 0.679E+03   0.500E+03 0.613E+02 -.680E+03   -.509E+00 0.886E+00 0.815E+00   -.261E-02 -.864E-02 -.868E-01
   -.439E+03 -.174E+02 -.206E+04   0.441E+03 0.164E+02 0.206E+04   -.101E+01 0.812E+00 0.985E-01   0.800E-02 -.238E-02 -.501E-01
   -.229E+03 0.545E+02 -.459E+04   0.227E+03 -.527E+02 0.458E+04   0.132E+01 -.132E+01 0.226E+01   0.585E-02 -.784E-02 0.294E-01
   -.601E+03 0.372E+03 0.487E+04   0.591E+03 -.366E+03 -.486E+04   0.949E+01 -.439E+01 -.843E+01   -.880E-01 0.222E-01 -.990E-02
   -.942E+02 0.159E+03 -.422E+03   0.954E+02 -.161E+03 0.422E+03   -.135E+01 0.236E+01 -.658E+00   -.885E-03 0.462E-02 -.262E-01
   -.858E+02 0.172E+03 -.139E+04   0.872E+02 -.174E+03 0.140E+04   -.152E+01 0.258E+01 0.688E+00   -.116E-02 0.766E-02 0.343E-02
   -.846E+02 0.356E+02 0.166E+04   0.854E+02 -.364E+02 -.166E+04   -.150E+01 0.116E+01 0.660E+00   -.372E-02 -.102E-01 -.300E-01
   -.113E+03 0.125E+03 0.623E+03   0.114E+03 -.127E+03 -.623E+03   -.144E+01 0.239E+01 -.336E+00   -.296E-02 0.206E-02 -.394E-01
   -.124E+03 0.125E+03 -.109E+04   0.125E+03 -.127E+03 0.109E+04   -.133E+01 0.231E+01 -.124E+01   -.160E-02 -.553E-02 -.193E-01
   -.225E+03 -.993E+01 -.192E+04   0.227E+03 0.959E+01 0.192E+04   -.325E+01 -.397E-01 -.428E+01   0.255E-02 0.311E-02 0.255E-01
   0.785E+02 0.128E+03 0.188E+04   -.802E+02 -.130E+03 -.189E+04   0.250E+01 0.276E+01 0.374E+01   0.377E-02 0.292E-03 -.135E-01
   -.397E+02 0.139E+03 0.961E+03   0.407E+02 -.142E+03 -.961E+03   -.134E+01 0.250E+01 -.101E+01   0.886E-02 0.724E-03 -.345E-01
   -.833E+02 0.146E+03 -.699E+02   0.848E+02 -.149E+03 0.703E+02   -.160E+01 0.238E+01 -.336E+00   0.260E-02 0.225E-02 -.304E-01
   -.985E+02 0.137E+03 0.255E+03   0.997E+02 -.140E+03 -.254E+03   -.121E+01 0.250E+01 -.137E+00   -.332E-02 -.420E-02 -.373E-01
   -.808E+02 0.135E+03 -.765E+03   0.821E+02 -.138E+03 0.766E+03   -.157E+01 0.216E+01 -.101E+01   0.114E-02 -.166E-02 -.201E-01
   0.442E+02 0.713E+02 -.172E+04   -.441E+02 -.722E+02 0.172E+04   0.342E+00 0.135E+01 -.168E+01   0.712E-02 -.100E-01 0.138E-01
   -.110E+03 0.239E+03 0.123E+04   0.111E+03 -.241E+03 -.123E+04   -.156E+01 0.167E+01 -.143E+01   -.244E-01 0.107E-01 -.632E-01
   -.283E+02 -.118E+03 -.179E+04   0.285E+02 0.118E+03 0.179E+04   -.775E+00 -.142E+01 -.411E+01   0.344E-02 -.913E-02 0.103E-01
   -.521E+02 -.113E+03 -.609E+03   0.527E+02 0.115E+03 0.608E+03   -.743E+00 -.136E+01 0.195E+01   0.461E-02 -.661E-02 -.183E-01
   -.847E+02 -.637E+02 0.147E+04   0.851E+02 0.651E+02 -.147E+04   -.412E+00 -.144E+01 0.997E-01   0.997E-02 0.136E-01 -.390E-01
   -.505E+02 -.781E+02 0.425E+03   0.511E+02 0.794E+02 -.426E+03   -.627E+00 -.127E+01 0.186E+01   0.191E-02 0.262E-02 -.400E-01
   -.390E+02 -.998E+02 0.756E+03   0.397E+02 0.101E+03 -.758E+03   -.835E+00 -.132E+01 0.181E+01   0.292E-02 0.103E-02 -.340E-01
   -.599E+02 -.107E+03 -.268E+03   0.605E+02 0.109E+03 0.267E+03   -.529E+00 -.193E+01 0.143E+01   -.218E-02 0.315E-03 -.329E-01
   -.170E+03 -.334E+02 -.139E+04   0.173E+03 0.334E+02 0.139E+04   -.237E+01 0.724E-01 -.113E+01   -.169E-02 0.980E-02 0.684E-02
   0.140E+03 0.129E+02 0.171E+04   -.141E+03 -.125E+02 -.171E+04   0.229E+01 -.179E+00 0.716E+00   0.112E-01 0.131E-01 -.365E-01
   -.157E+03 -.333E+03 0.188E+04   0.159E+03 0.338E+03 -.188E+04   -.295E+01 -.613E+01 0.254E+01   -.271E-01 -.446E-01 -.253E-01
   -.567E+02 -.150E+03 0.113E+04   0.572E+02 0.151E+03 -.113E+04   -.561E+00 -.119E+01 0.941E+00   -.542E-02 -.773E-02 -.348E-01
   -.353E+02 -.105E+03 0.937E+02   0.359E+02 0.106E+03 -.952E+02   -.481E+00 -.108E+01 0.178E+01   0.709E-03 0.628E-03 -.290E-01
   -.180E+02 -.735E+02 -.937E+03   0.186E+02 0.744E+02 0.935E+03   -.646E+00 -.101E+01 0.282E+01   -.367E-02 0.495E-02 -.170E-01
   -.289E+02 -.717E+02 -.188E+04   0.290E+02 0.717E+02 0.188E+04   -.852E+00 -.158E+01 -.399E+01   -.687E-02 0.183E-02 0.220E-01
   0.898E+02 -.190E+02 0.166E+04   -.908E+02 0.193E+02 -.166E+04   0.180E+01 -.608E+00 0.526E+00   -.495E-02 -.148E-01 -.286E-01
   0.163E+03 0.142E+02 0.614E+03   -.166E+03 -.148E+02 -.613E+03   0.275E+01 0.483E+00 -.344E+00   0.376E-02 -.142E-02 -.330E-01
   0.169E+03 0.317E+02 -.410E+03   -.171E+03 -.323E+02 0.410E+03   0.240E+01 0.569E+00 -.705E+00   0.233E-02 -.822E-03 -.265E-01
   0.160E+03 0.189E+02 -.138E+04   -.163E+03 -.195E+02 0.138E+04   0.308E+01 0.756E+00 0.704E+00   0.113E-01 -.563E-02 0.937E-03
   0.179E+03 0.469E+01 -.108E+04   -.181E+03 -.509E+01 0.108E+04   0.280E+01 0.498E+00 -.903E+00   -.115E-01 -.244E-02 -.137E-01
   0.201E+03 0.118E+02 -.190E+04   -.205E+03 -.120E+02 0.191E+04   0.486E+01 0.159E+00 -.321E+01   -.108E-02 0.919E-02 0.233E-01
   -.178E+02 -.454E+02 0.187E+04   0.180E+02 0.454E+02 -.187E+04   -.637E+00 0.344E-01 0.454E+01   -.104E-01 0.187E-02 -.112E-01
   0.143E+03 0.294E+02 0.113E+04   -.145E+03 -.291E+02 -.113E+04   0.232E+01 -.486E+00 0.291E+01   -.799E-02 0.316E-02 -.343E-01
   0.175E+03 0.361E+02 -.582E+02   -.178E+03 -.368E+02 0.587E+02   0.268E+01 0.598E+00 -.509E+00   -.210E-02 0.378E-02 -.247E-01
   0.169E+03 0.605E+01 -.794E+03   -.172E+03 -.666E+01 0.795E+03   0.287E+01 0.507E+00 -.667E+00   0.123E-02 -.144E-03 -.233E-01
   0.229E+03 0.519E+02 -.182E+04   -.234E+03 -.522E+02 0.182E+04   0.528E+01 0.472E+00 -.336E+01   -.170E-02 0.675E-02 0.114E-01
   0.164E+03 0.657E+01 0.249E+03   -.167E+03 -.710E+01 -.249E+03   0.270E+01 0.460E+00 -.315E+00   -.171E-02 -.551E-02 -.400E-01
   0.193E+03 0.439E+02 0.120E+04   -.196E+03 -.443E+02 -.120E+04   0.218E+01 -.440E-01 -.151E+01   0.206E-01 -.101E-01 -.692E-01
 -----------------------------------------------------------------------------------------------
   -.261E+02 -.335E+02 -.655E+01   -.227E-12 0.143E-11 -.125E-10   0.261E+02 0.334E+02 0.938E+01   0.231E-01 -.348E-01 -.285E+01
 
 
 POSITION                                       TOTAL-FORCE (eV/Angst)
 -----------------------------------------------------------------------------------
      5.55051      2.35858      1.66874        -0.640311      0.164630      0.372883
      6.34277      4.07957      4.17186        -0.084632     -0.059059     -0.101090
      7.13503      5.80056      6.67497         0.166023      0.113867     -0.054455
      7.92730      7.52156      9.17809         0.724667      0.358058     -0.628914
      3.97070     -1.07316      5.84060         0.148608     -0.098661     -0.095903
      4.76297      0.64784      8.34372         0.141173      0.177860      0.266108
      5.55523      2.36883     10.84683        -0.967180     -0.817006     -2.076345
      3.17844      8.65863      3.33749        -0.107118     -0.318567     -0.155248
      0.01411      1.78491      2.50311        -0.068983     -0.161090     -0.234369
      0.80637      3.50591      5.00623        -0.061553      0.014426     -0.121781
      1.59863      5.22690      7.50934        -0.000168     -0.038560      0.298761
      2.39090      6.94789     10.01246         0.670527     -0.003130     -0.896863
      7.92258      7.51131      0.00000         0.960647      0.289773      1.765863
      5.17689     -1.47892      0.48830         0.105088      0.147868      1.769901
      5.96915      0.24208      2.99142         0.058275      0.057800     -0.298119
      6.76141      1.96307      5.49453         0.072907      0.100589     -0.062562
      7.55367      3.68406      7.99765        -0.013889     -0.042721      0.252848
      8.34594      5.40506     10.50076        -0.176736     -0.307257     -1.737032
      5.18161     -1.46866      9.66639         0.327526      0.227951      0.726211
      2.80482      4.82114      2.15705        -0.229532      0.254473     -0.553650
      3.59708      6.54213      4.66016        -0.041614      0.138556      0.046161
      4.38934      8.26313      7.16328         0.063375      0.071603     -0.117111
      1.22501      1.38941      6.32891         0.116970      0.198647     -0.206523
      2.01727      3.11040      8.83202         0.050681      0.299222      0.593405
      0.43275     11.12120      3.82579        -0.090276     -0.133300     -0.206491
      8.34122      5.39480      1.32268         0.108101      0.527026      0.791857
      0.73309      8.74771      6.67497        -0.030293      0.158974     -0.008479
      1.52535     10.46871      9.17809        -0.242631      0.692768     -0.630083
      7.84929      1.30033      1.66874         0.910831     -0.357290      0.149071
      8.64156      3.02132      4.17186         0.073672     -0.188214     -0.065772
      6.26949     -2.13141      5.84060        -0.209591      0.090165     -0.011276
      7.06175     -0.41041      8.34372         0.045231      0.110194      0.597850
      4.68496      5.87939      0.83437        -0.329125     -0.201405      1.213649
      5.47723      7.60038      3.33749        -0.071395      0.062192     -0.198421
      2.31289      0.72666      2.50311        -0.074886     -0.058752     -0.258771
      3.10516      2.44766      5.00623         0.001570     -0.049715     -0.157353
      3.89742      4.16865      7.50934         0.064283     -0.101037      0.077528
      4.68968      5.88964     10.01246        -0.325016      0.520411     -0.800572
      1.52063     10.45845      0.00000        -0.416491      1.107067      1.790439
      0.11665      6.58149      6.48654        -0.130449      0.096152      0.103876
      0.90891      8.30248      8.98965        -0.154643      0.368188      1.360978
      7.23286     -0.86589      1.48031        -0.736330      0.405109     -0.568737
      8.02512      0.85510      3.98342        -0.169275      0.168433      0.149341
      6.44531     -2.57663      8.15528        -0.026265      0.151871      0.241661
      7.23758     -0.85564     10.65839        -0.906753     -0.373496     -1.326401
      4.06853      3.71317      0.64594         0.727004      0.870852      0.027387
      4.86079      5.43416      3.14905        -0.365014      0.174259     -0.198049
      5.65305      7.15516      5.65216        -0.131192     -0.135718      0.004945
      2.48872      0.28144      4.81779        -0.060822     -0.034855      0.186253
      3.28098      2.00243      7.32091        -0.242300      0.031332      0.070076
      4.07325      3.72342      9.82402         0.481386      0.463527      0.601889
      1.69646     10.01323      2.31468        -0.334834     -0.405583     -1.012420
      1.16809      1.26577      9.80852        -0.523181     -1.121827      0.548408
      0.37583     10.99756      7.30541        -0.109617     -0.163626      0.161169
      7.49204      3.55017      2.29918         0.009250     -0.051212     -1.515615
      8.28430      5.27117      4.80229        -0.004657     -0.050181      0.025719
      5.11997     -1.60255      3.96792        -0.084180     -0.095793      0.045078
      5.91223      0.11844      6.47103         0.031877     -0.030839      0.230858
      6.70449      1.83943      8.97415        -0.258324      0.090655      1.047331
      4.32771      8.12924      1.46480         0.776141      0.203045     -1.404970
      1.16338      1.25552      0.63043        -0.477125     -1.125561     -1.217003
      1.95564      2.97651      3.13355        -0.033487      0.047477     -0.181451
      2.74790      4.69750      5.63666         0.069225      0.091184      0.189936
      3.54016      6.41849      8.13978        -0.077237     -0.120100      0.468568
      4.33243      8.13949     10.64289        -0.745655     -1.565280      0.288352
      4.30567      0.48164      1.48031         0.811943     -0.332934     -0.605522
      5.09793      2.20264      3.98342         0.270115     -0.070593      0.118429
      5.89020      3.92363      6.48654         0.146720     -0.056421      0.097813
      6.68246      5.64462      8.98965         0.419027      0.207862      1.368059
      3.51813     -1.22910      8.15528         0.096360      0.097226      0.392918
      4.31039      0.49189     10.65839         0.651102      0.025656     -0.590140
      1.14134      5.06071      0.64594        -0.490464     -0.027740      0.665877
      1.93360      6.78170      3.14905         0.251094     -0.159251      0.497247
      2.72586      8.50269      5.65216         0.036926     -0.028387     -0.035621
      0.35380      3.34996      7.32091         0.201675     -0.096787      0.147621
      1.14606      5.07096      9.82402         0.433233      0.196541     -0.693711
      8.26226     -2.37643      4.81779         0.038129     -0.074370      0.147148
      7.47000      7.35536      2.31468        -0.018137     -0.517168     -0.872648
 -----------------------------------------------------------------------------------
    total drift:                               -0.005890     -0.047637     -0.020919


--------------------------------------------------------------------------------------------------------



  FREE ENERGIE OF THE ION-ELECTRON SYSTEM (eV)
  ---------------------------------------------------
  free  energy   TOTEN  =      -385.34162046 eV

  energy  without entropy=     -384.19428076  energy(sigma->0) =     -384.76795061
 


--------------------------------------------------------------------------------------------------------


    POTLOK:  cpu time    0.0502: real time    0.0503


--------------------------------------------------------------------------------------------------------


     LOOP+:  cpu time  107.8659: real time  108.2182
    4ORBIT:  cpu time    0.0000: real time    0.0000

 total amount of memory used by VASP MPI-rank0    47145. kBytes
=======================================================================

   base      :      30000. kBytes
   nonlr-proj:       2599. kBytes
   fftplans  :       3720. kBytes
   grid      :       6724. kBytes
   one-center:        101. kBytes
   wavefun   :       4001. kBytes
 
  
  
 General timing and accounting informations for this job:
 ========================================================
  
                  Total CPU time used (sec):      110.020
                            User time (sec):      109.223
                          System time (sec):        0.797
                         Elapsed time (sec):      110.825
  
                   Maximum memory used (kb):      238104.
                   Average memory used (kb):           0.
  
                          Minor page faults:       103344
                          Major page faults:            0
                 Voluntary context switches:         1040
