LAMMPS (5 Jun 2019)
OMP_NUM_THREADS environment is not set. Defaulting to 1 thread. (../comm.cpp:88)
  using 1 OpenMP thread(s) per MPI task
Reading data file ...
  triclinic box = (0 0 0) to (9.57841 8.8693 19.0111) with tilt (-4.7892 0 0)
  1 by 1 by 1 MPI processor grid
  reading atoms ...
  54 atoms
  read_data CPU = 0.000737246 secs
30 atoms in group bulk
WARNING: Using 'neigh_modify every 1 delay 0 check yes' setting during minimization (../min.cpp:168)
Neighbor list info ...
  update every 1 steps, delay 0 steps, check yes
  max neighbors/atom: 2000, page size: 100000
  master list distance cutoff = 8.5
  ghost atom cutoff = 8.5
  binsize = 4.25, bins = 4 3 5
  1 neighbor lists, perpetual/occasional/extra = 1 0 0
  (1) pair eam/alloy, perpetual
      attributes: half, newton on
      pair build: half/bin/newton/tri
      stencil: half/bin/3d/newton/tri
      bin: standard
Setting up cg style minimization ...
  Unit style    : metal
  Current step  : 0
Per MPI rank memory allocation (min/avg/max) = 4.117 | 4.117 | 4.117 Mbytes
Step Temp E_pair E_mol TotEng Press 
       0            0   -225.30756            0   -225.30756   -119995.05 
      41            0   -244.75356            0   -244.75356   -27330.779 
Loop time of 0.0200672 on 1 procs for 41 steps with 54 atoms

99.8% CPU use with 1 MPI tasks x 1 OpenMP threads

Minimization stats:
  Stopping criterion = energy tolerance
  Energy initial, next-to-last, final = 
        -225.307564494     -244.752811867     -244.753560562
  Force two-norm initial, final = 10.9475 0.136694
  Force max component initial, final = 3.31556 0.0646875
  Final line search alpha, max atom move = 0.829432 0.0536539
  Iterations, force evaluations = 41 60

MPI task timing breakdown:
Section |  min time  |  avg time  |  max time  |%varavg| %total
---------------------------------------------------------------
Pair    | 0.018017   | 0.018017   | 0.018017   |   0.0 | 89.78
Neigh   | 0.0010105  | 0.0010105  | 0.0010105  |   0.0 |  5.04
Comm    | 0.00057951 | 0.00057951 | 0.00057951 |   0.0 |  2.89
Output  | 0          | 0          | 0          |   0.0 |  0.00
Modify  | 3.3282e-05 | 3.3282e-05 | 3.3282e-05 |   0.0 |  0.17
Other   |            | 0.000427   |            |       |  2.13

Nlocal:    54 ave 54 max 54 min
Histogram: 1 0 0 0 0 0 0 0 0 0
Nghost:    880 ave 880 max 880 min
Histogram: 1 0 0 0 0 0 0 0 0 0
Neighs:    3278 ave 3278 max 3278 min
Histogram: 1 0 0 0 0 0 0 0 0 0

Total # of neighbors = 3278
Ave neighs/atom = 60.7037
Neighbor list builds = 3
Dangerous builds = 0
System init for write_data ...
Total wall time: 0:00:00
