LAMMPS (5 Jun 2019)
OMP_NUM_THREADS environment is not set. Defaulting to 1 thread. (../comm.cpp:88)
  using 1 OpenMP thread(s) per MPI task
Reading data file ...
  triclinic box = (0 0 0) to (10.0797 9.4251 20.5101) with tilt (3.5733 0 0)
  1 by 1 by 1 MPI processor grid
  reading atoms ...
  72 atoms
  read_data CPU = 0.00079374 secs
42 atoms in group bulk
WARNING: Using 'neigh_modify every 1 delay 0 check yes' setting during minimization (../min.cpp:168)
Neighbor list info ...
  update every 1 steps, delay 0 steps, check yes
  max neighbors/atom: 2000, page size: 100000
  master list distance cutoff = 8.5
  ghost atom cutoff = 8.5
  binsize = 4.25, bins = 4 3 5
  1 neighbor lists, perpetual/occasional/extra = 1 0 0
  (1) pair eam/alloy, perpetual
      attributes: half, newton on
      pair build: half/bin/newton/tri
      stencil: half/bin/3d/newton/tri
      bin: standard
Setting up cg style minimization ...
  Unit style    : metal
  Current step  : 0
Per MPI rank memory allocation (min/avg/max) = 4.115 | 4.115 | 4.115 Mbytes
Step Temp E_pair E_mol TotEng Press 
       0            0   -305.83946            0   -305.83946   -130101.05 
      75            0   -327.32045            0   -327.32045   -39153.257 
Loop time of 0.0480455 on 1 procs for 75 steps with 72 atoms

99.8% CPU use with 1 MPI tasks x 1 OpenMP threads

Minimization stats:
  Stopping criterion = energy tolerance
  Energy initial, next-to-last, final = 
         -305.83946395      -327.31756162     -327.320449526
  Force two-norm initial, final = 11.167 0.19812
  Force max component initial, final = 3.24164 0.0503031
  Final line search alpha, max atom move = 0.877219 0.0441268
  Iterations, force evaluations = 75 111

MPI task timing breakdown:
Section |  min time  |  avg time  |  max time  |%varavg| %total
---------------------------------------------------------------
Pair    | 0.043607   | 0.043607   | 0.043607   |   0.0 | 90.76
Neigh   | 0.0025109  | 0.0025109  | 0.0025109  |   0.0 |  5.23
Comm    | 0.0010564  | 0.0010564  | 0.0010564  |   0.0 |  2.20
Output  | 0          | 0          | 0          |   0.0 |  0.00
Modify  | 7.4804e-05 | 7.4804e-05 | 7.4804e-05 |   0.0 |  0.16
Other   |            | 0.0007967  |            |       |  1.66

Nlocal:    72 ave 72 max 72 min
Histogram: 1 0 0 0 0 0 0 0 0 0
Nghost:    944 ave 944 max 944 min
Histogram: 1 0 0 0 0 0 0 0 0 0
Neighs:    4721 ave 4721 max 4721 min
Histogram: 1 0 0 0 0 0 0 0 0 0

Total # of neighbors = 4721
Ave neighs/atom = 65.5694
Neighbor list builds = 5
Dangerous builds = 0
System init for write_data ...
Total wall time: 0:00:00
