<?xml version="1.0" encoding="ISO-8859-1"?>
<modeling>
 <generator>
  <i name="program" type="string">vasp </i>
  <i name="version" type="string">5.4.4.18Apr17-6-g9f103f2a35  </i>
  <i name="subversion" type="string">(build Aug 13 2019 17:33:20) gamma-only         parallel </i>
  <i name="platform" type="string">LinuxIFC </i>
  <i name="date" type="string">2020 05 12 </i>
  <i name="time" type="string">15:03:38 </i>
 </generator>
 <incar>
  <i type="string" name="SYSTEM">"Millerite NiS"</i>
  <i type="string" name="PREC">normal</i>
  <i type="int" name="NSIM">     4</i>
  <i type="int" name="NELM">   100</i>
  <i name="ENCUT">    450.00000000</i>
  <i type="string" name="LREAL">A</i>
  <i type="int" name="ISMEAR">     0</i>
  <i type="int" name="NWRITE">     2</i>
  <i type="logical" name="LWAVE"> F  </i>
  <i type="logical" name="LCHARG"> F  </i>
  <v type="int" name="KPOINT_BSE">    -1     0     0     0</v>
  <i type="int" name="NELM">   100</i>
 </incar>
 <structure name="primitive_cell" >
  <crystal>
   <varray name="basis" >
    <v>      10.07973298       0.00000000       0.00000000 </v>
    <v>       3.57329804       9.42510255       0.00000000 </v>
    <v>       0.00000000       0.00000000      20.51013988 </v>
   </varray>
   <i name="volume">   1948.51491473 </i>
   <varray name="rec_basis" >
    <v>       0.09920898      -0.03761267       0.00000000 </v>
    <v>       0.00000000       0.10609964       0.00000000 </v>
    <v>       0.00000000       0.00000000       0.04875637 </v>
   </varray>
  </crystal>
  <varray name="positions" >
   <v>       0.37433215      -0.24863780       0.09511235 </v>
   <v>       0.36084855      -0.36308679       0.01412767 </v>
   <v>      -0.49054360      -0.18336234       0.03840130 </v>
   <v>       0.14670739      -0.15413438       0.12800997 </v>
   <v>      -0.43161203      -0.41464160       0.04898884 </v>
   <v>       0.47740939      -0.48793304       0.12840637 </v>
   <v>      -0.47203578      -0.20205788       0.17147277 </v>
   <v>       0.18132774      -0.33842692       0.06951833 </v>
   <v>       0.48146330       0.00569989       0.09846781 </v>
   <v>      -0.47539934      -0.39890632       0.22312232 </v>
   <v>      -0.30952970      -0.20766353       0.09511855 </v>
   <v>       0.29697590      -0.30440289       0.25601994 </v>
   <v>      -0.23671545      -0.43737821       0.08533998 </v>
   <v>       0.09282582      -0.30046480       0.19815030 </v>
   <v>       0.13252766      -0.07596064       0.23197130 </v>
   <v>       0.24425506       0.07855462       0.21374635 </v>
   <v>       0.14454139      -0.48530171       0.12880278 </v>
   <v>      -0.29059702       0.41629137       0.15548031 </v>
   <v>      -0.25089518      -0.35920447       0.18930132 </v>
   <v>      -0.01277198       0.05613499       0.11967842 </v>
   <v>       0.47624865      -0.01722097       0.24082029 </v>
   <v>       0.36568198       0.35755170       0.14663132 </v>
   <v>      -0.05744270      -0.15019629       0.07014033 </v>
   <v>      -0.02784513       0.01410873       0.02491531 </v>
   <v>       0.00702249      -0.32981408       0.01437696 </v>
   <v>      -0.32489122      -0.00945394       0.05069476 </v>
   <v>       0.36703129       0.22035626       0.07185933 </v>
   <v>      -0.46986977       0.12910945       0.17067996 </v>
   <v>      -0.06045944      -0.37850983       0.10393365 </v>
   <v>      -0.32176726      -0.35232639       0.29948274 </v>
   <v>      -0.37232210       0.36179845       0.25641634 </v>
   <v>      -0.42751799       0.21008246       0.07963334 </v>
   <v>      -0.13916777      -0.20468921       0.17107636 </v>
   <v>      -0.08861294       0.08118595       0.21414276 </v>
   <v>       0.39452358      -0.07171389       0.34175632 </v>
   <v>       0.29480990       0.36442978       0.25681275 </v>
   <v>      -0.22742011       0.22560483       0.10290689 </v>
   <v>       0.28279617      -0.22622916       0.35998128 </v>
   <v>       0.24309433      -0.45073331       0.32616027 </v>
   <v>      -0.09197650      -0.11566249       0.26579231 </v>
   <v>      -0.24224501       0.03460603       0.13778234 </v>
   <v>      -0.08644694       0.41235328       0.21334995 </v>
   <v>       0.06165557      -0.06908256       0.34215273 </v>
   <v>       0.01110074      -0.35495773       0.29908634 </v>
   <v>       0.29144634       0.16758134       0.30846230 </v>
   <v>       0.11380098       0.29497664       0.23990871 </v>
   <v>      -0.38835915      -0.15936946       0.35499779 </v>
   <v>      -0.31960126      -0.02115906       0.29868993 </v>
   <v>       0.44724441      -0.45467140       0.38402991 </v>
   <v>      -0.32513082       0.45082517       0.35113229 </v>
   <v>      -0.48404950       0.20728318       0.27464130 </v>
   <v>       0.06607992      -0.26265004       0.38421915 </v>
   <v>      -0.10062667       0.49052701       0.31731128 </v>
   <v>      -0.14032851       0.26602286       0.28349028 </v>
   <v>       0.06382158       0.26208477       0.34135992 </v>
   <v>       0.41851454       0.03379960       0.42340338 </v>
   <v>      -0.40613582      -0.38273814       0.44031839 </v>
   <v>       0.20144705      -0.46303717       0.42591103 </v>
   <v>       0.17577319      -0.18000985       0.45000815 </v>
   <v>      -0.44095729      -0.16756553       0.45155937 </v>
   <v>       0.00994000       0.11575434       0.41150025 </v>
   <v>       0.44507841       0.21416127       0.38482272 </v>
   <v>       0.33685790      -0.36581473       0.46819910 </v>
   <v>      -0.34870926       0.08458188       0.38496047 </v>
   <v>       0.42609705       0.38836345       0.44245240 </v>
   <v>       0.19956837       0.13696021       0.44573062 </v>
   <v>      -0.17149875       0.49740510       0.42749271 </v>
   <v>      -0.22205359       0.21152993       0.38442632 </v>
   <v>      -0.26260254       0.35520551       0.46232320 </v>
   <v>      -0.46259581       0.48151172      -0.49657510 </v>
   <v>       0.02381101       0.33563748       0.43801665 </v>
   <v>      -0.06745395       0.22529698       0.49632030 </v>
  </varray>
 </structure>
 <varray name="primitive_index" >
  <v type="int" >        1 </v>
  <v type="int" >       61 </v>
  <v type="int" >       49 </v>
  <v type="int" >       41 </v>
  <v type="int" >       14 </v>
  <v type="int" >       62 </v>
  <v type="int" >       50 </v>
  <v type="int" >       33 </v>
  <v type="int" >       21 </v>
  <v type="int" >        2 </v>
  <v type="int" >       26 </v>
  <v type="int" >       42 </v>
  <v type="int" >       39 </v>
  <v type="int" >       17 </v>
  <v type="int" >       30 </v>
  <v type="int" >       70 </v>
  <v type="int" >       57 </v>
  <v type="int" >       15 </v>
  <v type="int" >       27 </v>
  <v type="int" >       29 </v>
  <v type="int" >       22 </v>
  <v type="int" >       34 </v>
  <v type="int" >       20 </v>
  <v type="int" >       45 </v>
  <v type="int" >       60 </v>
  <v type="int" >       68 </v>
  <v type="int" >       46 </v>
  <v type="int" >       47 </v>
  <v type="int" >       12 </v>
  <v type="int" >       51 </v>
  <v type="int" >       63 </v>
  <v type="int" >        5 </v>
  <v type="int" >       69 </v>
  <v type="int" >       54 </v>
  <v type="int" >       71 </v>
  <v type="int" >       58 </v>
  <v type="int" >       53 </v>
  <v type="int" >       31 </v>
  <v type="int" >       18 </v>
  <v type="int" >        8 </v>
  <v type="int" >        6 </v>
  <v type="int" >       40 </v>
  <v type="int" >       55 </v>
  <v type="int" >       66 </v>
  <v type="int" >       10 </v>
  <v type="int" >        9 </v>
  <v type="int" >       23 </v>
  <v type="int" >       48 </v>
  <v type="int" >       43 </v>
  <v type="int" >        3 </v>
  <v type="int" >       35 </v>
  <v type="int" >        7 </v>
  <v type="int" >       28 </v>
  <v type="int" >       16 </v>
  <v type="int" >       37 </v>
  <v type="int" >       11 </v>
  <v type="int" >       24 </v>
  <v type="int" >       67 </v>
  <v type="int" >       56 </v>
  <v type="int" >       72 </v>
  <v type="int" >       13 </v>
  <v type="int" >       59 </v>
  <v type="int" >       32 </v>
  <v type="int" >       36 </v>
  <v type="int" >       19 </v>
  <v type="int" >       38 </v>
  <v type="int" >       52 </v>
  <v type="int" >       64 </v>
  <v type="int" >        4 </v>
  <v type="int" >       44 </v>
  <v type="int" >       25 </v>
  <v type="int" >       65 </v>
 </varray>
 <kpoints>
  <generation param="Gamma">
   <v type="int" name="divisions">       1        1        1 </v>
   <v name="usershift">      0.00000000       0.00000000       0.00000000 </v>
   <v name="genvec1">      1.00000000       0.00000000       0.00000000 </v>
   <v name="genvec2">      0.00000000       1.00000000       0.00000000 </v>
   <v name="genvec3">      0.00000000       0.00000000       1.00000000 </v>
   <v name="shift">      0.00000000       0.00000000       0.00000000 </v>
  </generation>
  <varray name="kpointlist" >
   <v>       0.00000000       0.00000000       0.00000000 </v>
  </varray>
  <varray name="weights" >
   <v>       1.00000000 </v>
  </varray>
 </kpoints>
 <parameters>
  <separator name="general" >
   <i type="string" name="SYSTEM">"Millerite NiS"</i>
   <i type="logical" name="LCOMPAT"> F  </i>
  </separator>
  <separator name="electronic" >
   <i type="string" name="PREC">normal</i>
   <i name="ENMAX">    450.00000000</i>
   <i name="ENAUG">    703.44300000</i>
   <i name="EDIFF">      0.00010000</i>
   <i type="int" name="IALGO">    38</i>
   <i type="int" name="IWAVPR">    10</i>
   <i type="int" name="NBANDS">   476</i>
   <i name="NELECT">    792.00000000</i>
   <i type="int" name="TURBO">     0</i>
   <i type="int" name="IRESTART">     0</i>
   <i type="int" name="NREBOOT">     0</i>
   <i type="int" name="NMIN">     0</i>
   <i name="EREF">      0.00000000</i>
   <separator name="electronic smearing" >
    <i type="int" name="ISMEAR">     0</i>
    <i name="SIGMA">      0.20000000</i>
    <i name="KSPACING">      0.50000000</i>
    <i type="logical" name="KGAMMA"> T  </i>
   </separator>
   <separator name="electronic projectors" >
    <i type="logical" name="LREAL"> T  </i>
    <v name="ROPT">     -0.00050000     -0.00050000</v>
    <i type="int" name="LMAXPAW">  -100</i>
    <i type="int" name="LMAXMIX">     2</i>
    <i type="logical" name="NLSPLINE"> F  </i>
   </separator>
   <separator name="electronic startup" >
    <i type="int" name="ISTART">     0</i>
    <i type="int" name="ICHARG">     2</i>
    <i type="int" name="INIWAV">     1</i>
   </separator>
   <separator name="electronic spin" >
    <i type="int" name="ISPIN">     1</i>
    <i type="logical" name="LNONCOLLINEAR"> F  </i>
    <v name="MAGMOM">      1.00000000      1.00000000      1.00000000      1.00000000      1.00000000      1.00000000      1.00000000      1.00000000      1.00000000      1.00000000      1.00000000      1.00000000      1.00000000      1.00000000      1.00000000      1.00000000      1.00000000      1.00000000      1.00000000      1.00000000
      1.00000000      1.00000000      1.00000000      1.00000000      1.00000000      1.00000000      1.00000000      1.00000000      1.00000000      1.00000000      1.00000000      1.00000000      1.00000000      1.00000000      1.00000000      1.00000000      1.00000000      1.00000000      1.00000000      1.00000000
      1.00000000      1.00000000      1.00000000      1.00000000      1.00000000      1.00000000      1.00000000      1.00000000      1.00000000      1.00000000      1.00000000      1.00000000      1.00000000      1.00000000      1.00000000      1.00000000      1.00000000      1.00000000      1.00000000      1.00000000
      1.00000000      1.00000000      1.00000000      1.00000000      1.00000000      1.00000000      1.00000000      1.00000000      1.00000000      1.00000000      1.00000000      1.00000000</v>
    <i name="NUPDOWN">     -1.00000000</i>
    <i type="logical" name="LSORBIT"> F  </i>
    <v name="SAXIS">      0.00000000      0.00000000      1.00000000</v>
    <i type="logical" name="LSPIRAL"> F  </i>
    <v name="QSPIRAL">      0.00000000      0.00000000      0.00000000</v>
    <i type="logical" name="LZEROZ"> F  </i>
   </separator>
   <separator name="electronic exchange-correlation" >
    <i type="logical" name="LASPH"> F  </i>
    <i type="logical" name="LMETAGGA"> F  </i>
   </separator>
   <separator name="electronic convergence" >
    <i type="int" name="NELM">   100</i>
    <i type="int" name="NELMDL">    -5</i>
    <i type="int" name="NELMIN">     2</i>
    <i name="ENINI">    450.00000000</i>
    <separator name="electronic convergence detail" >
     <i type="logical" name="LDIAG"> T  </i>
     <i type="logical" name="LSUBROT"> F  </i>
     <i name="WEIMIN">      0.00000000</i>
     <i name="EBREAK">      0.00000005</i>
     <i name="DEPER">      0.30000000</i>
     <i type="int" name="NRMM">     4</i>
     <i name="TIME">      0.40000000</i>
    </separator>
   </separator>
   <separator name="electronic mixer" >
    <i name="AMIX">      0.40000000</i>
    <i name="BMIX">      1.00000000</i>
    <i name="AMIN">      0.10000000</i>
    <i name="AMIX_MAG">      1.60000000</i>
    <i name="BMIX_MAG">      1.00000000</i>
    <separator name="electronic mixer details" >
     <i type="int" name="IMIX">     4</i>
     <i type="logical" name="MIXFIRST"> F  </i>
     <i type="int" name="MAXMIX">   -45</i>
     <i name="WC">    100.00000000</i>
     <i type="int" name="INIMIX">     1</i>
     <i type="int" name="MIXPRE">     1</i>
     <i type="int" name="MREMOVE">     5</i>
    </separator>
   </separator>
   <separator name="electronic dipolcorrection" >
    <i type="logical" name="LDIPOL"> F  </i>
    <i type="logical" name="LMONO"> F  </i>
    <i type="int" name="IDIPOL">     0</i>
    <i name="EPSILON">      1.00000000</i>
    <v name="DIPOL">   -100.00000000   -100.00000000   -100.00000000</v>
    <i name="EFIELD">      0.00000000</i>
   </separator>
  </separator>
  <separator name="grids" >
   <i type="int" name="NGX">    54</i>
   <i type="int" name="NGY">    54</i>
   <i type="int" name="NGZ">   108</i>
   <i type="int" name="NGXF">   108</i>
   <i type="int" name="NGYF">   108</i>
   <i type="int" name="NGZF">   216</i>
   <i type="logical" name="ADDGRID"> F  </i>
  </separator>
  <separator name="ionic" >
   <i type="int" name="NSW">     0</i>
   <i type="int" name="IBRION">    -1</i>
   <i type="int" name="MDALGO">     0</i>
   <i type="int" name="ISIF">     2</i>
   <i name="PSTRESS">      0.00000000</i>
   <i name="EDIFFG">      0.00100000</i>
   <i type="int" name="NFREE">     0</i>
   <i name="POTIM">      0.50000000</i>
   <i name="SMASS">     -3.00000000</i>
   <i name="SCALEE">      1.00000000</i>
  </separator>
  <separator name="ionic md" >
   <i name="TEBEG">      0.00010000</i>
   <i name="TEEND">      0.00010000</i>
   <i type="int" name="NBLOCK">     1</i>
   <i type="int" name="KBLOCK">     1</i>
   <i type="int" name="NPACO">   256</i>
   <i name="APACO">     16.00000000</i>
  </separator>
  <separator name="symmetry" >
   <i type="int" name="ISYM">     2</i>
   <i name="SYMPREC">      0.00001000</i>
  </separator>
  <separator name="dos" >
   <i type="int" name="LORBIT">     0</i>
   <v name="RWIGS">     -1.00000000     -1.00000000</v>
   <i type="int" name="NEDOS">   301</i>
   <i name="EMIN">     10.00000000</i>
   <i name="EMAX">    -10.00000000</i>
   <i name="EFERMI">      0.00000000</i>
  </separator>
  <separator name="writing" >
   <i type="int" name="NWRITE">     2</i>
   <i type="logical" name="LWAVE"> F  </i>
   <i type="logical" name="LDOWNSAMPLE"> F  </i>
   <i type="logical" name="LCHARG"> F  </i>
   <i type="logical" name="LPARD"> F  </i>
   <i type="logical" name="LVTOT"> F  </i>
   <i type="logical" name="LVHAR"> F  </i>
   <i type="logical" name="LELF"> F  </i>
   <i type="logical" name="LOPTICS"> F  </i>
   <v name="STM">      0.00000000      0.00000000      0.00000000      0.00000000      0.00000000      0.00000000      0.00000000</v>
  </separator>
  <separator name="performance" >
   <i type="int" name="NPAR">     2</i>
   <i type="int" name="NSIM">     4</i>
   <i type="int" name="NBLK">    -1</i>
   <i type="logical" name="LPLANE"> T  </i>
   <i type="logical" name="LSCALAPACK"> T  </i>
   <i type="logical" name="LSCAAWARE"> F  </i>
   <i type="logical" name="LSCALU"> F  </i>
   <i type="logical" name="LASYNC"> F  </i>
   <i type="logical" name="LORBITALREAL"> F  </i>
  </separator>
  <separator name="miscellaneous" >
   <i type="int" name="IDIOT">     3</i>
   <i type="int" name="ISPECIAL">     0</i>
   <i type="logical" name="LMUSIC"> F  </i>
   <v name="POMASS">     58.69000000     32.06600000</v>
   <v name="DARWINR">      0.00000000      0.00000000</v>
   <v name="DARWINV">      1.00000000      1.00000000</v>
   <i type="logical" name="LCORR"> T  </i>
  </separator>
  <i type="logical" name="GGA_COMPAT"> T  </i>
  <i type="logical" name="LBERRY"> F  </i>
  <i type="int" name="ICORELEVEL">     0</i>
  <i type="logical" name="LDAU"> F  </i>
  <i type="int" name="I_CONSTRAINED_M">     0</i>
  <separator name="electronic exchange-correlation" >
   <i type="string" name="GGA">--</i>
   <i type="int" name="VOSKOWN">     0</i>
   <i type="logical" name="LHFCALC"> F  </i>
   <i type="string" name="PRECFOCK"></i>
   <i type="logical" name="LSYMGRAD"> F  </i>
   <i type="logical" name="LHFONE"> F  </i>
   <i type="logical" name="LRHFCALC"> F  </i>
   <i type="logical" name="LTHOMAS"> F  </i>
   <i type="logical" name="LMODELHF"> F  </i>
   <i name="ENCUT4O">     -1.00000000</i>
   <i type="int" name="EXXOEP">     0</i>
   <i type="int" name="FOURORBIT">     0</i>
   <i name="AEXX">      0.00000000</i>
   <i name="HFALPHA">      0.00000000</i>
   <i name="MCALPHA">      0.00000000</i>
   <i name="ALDAX">      1.00000000</i>
   <i name="AGGAX">      1.00000000</i>
   <i name="ALDAC">      1.00000000</i>
   <i name="AGGAC">      1.00000000</i>
   <i type="int" name="NKREDX">     1</i>
   <i type="int" name="NKREDY">     1</i>
   <i type="int" name="NKREDZ">     1</i>
   <i type="logical" name="SHIFTRED"> F  </i>
   <i type="logical" name="ODDONLY"> F  </i>
   <i type="logical" name="EVENONLY"> F  </i>
   <i type="int" name="LMAXFOCK">     0</i>
   <i type="int" name="NMAXFOCKAE">     0</i>
   <i type="logical" name="LFOCKAEDFT"> F  </i>
   <i name="HFSCREEN">      0.00000000</i>
   <i name="HFSCREENC">      0.00000000</i>
   <i type="int" name="NBANDSGWLOW">     0</i>
  </separator>
  <separator name="vdW DFT" >
   <i type="logical" name="LUSE_VDW"> F  </i>
   <i name="Zab_VDW">     -0.84910000</i>
   <i name="PARAM1">      0.12340000</i>
   <i name="PARAM2">      1.00000000</i>
   <i name="PARAM3">      0.00000000</i>
  </separator>
  <separator name="model GW" >
   <i type="int" name="MODEL_GW">     0</i>
   <i name="MODEL_EPS0">     16.23762429</i>
   <i name="MODEL_ALPHA">      1.00000000</i>
  </separator>
  <separator name="linear response parameters" >
   <i type="logical" name="LEPSILON"> F  </i>
   <i type="logical" name="LRPA"> F  </i>
   <i type="logical" name="LNABLA"> F  </i>
   <i type="logical" name="LVEL"> F  </i>
   <i type="int" name="KINTER">     0</i>
   <i name="CSHIFT">      0.10000000</i>
   <i name="OMEGAMAX">     -1.00000000</i>
   <i name="DEG_THRESHOLD">      0.00200000</i>
   <i name="RTIME">     -0.10000000</i>
   <i name="WPLASMAI">      0.00000000</i>
   <v name="DFIELD">      0.00000000      0.00000000      0.00000000</v>
   <v name="WPLASMA">      0.00000000      0.00000000      0.00000000      0.00000000      0.00000000      0.00000000      0.00000000      0.00000000      0.00000000</v>
  </separator>
  <separator name="orbital magnetization" >
   <i type="logical" name="NUCIND"> F  </i>
   <v name="MAGPOS">      0.00000000      0.00000000      0.00000000</v>
   <i type="logical" name="LNICSALL"> T  </i>
   <i type="logical" name="ORBITALMAG"> F  </i>
   <i type="logical" name="LMAGBLOCH"> F  </i>
   <i type="logical" name="LCHIMAG"> F  </i>
   <i type="logical" name="LGAUGE"> T  </i>
   <i type="int" name="MAGATOM">     0</i>
   <v name="MAGDIPOL">      0.00000000      0.00000000      0.00000000</v>
   <v name="AVECCONST">      0.00000000      0.00000000      0.00000000</v>
  </separator>
  <separator name="response functions" >
   <i type="logical" name="LADDER"> F  </i>
   <i type="logical" name="LRPAFORCE"> F  </i>
   <i type="logical" name="LFXC"> F  </i>
   <i type="logical" name="LHARTREE"> T  </i>
   <i type="int" name="IBSE">     0</i>
   <v type="int" name="KPOINT">    -1     0     0     0</v>
   <i type="logical" name="LTCTE"> F  </i>
   <i type="logical" name="LTETE"> F  </i>
   <i type="logical" name="LTRIPLET"> F  </i>
   <i type="logical" name="LFXCEPS"> F  </i>
   <i type="logical" name="LFXHEG"> F  </i>
   <i type="int" name="NATURALO">     2</i>
   <i type="logical" name="L2ORDER"> F  </i>
   <i type="logical" name="LMP2LT"> F  </i>
   <i type="logical" name="LUSEW"> F  </i>
   <i name="ENCUTGW">     -2.00000000</i>
   <i name="ENCUTGWSOFT">     -2.00000000</i>
   <i name="ENCUTLF">     -1.00000000</i>
   <i type="int" name="LMAXMP2">    -1</i>
   <i name="SCISSOR">      0.00000000</i>
   <i type="int" name="NOMEGA">     0</i>
   <i type="int" name="NOMEGAR">     0</i>
   <i type="int" name="NBANDSGW">    -1</i>
   <i type="int" name="NBANDSO">    -1</i>
   <i type="int" name="NBANDSV">    -1</i>
   <i type="int" name="NELM">   100</i>
   <i type="int" name="NELMHF">     1</i>
   <i type="int" name="DIM">     3</i>
   <i type="int" name="ANTIRES">     0</i>
   <i name="OMEGAMAX">    -30.00000000</i>
   <i name="OMEGAMIN">    -30.00000000</i>
   <i name="OMEGATL">   -200.00000000</i>
   <i type="int" name="OMEGAGRID">   140</i>
   <i name="CSHIFT">     -0.10000000</i>
   <i type="logical" name="SELFENERGY"> F  </i>
   <i type="logical" name="LSPECTRAL"> F  </i>
   <i type="logical" name="LSPECTRALGW"> F  </i>
   <i type="logical" name="LSINGLES"> F  </i>
   <i type="logical" name="LFERMIGW"> F  </i>
   <i type="logical" name="ODDONLYGW"> F  </i>
   <i type="logical" name="EVENONLYGW"> F  </i>
   <i type="int" name="NKREDLFX">     1</i>
   <i type="int" name="NKREDLFY">     1</i>
   <i type="int" name="NKREDLFZ">     1</i>
   <i type="int" name="MAXMEM">  2800</i>
   <i type="int" name="TELESCOPE">     0</i>
   <i type="int" name="TAUPAR">     1</i>
   <i type="int" name="OMEGAPAR">    -1</i>
   <i name="LAMBDA">      1.00000000</i>
  </separator>
  <separator name="External order field" >
   <i name="OFIELD_KAPPA">      0.00000000</i>
   <v name="OFIELD_K">      0.00000000      0.00000000      0.00000000</v>
   <i name="OFIELD_Q6_NEAR">      0.00000000</i>
   <i name="OFIELD_Q6_FAR">      0.00000000</i>
   <i name="OFIELD_A">      0.00000000</i>
  </separator>
 </parameters>
 <atominfo>
  <atoms>      72 </atoms>
  <types>       2 </types>
  <array name="atoms" >
   <dimension dim="1">ion</dimension>
   <field type="string">element</field>
   <field type="int">atomtype</field>
   <set>
    <rc><c>Ni</c><c>   1</c></rc>
    <rc><c>Ni</c><c>   1</c></rc>
    <rc><c>Ni</c><c>   1</c></rc>
    <rc><c>Ni</c><c>   1</c></rc>
    <rc><c>Ni</c><c>   1</c></rc>
    <rc><c>Ni</c><c>   1</c></rc>
    <rc><c>Ni</c><c>   1</c></rc>
    <rc><c>Ni</c><c>   1</c></rc>
    <rc><c>Ni</c><c>   1</c></rc>
    <rc><c>Ni</c><c>   1</c></rc>
    <rc><c>Ni</c><c>   1</c></rc>
    <rc><c>Ni</c><c>   1</c></rc>
    <rc><c>Ni</c><c>   1</c></rc>
    <rc><c>Ni</c><c>   1</c></rc>
    <rc><c>Ni</c><c>   1</c></rc>
    <rc><c>Ni</c><c>   1</c></rc>
    <rc><c>Ni</c><c>   1</c></rc>
    <rc><c>Ni</c><c>   1</c></rc>
    <rc><c>Ni</c><c>   1</c></rc>
    <rc><c>Ni</c><c>   1</c></rc>
    <rc><c>Ni</c><c>   1</c></rc>
    <rc><c>Ni</c><c>   1</c></rc>
    <rc><c>Ni</c><c>   1</c></rc>
    <rc><c>Ni</c><c>   1</c></rc>
    <rc><c>Ni</c><c>   1</c></rc>
    <rc><c>Ni</c><c>   1</c></rc>
    <rc><c>Ni</c><c>   1</c></rc>
    <rc><c>Ni</c><c>   1</c></rc>
    <rc><c>Ni</c><c>   1</c></rc>
    <rc><c>Ni</c><c>   1</c></rc>
    <rc><c>Ni</c><c>   1</c></rc>
    <rc><c>Ni</c><c>   1</c></rc>
    <rc><c>Ni</c><c>   1</c></rc>
    <rc><c>Ni</c><c>   1</c></rc>
    <rc><c>Ni</c><c>   1</c></rc>
    <rc><c>Ni</c><c>   1</c></rc>
    <rc><c>S </c><c>   2</c></rc>
    <rc><c>S </c><c>   2</c></rc>
    <rc><c>S </c><c>   2</c></rc>
    <rc><c>S </c><c>   2</c></rc>
    <rc><c>S </c><c>   2</c></rc>
    <rc><c>S </c><c>   2</c></rc>
    <rc><c>S </c><c>   2</c></rc>
    <rc><c>S </c><c>   2</c></rc>
    <rc><c>S </c><c>   2</c></rc>
    <rc><c>S </c><c>   2</c></rc>
    <rc><c>S </c><c>   2</c></rc>
    <rc><c>S </c><c>   2</c></rc>
    <rc><c>S </c><c>   2</c></rc>
    <rc><c>S </c><c>   2</c></rc>
    <rc><c>S </c><c>   2</c></rc>
    <rc><c>S </c><c>   2</c></rc>
    <rc><c>S </c><c>   2</c></rc>
    <rc><c>S </c><c>   2</c></rc>
    <rc><c>S </c><c>   2</c></rc>
    <rc><c>S </c><c>   2</c></rc>
    <rc><c>S </c><c>   2</c></rc>
    <rc><c>S </c><c>   2</c></rc>
    <rc><c>S </c><c>   2</c></rc>
    <rc><c>S </c><c>   2</c></rc>
    <rc><c>S </c><c>   2</c></rc>
    <rc><c>S </c><c>   2</c></rc>
    <rc><c>S </c><c>   2</c></rc>
    <rc><c>S </c><c>   2</c></rc>
    <rc><c>S </c><c>   2</c></rc>
    <rc><c>S </c><c>   2</c></rc>
    <rc><c>S </c><c>   2</c></rc>
    <rc><c>S </c><c>   2</c></rc>
    <rc><c>S </c><c>   2</c></rc>
    <rc><c>S </c><c>   2</c></rc>
    <rc><c>S </c><c>   2</c></rc>
    <rc><c>S </c><c>   2</c></rc>
   </set>
  </array>
  <array name="atomtypes" >
   <dimension dim="1">type</dimension>
   <field type="int">atomspertype</field>
   <field type="string">element</field>
   <field>mass</field>
   <field>valence</field>
   <field type="string">pseudopotential</field>
   <set>
    <rc><c>  36</c><c>Ni</c><c>     58.69000000</c><c>     16.00000000</c><c>  PAW_PBE Ni_pv 06Sep2000               </c></rc>
    <rc><c>  36</c><c>S </c><c>     32.06600000</c><c>      6.00000000</c><c>  PAW_PBE S 06Sep2000                   </c></rc>
   </set>
  </array>
 </atominfo>
 <structure name="initialpos" >
  <crystal>
   <varray name="basis" >
    <v>      10.07973298       0.00000000       0.00000000 </v>
    <v>       3.57329804       9.42510255       0.00000000 </v>
    <v>       0.00000000       0.00000000      20.51013988 </v>
   </varray>
   <i name="volume">   1948.51491473 </i>
   <varray name="rec_basis" >
    <v>       0.09920898      -0.03761267       0.00000000 </v>
    <v>       0.00000000       0.10609964       0.00000000 </v>
    <v>       0.00000000       0.00000000       0.04875637 </v>
   </varray>
  </crystal>
  <varray name="positions" >
   <v>       0.37433215       0.75136220       0.09511235 </v>
   <v>       0.52460066       0.60109368       0.22312232 </v>
   <v>       0.67486918       0.45082517       0.35113229 </v>
   <v>       0.73739746       0.35520551       0.46232320 </v>
   <v>       0.57248201       0.21008246       0.07963334 </v>
   <v>       0.75775499       0.03460603       0.13778234 </v>
   <v>       0.06607992       0.73734996       0.38421915 </v>
   <v>       0.90802350       0.88433751       0.26579231 </v>
   <v>       0.11380098       0.29497664       0.23990871 </v>
   <v>       0.29144634       0.16758134       0.30846230 </v>
   <v>       0.41851454       0.03379960       0.42340338 </v>
   <v>       0.93954056       0.62149017       0.10393365 </v>
   <v>       0.00994000       0.11575434       0.41150025 </v>
   <v>       0.56838797       0.58535840       0.04898884 </v>
   <v>       0.70940298       0.41629137       0.15548031 </v>
   <v>       0.85967149       0.26602286       0.28349028 </v>
   <v>       0.09282582       0.69953520       0.19815030 </v>
   <v>       0.24309433       0.54926669       0.32616027 </v>
   <v>       0.42609705       0.38836345       0.44245240 </v>
   <v>       0.94255730       0.84980371       0.07014033 </v>
   <v>       0.48146330       0.00569989       0.09846781 </v>
   <v>       0.47624865       0.98277903       0.24082029 </v>
   <v>       0.61164085       0.84063054       0.35499779 </v>
   <v>       0.59386418       0.61726186       0.44031839 </v>
   <v>       0.02381101       0.33563748       0.43801665 </v>
   <v>       0.69047030       0.79233647       0.09511855 </v>
   <v>       0.74910482       0.64079553       0.18930132 </v>
   <v>       0.89937333       0.49052701       0.31731128 </v>
   <v>       0.98722802       0.05613499       0.11967842 </v>
   <v>       0.13252766       0.92403936       0.23197130 </v>
   <v>       0.28279617       0.77377084       0.35998128 </v>
   <v>       0.33685790       0.63418527       0.46819910 </v>
   <v>       0.18132774       0.66157308       0.06951833 </v>
   <v>       0.36568198       0.35755170       0.14663132 </v>
   <v>       0.51595050       0.20728318       0.27464130 </v>
   <v>       0.65129074       0.08458188       0.38496047 </v>
   <v>       0.06382158       0.26208477       0.34135992 </v>
   <v>       0.19956837       0.13696021       0.44573062 </v>
   <v>       0.76328455       0.56262179       0.08533998 </v>
   <v>       0.91355306       0.41235328       0.21334995 </v>
   <v>       0.14670739       0.84586562       0.12800997 </v>
   <v>       0.29697590       0.69559711       0.25601994 </v>
   <v>       0.44724441       0.54532860       0.38402991 </v>
   <v>       0.53740419       0.48151172       0.50342490 </v>
   <v>       0.97215487       0.01410873       0.02491531 </v>
   <v>       0.36703129       0.22035626       0.07185933 </v>
   <v>       0.53013023       0.12910945       0.17067996 </v>
   <v>       0.68039874       0.97884094       0.29868993 </v>
   <v>       0.50945640       0.81663766       0.03840130 </v>
   <v>       0.52796422       0.79794212       0.17147277 </v>
   <v>       0.67823274       0.64767361       0.29948274 </v>
   <v>       0.82850125       0.49740510       0.42749271 </v>
   <v>       0.77257989       0.22560483       0.10290689 </v>
   <v>       0.91138706       0.08118595       0.21414276 </v>
   <v>       0.06165557       0.93091744       0.34215273 </v>
   <v>       0.17577319       0.81999015       0.45000815 </v>
   <v>       0.14454139       0.51469829       0.12880278 </v>
   <v>       0.29480990       0.36442978       0.25681275 </v>
   <v>       0.44507841       0.21416127       0.38482272 </v>
   <v>       0.00702249       0.67018592       0.01437696 </v>
   <v>       0.36084855       0.63691321       0.01412767 </v>
   <v>       0.47740939       0.51206696       0.12840637 </v>
   <v>       0.62767790       0.36179845       0.25641634 </v>
   <v>       0.77794641       0.21152993       0.38442632 </v>
   <v>       0.93254605       0.22529698       0.49632030 </v>
   <v>       0.01110074       0.64504227       0.29908634 </v>
   <v>       0.20144705       0.53696283       0.42591103 </v>
   <v>       0.67510878       0.99054606       0.05069476 </v>
   <v>       0.86083223       0.79531079       0.17107636 </v>
   <v>       0.24425506       0.07855462       0.21374635 </v>
   <v>       0.39452358       0.92828611       0.34175632 </v>
   <v>       0.55904271       0.83243447       0.45155937 </v>
  </varray>
 </structure>
 <calculation>
  <scstep>
   <time name="dav">    6.99    7.00</time>
   <time name="total">    7.28    7.28</time>
   <energy>
    <i name="alphaZ">   1909.09476555 </i>
    <i name="ewald"> 211821.88467640 </i>
    <i name="hartreedc">-334041.42367013 </i>
    <i name="XCdc">   3682.47554465 </i>
    <i name="pawpsdc"> 112729.53333415 </i>
    <i name="pawaedc">-117641.51188735 </i>
    <i name="eentropy">     -0.44567482 </i>
    <i name="bandstr">  -4464.10928742 </i>
    <i name="atom"> 136002.60505376 </i>
    <i name="e_fr_energy">   9998.10285480 </i>
    <i name="e_wo_entrp">   9998.54852962 </i>
    <i name="e_0_energy">   9998.32569221 </i>
   </energy>
  </scstep>
  <scstep>
   <time name="dav">    6.11    6.12</time>
   <time name="total">    6.11    6.12</time>
   <energy>
    <i name="e_fr_energy">    623.97334891 </i>
    <i name="e_wo_entrp">    624.67772309 </i>
    <i name="e_0_energy">    624.32553600 </i>
   </energy>
  </scstep>
  <scstep>
   <time name="dav">    6.59    6.60</time>
   <time name="total">    6.59    6.60</time>
   <energy>
    <i name="e_fr_energy">   -337.30876502 </i>
    <i name="e_wo_entrp">   -336.27437746 </i>
    <i name="e_0_energy">   -336.79157124 </i>
   </energy>
  </scstep>
  <scstep>
   <time name="dav">    6.57    6.57</time>
   <time name="total">    6.57    6.57</time>
   <energy>
    <i name="e_fr_energy">   -394.62418908 </i>
    <i name="e_wo_entrp">   -393.57411297 </i>
    <i name="e_0_energy">   -394.09915102 </i>
   </energy>
  </scstep>
  <scstep>
   <time name="dav">    7.34    7.34</time>
   <time name="total">    7.57    7.57</time>
   <energy>
    <i name="e_fr_energy">   -396.83145382 </i>
    <i name="e_wo_entrp">   -395.78252495 </i>
    <i name="e_0_energy">   -396.30698939 </i>
   </energy>
  </scstep>
  <scstep>
   <time name="dav">    6.91    6.91</time>
   <time name="total">    7.39    7.40</time>
   <energy>
    <i name="e_fr_energy">   -456.82700868 </i>
    <i name="e_wo_entrp">   -455.96159352 </i>
    <i name="e_0_energy">   -456.39430110 </i>
   </energy>
  </scstep>
  <scstep>
   <time name="dav">    6.66    6.66</time>
   <time name="total">    7.14    7.15</time>
   <energy>
    <i name="e_fr_energy">   -358.36884518 </i>
    <i name="e_wo_entrp">   -357.47196522 </i>
    <i name="e_0_energy">   -357.92040520 </i>
   </energy>
  </scstep>
  <scstep>
   <time name="dav">    7.54    7.54</time>
   <time name="total">    8.02    8.03</time>
   <energy>
    <i name="e_fr_energy">   -446.48653365 </i>
    <i name="e_wo_entrp">   -445.78489128 </i>
    <i name="e_0_energy">   -446.13571247 </i>
   </energy>
  </scstep>
  <scstep>
   <time name="dav">    7.02    7.03</time>
   <time name="total">    7.51    7.51</time>
   <energy>
    <i name="e_fr_energy">   -377.67503115 </i>
    <i name="e_wo_entrp">   -376.49955662 </i>
    <i name="e_0_energy">   -377.08729388 </i>
   </energy>
  </scstep>
  <scstep>
   <time name="dav">    7.90    7.91</time>
   <time name="total">    8.39    8.39</time>
   <energy>
    <i name="e_fr_energy">   -389.66889005 </i>
    <i name="e_wo_entrp">   -388.57281854 </i>
    <i name="e_0_energy">   -389.12085430 </i>
   </energy>
  </scstep>
  <scstep>
   <time name="dav">    7.44    7.44</time>
   <time name="total">    7.93    7.93</time>
   <energy>
    <i name="e_fr_energy">   -376.97922967 </i>
    <i name="e_wo_entrp">   -375.85018538 </i>
    <i name="e_0_energy">   -376.41470753 </i>
   </energy>
  </scstep>
  <scstep>
   <time name="dav">    7.63    7.64</time>
   <time name="total">    8.12    8.12</time>
   <energy>
    <i name="e_fr_energy">   -362.56340791 </i>
    <i name="e_wo_entrp">   -361.64576278 </i>
    <i name="e_0_energy">   -362.10458535 </i>
   </energy>
  </scstep>
  <scstep>
   <time name="dav">    7.20    7.20</time>
   <time name="total">    7.68    7.69</time>
   <energy>
    <i name="e_fr_energy">   -356.52194942 </i>
    <i name="e_wo_entrp">   -355.50635351 </i>
    <i name="e_0_energy">   -356.01415147 </i>
   </energy>
  </scstep>
  <scstep>
   <time name="dav">    7.53    7.53</time>
   <time name="total">    8.13    8.13</time>
   <energy>
    <i name="e_fr_energy">   -353.89505653 </i>
    <i name="e_wo_entrp">   -352.93976612 </i>
    <i name="e_0_energy">   -353.41741132 </i>
   </energy>
  </scstep>
  <scstep>
   <time name="dav">    7.45    7.45</time>
   <time name="total">    7.94    7.94</time>
   <energy>
    <i name="e_fr_energy">   -350.71362871 </i>
    <i name="e_wo_entrp">   -349.75103329 </i>
    <i name="e_0_energy">   -350.23233100 </i>
   </energy>
  </scstep>
  <scstep>
   <time name="dav">    7.49    7.49</time>
   <time name="total">    8.19    8.19</time>
   <energy>
    <i name="e_fr_energy">   -350.14531265 </i>
    <i name="e_wo_entrp">   -349.17850786 </i>
    <i name="e_0_energy">   -349.66191025 </i>
   </energy>
  </scstep>
  <scstep>
   <time name="dav">    7.30    7.30</time>
   <time name="total">    7.80    7.80</time>
   <energy>
    <i name="e_fr_energy">   -349.81462372 </i>
    <i name="e_wo_entrp">   -348.82465304 </i>
    <i name="e_0_energy">   -349.31963838 </i>
   </energy>
  </scstep>
  <scstep>
   <time name="dav">    7.41    7.41</time>
   <time name="total">    7.90    7.90</time>
   <energy>
    <i name="e_fr_energy">   -349.61192094 </i>
    <i name="e_wo_entrp">   -348.60856087 </i>
    <i name="e_0_energy">   -349.11024090 </i>
   </energy>
  </scstep>
  <scstep>
   <time name="dav">    7.57    7.57</time>
   <time name="total">    8.15    8.15</time>
   <energy>
    <i name="e_fr_energy">   -349.32928224 </i>
    <i name="e_wo_entrp">   -348.33586323 </i>
    <i name="e_0_energy">   -348.83257274 </i>
   </energy>
  </scstep>
  <scstep>
   <time name="dav">    7.47    7.47</time>
   <time name="total">    7.96    7.97</time>
   <energy>
    <i name="e_fr_energy">   -349.01660481 </i>
    <i name="e_wo_entrp">   -348.00136844 </i>
    <i name="e_0_energy">   -348.50898663 </i>
   </energy>
  </scstep>
  <scstep>
   <time name="dav">    7.83    7.83</time>
   <time name="total">    8.33    8.33</time>
   <energy>
    <i name="e_fr_energy">   -348.80154267 </i>
    <i name="e_wo_entrp">   -347.79132775 </i>
    <i name="e_0_energy">   -348.29643521 </i>
   </energy>
  </scstep>
  <scstep>
   <time name="dav">    7.01    7.01</time>
   <time name="total">    7.51    7.51</time>
   <energy>
    <i name="e_fr_energy">   -348.77530253 </i>
    <i name="e_wo_entrp">   -347.76131442 </i>
    <i name="e_0_energy">   -348.26830847 </i>
   </energy>
  </scstep>
  <scstep>
   <time name="dav">    6.38    6.38</time>
   <time name="total">    6.88    6.88</time>
   <energy>
    <i name="e_fr_energy">   -348.76898827 </i>
    <i name="e_wo_entrp">   -347.75563838 </i>
    <i name="e_0_energy">   -348.26231332 </i>
   </energy>
  </scstep>
  <scstep>
   <time name="dav">    7.27    7.27</time>
   <time name="total">    7.77    7.77</time>
   <energy>
    <i name="e_fr_energy">   -348.76213823 </i>
    <i name="e_wo_entrp">   -347.75490539 </i>
    <i name="e_0_energy">   -348.25852181 </i>
   </energy>
  </scstep>
  <scstep>
   <time name="dav">    7.15    7.15</time>
   <time name="total">    7.65    7.65</time>
   <energy>
    <i name="e_fr_energy">   -348.75377675 </i>
    <i name="e_wo_entrp">   -347.74191214 </i>
    <i name="e_0_energy">   -348.24784444 </i>
   </energy>
  </scstep>
  <scstep>
   <time name="dav">    7.59    7.59</time>
   <time name="total">    8.11    8.11</time>
   <energy>
    <i name="e_fr_energy">   -348.73713596 </i>
    <i name="e_wo_entrp">   -347.73384285 </i>
    <i name="e_0_energy">   -348.23548941 </i>
   </energy>
  </scstep>
  <scstep>
   <time name="dav">    7.34    7.34</time>
   <time name="total">    7.85    7.85</time>
   <energy>
    <i name="e_fr_energy">   -348.73269072 </i>
    <i name="e_wo_entrp">   -347.73578270 </i>
    <i name="e_0_energy">   -348.23423671 </i>
   </energy>
  </scstep>
  <scstep>
   <time name="dav">    6.71    6.71</time>
   <time name="total">    7.22    7.22</time>
   <energy>
    <i name="e_fr_energy">   -348.72844261 </i>
    <i name="e_wo_entrp">   -347.73282733 </i>
    <i name="e_0_energy">   -348.23063497 </i>
   </energy>
  </scstep>
  <scstep>
   <time name="dav">    7.38    7.38</time>
   <time name="total">    7.89    7.89</time>
   <energy>
    <i name="e_fr_energy">   -348.72697331 </i>
    <i name="e_wo_entrp">   -347.73125355 </i>
    <i name="e_0_energy">   -348.22911343 </i>
   </energy>
  </scstep>
  <scstep>
   <time name="dav">    6.65    6.65</time>
   <time name="total">    7.16    7.16</time>
   <energy>
    <i name="e_fr_energy">   -348.72257390 </i>
    <i name="e_wo_entrp">   -347.72585477 </i>
    <i name="e_0_energy">   -348.22421433 </i>
   </energy>
  </scstep>
  <scstep>
   <time name="dav">    7.34    7.34</time>
   <time name="total">    7.91    7.91</time>
   <energy>
    <i name="e_fr_energy">   -348.72090311 </i>
    <i name="e_wo_entrp">   -347.72433770 </i>
    <i name="e_0_energy">   -348.22262041 </i>
   </energy>
  </scstep>
  <scstep>
   <time name="dav">    6.58    6.58</time>
   <time name="total">    7.09    7.09</time>
   <energy>
    <i name="e_fr_energy">   -348.71875408 </i>
    <i name="e_wo_entrp">   -347.72041163 </i>
    <i name="e_0_energy">   -348.21958285 </i>
   </energy>
  </scstep>
  <scstep>
   <time name="dav">    6.33    6.33</time>
   <time name="total">    6.84    6.84</time>
   <energy>
    <i name="e_fr_energy">   -348.71859639 </i>
    <i name="e_wo_entrp">   -347.72087808 </i>
    <i name="e_0_energy">   -348.21973723 </i>
   </energy>
  </scstep>
  <scstep>
   <time name="dav">    6.30    6.30</time>
   <time name="total">    6.89    6.89</time>
   <energy>
    <i name="e_fr_energy">   -348.71826988 </i>
    <i name="e_wo_entrp">   -347.71998510 </i>
    <i name="e_0_energy">   -348.21912749 </i>
   </energy>
  </scstep>
  <scstep>
   <time name="dav">    6.06    6.06</time>
   <time name="total">    6.33    6.33</time>
   <energy>
    <i name="alphaZ">   1909.09476555 </i>
    <i name="ewald"> 211821.88467640 </i>
    <i name="hartreedc">-333289.15025019 </i>
    <i name="XCdc">   3652.74630724 </i>
    <i name="pawpsdc"> 139615.04616865 </i>
    <i name="pawaedc">-144603.31754882 </i>
    <i name="eentropy">     -0.99841025 </i>
    <i name="bandstr"> -15456.62912457 </i>
    <i name="atom"> 136002.60505376 </i>
    <i name="e_fr_energy">   -348.71836223 </i>
    <i name="e_wo_entrp">   -347.71995198 </i>
    <i name="e_0_energy">   -348.21915711 </i>
   </energy>
  </scstep>
  <structure>
   <crystal>
    <varray name="basis" >
     <v>      10.07973298       0.00000000       0.00000000 </v>
     <v>       3.57329804       9.42510255       0.00000000 </v>
     <v>       0.00000000       0.00000000      20.51013988 </v>
    </varray>
    <i name="volume">   1948.51491473 </i>
    <varray name="rec_basis" >
     <v>       0.09920898      -0.03761267       0.00000000 </v>
     <v>       0.00000000       0.10609964       0.00000000 </v>
     <v>       0.00000000       0.00000000       0.04875637 </v>
    </varray>
   </crystal>
   <varray name="positions" >
    <v>       0.37433215       0.75136220       0.09511235 </v>
    <v>       0.52460066       0.60109368       0.22312232 </v>
    <v>       0.67486918       0.45082517       0.35113229 </v>
    <v>       0.73739746       0.35520551       0.46232320 </v>
    <v>       0.57248201       0.21008246       0.07963334 </v>
    <v>       0.75775499       0.03460603       0.13778234 </v>
    <v>       0.06607992       0.73734996       0.38421915 </v>
    <v>       0.90802350       0.88433751       0.26579231 </v>
    <v>       0.11380098       0.29497664       0.23990871 </v>
    <v>       0.29144634       0.16758134       0.30846230 </v>
    <v>       0.41851454       0.03379960       0.42340338 </v>
    <v>       0.93954056       0.62149017       0.10393365 </v>
    <v>       0.00994000       0.11575434       0.41150025 </v>
    <v>       0.56838797       0.58535840       0.04898884 </v>
    <v>       0.70940298       0.41629137       0.15548031 </v>
    <v>       0.85967149       0.26602286       0.28349028 </v>
    <v>       0.09282582       0.69953520       0.19815030 </v>
    <v>       0.24309433       0.54926669       0.32616027 </v>
    <v>       0.42609705       0.38836345       0.44245240 </v>
    <v>       0.94255730       0.84980371       0.07014033 </v>
    <v>       0.48146330       0.00569989       0.09846781 </v>
    <v>       0.47624865       0.98277903       0.24082029 </v>
    <v>       0.61164085       0.84063054       0.35499779 </v>
    <v>       0.59386418       0.61726186       0.44031839 </v>
    <v>       0.02381101       0.33563748       0.43801665 </v>
    <v>       0.69047030       0.79233647       0.09511855 </v>
    <v>       0.74910482       0.64079553       0.18930132 </v>
    <v>       0.89937333       0.49052701       0.31731128 </v>
    <v>       0.98722802       0.05613499       0.11967842 </v>
    <v>       0.13252766       0.92403936       0.23197130 </v>
    <v>       0.28279617       0.77377084       0.35998128 </v>
    <v>       0.33685790       0.63418527       0.46819910 </v>
    <v>       0.18132774       0.66157308       0.06951833 </v>
    <v>       0.36568198       0.35755170       0.14663132 </v>
    <v>       0.51595050       0.20728318       0.27464130 </v>
    <v>       0.65129074       0.08458188       0.38496047 </v>
    <v>       0.06382158       0.26208477       0.34135992 </v>
    <v>       0.19956837       0.13696021       0.44573062 </v>
    <v>       0.76328455       0.56262179       0.08533998 </v>
    <v>       0.91355306       0.41235328       0.21334995 </v>
    <v>       0.14670739       0.84586562       0.12800997 </v>
    <v>       0.29697590       0.69559711       0.25601994 </v>
    <v>       0.44724441       0.54532860       0.38402991 </v>
    <v>       0.53740419       0.48151172       0.50342490 </v>
    <v>       0.97215487       0.01410873       0.02491531 </v>
    <v>       0.36703129       0.22035626       0.07185933 </v>
    <v>       0.53013023       0.12910945       0.17067996 </v>
    <v>       0.68039874       0.97884094       0.29868993 </v>
    <v>       0.50945640       0.81663766       0.03840130 </v>
    <v>       0.52796422       0.79794212       0.17147277 </v>
    <v>       0.67823274       0.64767361       0.29948274 </v>
    <v>       0.82850125       0.49740510       0.42749271 </v>
    <v>       0.77257989       0.22560483       0.10290689 </v>
    <v>       0.91138706       0.08118595       0.21414276 </v>
    <v>       0.06165557       0.93091744       0.34215273 </v>
    <v>       0.17577319       0.81999015       0.45000815 </v>
    <v>       0.14454139       0.51469829       0.12880278 </v>
    <v>       0.29480990       0.36442978       0.25681275 </v>
    <v>       0.44507841       0.21416127       0.38482272 </v>
    <v>       0.00702249       0.67018592       0.01437696 </v>
    <v>       0.36084855       0.63691321       0.01412767 </v>
    <v>       0.47740939       0.51206696       0.12840637 </v>
    <v>       0.62767790       0.36179845       0.25641634 </v>
    <v>       0.77794641       0.21152993       0.38442632 </v>
    <v>       0.93254605       0.22529698       0.49632030 </v>
    <v>       0.01110074       0.64504227       0.29908634 </v>
    <v>       0.20144705       0.53696283       0.42591103 </v>
    <v>       0.67510878       0.99054606       0.05069476 </v>
    <v>       0.86083223       0.79531079       0.17107636 </v>
    <v>       0.24425506       0.07855462       0.21374635 </v>
    <v>       0.39452358       0.92828611       0.34175632 </v>
    <v>       0.55904271       0.83243447       0.45155937 </v>
   </varray>
  </structure>
  <varray name="forces" >
   <v>      -0.85049589       1.58042264       2.27260632 </v>
   <v>       0.05277167      -0.14007720       0.13983570 </v>
   <v>       0.19051840      -0.30001106      -0.96696497 </v>
   <v>      -1.37302401       0.36754904       0.80904071 </v>
   <v>       0.92318924       0.97414722      -1.33380803 </v>
   <v>       0.52050432      -1.15141142       2.29681856 </v>
   <v>      -1.39976728       0.06332356       0.27693582 </v>
   <v>       0.04109432       0.10951800       0.50907799 </v>
   <v>       0.51028034       0.07438297      -0.51661621 </v>
   <v>       1.06909533      -0.86455304       0.62952086 </v>
   <v>      -0.10653980       0.11878427       1.13594738 </v>
   <v>      -1.09759207      -0.36457622      -0.22883497 </v>
   <v>      -1.03471769      -1.73721356      -1.80604020 </v>
   <v>       0.08506869      -0.87973354      -1.33082897 </v>
   <v>      -0.07096390       0.32326098       0.99464402 </v>
   <v>      -0.16024712      -0.11173227      -0.05033769 </v>
   <v>       0.34810682      -0.13811063       0.58449240 </v>
   <v>       0.83508799      -0.37746041      -1.44651051 </v>
   <v>      -0.69538932      -0.95806567       0.67480445 </v>
   <v>      -1.21638527       0.60836182       0.52186219 </v>
   <v>      -1.61074195      -0.92906779       0.13273146 </v>
   <v>      -0.38855202      -0.00001158       0.00126212 </v>
   <v>       0.86798206      -0.51924106      -0.42322285 </v>
   <v>       0.70019503       0.41619356       0.07581217 </v>
   <v>       2.08623961       1.82247243       0.56433430 </v>
   <v>       0.24680764       0.11972560       0.34456565 </v>
   <v>      -0.11119129      -0.38058700       1.16489432 </v>
   <v>       0.17754626       0.17372386       0.14247099 </v>
   <v>       0.59327468       0.77799565       0.00329474 </v>
   <v>       0.23344402      -0.27196700       0.08021325 </v>
   <v>       1.20613715       0.61315159      -1.64571515 </v>
   <v>       0.82511533      -0.23343689       1.34182837 </v>
   <v>       1.21382323       0.22411148      -0.69463258 </v>
   <v>      -0.22851370       0.48561592       1.18426273 </v>
   <v>       0.21018564       0.29404520       0.17524631 </v>
   <v>       0.67512217      -0.36394845       0.95859775 </v>
   <v>      -0.11195172       0.32144109      -1.38555960 </v>
   <v>       1.16463188      -0.71895766       2.36157216 </v>
   <v>       0.98323524      -2.28442486      -0.70293058 </v>
   <v>      -1.29157536       1.02498559      -0.89784561 </v>
   <v>       1.03612276       0.52037815       0.99346079 </v>
   <v>       0.16087426      -0.10844527      -0.18702148 </v>
   <v>       1.29969284       0.71678877      -3.75665733 </v>
   <v>      -0.12090188      -0.64724950       3.60531064 </v>
   <v>       0.91353716       1.45575914      -3.44024128 </v>
   <v>      -2.73641396       0.23854395      -2.41251658 </v>
   <v>       0.63537295       0.56031288       2.68575988 </v>
   <v>       0.97367446      -0.57437239      -1.86504749 </v>
   <v>      -0.35036089       1.37724434      -3.44180689 </v>
   <v>      -0.57480956       0.53292525       1.85561148 </v>
   <v>      -0.03527701      -0.36267400      -0.89447009 </v>
   <v>       0.78200035       2.42963165      -0.68707607 </v>
   <v>       1.67581591       1.40543399      -1.45329677 </v>
   <v>      -0.53363641      -0.17816721       2.24715193 </v>
   <v>      -0.36953633       0.71508030      -1.27181490 </v>
   <v>      -0.42960924       1.86760197       2.70639190 </v>
   <v>       1.33493074      -2.63562335       1.96230380 </v>
   <v>       0.50148363       0.51773103       0.08154558 </v>
   <v>      -0.87695069       1.17955894      -0.81036969 </v>
   <v>      -0.63237803      -0.52497389      -3.03828125 </v>
   <v>      -0.98164178      -0.62233429      -3.29398851 </v>
   <v>      -0.36065476      -1.05880739       1.62518940 </v>
   <v>      -0.13698658       0.12731385       0.22463091 </v>
   <v>      -0.14619526      -1.34215534      -0.84435114 </v>
   <v>      -0.40516774      -0.89152621       3.48593992 </v>
   <v>      -0.63540997      -0.07475401      -0.19198709 </v>
   <v>      -3.08844421      -1.49806092       1.64408015 </v>
   <v>       1.02928752      -0.46976218      -3.17501289 </v>
   <v>      -0.14346793       0.57108698       1.22739414 </v>
   <v>      -0.48746904      -0.77356239      -0.03650416 </v>
   <v>      -2.04016583      -0.30633196      -2.19069202 </v>
   <v>       0.73087584       0.08478395       2.69954031 </v>
  </varray>
  <varray name="stress" >
   <v>      77.24311909      -2.57282258       1.80772501 </v>
   <v>      -2.57282291      80.00695380      -1.47531212 </v>
   <v>       1.80772499      -1.47531203      89.13538570 </v>
  </varray>
  <energy>
   <i name="e_fr_energy">   -348.71836223 </i>
   <i name="e_wo_entrp">   -348.21915711 </i>
   <i name="e_0_energy">     -0.99841025 </i>
  </energy>
  <time name="totalsc">  270.14  270.19</time>
  <eigenvalues>
   <array>
    <dimension dim="1">band</dimension>
    <dimension dim="2">kpoint</dimension>
    <dimension dim="3">spin</dimension>
    <field>eigene</field>
    <field>occ</field>
    <set>
     <set comment="spin 1">
      <set comment="kpoint 1">
       <r>  -63.2843    1.0000 </r>
       <r>  -63.2535    1.0000 </r>
       <r>  -63.2302    1.0000 </r>
       <r>  -63.2237    1.0000 </r>
       <r>  -63.2088    1.0000 </r>
       <r>  -63.1955    1.0000 </r>
       <r>  -63.1606    1.0000 </r>
       <r>  -63.1503    1.0000 </r>
       <r>  -63.1388    1.0000 </r>
       <r>  -63.1246    1.0000 </r>
       <r>  -63.1241    1.0000 </r>
       <r>  -63.1204    1.0000 </r>
       <r>  -63.1023    1.0000 </r>
       <r>  -63.0889    1.0000 </r>
       <r>  -63.0801    1.0000 </r>
       <r>  -63.0755    1.0000 </r>
       <r>  -63.0615    1.0000 </r>
       <r>  -63.0487    1.0000 </r>
       <r>  -63.0395    1.0000 </r>
       <r>  -63.0130    1.0000 </r>
       <r>  -63.0129    1.0000 </r>
       <r>  -62.9917    1.0000 </r>
       <r>  -62.9770    1.0000 </r>
       <r>  -62.9540    1.0000 </r>
       <r>  -62.9324    1.0000 </r>
       <r>  -62.9264    1.0000 </r>
       <r>  -62.9053    1.0000 </r>
       <r>  -62.9040    1.0000 </r>
       <r>  -62.9036    1.0000 </r>
       <r>  -62.8884    1.0000 </r>
       <r>  -62.8860    1.0000 </r>
       <r>  -62.8835    1.0000 </r>
       <r>  -62.8827    1.0000 </r>
       <r>  -62.8636    1.0000 </r>
       <r>  -62.8560    1.0000 </r>
       <r>  -62.8472    1.0000 </r>
       <r>  -62.8354    1.0000 </r>
       <r>  -62.8305    1.0000 </r>
       <r>  -62.8017    1.0000 </r>
       <r>  -62.8013    1.0000 </r>
       <r>  -62.7789    1.0000 </r>
       <r>  -62.7724    1.0000 </r>
       <r>  -62.7708    1.0000 </r>
       <r>  -62.7694    1.0000 </r>
       <r>  -62.7527    1.0000 </r>
       <r>  -62.7514    1.0000 </r>
       <r>  -62.7462    1.0000 </r>
       <r>  -62.7349    1.0000 </r>
       <r>  -62.7316    1.0000 </r>
       <r>  -62.7163    1.0000 </r>
       <r>  -62.7123    1.0000 </r>
       <r>  -62.7081    1.0000 </r>
       <r>  -62.7074    1.0000 </r>
       <r>  -62.7053    1.0000 </r>
       <r>  -62.7022    1.0000 </r>
       <r>  -62.6828    1.0000 </r>
       <r>  -62.6826    1.0000 </r>
       <r>  -62.6812    1.0000 </r>
       <r>  -62.6694    1.0000 </r>
       <r>  -62.6544    1.0000 </r>
       <r>  -62.6511    1.0000 </r>
       <r>  -62.6471    1.0000 </r>
       <r>  -62.6440    1.0000 </r>
       <r>  -62.6425    1.0000 </r>
       <r>  -62.6204    1.0000 </r>
       <r>  -62.6199    1.0000 </r>
       <r>  -62.6188    1.0000 </r>
       <r>  -62.6185    1.0000 </r>
       <r>  -62.6144    1.0000 </r>
       <r>  -62.6001    1.0000 </r>
       <r>  -62.5968    1.0000 </r>
       <r>  -62.5955    1.0000 </r>
       <r>  -62.5940    1.0000 </r>
       <r>  -62.5904    1.0000 </r>
       <r>  -62.5808    1.0000 </r>
       <r>  -62.5802    1.0000 </r>
       <r>  -62.5783    1.0000 </r>
       <r>  -62.5753    1.0000 </r>
       <r>  -62.5707    1.0000 </r>
       <r>  -62.5660    1.0000 </r>
       <r>  -62.5647    1.0000 </r>
       <r>  -62.5626    1.0000 </r>
       <r>  -62.5618    1.0000 </r>
       <r>  -62.5542    1.0000 </r>
       <r>  -62.5531    1.0000 </r>
       <r>  -62.5304    1.0000 </r>
       <r>  -62.5254    1.0000 </r>
       <r>  -62.5148    1.0000 </r>
       <r>  -62.5000    1.0000 </r>
       <r>  -62.4997    1.0000 </r>
       <r>  -62.4964    1.0000 </r>
       <r>  -62.4835    1.0000 </r>
       <r>  -62.4833    1.0000 </r>
       <r>  -62.4692    1.0000 </r>
       <r>  -62.4656    1.0000 </r>
       <r>  -62.4515    1.0000 </r>
       <r>  -62.4389    1.0000 </r>
       <r>  -62.4371    1.0000 </r>
       <r>  -62.4356    1.0000 </r>
       <r>  -62.4224    1.0000 </r>
       <r>  -62.3944    1.0000 </r>
       <r>  -62.3829    1.0000 </r>
       <r>  -62.3797    1.0000 </r>
       <r>  -62.3298    1.0000 </r>
       <r>  -62.3057    1.0000 </r>
       <r>  -62.2966    1.0000 </r>
       <r>  -62.2904    1.0000 </r>
       <r>  -62.0850    1.0000 </r>
       <r>  -15.0676    1.0000 </r>
       <r>  -14.9277    1.0000 </r>
       <r>  -14.3837    1.0000 </r>
       <r>  -14.3441    1.0000 </r>
       <r>  -14.0696    1.0000 </r>
       <r>  -13.8859    1.0000 </r>
       <r>  -13.7754    1.0000 </r>
       <r>  -13.6751    1.0000 </r>
       <r>  -13.5349    1.0000 </r>
       <r>  -13.4939    1.0000 </r>
       <r>  -13.4249    1.0000 </r>
       <r>  -13.2898    1.0000 </r>
       <r>  -13.2303    1.0000 </r>
       <r>  -13.0626    1.0000 </r>
       <r>  -13.0247    1.0000 </r>
       <r>  -12.9052    1.0000 </r>
       <r>  -12.8176    1.0000 </r>
       <r>  -12.7797    1.0000 </r>
       <r>  -12.7698    1.0000 </r>
       <r>  -12.6986    1.0000 </r>
       <r>  -12.6458    1.0000 </r>
       <r>  -12.4903    1.0000 </r>
       <r>  -12.4652    1.0000 </r>
       <r>  -12.3718    1.0000 </r>
       <r>  -12.3335    1.0000 </r>
       <r>  -12.2479    1.0000 </r>
       <r>  -12.2147    1.0000 </r>
       <r>  -12.2046    1.0000 </r>
       <r>  -12.0213    1.0000 </r>
       <r>  -11.9938    1.0000 </r>
       <r>  -11.9394    1.0000 </r>
       <r>  -11.8007    1.0000 </r>
       <r>  -11.7498    1.0000 </r>
       <r>  -11.7056    1.0000 </r>
       <r>  -11.4724    1.0000 </r>
       <r>  -11.4635    1.0000 </r>
       <r>   -6.7396    1.0000 </r>
       <r>   -6.5657    1.0000 </r>
       <r>   -6.4318    1.0000 </r>
       <r>   -6.3900    1.0000 </r>
       <r>   -6.3278    1.0000 </r>
       <r>   -6.2208    1.0000 </r>
       <r>   -6.1821    1.0000 </r>
       <r>   -6.0421    1.0000 </r>
       <r>   -6.0290    1.0000 </r>
       <r>   -5.9529    1.0000 </r>
       <r>   -5.9205    1.0000 </r>
       <r>   -5.8738    1.0000 </r>
       <r>   -5.8118    1.0000 </r>
       <r>   -5.7602    1.0000 </r>
       <r>   -5.7270    1.0000 </r>
       <r>   -5.6546    1.0000 </r>
       <r>   -5.6246    1.0000 </r>
       <r>   -5.5712    1.0000 </r>
       <r>   -5.5332    1.0000 </r>
       <r>   -5.4467    1.0000 </r>
       <r>   -5.4013    1.0000 </r>
       <r>   -5.3360    1.0000 </r>
       <r>   -5.2574    1.0000 </r>
       <r>   -5.2296    1.0000 </r>
       <r>   -5.2064    1.0000 </r>
       <r>   -5.1175    1.0000 </r>
       <r>   -5.0396    1.0000 </r>
       <r>   -4.9749    1.0000 </r>
       <r>   -4.9432    1.0000 </r>
       <r>   -4.9108    1.0000 </r>
       <r>   -4.8811    1.0000 </r>
       <r>   -4.8286    1.0000 </r>
       <r>   -4.8015    1.0000 </r>
       <r>   -4.7350    1.0000 </r>
       <r>   -4.6927    1.0000 </r>
       <r>   -4.6499    1.0000 </r>
       <r>   -4.5965    1.0000 </r>
       <r>   -4.5689    1.0000 </r>
       <r>   -4.5385    1.0000 </r>
       <r>   -4.4528    1.0000 </r>
       <r>   -4.4096    1.0000 </r>
       <r>   -4.3489    1.0000 </r>
       <r>   -4.2647    1.0000 </r>
       <r>   -4.2076    1.0000 </r>
       <r>   -4.1601    1.0000 </r>
       <r>   -4.1389    1.0000 </r>
       <r>   -4.0983    1.0000 </r>
       <r>   -4.0873    1.0000 </r>
       <r>   -4.0486    1.0000 </r>
       <r>   -4.0408    1.0000 </r>
       <r>   -3.9607    1.0000 </r>
       <r>   -3.8999    1.0000 </r>
       <r>   -3.8974    1.0000 </r>
       <r>   -3.8826    1.0000 </r>
       <r>   -3.8548    1.0000 </r>
       <r>   -3.8230    1.0000 </r>
       <r>   -3.7918    1.0000 </r>
       <r>   -3.7464    1.0000 </r>
       <r>   -3.7178    1.0000 </r>
       <r>   -3.6741    1.0000 </r>
       <r>   -3.6643    1.0000 </r>
       <r>   -3.6101    1.0000 </r>
       <r>   -3.5984    1.0000 </r>
       <r>   -3.5367    1.0000 </r>
       <r>   -3.5164    1.0000 </r>
       <r>   -3.4715    1.0000 </r>
       <r>   -3.4549    1.0000 </r>
       <r>   -3.4160    1.0000 </r>
       <r>   -3.4024    1.0000 </r>
       <r>   -3.3860    1.0000 </r>
       <r>   -3.3545    1.0000 </r>
       <r>   -3.3380    1.0000 </r>
       <r>   -3.2839    1.0000 </r>
       <r>   -3.2772    1.0000 </r>
       <r>   -3.2340    1.0000 </r>
       <r>   -3.1906    1.0000 </r>
       <r>   -3.1809    1.0000 </r>
       <r>   -3.1449    1.0000 </r>
       <r>   -3.1120    1.0000 </r>
       <r>   -3.0774    1.0000 </r>
       <r>   -3.0429    1.0000 </r>
       <r>   -3.0228    1.0000 </r>
       <r>   -2.9888    1.0000 </r>
       <r>   -2.9749    1.0000 </r>
       <r>   -2.9276    1.0000 </r>
       <r>   -2.8937    1.0000 </r>
       <r>   -2.8590    1.0000 </r>
       <r>   -2.8227    1.0000 </r>
       <r>   -2.7798    1.0000 </r>
       <r>   -2.7565    1.0000 </r>
       <r>   -2.7270    1.0000 </r>
       <r>   -2.6970    1.0000 </r>
       <r>   -2.6277    1.0000 </r>
       <r>   -2.5727    1.0000 </r>
       <r>   -2.5281    1.0000 </r>
       <r>   -2.5082    1.0000 </r>
       <r>   -2.4521    1.0000 </r>
       <r>   -2.4191    1.0000 </r>
       <r>   -2.3102    1.0000 </r>
       <r>   -2.2935    1.0000 </r>
       <r>   -2.2449    1.0000 </r>
       <r>   -2.2043    1.0000 </r>
       <r>   -2.1511    1.0000 </r>
       <r>   -2.1334    1.0000 </r>
       <r>   -2.0857    1.0000 </r>
       <r>   -1.9956    1.0000 </r>
       <r>   -1.9743    1.0000 </r>
       <r>   -1.9422    1.0000 </r>
       <r>   -1.9152    1.0000 </r>
       <r>   -1.8903    1.0000 </r>
       <r>   -1.8369    1.0000 </r>
       <r>   -1.8107    1.0000 </r>
       <r>   -1.7394    1.0000 </r>
       <r>   -1.7381    1.0000 </r>
       <r>   -1.6912    1.0000 </r>
       <r>   -1.6759    1.0000 </r>
       <r>   -1.6525    1.0000 </r>
       <r>   -1.5993    1.0000 </r>
       <r>   -1.5706    1.0000 </r>
       <r>   -1.5594    1.0000 </r>
       <r>   -1.5150    1.0000 </r>
       <r>   -1.4846    1.0000 </r>
       <r>   -1.4685    1.0000 </r>
       <r>   -1.4327    1.0000 </r>
       <r>   -1.3995    1.0000 </r>
       <r>   -1.3859    1.0000 </r>
       <r>   -1.3500    1.0000 </r>
       <r>   -1.3372    1.0000 </r>
       <r>   -1.3183    1.0000 </r>
       <r>   -1.2747    1.0000 </r>
       <r>   -1.2568    1.0000 </r>
       <r>   -1.2385    1.0000 </r>
       <r>   -1.2029    1.0000 </r>
       <r>   -1.1876    1.0000 </r>
       <r>   -1.1666    1.0000 </r>
       <r>   -1.1480    1.0000 </r>
       <r>   -1.1162    1.0000 </r>
       <r>   -1.0922    1.0000 </r>
       <r>   -1.0731    1.0000 </r>
       <r>   -1.0678    1.0000 </r>
       <r>   -1.0284    1.0000 </r>
       <r>   -1.0197    1.0000 </r>
       <r>   -0.9855    1.0000 </r>
       <r>   -0.9683    1.0000 </r>
       <r>   -0.9531    1.0000 </r>
       <r>   -0.9465    1.0000 </r>
       <r>   -0.9245    1.0000 </r>
       <r>   -0.8941    1.0000 </r>
       <r>   -0.8770    1.0000 </r>
       <r>   -0.8704    1.0000 </r>
       <r>   -0.8452    1.0000 </r>
       <r>   -0.8243    1.0000 </r>
       <r>   -0.8166    1.0000 </r>
       <r>   -0.7971    1.0000 </r>
       <r>   -0.7918    1.0000 </r>
       <r>   -0.7757    1.0000 </r>
       <r>   -0.7639    1.0000 </r>
       <r>   -0.7441    1.0000 </r>
       <r>   -0.7173    1.0000 </r>
       <r>   -0.7049    1.0000 </r>
       <r>   -0.6950    1.0000 </r>
       <r>   -0.6744    1.0000 </r>
       <r>   -0.6637    1.0000 </r>
       <r>   -0.6500    1.0000 </r>
       <r>   -0.6384    1.0000 </r>
       <r>   -0.6344    1.0000 </r>
       <r>   -0.6133    1.0000 </r>
       <r>   -0.6024    1.0000 </r>
       <r>   -0.5787    1.0000 </r>
       <r>   -0.5662    1.0000 </r>
       <r>   -0.5606    1.0000 </r>
       <r>   -0.5280    1.0000 </r>
       <r>   -0.5066    1.0000 </r>
       <r>   -0.4891    1.0000 </r>
       <r>   -0.4737    1.0000 </r>
       <r>   -0.4711    1.0000 </r>
       <r>   -0.4586    1.0000 </r>
       <r>   -0.4516    1.0000 </r>
       <r>   -0.4289    1.0000 </r>
       <r>   -0.4198    1.0000 </r>
       <r>   -0.3975    1.0000 </r>
       <r>   -0.3947    1.0000 </r>
       <r>   -0.3758    1.0000 </r>
       <r>   -0.3561    1.0000 </r>
       <r>   -0.3518    1.0000 </r>
       <r>   -0.3366    1.0000 </r>
       <r>   -0.3321    1.0000 </r>
       <r>   -0.3205    1.0000 </r>
       <r>   -0.3058    1.0000 </r>
       <r>   -0.2787    1.0000 </r>
       <r>   -0.2653    1.0000 </r>
       <r>   -0.2464    1.0000 </r>
       <r>   -0.2344    1.0000 </r>
       <r>   -0.2089    1.0000 </r>
       <r>   -0.2035    1.0000 </r>
       <r>   -0.2025    1.0000 </r>
       <r>   -0.1838    1.0000 </r>
       <r>   -0.1599    1.0000 </r>
       <r>   -0.1559    1.0000 </r>
       <r>   -0.1264    1.0000 </r>
       <r>   -0.1211    1.0000 </r>
       <r>   -0.1009    1.0000 </r>
       <r>   -0.0926    1.0000 </r>
       <r>   -0.0586    1.0000 </r>
       <r>   -0.0532    1.0000 </r>
       <r>   -0.0311    1.0000 </r>
       <r>   -0.0230    1.0000 </r>
       <r>    0.0077    1.0000 </r>
       <r>    0.0122    1.0000 </r>
       <r>    0.0463    1.0000 </r>
       <r>    0.0597    1.0000 </r>
       <r>    0.0887    1.0000 </r>
       <r>    0.1014    1.0000 </r>
       <r>    0.1224    1.0000 </r>
       <r>    0.1366    1.0000 </r>
       <r>    0.1526    1.0000 </r>
       <r>    0.1745    1.0000 </r>
       <r>    0.1828    1.0000 </r>
       <r>    0.2057    1.0000 </r>
       <r>    0.2507    1.0000 </r>
       <r>    0.2840    1.0000 </r>
       <r>    0.3105    1.0000 </r>
       <r>    0.3298    1.0000 </r>
       <r>    0.3883    1.0000 </r>
       <r>    0.4130    1.0000 </r>
       <r>    0.4498    1.0000 </r>
       <r>    0.4536    1.0000 </r>
       <r>    0.5048    1.0000 </r>
       <r>    0.5250    1.0000 </r>
       <r>    0.5640    1.0000 </r>
       <r>    0.6032    1.0000 </r>
       <r>    0.6409    1.0000 </r>
       <r>    0.6718    1.0000 </r>
       <r>    0.7121    1.0000 </r>
       <r>    0.7339    1.0000 </r>
       <r>    0.7866    1.0000 </r>
       <r>    0.8192    1.0000 </r>
       <r>    0.8351    1.0000 </r>
       <r>    0.9233    0.9999 </r>
       <r>    0.9590    0.9998 </r>
       <r>    0.9672    0.9997 </r>
       <r>    0.9980    0.9994 </r>
       <r>    1.0698    0.9969 </r>
       <r>    1.1135    0.9924 </r>
       <r>    1.1487    0.9853 </r>
       <r>    1.1819    0.9740 </r>
       <r>    1.2277    0.9472 </r>
       <r>    1.2830    0.8901 </r>
       <r>    1.2965    0.8711 </r>
       <r>    1.3690    0.7321 </r>
       <r>    1.4149    0.6159 </r>
       <r>    1.4391    0.5490 </r>
       <r>    1.4643    0.4781 </r>
       <r>    1.5244    0.3156 </r>
       <r>    1.5660    0.2194 </r>
       <r>    1.5797    0.1919 </r>
       <r>    1.6134    0.1337 </r>
       <r>    1.6876    0.0512 </r>
       <r>    1.7253    0.0287 </r>
       <r>    1.7463    0.0202 </r>
       <r>    1.8244    0.0046 </r>
       <r>    1.8484    0.0028 </r>
       <r>    1.9025    0.0008 </r>
       <r>    1.9417    0.0003 </r>
       <r>    1.9917    0.0001 </r>
       <r>    2.0284    0.0000 </r>
       <r>    2.0484    0.0000 </r>
       <r>    2.0866    0.0000 </r>
       <r>    2.1310    0.0000 </r>
       <r>    2.1746    0.0000 </r>
       <r>    2.2331    0.0000 </r>
       <r>    2.2462    0.0000 </r>
       <r>    2.2790    0.0000 </r>
       <r>    2.2910    0.0000 </r>
       <r>    2.3492    0.0000 </r>
       <r>    2.3975    0.0000 </r>
       <r>    2.4568    0.0000 </r>
       <r>    2.4991    0.0000 </r>
       <r>    2.5172    0.0000 </r>
       <r>    2.5482    0.0000 </r>
       <r>    2.5841    0.0000 </r>
       <r>    2.6645    0.0000 </r>
       <r>    2.6831    0.0000 </r>
       <r>    2.7442    0.0000 </r>
       <r>    2.8194    0.0000 </r>
       <r>    3.0321    0.0000 </r>
       <r>    3.0441    0.0000 </r>
       <r>    3.1165    0.0000 </r>
       <r>    4.4091    0.0000 </r>
       <r>    4.4853    0.0000 </r>
       <r>    4.7527    0.0000 </r>
       <r>    4.8584    0.0000 </r>
       <r>    4.9904    0.0000 </r>
       <r>    5.1151    0.0000 </r>
       <r>    5.3412    0.0000 </r>
       <r>    5.4631    0.0000 </r>
       <r>    5.5747    0.0000 </r>
       <r>    5.6053    0.0000 </r>
       <r>    5.6894    0.0000 </r>
       <r>    5.8220    0.0000 </r>
       <r>    5.8678    0.0000 </r>
       <r>    5.8791    0.0000 </r>
       <r>    5.9639    0.0000 </r>
       <r>    6.0901    0.0000 </r>
       <r>    6.1886    0.0000 </r>
       <r>    6.2131    0.0000 </r>
       <r>    6.3362    0.0000 </r>
       <r>    6.3599    0.0000 </r>
       <r>    6.4534    0.0000 </r>
       <r>    6.4737    0.0000 </r>
       <r>    6.5387    0.0000 </r>
       <r>    6.6047    0.0000 </r>
       <r>    6.6448    0.0000 </r>
       <r>    6.7319    0.0000 </r>
       <r>    6.7736    0.0000 </r>
       <r>    6.7879    0.0000 </r>
       <r>    6.8817    0.0000 </r>
       <r>    6.9154    0.0000 </r>
       <r>    6.9694    0.0000 </r>
       <r>    7.0203    0.0000 </r>
       <r>    7.0572    0.0000 </r>
       <r>    7.0866    0.0000 </r>
       <r>    7.1067    0.0000 </r>
       <r>    7.1432    0.0000 </r>
       <r>    7.2044    0.0000 </r>
       <r>    7.2465    0.0000 </r>
       <r>    7.2922    0.0000 </r>
       <r>    7.3616    0.0000 </r>
       <r>    7.4021    0.0000 </r>
       <r>    7.4365    0.0000 </r>
       <r>    7.4785    0.0000 </r>
       <r>    7.5447    0.0000 </r>
      </set>
     </set>
    </set>
   </array>
  </eigenvalues>
  <separator name="orbital magnetization" >
   <v name="MAGDIPOLOUT">      0.00000000      0.00000000      0.00000000</v>
  </separator>
  <dos>
   <i name="efermi">      1.45655080 </i>
   <total>
    <array>
     <dimension dim="1">gridpoints</dimension>
     <dimension dim="2">spin</dimension>
     <field>energy</field>
     <field>total</field>
     <field>integrated</field>
     <set>
      <set comment="spin 1">
       <r>   -66.8257     0.0000     0.0000 </r>
       <r>   -66.5660     0.0000     0.0000 </r>
       <r>   -66.3063     0.0000     0.0000 </r>
       <r>   -66.0466     0.0000     0.0000 </r>
       <r>   -65.7869     0.0000     0.0000 </r>
       <r>   -65.5272     0.0000     0.0000 </r>
       <r>   -65.2675     0.0000     0.0000 </r>
       <r>   -65.0078     0.0000     0.0000 </r>
       <r>   -64.7481     0.0000     0.0000 </r>
       <r>   -64.4884     0.0000     0.0000 </r>
       <r>   -64.2286     0.0000     0.0000 </r>
       <r>   -63.9689     0.0000     0.0000 </r>
       <r>   -63.7092     0.0243     0.0063 </r>
       <r>   -63.4495     3.9460     1.0311 </r>
       <r>   -63.1898    56.8439    15.7938 </r>
       <r>   -62.9301   154.5274    55.9256 </r>
       <r>   -62.6704   249.2645   120.6612 </r>
       <r>   -62.4107   263.2318   189.0241 </r>
       <r>   -62.1510    91.6068   212.8150 </r>
       <r>   -61.8913    11.5427   215.8127 </r>
       <r>   -61.6316     0.7160   215.9986 </r>
       <r>   -61.3719     0.0052   216.0000 </r>
       <r>   -61.1122     0.0000   216.0000 </r>
       <r>   -60.8525     0.0000   216.0000 </r>
       <r>   -60.5928     0.0000   216.0000 </r>
       <r>   -60.3331     0.0000   216.0000 </r>
       <r>   -60.0733     0.0000   216.0000 </r>
       <r>   -59.8136     0.0000   216.0000 </r>
       <r>   -59.5539     0.0000   216.0000 </r>
       <r>   -59.2942     0.0000   216.0000 </r>
       <r>   -59.0345     0.0000   216.0000 </r>
       <r>   -58.7748     0.0000   216.0000 </r>
       <r>   -58.5151     0.0000   216.0000 </r>
       <r>   -58.2554     0.0000   216.0000 </r>
       <r>   -57.9957     0.0000   216.0000 </r>
       <r>   -57.7360     0.0000   216.0000 </r>
       <r>   -57.4763     0.0000   216.0000 </r>
       <r>   -57.2166     0.0000   216.0000 </r>
       <r>   -56.9569     0.0000   216.0000 </r>
       <r>   -56.6972     0.0000   216.0000 </r>
       <r>   -56.4375     0.0000   216.0000 </r>
       <r>   -56.1778     0.0000   216.0000 </r>
       <r>   -55.9180     0.0000   216.0000 </r>
       <r>   -55.6583     0.0000   216.0000 </r>
       <r>   -55.3986     0.0000   216.0000 </r>
       <r>   -55.1389     0.0000   216.0000 </r>
       <r>   -54.8792     0.0000   216.0000 </r>
       <r>   -54.6195     0.0000   216.0000 </r>
       <r>   -54.3598     0.0000   216.0000 </r>
       <r>   -54.1001     0.0000   216.0000 </r>
       <r>   -53.8404     0.0000   216.0000 </r>
       <r>   -53.5807     0.0000   216.0000 </r>
       <r>   -53.3210     0.0000   216.0000 </r>
       <r>   -53.0613     0.0000   216.0000 </r>
       <r>   -52.8016     0.0000   216.0000 </r>
       <r>   -52.5419     0.0000   216.0000 </r>
       <r>   -52.2822     0.0000   216.0000 </r>
       <r>   -52.0225     0.0000   216.0000 </r>
       <r>   -51.7627     0.0000   216.0000 </r>
       <r>   -51.5030     0.0000   216.0000 </r>
       <r>   -51.2433     0.0000   216.0000 </r>
       <r>   -50.9836     0.0000   216.0000 </r>
       <r>   -50.7239     0.0000   216.0000 </r>
       <r>   -50.4642     0.0000   216.0000 </r>
       <r>   -50.2045     0.0000   216.0000 </r>
       <r>   -49.9448     0.0000   216.0000 </r>
       <r>   -49.6851     0.0000   216.0000 </r>
       <r>   -49.4254     0.0000   216.0000 </r>
       <r>   -49.1657     0.0000   216.0000 </r>
       <r>   -48.9060     0.0000   216.0000 </r>
       <r>   -48.6463     0.0000   216.0000 </r>
       <r>   -48.3866     0.0000   216.0000 </r>
       <r>   -48.1269     0.0000   216.0000 </r>
       <r>   -47.8672     0.0000   216.0000 </r>
       <r>   -47.6074     0.0000   216.0000 </r>
       <r>   -47.3477     0.0000   216.0000 </r>
       <r>   -47.0880     0.0000   216.0000 </r>
       <r>   -46.8283     0.0000   216.0000 </r>
       <r>   -46.5686     0.0000   216.0000 </r>
       <r>   -46.3089     0.0000   216.0000 </r>
       <r>   -46.0492     0.0000   216.0000 </r>
       <r>   -45.7895     0.0000   216.0000 </r>
       <r>   -45.5298     0.0000   216.0000 </r>
       <r>   -45.2701     0.0000   216.0000 </r>
       <r>   -45.0104     0.0000   216.0000 </r>
       <r>   -44.7507     0.0000   216.0000 </r>
       <r>   -44.4910     0.0000   216.0000 </r>
       <r>   -44.2313     0.0000   216.0000 </r>
       <r>   -43.9716     0.0000   216.0000 </r>
       <r>   -43.7118     0.0000   216.0000 </r>
       <r>   -43.4521     0.0000   216.0000 </r>
       <r>   -43.1924     0.0000   216.0000 </r>
       <r>   -42.9327     0.0000   216.0000 </r>
       <r>   -42.6730     0.0000   216.0000 </r>
       <r>   -42.4133     0.0000   216.0000 </r>
       <r>   -42.1536     0.0000   216.0000 </r>
       <r>   -41.8939     0.0000   216.0000 </r>
       <r>   -41.6342     0.0000   216.0000 </r>
       <r>   -41.3745     0.0000   216.0000 </r>
       <r>   -41.1148     0.0000   216.0000 </r>
       <r>   -40.8551     0.0000   216.0000 </r>
       <r>   -40.5954     0.0000   216.0000 </r>
       <r>   -40.3357     0.0000   216.0000 </r>
       <r>   -40.0760     0.0000   216.0000 </r>
       <r>   -39.8163     0.0000   216.0000 </r>
       <r>   -39.5565     0.0000   216.0000 </r>
       <r>   -39.2968     0.0000   216.0000 </r>
       <r>   -39.0371     0.0000   216.0000 </r>
       <r>   -38.7774     0.0000   216.0000 </r>
       <r>   -38.5177     0.0000   216.0000 </r>
       <r>   -38.2580     0.0000   216.0000 </r>
       <r>   -37.9983     0.0000   216.0000 </r>
       <r>   -37.7386     0.0000   216.0000 </r>
       <r>   -37.4789     0.0000   216.0000 </r>
       <r>   -37.2192     0.0000   216.0000 </r>
       <r>   -36.9595     0.0000   216.0000 </r>
       <r>   -36.6998     0.0000   216.0000 </r>
       <r>   -36.4401     0.0000   216.0000 </r>
       <r>   -36.1804     0.0000   216.0000 </r>
       <r>   -35.9207     0.0000   216.0000 </r>
       <r>   -35.6610     0.0000   216.0000 </r>
       <r>   -35.4012     0.0000   216.0000 </r>
       <r>   -35.1415     0.0000   216.0000 </r>
       <r>   -34.8818     0.0000   216.0000 </r>
       <r>   -34.6221     0.0000   216.0000 </r>
       <r>   -34.3624     0.0000   216.0000 </r>
       <r>   -34.1027     0.0000   216.0000 </r>
       <r>   -33.8430     0.0000   216.0000 </r>
       <r>   -33.5833     0.0000   216.0000 </r>
       <r>   -33.3236     0.0000   216.0000 </r>
       <r>   -33.0639     0.0000   216.0000 </r>
       <r>   -32.8042     0.0000   216.0000 </r>
       <r>   -32.5445     0.0000   216.0000 </r>
       <r>   -32.2848     0.0000   216.0000 </r>
       <r>   -32.0251     0.0000   216.0000 </r>
       <r>   -31.7654     0.0000   216.0000 </r>
       <r>   -31.5057     0.0000   216.0000 </r>
       <r>   -31.2459     0.0000   216.0000 </r>
       <r>   -30.9862     0.0000   216.0000 </r>
       <r>   -30.7265     0.0000   216.0000 </r>
       <r>   -30.4668     0.0000   216.0000 </r>
       <r>   -30.2071     0.0000   216.0000 </r>
       <r>   -29.9474     0.0000   216.0000 </r>
       <r>   -29.6877     0.0000   216.0000 </r>
       <r>   -29.4280     0.0000   216.0000 </r>
       <r>   -29.1683     0.0000   216.0000 </r>
       <r>   -28.9086     0.0000   216.0000 </r>
       <r>   -28.6489     0.0000   216.0000 </r>
       <r>   -28.3892     0.0000   216.0000 </r>
       <r>   -28.1295     0.0000   216.0000 </r>
       <r>   -27.8698     0.0000   216.0000 </r>
       <r>   -27.6101     0.0000   216.0000 </r>
       <r>   -27.3504     0.0000   216.0000 </r>
       <r>   -27.0906     0.0000   216.0000 </r>
       <r>   -26.8309     0.0000   216.0000 </r>
       <r>   -26.5712     0.0000   216.0000 </r>
       <r>   -26.3115     0.0000   216.0000 </r>
       <r>   -26.0518     0.0000   216.0000 </r>
       <r>   -25.7921     0.0000   216.0000 </r>
       <r>   -25.5324     0.0000   216.0000 </r>
       <r>   -25.2727     0.0000   216.0000 </r>
       <r>   -25.0130     0.0000   216.0000 </r>
       <r>   -24.7533     0.0000   216.0000 </r>
       <r>   -24.4936     0.0000   216.0000 </r>
       <r>   -24.2339     0.0000   216.0000 </r>
       <r>   -23.9742     0.0000   216.0000 </r>
       <r>   -23.7145     0.0000   216.0000 </r>
       <r>   -23.4548     0.0000   216.0000 </r>
       <r>   -23.1951     0.0000   216.0000 </r>
       <r>   -22.9353     0.0000   216.0000 </r>
       <r>   -22.6756     0.0000   216.0000 </r>
       <r>   -22.4159     0.0000   216.0000 </r>
       <r>   -22.1562     0.0000   216.0000 </r>
       <r>   -21.8965     0.0000   216.0000 </r>
       <r>   -21.6368     0.0000   216.0000 </r>
       <r>   -21.3771     0.0000   216.0000 </r>
       <r>   -21.1174     0.0000   216.0000 </r>
       <r>   -20.8577     0.0000   216.0000 </r>
       <r>   -20.5980     0.0000   216.0000 </r>
       <r>   -20.3383     0.0000   216.0000 </r>
       <r>   -20.0786     0.0000   216.0000 </r>
       <r>   -19.8189     0.0000   216.0000 </r>
       <r>   -19.5592     0.0000   216.0000 </r>
       <r>   -19.2995     0.0000   216.0000 </r>
       <r>   -19.0397     0.0000   216.0000 </r>
       <r>   -18.7800     0.0000   216.0000 </r>
       <r>   -18.5203     0.0000   216.0000 </r>
       <r>   -18.2606     0.0000   216.0000 </r>
       <r>   -18.0009     0.0000   216.0000 </r>
       <r>   -17.7412     0.0000   216.0000 </r>
       <r>   -17.4815     0.0000   216.0000 </r>
       <r>   -17.2218     0.0000   216.0000 </r>
       <r>   -16.9621     0.0000   216.0000 </r>
       <r>   -16.7024     0.0000   216.0000 </r>
       <r>   -16.4427     0.0000   216.0000 </r>
       <r>   -16.1830     0.0000   216.0000 </r>
       <r>   -15.9233     0.0000   216.0000 </r>
       <r>   -15.6636     0.0001   216.0000 </r>
       <r>   -15.4039     0.0698   216.0182 </r>
       <r>   -15.1442     2.6792   216.7140 </r>
       <r>   -14.8844     8.9777   219.0455 </r>
       <r>   -14.6247     4.0666   220.1017 </r>
       <r>   -14.3650     7.4039   222.0245 </r>
       <r>   -14.1053    10.6985   224.8030 </r>
       <r>   -13.8456    12.3171   228.0018 </r>
       <r>   -13.5859    18.4518   232.7939 </r>
       <r>   -13.3262    22.0363   238.5168 </r>
       <r>   -13.0665    20.3142   243.7926 </r>
       <r>   -12.8068    26.8365   250.7622 </r>
       <r>   -12.5471    30.2292   258.6129 </r>
       <r>   -12.2874    29.9324   266.3865 </r>
       <r>   -12.0277    29.0189   273.9229 </r>
       <r>   -11.7680    24.9181   280.3943 </r>
       <r>   -11.5083    18.7312   285.2589 </r>
       <r>   -11.2486     9.6161   287.7563 </r>
       <r>   -10.9889     0.9331   287.9986 </r>
       <r>   -10.7291     0.0055   288.0000 </r>
       <r>   -10.4694     0.0000   288.0000 </r>
       <r>   -10.2097     0.0000   288.0000 </r>
       <r>    -9.9500     0.0000   288.0000 </r>
       <r>    -9.6903     0.0000   288.0000 </r>
       <r>    -9.4306     0.0000   288.0000 </r>
       <r>    -9.1709     0.0000   288.0000 </r>
       <r>    -8.9112     0.0000   288.0000 </r>
       <r>    -8.6515     0.0000   288.0000 </r>
       <r>    -8.3918     0.0000   288.0000 </r>
       <r>    -8.1321     0.0000   288.0000 </r>
       <r>    -7.8724     0.0000   288.0000 </r>
       <r>    -7.6127     0.0000   288.0000 </r>
       <r>    -7.3530     0.0001   288.0000 </r>
       <r>    -7.0933     0.0484   288.0126 </r>
       <r>    -6.8336     2.1509   288.5712 </r>
       <r>    -6.5738    10.5923   291.3221 </r>
       <r>    -6.3141    21.7803   296.9786 </r>
       <r>    -6.0544    28.0882   304.2733 </r>
       <r>    -5.7947    37.0126   313.8856 </r>
       <r>    -5.5350    39.1188   324.0451 </r>
       <r>    -5.2753    35.6680   333.3083 </r>
       <r>    -5.0156    36.6232   342.8195 </r>
       <r>    -4.7559    43.9895   354.2439 </r>
       <r>    -4.4962    42.7091   365.3357 </r>
       <r>    -4.2365    38.4244   375.3148 </r>
       <r>    -3.9768    52.6710   388.9938 </r>
       <r>    -3.7171    61.3516   404.9272 </r>
       <r>    -3.4574    63.6223   421.4503 </r>
       <r>    -3.1977    68.5358   439.2495 </r>
       <r>    -2.9380    64.3978   455.9740 </r>
       <r>    -2.6783    55.5461   470.3997 </r>
       <r>    -2.4185    44.6439   481.9940 </r>
       <r>    -2.1588    42.8581   493.1245 </r>
       <r>    -1.8991    49.1987   505.9017 </r>
       <r>    -1.6394    59.2939   521.3007 </r>
       <r>    -1.3797    70.8791   539.7085 </r>
       <r>    -1.1200    84.5415   561.6645 </r>
       <r>    -0.8603   104.6270   588.8368 </r>
       <r>    -0.6006   128.0665   622.0964 </r>
       <r>    -0.3409   138.3959   658.0387 </r>
       <r>    -0.0812   131.6396   692.2264 </r>
       <r>     0.1785   105.2549   719.5618 </r>
       <r>     0.4382    73.9580   738.7691 </r>
       <r>     0.6979    59.4784   754.2160 </r>
       <r>     0.9576    52.1770   767.7667 </r>
       <r>     1.2173    48.4780   780.3568 </r>
       <r>     1.4771    48.7774   793.0246 </r>
       <r>     1.7368    48.6533   805.6602 </r>
       <r>     1.9965    47.5545   818.0103 </r>
       <r>     2.2562    52.0886   831.5381 </r>
       <r>     2.5159    50.1149   844.5532 </r>
       <r>     2.7756    39.0419   854.6927 </r>
       <r>     3.0353    21.7585   860.3435 </r>
       <r>     3.2950    12.7436   863.6531 </r>
       <r>     3.5547     1.3263   863.9975 </r>
       <r>     3.8144     0.0096   864.0000 </r>
       <r>     4.0741     0.0827   864.0215 </r>
       <r>     4.3338     3.3129   864.8819 </r>
       <r>     4.5935    10.8133   867.6902 </r>
       <r>     4.8532    12.2806   870.8795 </r>
       <r>     5.1129    14.4813   874.6404 </r>
       <r>     5.3726    12.5637   877.9032 </r>
       <r>     5.6324    20.6318   883.2615 </r>
       <r>     5.8921    26.7255   890.2022 </r>
       <r>     6.1518    25.7492   896.8895 </r>
       <r>     6.4115    29.2967   904.4980 </r>
       <r>     6.6712    35.2595   913.6551 </r>
       <r>     6.9309    39.6224   923.9453 </r>
       <r>     7.1906    46.6115   936.0506 </r>
       <r>     7.4503    40.6243   946.6010 </r>
       <r>     7.7100    19.0746   951.5548 </r>
       <r>     7.9697     1.7011   951.9966 </r>
       <r>     8.2294     0.0131   952.0000 </r>
       <r>     8.4891     0.0000   952.0000 </r>
       <r>     8.7488     0.0000   952.0000 </r>
       <r>     9.0085     0.0000   952.0000 </r>
       <r>     9.2682     0.0000   952.0000 </r>
       <r>     9.5279     0.0000   952.0000 </r>
       <r>     9.7877     0.0000   952.0000 </r>
       <r>    10.0474     0.0000   952.0000 </r>
       <r>    10.3071     0.0000   952.0000 </r>
       <r>    10.5668     0.0000   952.0000 </r>
       <r>    10.8265     0.0000   952.0000 </r>
       <r>    11.0862     0.0000   952.0000 </r>
      </set>
     </set>
    </array>
   </total>
  </dos>
 </calculation>
 <structure name="finalpos" >
  <crystal>
   <varray name="basis" >
    <v>      10.07973298       0.00000000       0.00000000 </v>
    <v>       3.57329804       9.42510255       0.00000000 </v>
    <v>       0.00000000       0.00000000      20.51013988 </v>
   </varray>
   <i name="volume">   1948.51491473 </i>
   <varray name="rec_basis" >
    <v>       0.09920898      -0.03761267       0.00000000 </v>
    <v>       0.00000000       0.10609964       0.00000000 </v>
    <v>       0.00000000       0.00000000       0.04875637 </v>
   </varray>
  </crystal>
  <varray name="positions" >
   <v>       0.37433215       0.75136220       0.09511235 </v>
   <v>       0.52460066       0.60109368       0.22312232 </v>
   <v>       0.67486918       0.45082517       0.35113229 </v>
   <v>       0.73739746       0.35520551       0.46232320 </v>
   <v>       0.57248201       0.21008246       0.07963334 </v>
   <v>       0.75775499       0.03460603       0.13778234 </v>
   <v>       0.06607992       0.73734996       0.38421915 </v>
   <v>       0.90802350       0.88433751       0.26579231 </v>
   <v>       0.11380098       0.29497664       0.23990871 </v>
   <v>       0.29144634       0.16758134       0.30846230 </v>
   <v>       0.41851454       0.03379960       0.42340338 </v>
   <v>       0.93954056       0.62149017       0.10393365 </v>
   <v>       0.00994000       0.11575434       0.41150025 </v>
   <v>       0.56838797       0.58535840       0.04898884 </v>
   <v>       0.70940298       0.41629137       0.15548031 </v>
   <v>       0.85967149       0.26602286       0.28349028 </v>
   <v>       0.09282582       0.69953520       0.19815030 </v>
   <v>       0.24309433       0.54926669       0.32616027 </v>
   <v>       0.42609705       0.38836345       0.44245240 </v>
   <v>       0.94255730       0.84980371       0.07014033 </v>
   <v>       0.48146330       0.00569989       0.09846781 </v>
   <v>       0.47624865       0.98277903       0.24082029 </v>
   <v>       0.61164085       0.84063054       0.35499779 </v>
   <v>       0.59386418       0.61726186       0.44031839 </v>
   <v>       0.02381101       0.33563748       0.43801665 </v>
   <v>       0.69047030       0.79233647       0.09511855 </v>
   <v>       0.74910482       0.64079553       0.18930132 </v>
   <v>       0.89937333       0.49052701       0.31731128 </v>
   <v>       0.98722802       0.05613499       0.11967842 </v>
   <v>       0.13252766       0.92403936       0.23197130 </v>
   <v>       0.28279617       0.77377084       0.35998128 </v>
   <v>       0.33685790       0.63418527       0.46819910 </v>
   <v>       0.18132774       0.66157308       0.06951833 </v>
   <v>       0.36568198       0.35755170       0.14663132 </v>
   <v>       0.51595050       0.20728318       0.27464130 </v>
   <v>       0.65129074       0.08458188       0.38496047 </v>
   <v>       0.06382158       0.26208477       0.34135992 </v>
   <v>       0.19956837       0.13696021       0.44573062 </v>
   <v>       0.76328455       0.56262179       0.08533998 </v>
   <v>       0.91355306       0.41235328       0.21334995 </v>
   <v>       0.14670739       0.84586562       0.12800997 </v>
   <v>       0.29697590       0.69559711       0.25601994 </v>
   <v>       0.44724441       0.54532860       0.38402991 </v>
   <v>       0.53740419       0.48151172       0.50342490 </v>
   <v>       0.97215487       0.01410873       0.02491531 </v>
   <v>       0.36703129       0.22035626       0.07185933 </v>
   <v>       0.53013023       0.12910945       0.17067996 </v>
   <v>       0.68039874       0.97884094       0.29868993 </v>
   <v>       0.50945640       0.81663766       0.03840130 </v>
   <v>       0.52796422       0.79794212       0.17147277 </v>
   <v>       0.67823274       0.64767361       0.29948274 </v>
   <v>       0.82850125       0.49740510       0.42749271 </v>
   <v>       0.77257989       0.22560483       0.10290689 </v>
   <v>       0.91138706       0.08118595       0.21414276 </v>
   <v>       0.06165557       0.93091744       0.34215273 </v>
   <v>       0.17577319       0.81999015       0.45000815 </v>
   <v>       0.14454139       0.51469829       0.12880278 </v>
   <v>       0.29480990       0.36442978       0.25681275 </v>
   <v>       0.44507841       0.21416127       0.38482272 </v>
   <v>       0.00702249       0.67018592       0.01437696 </v>
   <v>       0.36084855       0.63691321       0.01412767 </v>
   <v>       0.47740939       0.51206696       0.12840637 </v>
   <v>       0.62767790       0.36179845       0.25641634 </v>
   <v>       0.77794641       0.21152993       0.38442632 </v>
   <v>       0.93254605       0.22529698       0.49632030 </v>
   <v>       0.01110074       0.64504227       0.29908634 </v>
   <v>       0.20144705       0.53696283       0.42591103 </v>
   <v>       0.67510878       0.99054606       0.05069476 </v>
   <v>       0.86083223       0.79531079       0.17107636 </v>
   <v>       0.24425506       0.07855462       0.21374635 </v>
   <v>       0.39452358       0.92828611       0.34175632 </v>
   <v>       0.55904271       0.83243447       0.45155937 </v>
  </varray>
 </structure>
</modeling>
