LAMMPS data file via write_data, version 5 Jun 2019, timestep = 25

78 atoms
2 atom types

0.0000000000000000e+00 9.5784099999999999e+00 xlo xhi
0.0000000000000000e+00 1.0403353751099999e+01 ylo yhi
0.0000000000000000e+00 2.0846830137100000e+01 zlo zhi
-4.7892049998999999e+00 0.0000000000000000e+00 0.0000000000000000e+00 xy xz yz

Masses

1 58.71
2 32.06

Atoms # atomic

1 1 3.8334362766841834e+00 4.5074747777509403e+00 1.9804213613646202e+00 0 0 0
2 1 4.0556245202999985e+00 6.3581094339000011e+00 4.1718577447999996e+00 0 0 0
3 1 4.0556245154999999e+00 8.2527059549999997e+00 6.6749723916999981e+00 0 0 0
4 1 4.0442726397125668e+00 1.0179239690837328e+01 8.8816402270925821e+00 0 0 0
5 1 4.0556245202000003e+00 6.8560460700000003e-01 5.8406008426999989e+00 0 0 0
6 1 4.0556245249999989e+00 2.5802011281000001e+00 8.3437154895999992e+00 0 0 0
7 1 3.7598039279711548e+00 4.1057007270801105e+00 1.0224722475607010e+01 0 0 0
8 1 -6.9191837735065820e-01 7.4789663175583430e+00 1.2307918715487975e+00 0 0 0
9 1 -7.3358047490000011e-01 9.1943618370000006e+00 3.3374861957999999e+00 0 0 0
10 1 -7.3358047500000045e-01 1.6272604994000002e+00 2.5031146468999994e+00 0 0 0
11 1 -7.3358047980000096e-01 3.5218570205000010e+00 5.0062292937999988e+00 0 0 0
12 1 -7.3358047500000145e-01 5.4164535415000001e+00 7.5093439406000000e+00 0 0 0
13 1 -6.4927445075890966e-01 7.3722851758012773e+00 9.1137231583344036e+00 0 0 0
14 1 4.1164038021346236e+00 1.0372873159567934e+01 7.3210620094789880e-01 0 0 0
15 1 5.3210620189696112e+00 7.7055472297846173e-01 1.8280148799425895e+00 0 0 0
16 1 5.3209612212999993e+00 2.7160119593000003e+00 2.9914189132999991e+00 0 0 0
17 1 5.3209612117000002e+00 4.6106084907999998e+00 5.4945335601999989e+00 0 0 0
18 1 5.3209612165000006e+00 6.5052050118000011e+00 7.9976482071000001e+00 0 0 0
19 1 5.2880151787621434e+00 8.3695366095782298e+00 1.0034259434775077e+01 0 0 0
20 1 5.3209612165000024e+00 8.3270018489999997e-01 9.6663913049999977e+00 0 0 0
21 1 5.3175622129999867e-01 5.5522643727999998e+00 2.1570473643999999e+00 0 0 0
22 1 5.3175621649999771e-01 7.4468608938000003e+00 4.6601620111999997e+00 0 0 0
23 1 5.3175622129999744e-01 9.3414574149000007e+00 7.1632766581000000e+00 0 0 0
24 1 5.3175622119999988e-01 1.7743560773000002e+00 6.3289051090999981e+00 0 0 0
25 1 5.3175621649999927e-01 3.6689525984000011e+00 8.8320197559999993e+00 0 0 0
26 1 -4.2574487835000037e+00 1.0283113307300001e+01 3.8257904623000001e+00 0 0 0
27 1 -2.9921120921000037e+00 8.2527059549999997e+00 6.6749723916999981e+00 0 0 0
28 1 -2.9653326776555797e+00 1.0114044957237413e+01 8.8809683433612854e+00 0 0 0
29 1 6.8083883591454510e+00 4.5074651867695330e+00 1.9803752450786174e+00 0 0 0
30 1 6.5862979126999983e+00 6.3581094339000011e+00 4.1718577447999996e+00 0 0 0
31 1 6.5862979127000001e+00 6.8560460700000003e-01 5.8406008426999989e+00 0 0 0
32 1 6.5862979175000005e+00 2.5802011281000001e+00 8.3437154895999992e+00 0 0 0
33 1 7.1609585140485361e+00 4.2585364629807501e+00 9.9032717268057695e+00 0 0 0
34 1 1.7554537466438451e+00 7.4789890105441312e+00 1.2308076066415037e+00 0 0 0
35 1 1.7970929175000001e+00 9.1943618370000006e+00 3.3374861957999999e+00 0 0 0
36 1 1.7970929175000001e+00 1.6272604994000002e+00 2.5031146468999994e+00 0 0 0
37 1 1.7970929126999993e+00 3.5218570205000010e+00 5.0062292937999988e+00 0 0 0
38 1 1.7970929174999997e+00 5.4164535415000001e+00 7.5093439406000000e+00 0 0 0
39 1 -3.0528947738816528e+00 1.0372886127834576e+01 7.3208588051876888e-01 0 0 0
40 2 -2.6462165454000020e+00 6.0272031989999997e+00 6.4865362472000001e+00 0 0 0
41 2 -2.6462165406000024e+00 7.9217997201000019e+00 8.9896508940000004e+00 0 0 0
42 2 6.9192725203135348e+00 2.3042454189076813e+00 1.7437214501791742e+00 0 0 0
43 2 6.9321934593999996e+00 4.1326066779000001e+00 3.9834216002999989e+00 0 0 0
44 2 6.9321934593999996e+00 3.5469838250000008e-01 8.1552793451000003e+00 0 0 0
45 2 6.6704735856454116e+00 2.3045995780122142e+00 1.0355332946912910e+01 0 0 0
46 2 2.2474706687031225e+00 5.4649673152318092e+00 1.0036676933261914e+00 0 0 0
47 2 2.1429884497999994e+00 6.9688590913999997e+00 3.1490500512999993e+00 0 0 0
48 2 2.1429884546999998e+00 8.8634556123999992e+00 5.6521646982000000e+00 0 0 0
49 2 2.1429884594000002e+00 1.2963542644999999e+00 4.8177931491999990e+00 0 0 0
50 2 2.1429884497999994e+00 3.1909507959000010e+00 7.3209077960999993e+00 0 0 0
51 2 2.0545718273797773e+00 4.9033582704237872e+00 9.4938499760934949e+00 0 0 0
52 2 -2.5735823366727977e+00 9.9309244712385887e+00 2.6340125345161862e+00 0 0 0
53 2 5.6090046395351145e-01 1.4253040834939505e+00 9.2557433567153335e+00 0 0 0
54 2 -4.2574487787000042e+00 1.0147001808700002e+01 7.3054051759999998e+00 0 0 0
55 2 5.3209195185335538e+00 5.9122434571019369e+00 2.5467310742309786e+00 0 0 0
56 2 5.3209612164999989e+00 8.2524052877000003e+00 4.8022905290999995e+00 0 0 0
57 2 5.3209612163999997e+00 6.8530395010000000e-01 3.9679189800999990e+00 0 0 0
58 2 5.3209612117000011e+00 2.5799004711000006e+00 6.4710336269999997e+00 0 0 0
59 2 5.3209612164999998e+00 4.4744969921999997e+00 8.9741482738999974e+00 0 0 0
60 2 5.3175621169999654e-01 9.1940611801000003e+00 1.4648043332999998e+00 0 0 0
61 2 5.3175150986478081e-01 1.5895777531426172e+00 8.2267563027672908e-01 0 0 0
62 2 5.3175622130000000e-01 3.5215563531000003e+00 3.1335474311999998e+00 0 0 0
63 2 5.3175621649999782e-01 5.4161528741999998e+00 5.6366620779999979e+00 0 0 0
64 2 6.1740056269614307e-01 7.1796153406592831e+00 7.5213412203444605e+00 0 0 0
65 2 4.0578658485216873e-01 9.1278810935501991e+00 9.3941830950153395e+00 0 0 0
66 2 3.7226706953800912e+00 2.3042037769345254e+00 1.7437378650769593e+00 0 0 0
67 2 3.7097289830999993e+00 4.1326066779000001e+00 3.9834216002999989e+00 0 0 0
68 2 3.7097289782999989e+00 6.0272031989999997e+00 6.4865362472000001e+00 0 0 0
69 2 3.8610273287820722e+00 7.9842268268913239e+00 8.6922958054729094e+00 0 0 0
70 2 3.7097289831000007e+00 3.5469838250000008e-01 8.1552793451000003e+00 0 0 0
71 2 3.8388427859263556e+00 2.0968052394506205e+00 1.0343068910030535e+01 0 0 0
72 2 -1.1839922845592981e+00 5.4649501126743392e+00 1.0037033866754861e+00 0 0 0
73 2 -1.0794760265000001e+00 6.9688590913999997e+00 3.1490500512999993e+00 0 0 0
74 2 -1.0794760217000028e+00 8.8634556123999992e+00 5.6521646982000000e+00 0 0 0
75 2 -1.0794760265000014e+00 3.1909507959000010e+00 7.3209077960999993e+00 0 0 0
76 2 -6.8405378643322634e-01 5.2882564316862464e+00 9.5772637662888158e+00 0 0 0
77 2 8.4989339831000006e+00 1.2963542644999999e+00 4.8177931491999990e+00 0 0 0
78 2 3.6370869861986921e+00 9.9309181884904412e+00 2.6340320170093707e+00 0 0 0

Velocities

1 0.0000000000000000e+00 0.0000000000000000e+00 0.0000000000000000e+00
2 0.0000000000000000e+00 0.0000000000000000e+00 0.0000000000000000e+00
3 0.0000000000000000e+00 0.0000000000000000e+00 0.0000000000000000e+00
4 0.0000000000000000e+00 0.0000000000000000e+00 0.0000000000000000e+00
5 0.0000000000000000e+00 0.0000000000000000e+00 0.0000000000000000e+00
6 0.0000000000000000e+00 0.0000000000000000e+00 0.0000000000000000e+00
7 0.0000000000000000e+00 0.0000000000000000e+00 0.0000000000000000e+00
8 0.0000000000000000e+00 0.0000000000000000e+00 0.0000000000000000e+00
9 0.0000000000000000e+00 0.0000000000000000e+00 0.0000000000000000e+00
10 0.0000000000000000e+00 0.0000000000000000e+00 0.0000000000000000e+00
11 0.0000000000000000e+00 0.0000000000000000e+00 0.0000000000000000e+00
12 0.0000000000000000e+00 0.0000000000000000e+00 0.0000000000000000e+00
13 0.0000000000000000e+00 0.0000000000000000e+00 0.0000000000000000e+00
14 0.0000000000000000e+00 0.0000000000000000e+00 0.0000000000000000e+00
15 0.0000000000000000e+00 0.0000000000000000e+00 0.0000000000000000e+00
16 0.0000000000000000e+00 0.0000000000000000e+00 0.0000000000000000e+00
17 0.0000000000000000e+00 0.0000000000000000e+00 0.0000000000000000e+00
18 0.0000000000000000e+00 0.0000000000000000e+00 0.0000000000000000e+00
19 0.0000000000000000e+00 0.0000000000000000e+00 0.0000000000000000e+00
20 0.0000000000000000e+00 0.0000000000000000e+00 0.0000000000000000e+00
21 0.0000000000000000e+00 0.0000000000000000e+00 0.0000000000000000e+00
22 0.0000000000000000e+00 0.0000000000000000e+00 0.0000000000000000e+00
23 0.0000000000000000e+00 0.0000000000000000e+00 0.0000000000000000e+00
24 0.0000000000000000e+00 0.0000000000000000e+00 0.0000000000000000e+00
25 0.0000000000000000e+00 0.0000000000000000e+00 0.0000000000000000e+00
26 0.0000000000000000e+00 0.0000000000000000e+00 0.0000000000000000e+00
27 0.0000000000000000e+00 0.0000000000000000e+00 0.0000000000000000e+00
28 0.0000000000000000e+00 0.0000000000000000e+00 0.0000000000000000e+00
29 0.0000000000000000e+00 0.0000000000000000e+00 0.0000000000000000e+00
30 0.0000000000000000e+00 0.0000000000000000e+00 0.0000000000000000e+00
31 0.0000000000000000e+00 0.0000000000000000e+00 0.0000000000000000e+00
32 0.0000000000000000e+00 0.0000000000000000e+00 0.0000000000000000e+00
33 0.0000000000000000e+00 0.0000000000000000e+00 0.0000000000000000e+00
34 0.0000000000000000e+00 0.0000000000000000e+00 0.0000000000000000e+00
35 0.0000000000000000e+00 0.0000000000000000e+00 0.0000000000000000e+00
36 0.0000000000000000e+00 0.0000000000000000e+00 0.0000000000000000e+00
37 0.0000000000000000e+00 0.0000000000000000e+00 0.0000000000000000e+00
38 0.0000000000000000e+00 0.0000000000000000e+00 0.0000000000000000e+00
39 0.0000000000000000e+00 0.0000000000000000e+00 0.0000000000000000e+00
40 0.0000000000000000e+00 0.0000000000000000e+00 0.0000000000000000e+00
41 0.0000000000000000e+00 0.0000000000000000e+00 0.0000000000000000e+00
42 0.0000000000000000e+00 0.0000000000000000e+00 0.0000000000000000e+00
43 0.0000000000000000e+00 0.0000000000000000e+00 0.0000000000000000e+00
44 0.0000000000000000e+00 0.0000000000000000e+00 0.0000000000000000e+00
45 0.0000000000000000e+00 0.0000000000000000e+00 0.0000000000000000e+00
46 0.0000000000000000e+00 0.0000000000000000e+00 0.0000000000000000e+00
47 0.0000000000000000e+00 0.0000000000000000e+00 0.0000000000000000e+00
48 0.0000000000000000e+00 0.0000000000000000e+00 0.0000000000000000e+00
49 0.0000000000000000e+00 0.0000000000000000e+00 0.0000000000000000e+00
50 0.0000000000000000e+00 0.0000000000000000e+00 0.0000000000000000e+00
51 0.0000000000000000e+00 0.0000000000000000e+00 0.0000000000000000e+00
52 0.0000000000000000e+00 0.0000000000000000e+00 0.0000000000000000e+00
53 0.0000000000000000e+00 0.0000000000000000e+00 0.0000000000000000e+00
54 0.0000000000000000e+00 0.0000000000000000e+00 0.0000000000000000e+00
55 0.0000000000000000e+00 0.0000000000000000e+00 0.0000000000000000e+00
56 0.0000000000000000e+00 0.0000000000000000e+00 0.0000000000000000e+00
57 0.0000000000000000e+00 0.0000000000000000e+00 0.0000000000000000e+00
58 0.0000000000000000e+00 0.0000000000000000e+00 0.0000000000000000e+00
59 0.0000000000000000e+00 0.0000000000000000e+00 0.0000000000000000e+00
60 0.0000000000000000e+00 0.0000000000000000e+00 0.0000000000000000e+00
61 0.0000000000000000e+00 0.0000000000000000e+00 0.0000000000000000e+00
62 0.0000000000000000e+00 0.0000000000000000e+00 0.0000000000000000e+00
63 0.0000000000000000e+00 0.0000000000000000e+00 0.0000000000000000e+00
64 0.0000000000000000e+00 0.0000000000000000e+00 0.0000000000000000e+00
65 0.0000000000000000e+00 0.0000000000000000e+00 0.0000000000000000e+00
66 0.0000000000000000e+00 0.0000000000000000e+00 0.0000000000000000e+00
67 0.0000000000000000e+00 0.0000000000000000e+00 0.0000000000000000e+00
68 0.0000000000000000e+00 0.0000000000000000e+00 0.0000000000000000e+00
69 0.0000000000000000e+00 0.0000000000000000e+00 0.0000000000000000e+00
70 0.0000000000000000e+00 0.0000000000000000e+00 0.0000000000000000e+00
71 0.0000000000000000e+00 0.0000000000000000e+00 0.0000000000000000e+00
72 0.0000000000000000e+00 0.0000000000000000e+00 0.0000000000000000e+00
73 0.0000000000000000e+00 0.0000000000000000e+00 0.0000000000000000e+00
74 0.0000000000000000e+00 0.0000000000000000e+00 0.0000000000000000e+00
75 0.0000000000000000e+00 0.0000000000000000e+00 0.0000000000000000e+00
76 0.0000000000000000e+00 0.0000000000000000e+00 0.0000000000000000e+00
77 0.0000000000000000e+00 0.0000000000000000e+00 0.0000000000000000e+00
78 0.0000000000000000e+00 0.0000000000000000e+00 0.0000000000000000e+00
