       N       E                     dE             d eps       ncg     rms          rms(c)
DAV:   1     0.959002204013E+04    0.95900E+04   -0.50810E+05  1184   0.162E+03
DAV:   2     0.570781312586E+03   -0.90192E+04   -0.86917E+04  1024   0.517E+02
DAV:   3    -0.346356973456E+03   -0.91714E+03   -0.86894E+03  1120   0.175E+02
DAV:   4    -0.403444749130E+03   -0.57088E+02   -0.56421E+02  1160   0.387E+01
DAV:   5    -0.405199792416E+03   -0.17550E+01   -0.17520E+01  1168   0.723E+00    0.823E+01
DAV:   6    -0.491201871797E+03   -0.86002E+02   -0.96851E+02  1160   0.118E+02    0.162E+02
DAV:   7    -0.388011530936E+03    0.10319E+03   -0.23940E+02  1120   0.679E+01    0.750E+01
DAV:   8    -0.480104543682E+03   -0.92093E+02   -0.15585E+02  1216   0.902E+01    0.158E+02
DAV:   9    -0.389996483547E+03    0.90108E+02   -0.13729E+02  1192   0.577E+01    0.911E+01
DAV:  10    -0.374495878825E+03    0.15501E+02   -0.55996E+01  1296   0.409E+01    0.452E+01
DAV:  11    -0.396353983415E+03   -0.21858E+02   -0.56510E+01  1328   0.479E+01    0.965E+01
DAV:  12    -0.382754083757E+03    0.13600E+02   -0.33434E+01  1320   0.289E+01    0.536E+01
DAV:  13    -0.370392214025E+03    0.12362E+02   -0.25688E+01  1248   0.357E+01    0.390E+01
DAV:  14    -0.366994371583E+03    0.33978E+01   -0.16400E+01  1344   0.239E+01    0.358E+01
DAV:  15    -0.362120269211E+03    0.48741E+01   -0.71423E+00  1328   0.159E+01    0.286E+01
DAV:  16    -0.361572308091E+03    0.54796E+00   -0.35788E+00  1328   0.105E+01    0.368E+01
DAV:  17    -0.360463336937E+03    0.11090E+01   -0.88283E+00  1312   0.820E+00    0.259E+01
DAV:  18    -0.358656097496E+03    0.18072E+01   -0.11163E+00  1312   0.696E+00    0.226E+01
DAV:  19    -0.357131977348E+03    0.15241E+01   -0.21287E+00  1336   0.107E+01    0.208E+01
DAV:  20    -0.355717268816E+03    0.14147E+01   -0.22416E+00  1360   0.939E+00    0.142E+01
DAV:  21    -0.355208052552E+03    0.50922E+00   -0.10975E+00  1296   0.602E+00    0.998E+00
DAV:  22    -0.355002382236E+03    0.20567E+00   -0.30155E-01  1272   0.294E+00    0.797E+00
DAV:  23    -0.355056802097E+03   -0.54420E-01   -0.31256E-01  1232   0.372E+00    0.867E+00
DAV:  24    -0.354916260834E+03    0.14054E+00   -0.33272E-01  1304   0.339E+00    0.721E+00
DAV:  25    -0.354871024867E+03    0.45236E-01   -0.26681E-01  1304   0.279E+00    0.602E+00
DAV:  26    -0.354792243107E+03    0.78782E-01   -0.18704E-01  1336   0.265E+00    0.436E+00
DAV:  27    -0.354770444016E+03    0.21799E-01   -0.12291E-01  1304   0.204E+00    0.366E+00
DAV:  28    -0.354773879334E+03   -0.34353E-02   -0.13425E-01  1232   0.190E+00    0.436E+00
DAV:  29    -0.354747483779E+03    0.26396E-01   -0.10378E-01  1328   0.167E+00    0.251E+00
DAV:  30    -0.354751488927E+03   -0.40051E-02   -0.96507E-02  1272   0.144E+00    0.241E+00
DAV:  31    -0.354739489494E+03    0.11999E-01   -0.28134E-02  1264   0.105E+00    0.157E+00
DAV:  32    -0.354735446193E+03    0.40433E-02   -0.10997E-02  1224   0.777E-01    0.120E+00
DAV:  33    -0.354735586124E+03   -0.13993E-03   -0.76210E-03  1296   0.545E-01    0.950E-01
DAV:  34    -0.354733831752E+03    0.17544E-02   -0.42728E-03  1216   0.488E-01    0.692E-01
DAV:  35    -0.354734018397E+03   -0.18664E-03   -0.23275E-03  1232   0.314E-01    0.610E-01
DAV:  36    -0.354733462353E+03    0.55604E-03   -0.19560E-03  1192   0.303E-01    0.357E-01
DAV:  37    -0.354734051008E+03   -0.58865E-03   -0.91237E-04  1032   0.213E-01    0.307E-01
DAV:  38    -0.354734270423E+03   -0.21941E-03   -0.85151E-04   952   0.199E-01    0.241E-01
DAV:  39    -0.354734529017E+03   -0.25859E-03   -0.26934E-04   672   0.103E-01    0.179E-01
DAV:  40    -0.354734840141E+03   -0.31112E-03   -0.14666E-04   600   0.100E-01    0.181E-01
DAV:  41    -0.354735357399E+03   -0.51726E-03   -0.20649E-04   680   0.870E-02    0.100E-01
DAV:  42    -0.354735897373E+03   -0.53997E-03   -0.13956E-04   624   0.796E-02    0.709E-02
DAV:  43    -0.354736448850E+03   -0.55148E-03   -0.10921E-04   680   0.482E-02    0.763E-02
DAV:  44    -0.354736615201E+03   -0.16635E-03   -0.60374E-05   608   0.495E-02    0.489E-02
DAV:  45    -0.354736952887E+03   -0.33769E-03   -0.56462E-05   568   0.394E-02    0.105E-01
DAV:  46    -0.354737066520E+03   -0.11363E-03   -0.29126E-05   608   0.302E-02    0.920E-02
DAV:  47    -0.354737505063E+03   -0.43854E-03   -0.50417E-05   616   0.281E-02    0.393E-02
DAV:  48    -0.354737638684E+03   -0.13362E-03   -0.27219E-05   608   0.266E-02    0.324E-02
DAV:  49    -0.354737754081E+03   -0.11540E-03   -0.22835E-05   584   0.183E-02    0.188E-02
DAV:  50    -0.354737771202E+03   -0.17121E-04   -0.10606E-05   600   0.119E-02
   1 F= -.35473777E+03 E0= -.35417660E+03  d E =-.112235E+01
