LAMMPS (5 Jun 2019)
OMP_NUM_THREADS environment is not set. Defaulting to 1 thread. (../comm.cpp:88)
  using 1 OpenMP thread(s) per MPI task
Reading data file ...
  triclinic box = (0 0 0) to (11.2565 10.0628 21.7442) with tilt (5.04456 0 0)
  1 by 1 by 1 MPI processor grid
  reading atoms ...
  96 atoms
  read_data CPU = 0.000872206 secs
64 atoms in group bulk
WARNING: Using 'neigh_modify every 1 delay 0 check yes' setting during minimization (../min.cpp:168)
Neighbor list info ...
  update every 1 steps, delay 0 steps, check yes
  max neighbors/atom: 2000, page size: 100000
  master list distance cutoff = 8.5
  ghost atom cutoff = 8.5
  binsize = 4.25, bins = 4 3 6
  1 neighbor lists, perpetual/occasional/extra = 1 0 0
  (1) pair eam/alloy, perpetual
      attributes: half, newton on
      pair build: half/bin/newton/tri
      stencil: half/bin/3d/newton/tri
      bin: standard
Setting up cg style minimization ...
  Unit style    : metal
  Current step  : 0
Per MPI rank memory allocation (min/avg/max) = 4.123 | 4.123 | 4.123 Mbytes
Step Temp E_pair E_mol TotEng Press 
       0            0   -413.38461            0   -413.38461   -131851.91 
      28            0   -431.28746            0   -431.28746   -60946.639 
Loop time of 0.0277354 on 1 procs for 28 steps with 96 atoms

99.8% CPU use with 1 MPI tasks x 1 OpenMP threads

Minimization stats:
  Stopping criterion = energy tolerance
  Energy initial, next-to-last, final = 
        -413.384610681     -431.284575689     -431.287461681
  Force two-norm initial, final = 11.4877 0.18849
  Force max component initial, final = 3.36959 0.0718496
  Final line search alpha, max atom move = 0.670396 0.0481677
  Iterations, force evaluations = 28 44

MPI task timing breakdown:
Section |  min time  |  avg time  |  max time  |%varavg| %total
---------------------------------------------------------------
Pair    | 0.026009   | 0.026009   | 0.026009   |   0.0 | 93.78
Neigh   | 0.00080301 | 0.00080301 | 0.00080301 |   0.0 |  2.90
Comm    | 0.00048892 | 0.00048892 | 0.00048892 |   0.0 |  1.76
Output  | 0          | 0          | 0          |   0.0 |  0.00
Modify  | 4.0583e-05 | 4.0583e-05 | 4.0583e-05 |   0.0 |  0.15
Other   |            | 0.0003935  |            |       |  1.42

Nlocal:    96 ave 96 max 96 min
Histogram: 1 0 0 0 0 0 0 0 0 0
Nghost:    1085 ave 1085 max 1085 min
Histogram: 1 0 0 0 0 0 0 0 0 0
Neighs:    6590 ave 6590 max 6590 min
Histogram: 1 0 0 0 0 0 0 0 0 0

Total # of neighbors = 6590
Ave neighs/atom = 68.6458
Neighbor list builds = 1
Dangerous builds = 0
System init for write_data ...
Total wall time: 0:00:00
