"Millerite NiS"                         
           1
    11.256463    0.000000    0.000000
     5.044562   10.062820    0.000000
     0.000000    0.000000   21.744232
   Ty   Ty
  48  48
Direct configuration=     1
   0.26092070  0.47878036  0.25332799
   0.35488056  0.38482049  0.38835497
   0.37303594  0.36666529  0.49706182
   0.16696083  0.07274024  0.11830101
   0.04887508  0.05435279  0.47232993
   0.27423906  0.33335899  0.08262607
   0.36819893  0.23939913  0.21765305
   0.46215880  0.14543926  0.35268003
   0.00030194  0.37150212  0.21765305
   0.09426181  0.27754226  0.35268003
   0.18535213  0.19082913  0.47232634
   0.40765980  0.45554373  0.10060225
   0.76092070  0.47878036  0.25332799
   0.85488056  0.38482049  0.38835497
   0.87304926  0.36665133  0.49706558
   0.67693732  0.05518512  0.13189410
   0.54887197  0.05435084  0.47232888
   0.79039452  0.35752359  0.10640855
   0.86819893  0.23939913  0.21765305
   0.96215880  0.14543926  0.35268003
   0.50030194  0.37150212  0.21765305
   0.59426181  0.27754226  0.35268003
   0.68534841  0.19082780  0.47233026
   0.93621816  0.46559857  0.10281892
   0.26092070  0.97878036  0.25332799
   0.35488056  0.88482049  0.38835497
   0.37303952  0.86666173  0.49706377
   0.16696083  0.57274024  0.11830101
   0.04887425  0.55435099  0.47232819
   0.28308009  0.81206092  0.10254418
   0.36819893  0.73939913  0.21765305
   0.46215880  0.64543926  0.35268003
   0.00030194  0.87150212  0.21765305
   0.09426181  0.77754226  0.35268003
   0.18535077  0.69082654  0.47232870
   0.41593941  0.95916549  0.10148185
   0.76092070  0.97878036  0.25332799
   0.85488056  0.88482049  0.38835497
   0.87304422  0.86665617  0.49706411
   0.66906918  0.58970869  0.14024627
   0.54887498  0.55435072  0.47233528
   0.77423907  0.83335899  0.08262607
   0.86819893  0.73939913  0.21765305
   0.96215880  0.64543926  0.35268003
   0.50030194  0.87150212  0.21765305
   0.59426181  0.77754226  0.35268003
   0.68534962  0.69082528  0.47233625
   0.98675322  0.94273525  0.11326478
   0.07287763  0.16682343  0.27005396
   0.16683750  0.07286357  0.40508094
   0.36987053  0.38859660  0.02049132
   0.47891775  0.26078330  0.13502698
   0.20968420  0.53001650  0.52690333
   0.03023343  0.37768264  0.45050807
   0.43627354  0.47164251  0.31548109
   0.27480213  0.14604131  0.06682185
   0.34231368  0.06560239  0.18045411
   0.09030231  0.48211626  0.05903365
   0.17409868  0.39738738  0.18045411
   0.26805855  0.30342751  0.31548109
   0.36201842  0.20946765  0.45050807
   0.57287763  0.16682343  0.27005396
   0.66683750  0.07286357  0.40508094
   0.97891775  0.26078330  0.13502698
   0.70969487  0.53000497  0.52690399
   0.53023343  0.37768264  0.45050807
   0.93627354  0.47164251  0.31548109
   0.84231368  0.06560239  0.18045411
   0.67409868  0.39738738  0.18045411
   0.76805855  0.30342751  0.31548109
   0.86201842  0.20946765  0.45050807
   0.07287764  0.66682343  0.27005396
   0.16683750  0.57286357  0.40508094
   0.47891775  0.76078330  0.13502698
   0.20968869  0.03001801  0.52690207
   0.03023342  0.87768264  0.45050807
   0.43627354  0.97164251  0.31548109
   0.27369305  0.64481816  0.06592361
   0.34231368  0.56560239  0.18045411
   0.12514613  0.96047898  0.05647496
   0.17409868  0.89738738  0.18045411
   0.26805855  0.80342751  0.31548109
   0.36201842  0.70946764  0.45050807
   0.57287764  0.66682343  0.27005396
   0.66683750  0.57286357  0.40508094
   0.81767782  0.98635909  0.06162471
   0.97891775  0.76078330  0.13502698
   0.70968826  0.03001024  0.52690083
   0.53023342  0.87768264  0.45050807
   0.93627354  0.97164251  0.31548109
   0.77180043  0.64602081  0.07253357
   0.84231368  0.56560239  0.18045411
   0.58204288  0.97682142  0.06960825
   0.67409868  0.89738738  0.18045411
   0.76805855  0.80342751  0.31548109
   0.86201842  0.70946764  0.45050807
