  74  74   0   0
  0.3639907E+02  0.1688469E-08  0.9578410E-09  0.1665465E-08  0.5000000E-15
  1.000000000000000E-004
  CAR 
 "Millerite NiS"                         
      8.94661451    -67.93388180  301     -0.28369924      1.00000000
    -67.934  0.0000E+00  0.0000E+00
    -67.678  0.0000E+00  0.0000E+00
    -67.421  0.0000E+00  0.0000E+00
    -67.165  0.0000E+00  0.0000E+00
    -66.909  0.0000E+00  0.0000E+00
    -66.653  0.0000E+00  0.0000E+00
    -66.396  0.0000E+00  0.0000E+00
    -66.140  0.0000E+00  0.0000E+00
    -65.884  0.0000E+00  0.0000E+00
    -65.627  0.0000E+00  0.0000E+00
    -65.371  0.4605E-09  0.1180E-09
    -65.115  0.2463E-04  0.6312E-05
    -64.859  0.6261E-01  0.1605E-01
    -64.602  0.9270E+01  0.2392E+01
    -64.346  0.1172E+03  0.3242E+02
    -64.090  0.2253E+03  0.9015E+02
    -63.834  0.1519E+03  0.1291E+03
    -63.577  0.1272E+03  0.1617E+03
    -63.321  0.8988E+02  0.1847E+03
    -63.065  0.6250E+02  0.2007E+03
    -62.809  0.5777E+02  0.2155E+03
    -62.552  0.1985E+02  0.2206E+03
    -62.296  0.4877E+01  0.2219E+03
    -62.040  0.4834E+00  0.2220E+03
    -61.783  0.3164E-02  0.2220E+03
    -61.527  0.9580E-06  0.2220E+03
    -61.271  0.1209E-10  0.2220E+03
    -61.015  0.0000E+00  0.2220E+03
    -60.758  0.0000E+00  0.2220E+03
    -60.502  0.0000E+00  0.2220E+03
    -60.246  0.0000E+00  0.2220E+03
    -59.990  0.0000E+00  0.2220E+03
    -59.733  0.0000E+00  0.2220E+03
    -59.477  0.0000E+00  0.2220E+03
    -59.221  0.0000E+00  0.2220E+03
    -58.964  0.0000E+00  0.2220E+03
    -58.708  0.0000E+00  0.2220E+03
    -58.452  0.0000E+00  0.2220E+03
    -58.196  0.0000E+00  0.2220E+03
    -57.939  0.0000E+00  0.2220E+03
    -57.683  0.0000E+00  0.2220E+03
    -57.427  0.0000E+00  0.2220E+03
    -57.171  0.0000E+00  0.2220E+03
    -56.914  0.0000E+00  0.2220E+03
    -56.658  0.0000E+00  0.2220E+03
    -56.402  0.0000E+00  0.2220E+03
    -56.146  0.0000E+00  0.2220E+03
    -55.889  0.0000E+00  0.2220E+03
    -55.633  0.0000E+00  0.2220E+03
    -55.377  0.0000E+00  0.2220E+03
    -55.120  0.0000E+00  0.2220E+03
    -54.864  0.0000E+00  0.2220E+03
    -54.608  0.0000E+00  0.2220E+03
    -54.352  0.0000E+00  0.2220E+03
    -54.095  0.0000E+00  0.2220E+03
    -53.839  0.0000E+00  0.2220E+03
    -53.583  0.0000E+00  0.2220E+03
    -53.327  0.0000E+00  0.2220E+03
    -53.070  0.0000E+00  0.2220E+03
    -52.814  0.0000E+00  0.2220E+03
    -52.558  0.0000E+00  0.2220E+03
    -52.302  0.0000E+00  0.2220E+03
    -52.045  0.0000E+00  0.2220E+03
    -51.789  0.0000E+00  0.2220E+03
    -51.533  0.0000E+00  0.2220E+03
    -51.276  0.0000E+00  0.2220E+03
    -51.020  0.0000E+00  0.2220E+03
    -50.764  0.0000E+00  0.2220E+03
    -50.508  0.0000E+00  0.2220E+03
    -50.251  0.0000E+00  0.2220E+03
    -49.995  0.0000E+00  0.2220E+03
    -49.739  0.0000E+00  0.2220E+03
    -49.483  0.0000E+00  0.2220E+03
    -49.226  0.0000E+00  0.2220E+03
    -48.970  0.0000E+00  0.2220E+03
    -48.714  0.0000E+00  0.2220E+03
    -48.457  0.0000E+00  0.2220E+03
    -48.201  0.0000E+00  0.2220E+03
    -47.945  0.0000E+00  0.2220E+03
    -47.689  0.0000E+00  0.2220E+03
    -47.432  0.0000E+00  0.2220E+03
    -47.176  0.0000E+00  0.2220E+03
    -46.920  0.0000E+00  0.2220E+03
    -46.664  0.0000E+00  0.2220E+03
    -46.407  0.0000E+00  0.2220E+03
    -46.151  0.0000E+00  0.2220E+03
    -45.895  0.0000E+00  0.2220E+03
    -45.639  0.0000E+00  0.2220E+03
    -45.382  0.0000E+00  0.2220E+03
    -45.126  0.0000E+00  0.2220E+03
    -44.870  0.0000E+00  0.2220E+03
    -44.613  0.0000E+00  0.2220E+03
    -44.357  0.0000E+00  0.2220E+03
    -44.101  0.0000E+00  0.2220E+03
    -43.845  0.0000E+00  0.2220E+03
    -43.588  0.0000E+00  0.2220E+03
    -43.332  0.0000E+00  0.2220E+03
    -43.076  0.0000E+00  0.2220E+03
    -42.820  0.0000E+00  0.2220E+03
    -42.563  0.0000E+00  0.2220E+03
    -42.307  0.0000E+00  0.2220E+03
    -42.051  0.0000E+00  0.2220E+03
    -41.795  0.0000E+00  0.2220E+03
    -41.538  0.0000E+00  0.2220E+03
    -41.282  0.0000E+00  0.2220E+03
    -41.026  0.0000E+00  0.2220E+03
    -40.769  0.0000E+00  0.2220E+03
    -40.513  0.0000E+00  0.2220E+03
    -40.257  0.0000E+00  0.2220E+03
    -40.001  0.0000E+00  0.2220E+03
    -39.744  0.0000E+00  0.2220E+03
    -39.488  0.0000E+00  0.2220E+03
    -39.232  0.0000E+00  0.2220E+03
    -38.976  0.0000E+00  0.2220E+03
    -38.719  0.0000E+00  0.2220E+03
    -38.463  0.0000E+00  0.2220E+03
    -38.207  0.0000E+00  0.2220E+03
    -37.950  0.0000E+00  0.2220E+03
    -37.694  0.0000E+00  0.2220E+03
    -37.438  0.0000E+00  0.2220E+03
    -37.182  0.0000E+00  0.2220E+03
    -36.925  0.0000E+00  0.2220E+03
    -36.669  0.0000E+00  0.2220E+03
    -36.413  0.0000E+00  0.2220E+03
    -36.157  0.0000E+00  0.2220E+03
    -35.900  0.0000E+00  0.2220E+03
    -35.644  0.0000E+00  0.2220E+03
    -35.388  0.0000E+00  0.2220E+03
    -35.132  0.0000E+00  0.2220E+03
    -34.875  0.0000E+00  0.2220E+03
    -34.619  0.0000E+00  0.2220E+03
    -34.363  0.0000E+00  0.2220E+03
    -34.106  0.0000E+00  0.2220E+03
    -33.850  0.0000E+00  0.2220E+03
    -33.594  0.0000E+00  0.2220E+03
    -33.338  0.0000E+00  0.2220E+03
    -33.081  0.0000E+00  0.2220E+03
    -32.825  0.0000E+00  0.2220E+03
    -32.569  0.0000E+00  0.2220E+03
    -32.313  0.0000E+00  0.2220E+03
    -32.056  0.0000E+00  0.2220E+03
    -31.800  0.0000E+00  0.2220E+03
    -31.544  0.0000E+00  0.2220E+03
    -31.288  0.0000E+00  0.2220E+03
    -31.031  0.0000E+00  0.2220E+03
    -30.775  0.0000E+00  0.2220E+03
    -30.519  0.0000E+00  0.2220E+03
    -30.262  0.0000E+00  0.2220E+03
    -30.006  0.0000E+00  0.2220E+03
    -29.750  0.0000E+00  0.2220E+03
    -29.494  0.0000E+00  0.2220E+03
    -29.237  0.0000E+00  0.2220E+03
    -28.981  0.0000E+00  0.2220E+03
    -28.725  0.0000E+00  0.2220E+03
    -28.469  0.0000E+00  0.2220E+03
    -28.212  0.0000E+00  0.2220E+03
    -27.956  0.0000E+00  0.2220E+03
    -27.700  0.0000E+00  0.2220E+03
    -27.443  0.0000E+00  0.2220E+03
    -27.187  0.0000E+00  0.2220E+03
    -26.931  0.0000E+00  0.2220E+03
    -26.675  0.0000E+00  0.2220E+03
    -26.418  0.0000E+00  0.2220E+03
    -26.162  0.0000E+00  0.2220E+03
    -25.906  0.0000E+00  0.2220E+03
    -25.650  0.0000E+00  0.2220E+03
    -25.393  0.0000E+00  0.2220E+03
    -25.137  0.0000E+00  0.2220E+03
    -24.881  0.0000E+00  0.2220E+03
    -24.625  0.0000E+00  0.2220E+03
    -24.368  0.0000E+00  0.2220E+03
    -24.112  0.0000E+00  0.2220E+03
    -23.856  0.0000E+00  0.2220E+03
    -23.599  0.0000E+00  0.2220E+03
    -23.343  0.0000E+00  0.2220E+03
    -23.087  0.0000E+00  0.2220E+03
    -22.831  0.0000E+00  0.2220E+03
    -22.574  0.0000E+00  0.2220E+03
    -22.318  0.0000E+00  0.2220E+03
    -22.062  0.0000E+00  0.2220E+03
    -21.806  0.0000E+00  0.2220E+03
    -21.549  0.0000E+00  0.2220E+03
    -21.293  0.0000E+00  0.2220E+03
    -21.037  0.0000E+00  0.2220E+03
    -20.781  0.0000E+00  0.2220E+03
    -20.524  0.0000E+00  0.2220E+03
    -20.268  0.0000E+00  0.2220E+03
    -20.012  0.0000E+00  0.2220E+03
    -19.755  0.0000E+00  0.2220E+03
    -19.499  0.0000E+00  0.2220E+03
    -19.243  0.0000E+00  0.2220E+03
    -18.987  0.0000E+00  0.2220E+03
    -18.730  0.0000E+00  0.2220E+03
    -18.474  0.0000E+00  0.2220E+03
    -18.218  0.0000E+00  0.2220E+03
    -17.962  0.0000E+00  0.2220E+03
    -17.705  0.0000E+00  0.2220E+03
    -17.449  0.0000E+00  0.2220E+03
    -17.193  0.0000E+00  0.2220E+03
    -16.936  0.0000E+00  0.2220E+03
    -16.680  0.0000E+00  0.2220E+03
    -16.424  0.0000E+00  0.2220E+03
    -16.168  0.1157E-09  0.2220E+03
    -15.911  0.5165E-05  0.2220E+03
    -15.655  0.9729E-02  0.2220E+03
    -15.399  0.8774E+00  0.2222E+03
    -15.143  0.5725E+01  0.2237E+03
    -14.886  0.1029E+02  0.2263E+03
    -14.630  0.8456E+01  0.2285E+03
    -14.374  0.1439E+02  0.2322E+03
    -14.118  0.2356E+02  0.2382E+03
    -13.861  0.3104E+02  0.2462E+03
    -13.605  0.3053E+02  0.2540E+03
    -13.349  0.2548E+02  0.2605E+03
    -13.092  0.3077E+02  0.2684E+03
    -12.836  0.2645E+02  0.2752E+03
    -12.580  0.2268E+02  0.2810E+03
    -12.324  0.2288E+02  0.2869E+03
    -12.067  0.1530E+02  0.2908E+03
    -11.811  0.9122E+01  0.2931E+03
    -11.555  0.3309E+01  0.2940E+03
    -11.299  0.2589E+01  0.2946E+03
    -11.042  0.4598E+01  0.2958E+03
    -10.786  0.6823E+00  0.2960E+03
    -10.530  0.6071E-02  0.2960E+03
    -10.274  0.2532E-05  0.2960E+03
    -10.017  0.4432E-10  0.2960E+03
     -9.761  0.0000E+00  0.2960E+03
     -9.505  0.0000E+00  0.2960E+03
     -9.248  0.0000E+00  0.2960E+03
     -8.992  0.0000E+00  0.2960E+03
     -8.736  0.0000E+00  0.2960E+03
     -8.480  0.0000E+00  0.2960E+03
     -8.223  0.0000E+00  0.2960E+03
     -7.967  0.1181E-10  0.2960E+03
     -7.711  0.1130E-05  0.2960E+03
     -7.455  0.4652E-02  0.2960E+03
     -7.198  0.9486E+00  0.2962E+03
     -6.942  0.1323E+02  0.2996E+03
     -6.686  0.2371E+02  0.3057E+03
     -6.429  0.2847E+02  0.3130E+03
     -6.173  0.3733E+02  0.3226E+03
     -5.917  0.4295E+02  0.3336E+03
     -5.661  0.4849E+02  0.3460E+03
     -5.404  0.4930E+02  0.3586E+03
     -5.148  0.4717E+02  0.3707E+03
     -4.892  0.4419E+02  0.3821E+03
     -4.636  0.5291E+02  0.3956E+03
     -4.379  0.5760E+02  0.4104E+03
     -4.123  0.5688E+02  0.4249E+03
     -3.867  0.6595E+02  0.4419E+03
     -3.611  0.6505E+02  0.4585E+03
     -3.354  0.6135E+02  0.4742E+03
     -3.098  0.5791E+02  0.4891E+03
     -2.842  0.5988E+02  0.5044E+03
     -2.585  0.6882E+02  0.5221E+03
     -2.329  0.9996E+02  0.5477E+03
     -2.073  0.1323E+03  0.5816E+03
     -1.817  0.1638E+03  0.6236E+03
     -1.560  0.1632E+03  0.6654E+03
     -1.304  0.1413E+03  0.7016E+03
     -1.048  0.1228E+03  0.7331E+03
     -0.792  0.1237E+03  0.7648E+03
     -0.535  0.1102E+03  0.7930E+03
     -0.279  0.8316E+02  0.8143E+03
     -0.023  0.6535E+02  0.8311E+03
      0.233  0.5644E+02  0.8455E+03
      0.490  0.5425E+02  0.8594E+03
      0.746  0.5549E+02  0.8737E+03
      1.002  0.5778E+02  0.8885E+03
      1.259  0.2421E+02  0.8947E+03
      1.515  0.9377E+01  0.8971E+03
      1.771  0.1448E+02  0.9008E+03
      2.027  0.6266E+01  0.9024E+03
      2.284  0.5883E+01  0.9039E+03
      2.540  0.1028E+02  0.9065E+03
      2.796  0.1154E+02  0.9095E+03
      3.052  0.6943E+01  0.9113E+03
      3.309  0.8507E+01  0.9135E+03
      3.565  0.9775E+01  0.9160E+03
      3.821  0.1633E+02  0.9201E+03
      4.078  0.2179E+02  0.9257E+03
      4.334  0.3315E+02  0.9342E+03
      4.590  0.2885E+02  0.9416E+03
      4.846  0.3345E+02  0.9502E+03
      5.103  0.3437E+02  0.9590E+03
      5.359  0.3958E+02  0.9691E+03
      5.615  0.2413E+02  0.9753E+03
      5.871  0.2595E+01  0.9760E+03
      6.128  0.2322E-01  0.9760E+03
      6.384  0.1125E-04  0.9760E+03
      6.640  0.2467E-09  0.9760E+03
      6.896  0.0000E+00  0.9760E+03
      7.153  0.0000E+00  0.9760E+03
      7.409  0.0000E+00  0.9760E+03
      7.665  0.0000E+00  0.9760E+03
      7.922  0.0000E+00  0.9760E+03
      8.178  0.0000E+00  0.9760E+03
      8.434  0.0000E+00  0.9760E+03
      8.690  0.0000E+00  0.9760E+03
      8.947  0.0000E+00  0.9760E+03
