<?xml version="1.0" encoding="ISO-8859-1"?>
<modeling>
 <generator>
  <i name="program" type="string">vasp </i>
  <i name="version" type="string">6.1.0  </i>
  <i name="subversion" type="string">28Jan20 (build Mar 31 2020 17:42:31) gamma-only                       parallel </i>
  <i name="platform" type="string">LinuxIFC </i>
  <i name="date" type="string">2020 04 13 </i>
  <i name="time" type="string">04:28:24 </i>
 </generator>
 <incar>
  <i type="string" name="SYSTEM">"Millerite NiS"</i>
  <i type="int" name="NSIM">     4</i>
  <i type="int" name="NELM">   100</i>
  <i name="ENCUT">    450.00000000</i>
  <i type="string" name="LREAL">A</i>
  <i type="int" name="ISMEAR">     0</i>
  <i type="int" name="NWRITE">     2</i>
  <i type="logical" name="LWAVE"> F  </i>
  <i type="logical" name="LCHARG"> F  </i>
  <i type="int" name="NCORE">     6</i>
  <i type="int" name="NELM">   100</i>
 </incar>
 <structure name="primitive_cell" >
  <crystal>
   <varray name="basis" >
    <v>      10.40335375      -4.78920500       0.00000000 </v>
    <v>       0.00000000       9.57841000       0.00000000 </v>
    <v>       0.00000000       0.00000000      20.50076286 </v>
   </varray>
   <i name="volume">   2042.85156262 </i>
   <varray name="rec_basis" >
    <v>       0.09612285       0.00000000       0.00000000 </v>
    <v>       0.04806142       0.10440146       0.00000000 </v>
    <v>       0.00000000       0.00000000       0.04877867 </v>
   </varray>
  </crystal>
  <varray name="positions" >
   <v>       0.58044680       0.07437514       0.34941513 </v>
   <v>       0.76256081       0.16543215       0.22731652 </v>
   <v>       0.94467483       0.25648915       0.10521791 </v>
   <v>       0.39833278       0.98331813       0.47151374 </v>
   <v>       0.03518947       0.80174648       0.26801605 </v>
   <v>       0.21730349       0.89280348       0.14591744 </v>
   <v>       0.39941750       0.98386049       0.02381883 </v>
   <v>       0.67096144       0.61963246       0.51221327 </v>
   <v>       0.85307546       0.71068947       0.39011466 </v>
   <v>       0.12570412       0.34700380       0.43081420 </v>
   <v>       0.30781813       0.43806081       0.30871559 </v>
   <v>       0.48993215       0.52911781       0.18661698 </v>
   <v>       0.67204616       0.62017482       0.06451837 </v>
   <v>       0.23035801       0.03143375       0.40699537 </v>
   <v>       0.41247203       0.12249075       0.28489676 </v>
   <v>       0.59458604       0.21354776       0.16279815 </v>
   <v>       0.77670006       0.30460477       0.04069954 </v>
   <v>       0.04932872       0.94091910       0.08139907 </v>
   <v>       0.50298667       0.66774808       0.44769490 </v>
   <v>       0.68510069       0.75880508       0.32559629 </v>
   <v>       0.86721470       0.84986209       0.20349768 </v>
   <v>       0.13984337       0.48617642       0.24419722 </v>
   <v>       0.32195738       0.57723343       0.12209861 </v>
   <v>       0.50407140       0.66829044       0.00000000 </v>
   <v>       0.95772935       0.39511942       0.36629583 </v>
   <v>       0.39833278       0.24752413       0.47151374 </v>
   <v>       0.58044680       0.33858114       0.34941513 </v>
   <v>       0.76256081       0.42963815       0.22731652 </v>
   <v>       0.94467483       0.52069515       0.10521791 </v>
   <v>       0.03518947       0.06595248       0.26801605 </v>
   <v>       0.21730349       0.15700948       0.14591744 </v>
   <v>       0.85307546       0.97489547       0.39011466 </v>
   <v>       0.12570412       0.61120980       0.43081420 </v>
   <v>       0.30781813       0.70226681       0.30871559 </v>
   <v>       0.48993215       0.79332382       0.18661698 </v>
   <v>       0.67204616       0.88438082       0.06451837 </v>
   <v>       0.18441112       0.17667530       0.48070540 </v>
   <v>       0.36652513       0.26773231       0.35860679 </v>
   <v>       0.54863915       0.35878931       0.23650818 </v>
   <v>       0.73075316       0.44984632       0.11440957 </v>
   <v>       0.00338182       0.08616065       0.15510911 </v>
   <v>       0.18549584       0.17721766       0.03301050 </v>
   <v>       0.63915379       0.90404664       0.39930633 </v>
   <v>       0.82126781       0.99510365       0.27720772 </v>
   <v>       0.09389647       0.63141797       0.31790726 </v>
   <v>       0.27601049       0.72247498       0.19580864 </v>
   <v>       0.45812450       0.81353199       0.07371003 </v>
   <v>       0.91178246       0.54036097       0.44000587 </v>
   <v>       0.12675994       0.47963471       0.07446623 </v>
   <v>       0.58041790       0.20646369       0.44076206 </v>
   <v>       0.76253191       0.29752070       0.31866345 </v>
   <v>       0.94464593       0.38857770       0.19656484 </v>
   <v>       0.21727459       0.02489203       0.23726438 </v>
   <v>       0.39938860       0.11594904       0.11516577 </v>
   <v>       0.03516057       0.93383503       0.35936299 </v>
   <v>       0.85304656       0.84277802       0.48146160 </v>
   <v>       0.30778923       0.57014936       0.40006253 </v>
   <v>       0.48990325       0.66120636       0.27796392 </v>
   <v>       0.67201726       0.75226337       0.15586531 </v>
   <v>       0.85413128       0.84332038       0.03376670 </v>
   <v>       0.54863915       0.02235931       0.23650818 </v>
   <v>       0.73075316       0.11341632       0.11440957 </v>
   <v>       0.18441112       0.84024530       0.48070540 </v>
   <v>       0.36652513       0.93130231       0.35860679 </v>
   <v>       0.00338182       0.74973065       0.15510911 </v>
   <v>       0.18549584       0.84078766       0.03301050 </v>
   <v>       0.63915379       0.56761664       0.39930633 </v>
   <v>       0.82126781       0.65867365       0.27720772 </v>
   <v>       0.09389647       0.29498797       0.31790726 </v>
   <v>       0.27601049       0.38604498       0.19580864 </v>
   <v>       0.45812450       0.47710199       0.07371003 </v>
   <v>       0.91178246       0.20393097       0.44000587 </v>
  </varray>
 </structure>
 <varray name="primitive_index" >
  <v type="int" >        1 </v>
  <v type="int" >        2 </v>
  <v type="int" >        3 </v>
  <v type="int" >        4 </v>
  <v type="int" >        5 </v>
  <v type="int" >        6 </v>
  <v type="int" >        7 </v>
  <v type="int" >        8 </v>
  <v type="int" >        9 </v>
  <v type="int" >       10 </v>
  <v type="int" >       11 </v>
  <v type="int" >       12 </v>
  <v type="int" >       13 </v>
  <v type="int" >       14 </v>
  <v type="int" >       15 </v>
  <v type="int" >       16 </v>
  <v type="int" >       17 </v>
  <v type="int" >       18 </v>
  <v type="int" >       19 </v>
  <v type="int" >       20 </v>
  <v type="int" >       21 </v>
  <v type="int" >       22 </v>
  <v type="int" >       23 </v>
  <v type="int" >       24 </v>
  <v type="int" >       25 </v>
  <v type="int" >       26 </v>
  <v type="int" >       27 </v>
  <v type="int" >       28 </v>
  <v type="int" >       29 </v>
  <v type="int" >       30 </v>
  <v type="int" >       31 </v>
  <v type="int" >       32 </v>
  <v type="int" >       33 </v>
  <v type="int" >       34 </v>
  <v type="int" >       35 </v>
  <v type="int" >       36 </v>
  <v type="int" >       37 </v>
  <v type="int" >       38 </v>
  <v type="int" >       39 </v>
  <v type="int" >       40 </v>
  <v type="int" >       41 </v>
  <v type="int" >       42 </v>
  <v type="int" >       43 </v>
  <v type="int" >       44 </v>
  <v type="int" >       45 </v>
  <v type="int" >       46 </v>
  <v type="int" >       47 </v>
  <v type="int" >       48 </v>
  <v type="int" >       49 </v>
  <v type="int" >       50 </v>
  <v type="int" >       51 </v>
  <v type="int" >       52 </v>
  <v type="int" >       53 </v>
  <v type="int" >       54 </v>
  <v type="int" >       55 </v>
  <v type="int" >       56 </v>
  <v type="int" >       57 </v>
  <v type="int" >       58 </v>
  <v type="int" >       59 </v>
  <v type="int" >       60 </v>
  <v type="int" >       61 </v>
  <v type="int" >       62 </v>
  <v type="int" >       63 </v>
  <v type="int" >       64 </v>
  <v type="int" >       65 </v>
  <v type="int" >       66 </v>
  <v type="int" >       67 </v>
  <v type="int" >       68 </v>
  <v type="int" >       69 </v>
  <v type="int" >       70 </v>
  <v type="int" >       71 </v>
  <v type="int" >       72 </v>
 </varray>
 <kpoints>
  <generation param="Gamma">
   <v type="int" name="divisions">       1        1        1 </v>
   <v name="usershift">      0.00000000       0.00000000       0.00000000 </v>
   <v name="genvec1">      1.00000000       0.00000000       0.00000000 </v>
   <v name="genvec2">      0.00000000       1.00000000       0.00000000 </v>
   <v name="genvec3">      0.00000000       0.00000000       1.00000000 </v>
   <v name="shift">      0.00000000       0.00000000       0.00000000 </v>
  </generation>
  <varray name="kpointlist" >
   <v>       0.00000000       0.00000000       0.00000000 </v>
  </varray>
  <varray name="weights" >
   <v>       1.00000000 </v>
  </varray>
 </kpoints>
 <parameters>
  <separator name="general" >
   <i type="string" name="SYSTEM">"Millerite NiS"</i>
   <i type="logical" name="LCOMPAT"> F  </i>
  </separator>
  <separator name="electronic" >
   <i type="string" name="PREC">normal</i>
   <i name="ENMAX">    450.00000000</i>
   <i name="ENAUG">    703.44300000</i>
   <i name="EDIFF">      0.00010000</i>
   <i type="int" name="IALGO">    38</i>
   <i type="int" name="IWAVPR">    10</i>
   <i type="int" name="NBANDS">   480</i>
   <i type="int" name="NBANDSLOW">    -1</i>
   <i type="int" name="NBANDSHIGH">    -1</i>
   <i name="NELECT">    792.00000000</i>
   <i type="int" name="TURBO">     0</i>
   <i type="int" name="IRESTART">     0</i>
   <i type="int" name="NREBOOT">     0</i>
   <i type="int" name="NMIN">     0</i>
   <i name="EREF">      0.00000000</i>
   <separator name="electronic smearing" >
    <i type="int" name="ISMEAR">     0</i>
    <i name="SIGMA">      0.20000000</i>
    <i name="KSPACING">      0.50000000</i>
    <i type="logical" name="KGAMMA"> T  </i>
    <i type="logical" name="KBLOWUP"> T  </i>
   </separator>
   <separator name="electronic projectors" >
    <i type="logical" name="LREAL"> T  </i>
    <v name="ROPT">     -0.00050000     -0.00050000</v>
    <i type="int" name="LMAXPAW">  -100</i>
    <i type="int" name="LMAXMIX">     2</i>
    <i type="logical" name="NLSPLINE"> F  </i>
   </separator>
   <separator name="electronic startup" >
    <i type="int" name="ISTART">     0</i>
    <i type="int" name="ICHARG">     2</i>
    <i type="int" name="INIWAV">     1</i>
   </separator>
   <separator name="electronic spin" >
    <i type="int" name="ISPIN">     1</i>
    <i type="logical" name="LNONCOLLINEAR"> F  </i>
    <v name="MAGMOM">      1.00000000      1.00000000      1.00000000      1.00000000      1.00000000      1.00000000      1.00000000      1.00000000      1.00000000      1.00000000      1.00000000      1.00000000      1.00000000      1.00000000      1.00000000      1.00000000      1.00000000      1.00000000      1.00000000      1.00000000
      1.00000000      1.00000000      1.00000000      1.00000000      1.00000000      1.00000000      1.00000000      1.00000000      1.00000000      1.00000000      1.00000000      1.00000000      1.00000000      1.00000000      1.00000000      1.00000000      1.00000000      1.00000000      1.00000000      1.00000000
      1.00000000      1.00000000      1.00000000      1.00000000      1.00000000      1.00000000      1.00000000      1.00000000      1.00000000      1.00000000      1.00000000      1.00000000      1.00000000      1.00000000      1.00000000      1.00000000      1.00000000      1.00000000      1.00000000      1.00000000
      1.00000000      1.00000000      1.00000000      1.00000000      1.00000000      1.00000000      1.00000000      1.00000000      1.00000000      1.00000000      1.00000000      1.00000000</v>
    <i name="NUPDOWN">     -1.00000000</i>
    <i type="logical" name="LSORBIT"> F  </i>
    <v name="SAXIS">      0.00000000      0.00000000      1.00000000</v>
    <i type="logical" name="LSPIRAL"> F  </i>
    <v name="QSPIRAL">      0.00000000      0.00000000      0.00000000</v>
    <i type="logical" name="LZEROZ"> F  </i>
   </separator>
   <separator name="electronic exchange-correlation" >
    <i type="logical" name="LASPH"> F  </i>
    <i type="logical" name="LMETAGGA"> F  </i>
   </separator>
   <separator name="electronic convergence" >
    <i type="int" name="NELM">   100</i>
    <i type="int" name="NELMDL">    -5</i>
    <i type="int" name="NELMIN">     2</i>
    <i name="ENINI">    450.00000000</i>
    <separator name="electronic convergence detail" >
     <i type="logical" name="LDIAG"> T  </i>
     <i type="logical" name="LSUBROT"> F  </i>
     <i name="WEIMIN">      0.00000000</i>
     <i name="EBREAK">      0.00000005</i>
     <i name="DEPER">      0.30000000</i>
     <i type="int" name="NRMM">     4</i>
     <i name="TIME">      0.40000000</i>
    </separator>
   </separator>
   <separator name="electronic mixer" >
    <i name="AMIX">      0.40000000</i>
    <i name="BMIX">      1.00000000</i>
    <i name="AMIN">      0.10000000</i>
    <i name="AMIX_MAG">      1.60000000</i>
    <i name="BMIX_MAG">      1.00000000</i>
    <separator name="electronic mixer details" >
     <i type="int" name="IMIX">     4</i>
     <i type="logical" name="MIXFIRST"> F  </i>
     <i type="int" name="MAXMIX">   -45</i>
     <i name="WC">    100.00000000</i>
     <i type="int" name="INIMIX">     1</i>
     <i type="int" name="MIXPRE">     1</i>
     <i type="int" name="MREMOVE">     5</i>
    </separator>
   </separator>
   <separator name="electronic dipolcorrection" >
    <i type="logical" name="LDIPOL"> F  </i>
    <i type="logical" name="LMONO"> F  </i>
    <i type="int" name="IDIPOL">     0</i>
    <i name="EPSILON">      1.00000000</i>
    <v name="DIPOL">   -100.00000000   -100.00000000   -100.00000000</v>
    <i name="EFIELD">      0.00000000</i>
   </separator>
  </separator>
  <separator name="grids" >
   <i type="int" name="NGX">    60</i>
   <i type="int" name="NGY">    50</i>
   <i type="int" name="NGZ">   108</i>
   <i type="int" name="NGXF">   120</i>
   <i type="int" name="NGYF">   100</i>
   <i type="int" name="NGZF">   216</i>
   <i type="logical" name="ADDGRID"> F  </i>
  </separator>
  <separator name="ionic" >
   <i type="int" name="NSW">     0</i>
   <i type="int" name="IBRION">    -1</i>
   <i type="int" name="MDALGO">     0</i>
   <i type="int" name="ISIF">     2</i>
   <i name="PSTRESS">      0.00000000</i>
   <i name="EDIFFG">      0.00100000</i>
   <i type="int" name="NFREE">     0</i>
   <i name="POTIM">      0.50000000</i>
   <i name="SMASS">     -3.00000000</i>
   <i name="SCALEE">      1.00000000</i>
  </separator>
  <separator name="ionic md" >
   <i name="TEBEG">      0.00010000</i>
   <i name="TEEND">      0.00010000</i>
   <i type="int" name="NBLOCK">     1</i>
   <i type="int" name="KBLOCK">     1</i>
   <i type="int" name="NPACO">   256</i>
   <i name="APACO">     16.00000000</i>
  </separator>
  <separator name="symmetry" >
   <i type="int" name="ISYM">     2</i>
   <i name="SYMPREC">      0.00001000</i>
  </separator>
  <separator name="dos" >
   <i type="int" name="LORBIT">     0</i>
   <v name="RWIGS">     -1.00000000     -1.00000000</v>
   <i type="int" name="NEDOS">   301</i>
   <i name="EMIN">     10.00000000</i>
   <i name="EMAX">    -10.00000000</i>
   <i name="EFERMI">      0.00000000</i>
  </separator>
  <separator name="writing" >
   <i type="int" name="NWRITE">     2</i>
   <i type="logical" name="LWAVE"> F  </i>
   <i type="logical" name="LDOWNSAMPLE"> F  </i>
   <i type="logical" name="LCHARG"> F  </i>
   <i type="logical" name="LPARD"> F  </i>
   <i type="logical" name="LVTOT"> F  </i>
   <i type="logical" name="LVHAR"> F  </i>
   <i type="logical" name="LELF"> F  </i>
   <i type="logical" name="LOPTICS"> F  </i>
   <v name="STM">      0.00000000      0.00000000      0.00000000      0.00000000      0.00000000      0.00000000      0.00000000</v>
  </separator>
  <separator name="performance" >
   <i type="int" name="NPAR">     8</i>
   <i type="int" name="NSIM">     4</i>
   <i type="int" name="NBLK">    -1</i>
   <i type="logical" name="LPLANE"> T  </i>
   <i type="logical" name="LSCALAPACK"> T  </i>
   <i type="logical" name="LSCAAWARE"> F  </i>
   <i type="logical" name="LSCALU"> F  </i>
   <i type="logical" name="LASYNC"> F  </i>
   <i type="logical" name="LORBITALREAL"> F  </i>
  </separator>
  <separator name="miscellaneous" >
   <i type="int" name="IDIOT">     3</i>
   <i type="int" name="PHON_NSTRUCT">    -1</i>
   <i type="logical" name="LMUSIC"> F  </i>
   <v name="POMASS">     58.69000000     32.06600000</v>
   <v name="DARWINR">      0.00000000      0.00000000</v>
   <v name="DARWINV">      1.00000000      1.00000000</v>
   <i type="logical" name="LCORR"> T  </i>
  </separator>
  <i type="logical" name="GGA_COMPAT"> T  </i>
  <i type="logical" name="LBERRY"> F  </i>
  <i type="int" name="ICORELEVEL">     0</i>
  <i type="logical" name="LDAU"> F  </i>
  <i type="int" name="I_CONSTRAINED_M">     0</i>
  <separator name="electronic exchange-correlation" >
   <i type="string" name="GGA">--</i>
   <i type="int" name="VOSKOWN">     0</i>
   <i type="logical" name="LHFCALC"> F  </i>
   <i type="string" name="PRECFOCK"></i>
   <i type="logical" name="LSYMGRAD"> F  </i>
   <i type="logical" name="LHFONE"> F  </i>
   <i type="logical" name="LRHFCALC"> F  </i>
   <i type="logical" name="LTHOMAS"> F  </i>
   <i type="logical" name="LMODELHF"> F  </i>
   <i type="logical" name="LFOCKACE"> F  </i>
   <i name="ENCUT4O">     -1.00000000</i>
   <i type="int" name="EXXOEP">     0</i>
   <i type="int" name="FOURORBIT">     0</i>
   <i name="AEXX">      0.00000000</i>
   <i name="HFALPHA">      0.00000000</i>
   <i name="MCALPHA">      0.00000000</i>
   <i name="ALDAX">      1.00000000</i>
   <i name="AGGAX">      1.00000000</i>
   <i name="ALDAC">      1.00000000</i>
   <i name="AGGAC">      1.00000000</i>
   <i type="int" name="NKREDX">     1</i>
   <i type="int" name="NKREDY">     1</i>
   <i type="int" name="NKREDZ">     1</i>
   <i type="logical" name="SHIFTRED"> F  </i>
   <i type="logical" name="ODDONLY"> F  </i>
   <i type="logical" name="EVENONLY"> F  </i>
   <i type="int" name="LMAXFOCK">     0</i>
   <i type="int" name="NMAXFOCKAE">     0</i>
   <i type="logical" name="LFOCKAEDFT"> F  </i>
   <i name="HFSCREEN">      0.00000000</i>
   <i name="HFSCREENC">      0.00000000</i>
   <i type="int" name="NBANDSGWLOW">     0</i>
  </separator>
  <separator name="vdW DFT" >
   <i type="logical" name="LUSE_VDW"> F  </i>
   <i name="Zab_VDW">     -0.84910000</i>
   <i name="PARAM1">      0.12340000</i>
   <i name="PARAM2">      1.00000000</i>
   <i name="PARAM3">      0.00000000</i>
  </separator>
  <separator name="model GW" >
   <i type="int" name="MODEL_GW">     0</i>
   <i name="MODEL_EPS0">     17.02376302</i>
   <i name="MODEL_ALPHA">      1.00000000</i>
  </separator>
  <separator name="linear response parameters" >
   <i type="logical" name="LEPSILON"> F  </i>
   <i type="logical" name="LRPA"> F  </i>
   <i type="logical" name="LNABLA"> F  </i>
   <i type="logical" name="LVEL"> F  </i>
   <i type="int" name="KINTER">     0</i>
   <i name="CSHIFT">      0.10000000</i>
   <i name="OMEGAMAX">     -1.00000000</i>
   <i name="DEG_THRESHOLD">      0.00200000</i>
   <i name="RTIME">     -0.10000000</i>
   <i name="WPLASMAI">      0.00000000</i>
   <v name="DFIELD">      0.00000000      0.00000000      0.00000000</v>
   <v name="WPLASMA">      0.00000000      0.00000000      0.00000000      0.00000000      0.00000000      0.00000000      0.00000000      0.00000000      0.00000000</v>
  </separator>
  <separator name="orbital magnetization" >
   <i type="logical" name="NUCIND"> F  </i>
   <v name="MAGPOS">      0.00000000      0.00000000      0.00000000</v>
   <i type="logical" name="LNICSALL"> T  </i>
   <i type="logical" name="ORBITALMAG"> F  </i>
   <i type="logical" name="LMAGBLOCH"> F  </i>
   <i type="logical" name="LCHIMAG"> F  </i>
   <i type="logical" name="LGAUGE"> T  </i>
   <i type="int" name="MAGATOM">     0</i>
   <v name="MAGDIPOL">      0.00000000      0.00000000      0.00000000</v>
   <v name="AVECCONST">      0.00000000      0.00000000      0.00000000</v>
  </separator>
  <separator name="response functions" >
   <i type="logical" name="LFINITE_TEMPERATURE"> F  </i>
   <i type="logical" name="LADDER"> F  </i>
   <i type="logical" name="LRPAFORCE"> F  </i>
   <i type="logical" name="LFXC"> F  </i>
   <i type="logical" name="LHARTREE"> T  </i>
   <i type="int" name="IBSE">     0</i>
   <v type="int" name="KPOINT">    -1     0     0     0</v>
   <i type="logical" name="LTCTC"> F  </i>
   <i type="logical" name="LTCTE"> F  </i>
   <i type="logical" name="LTETE"> F  </i>
   <i type="logical" name="LTRIPLET"> F  </i>
   <i type="logical" name="LFXCEPS"> F  </i>
   <i type="logical" name="LFXHEG"> F  </i>
   <i type="int" name="NATURALO">     2</i>
   <i type="logical" name="LHOLEGF"> F  </i>
   <i type="logical" name="L2ORDER"> F  </i>
   <i type="logical" name="LDMP1"> F  </i>
   <i type="logical" name="LMP2LT"> F  </i>
   <i type="logical" name="LSMP2LT"> F  </i>
   <i type="logical" name="LGWLF"> F  </i>
   <i name="ENCUTGW">     -2.00000000</i>
   <i name="ENCUTGWSOFT">     -2.00000000</i>
   <i name="ENCUTLF">     -1.00000000</i>
   <i type="logical" name="LESF_SPLINES"> F  </i>
   <i type="int" name="LMAXMP2">    -1</i>
   <i name="SCISSOR">      0.00000000</i>
   <i type="int" name="NOMEGA">     0</i>
   <i type="int" name="NOMEGAR">     0</i>
   <i type="int" name="NBANDSGW">    -1</i>
   <i type="int" name="NBANDSO">    -1</i>
   <i type="int" name="NBANDSV">    -1</i>
   <i type="int" name="NELM">   100</i>
   <i type="int" name="NELMHF">     1</i>
   <i type="int" name="DIM">     3</i>
   <i type="int" name="IESPILON">     4</i>
   <i type="int" name="ANTIRES">     0</i>
   <i name="OMEGAMAX">    -30.00000000</i>
   <i name="OMEGAMIN">    -30.00000000</i>
   <i name="OMEGATL">   -200.00000000</i>
   <i type="int" name="OMEGAGRID">     0</i>
   <i name="CSHIFT">     -0.10000000</i>
   <i type="logical" name="LSELFENERGY"> F  </i>
   <i type="logical" name="LSPECTRAL"> F  </i>
   <i type="logical" name="LSPECTRALGW"> F  </i>
   <i type="logical" name="LSINGLES"> F  </i>
   <i type="logical" name="LFERMIGW"> F  </i>
   <i type="logical" name="ODDONLYGW"> F  </i>
   <i type="logical" name="EVENONLYGW"> F  </i>
   <i type="int" name="NKREDLFX">     1</i>
   <i type="int" name="NKREDLFY">     1</i>
   <i type="int" name="NKREDLFZ">     1</i>
   <i type="int" name="MAXMEM">  2800</i>
   <i type="int" name="TELESCOPE">     0</i>
   <i type="int" name="NTAUPAR">    -1</i>
   <i type="int" name="NOMEGAPAR">    -1</i>
   <i name="LAMBDA">      1.00000000</i>
  </separator>
  <separator name="External order field" >
   <i name="OFIELD_KAPPA">      0.00000000</i>
   <v name="OFIELD_K">      0.00000000      0.00000000      0.00000000</v>
   <i name="OFIELD_Q6_NEAR">      0.00000000</i>
   <i name="OFIELD_Q6_FAR">      0.00000000</i>
   <i name="OFIELD_A">      0.00000000</i>
  </separator>
 </parameters>
 <atominfo>
  <atoms>      72 </atoms>
  <types>       2 </types>
  <array name="atoms" >
   <dimension dim="1">ion</dimension>
   <field type="string">element</field>
   <field type="int">atomtype</field>
   <set>
    <rc><c>Ni</c><c>   1</c></rc>
    <rc><c>Ni</c><c>   1</c></rc>
    <rc><c>Ni</c><c>   1</c></rc>
    <rc><c>Ni</c><c>   1</c></rc>
    <rc><c>Ni</c><c>   1</c></rc>
    <rc><c>Ni</c><c>   1</c></rc>
    <rc><c>Ni</c><c>   1</c></rc>
    <rc><c>Ni</c><c>   1</c></rc>
    <rc><c>Ni</c><c>   1</c></rc>
    <rc><c>Ni</c><c>   1</c></rc>
    <rc><c>Ni</c><c>   1</c></rc>
    <rc><c>Ni</c><c>   1</c></rc>
    <rc><c>Ni</c><c>   1</c></rc>
    <rc><c>Ni</c><c>   1</c></rc>
    <rc><c>Ni</c><c>   1</c></rc>
    <rc><c>Ni</c><c>   1</c></rc>
    <rc><c>Ni</c><c>   1</c></rc>
    <rc><c>Ni</c><c>   1</c></rc>
    <rc><c>Ni</c><c>   1</c></rc>
    <rc><c>Ni</c><c>   1</c></rc>
    <rc><c>Ni</c><c>   1</c></rc>
    <rc><c>Ni</c><c>   1</c></rc>
    <rc><c>Ni</c><c>   1</c></rc>
    <rc><c>Ni</c><c>   1</c></rc>
    <rc><c>Ni</c><c>   1</c></rc>
    <rc><c>Ni</c><c>   1</c></rc>
    <rc><c>Ni</c><c>   1</c></rc>
    <rc><c>Ni</c><c>   1</c></rc>
    <rc><c>Ni</c><c>   1</c></rc>
    <rc><c>Ni</c><c>   1</c></rc>
    <rc><c>Ni</c><c>   1</c></rc>
    <rc><c>Ni</c><c>   1</c></rc>
    <rc><c>Ni</c><c>   1</c></rc>
    <rc><c>Ni</c><c>   1</c></rc>
    <rc><c>Ni</c><c>   1</c></rc>
    <rc><c>Ni</c><c>   1</c></rc>
    <rc><c>S </c><c>   2</c></rc>
    <rc><c>S </c><c>   2</c></rc>
    <rc><c>S </c><c>   2</c></rc>
    <rc><c>S </c><c>   2</c></rc>
    <rc><c>S </c><c>   2</c></rc>
    <rc><c>S </c><c>   2</c></rc>
    <rc><c>S </c><c>   2</c></rc>
    <rc><c>S </c><c>   2</c></rc>
    <rc><c>S </c><c>   2</c></rc>
    <rc><c>S </c><c>   2</c></rc>
    <rc><c>S </c><c>   2</c></rc>
    <rc><c>S </c><c>   2</c></rc>
    <rc><c>S </c><c>   2</c></rc>
    <rc><c>S </c><c>   2</c></rc>
    <rc><c>S </c><c>   2</c></rc>
    <rc><c>S </c><c>   2</c></rc>
    <rc><c>S </c><c>   2</c></rc>
    <rc><c>S </c><c>   2</c></rc>
    <rc><c>S </c><c>   2</c></rc>
    <rc><c>S </c><c>   2</c></rc>
    <rc><c>S </c><c>   2</c></rc>
    <rc><c>S </c><c>   2</c></rc>
    <rc><c>S </c><c>   2</c></rc>
    <rc><c>S </c><c>   2</c></rc>
    <rc><c>S </c><c>   2</c></rc>
    <rc><c>S </c><c>   2</c></rc>
    <rc><c>S </c><c>   2</c></rc>
    <rc><c>S </c><c>   2</c></rc>
    <rc><c>S </c><c>   2</c></rc>
    <rc><c>S </c><c>   2</c></rc>
    <rc><c>S </c><c>   2</c></rc>
    <rc><c>S </c><c>   2</c></rc>
    <rc><c>S </c><c>   2</c></rc>
    <rc><c>S </c><c>   2</c></rc>
    <rc><c>S </c><c>   2</c></rc>
    <rc><c>S </c><c>   2</c></rc>
   </set>
  </array>
  <array name="atomtypes" >
   <dimension dim="1">type</dimension>
   <field type="int">atomspertype</field>
   <field type="string">element</field>
   <field>mass</field>
   <field>valence</field>
   <field type="string">pseudopotential</field>
   <set>
    <rc><c>  36</c><c>Ni</c><c>     58.69000000</c><c>     16.00000000</c><c>  PAW_PBE Ni_pv 06Sep2000               </c></rc>
    <rc><c>  36</c><c>S </c><c>     32.06600000</c><c>      6.00000000</c><c>  PAW_PBE S 06Sep2000                   </c></rc>
   </set>
  </array>
 </atominfo>
 <structure name="initialpos" >
  <crystal>
   <varray name="basis" >
    <v>      10.40335375      -4.78920500       0.00000000 </v>
    <v>       0.00000000       9.57841000       0.00000000 </v>
    <v>       0.00000000       0.00000000      20.50076286 </v>
   </varray>
   <i name="volume">   2042.85156262 </i>
   <varray name="rec_basis" >
    <v>       0.09612285       0.00000000       0.00000000 </v>
    <v>       0.04806142       0.10440146       0.00000000 </v>
    <v>       0.00000000       0.00000000       0.04877867 </v>
   </varray>
  </crystal>
  <varray name="positions" >
   <v>       0.58044680       0.07437514       0.34941513 </v>
   <v>       0.76256081       0.16543215       0.22731652 </v>
   <v>       0.94467483       0.25648915       0.10521791 </v>
   <v>       0.39833278       0.98331813       0.47151374 </v>
   <v>       0.03518947       0.80174648       0.26801605 </v>
   <v>       0.21730349       0.89280348       0.14591744 </v>
   <v>       0.39941750       0.98386049       0.02381883 </v>
   <v>       0.67096144       0.61963246       0.51221327 </v>
   <v>       0.85307546       0.71068947       0.39011466 </v>
   <v>       0.12570412       0.34700380       0.43081420 </v>
   <v>       0.30781813       0.43806081       0.30871559 </v>
   <v>       0.48993215       0.52911781       0.18661698 </v>
   <v>       0.67204616       0.62017482       0.06451837 </v>
   <v>       0.23035801       0.03143375       0.40699537 </v>
   <v>       0.41247203       0.12249075       0.28489676 </v>
   <v>       0.59458604       0.21354776       0.16279815 </v>
   <v>       0.77670006       0.30460477       0.04069954 </v>
   <v>       0.04932872       0.94091910       0.08139907 </v>
   <v>       0.50298667       0.66774808       0.44769490 </v>
   <v>       0.68510069       0.75880508       0.32559629 </v>
   <v>       0.86721470       0.84986209       0.20349768 </v>
   <v>       0.13984337       0.48617642       0.24419722 </v>
   <v>       0.32195738       0.57723343       0.12209861 </v>
   <v>       0.50407140       0.66829044       0.00000000 </v>
   <v>       0.95772935       0.39511942       0.36629583 </v>
   <v>       0.39833278       0.24752413       0.47151374 </v>
   <v>       0.58044680       0.33858114       0.34941513 </v>
   <v>       0.76256081       0.42963815       0.22731652 </v>
   <v>       0.94467483       0.52069515       0.10521791 </v>
   <v>       0.03518947       0.06595248       0.26801605 </v>
   <v>       0.21730349       0.15700948       0.14591744 </v>
   <v>       0.85307546       0.97489547       0.39011466 </v>
   <v>       0.12570412       0.61120980       0.43081420 </v>
   <v>       0.30781813       0.70226681       0.30871559 </v>
   <v>       0.48993215       0.79332382       0.18661698 </v>
   <v>       0.67204616       0.88438082       0.06451837 </v>
   <v>       0.18441112       0.17667530       0.48070540 </v>
   <v>       0.36652513       0.26773231       0.35860679 </v>
   <v>       0.54863915       0.35878931       0.23650818 </v>
   <v>       0.73075316       0.44984632       0.11440957 </v>
   <v>       0.00338182       0.08616065       0.15510911 </v>
   <v>       0.18549584       0.17721766       0.03301050 </v>
   <v>       0.63915379       0.90404664       0.39930633 </v>
   <v>       0.82126781       0.99510365       0.27720772 </v>
   <v>       0.09389647       0.63141797       0.31790726 </v>
   <v>       0.27601049       0.72247498       0.19580864 </v>
   <v>       0.45812450       0.81353199       0.07371003 </v>
   <v>       0.91178246       0.54036097       0.44000587 </v>
   <v>       0.12675994       0.47963471       0.07446623 </v>
   <v>       0.58041790       0.20646369       0.44076206 </v>
   <v>       0.76253191       0.29752070       0.31866345 </v>
   <v>       0.94464593       0.38857770       0.19656484 </v>
   <v>       0.21727459       0.02489203       0.23726438 </v>
   <v>       0.39938860       0.11594904       0.11516577 </v>
   <v>       0.03516057       0.93383503       0.35936299 </v>
   <v>       0.85304656       0.84277802       0.48146160 </v>
   <v>       0.30778923       0.57014936       0.40006253 </v>
   <v>       0.48990325       0.66120636       0.27796392 </v>
   <v>       0.67201726       0.75226337       0.15586531 </v>
   <v>       0.85413128       0.84332038       0.03376670 </v>
   <v>       0.54863915       0.02235931       0.23650818 </v>
   <v>       0.73075316       0.11341632       0.11440957 </v>
   <v>       0.18441112       0.84024530       0.48070540 </v>
   <v>       0.36652513       0.93130231       0.35860679 </v>
   <v>       0.00338182       0.74973065       0.15510911 </v>
   <v>       0.18549584       0.84078766       0.03301050 </v>
   <v>       0.63915379       0.56761664       0.39930633 </v>
   <v>       0.82126781       0.65867365       0.27720772 </v>
   <v>       0.09389647       0.29498797       0.31790726 </v>
   <v>       0.27601049       0.38604498       0.19580864 </v>
   <v>       0.45812450       0.47710199       0.07371003 </v>
   <v>       0.91178246       0.20393097       0.44000587 </v>
  </varray>
 </structure>
 <calculation>
  <scstep>
   <time name="dav">    2.15    2.16</time>
   <time name="total">    2.21    2.22</time>
   <energy>
    <i name="alphaZ">   1820.93486007 </i>
    <i name="ewald"> 175097.43087128 </i>
    <i name="hartreedc">-297392.53809291 </i>
    <i name="XCdc">   3651.72358754 </i>
    <i name="pawpsdc"> 112729.53333415 </i>
    <i name="pawaedc">-117641.51188735 </i>
    <i name="eentropy">     -0.44544309 </i>
    <i name="bandstr">  -4652.50998240 </i>
    <i name="atom"> 136002.60505376 </i>
    <i name="e_fr_energy">   9615.22230104 </i>
    <i name="e_wo_entrp">   9615.66774414 </i>
    <i name="e_0_energy">   9615.44502259 </i>
   </energy>
  </scstep>
  <scstep>
   <time name="dav">    1.95    1.96</time>
   <time name="total">    1.95    1.96</time>
   <energy>
    <i name="e_fr_energy">    582.62059565 </i>
    <i name="e_wo_entrp">    583.39164249 </i>
    <i name="e_0_energy">    583.00611907 </i>
   </energy>
  </scstep>
  <scstep>
   <time name="dav">    2.05    2.06</time>
   <time name="total">    2.05    2.06</time>
   <energy>
    <i name="e_fr_energy">   -344.04194185 </i>
    <i name="e_wo_entrp">   -342.80600995 </i>
    <i name="e_0_energy">   -343.42397590 </i>
   </energy>
  </scstep>
  <scstep>
   <time name="dav">    2.15    2.15</time>
   <time name="total">    2.15    2.15</time>
   <energy>
    <i name="e_fr_energy">   -403.62738070 </i>
    <i name="e_wo_entrp">   -402.32357102 </i>
    <i name="e_0_energy">   -402.97547586 </i>
   </energy>
  </scstep>
  <scstep>
   <time name="dav">    2.21    2.21</time>
   <time name="total">    2.25    2.26</time>
   <energy>
    <i name="e_fr_energy">   -405.71519063 </i>
    <i name="e_wo_entrp">   -404.42170139 </i>
    <i name="e_0_energy">   -405.06844601 </i>
   </energy>
  </scstep>
  <scstep>
   <time name="dav">    2.17    2.17</time>
   <time name="total">    2.26    2.27</time>
   <energy>
    <i name="e_fr_energy">   -491.85252514 </i>
    <i name="e_wo_entrp">   -490.98869014 </i>
    <i name="e_0_energy">   -491.42060764 </i>
   </energy>
  </scstep>
  <scstep>
   <time name="dav">    2.11    2.11</time>
   <time name="total">    2.20    2.21</time>
   <energy>
    <i name="e_fr_energy">   -375.35331956 </i>
    <i name="e_wo_entrp">   -374.45998105 </i>
    <i name="e_0_energy">   -374.90665030 </i>
   </energy>
  </scstep>
  <scstep>
   <time name="dav">    2.44    2.45</time>
   <time name="total">    2.53    2.54</time>
   <energy>
    <i name="e_fr_energy">   -453.11071939 </i>
    <i name="e_wo_entrp">   -452.10562305 </i>
    <i name="e_0_energy">   -452.60817122 </i>
   </energy>
  </scstep>
  <scstep>
   <time name="dav">    2.19    2.19</time>
   <time name="total">    2.28    2.29</time>
   <energy>
    <i name="e_fr_energy">   -377.30066369 </i>
    <i name="e_wo_entrp">   -375.92142978 </i>
    <i name="e_0_energy">   -376.61104674 </i>
   </energy>
  </scstep>
  <scstep>
   <time name="dav">    2.44    2.44</time>
   <time name="total">    2.53    2.54</time>
   <energy>
    <i name="e_fr_energy">   -374.73462752 </i>
    <i name="e_wo_entrp">   -373.70263061 </i>
    <i name="e_0_energy">   -374.21862907 </i>
   </energy>
  </scstep>
  <scstep>
   <time name="dav">    2.41    2.42</time>
   <time name="total">    2.51    2.51</time>
   <energy>
    <i name="e_fr_energy">   -384.50883953 </i>
    <i name="e_wo_entrp">   -383.43063817 </i>
    <i name="e_0_energy">   -383.96973885 </i>
   </energy>
  </scstep>
  <scstep>
   <time name="dav">    2.37    2.38</time>
   <time name="total">    2.46    2.48</time>
   <energy>
    <i name="e_fr_energy">   -365.09754548 </i>
    <i name="e_wo_entrp">   -364.21023018 </i>
    <i name="e_0_energy">   -364.65388783 </i>
   </energy>
  </scstep>
  <scstep>
   <time name="dav">    2.34    2.35</time>
   <time name="total">    2.44    2.45</time>
   <energy>
    <i name="e_fr_energy">   -363.07312986 </i>
    <i name="e_wo_entrp">   -362.13693666 </i>
    <i name="e_0_energy">   -362.60503326 </i>
   </energy>
  </scstep>
  <scstep>
   <time name="dav">    2.36    2.37</time>
   <time name="total">    2.46    2.46</time>
   <energy>
    <i name="e_fr_energy">   -359.31312515 </i>
    <i name="e_wo_entrp">   -358.41857821 </i>
    <i name="e_0_energy">   -358.86585168 </i>
   </energy>
  </scstep>
  <scstep>
   <time name="dav">    2.22    2.23</time>
   <time name="total">    2.32    2.32</time>
   <energy>
    <i name="e_fr_energy">   -357.30515922 </i>
    <i name="e_wo_entrp">   -356.31199468 </i>
    <i name="e_0_energy">   -356.80857695 </i>
   </energy>
  </scstep>
  <scstep>
   <time name="dav">    2.39    2.40</time>
   <time name="total">    2.49    2.49</time>
   <energy>
    <i name="e_fr_energy">   -356.74027732 </i>
    <i name="e_wo_entrp">   -355.77094519 </i>
    <i name="e_0_energy">   -356.25561126 </i>
   </energy>
  </scstep>
  <scstep>
   <time name="dav">    2.34    2.34</time>
   <time name="total">    2.43    2.44</time>
   <energy>
    <i name="e_fr_energy">   -356.01362161 </i>
    <i name="e_wo_entrp">   -355.03165707 </i>
    <i name="e_0_energy">   -355.52263934 </i>
   </energy>
  </scstep>
  <scstep>
   <time name="dav">    2.43    2.44</time>
   <time name="total">    2.52    2.53</time>
   <energy>
    <i name="e_fr_energy">   -355.60940040 </i>
    <i name="e_wo_entrp">   -354.58313399 </i>
    <i name="e_0_energy">   -355.09626720 </i>
   </energy>
  </scstep>
  <scstep>
   <time name="dav">    2.33    2.34</time>
   <time name="total">    2.43    2.44</time>
   <energy>
    <i name="e_fr_energy">   -355.41012626 </i>
    <i name="e_wo_entrp">   -354.36031792 </i>
    <i name="e_0_energy">   -354.88522209 </i>
   </energy>
  </scstep>
  <scstep>
   <time name="dav">    2.38    2.39</time>
   <time name="total">    2.48    2.48</time>
   <energy>
    <i name="e_fr_energy">   -355.21354228 </i>
    <i name="e_wo_entrp">   -354.17648862 </i>
    <i name="e_0_energy">   -354.69501545 </i>
   </energy>
  </scstep>
  <scstep>
   <time name="dav">    2.34    2.35</time>
   <time name="total">    2.44    2.45</time>
   <energy>
    <i name="e_fr_energy">   -355.10437844 </i>
    <i name="e_wo_entrp">   -354.02402770 </i>
    <i name="e_0_energy">   -354.56420307 </i>
   </energy>
  </scstep>
  <scstep>
   <time name="dav">    2.44    2.44</time>
   <time name="total">    2.54    2.55</time>
   <energy>
    <i name="e_fr_energy">   -355.03688069 </i>
    <i name="e_wo_entrp">   -353.98060943 </i>
    <i name="e_0_energy">   -354.50874506 </i>
   </energy>
  </scstep>
  <scstep>
   <time name="dav">    2.46    2.47</time>
   <time name="total">    2.56    2.57</time>
   <energy>
    <i name="e_fr_energy">   -354.91135231 </i>
    <i name="e_wo_entrp">   -353.78596585 </i>
    <i name="e_0_energy">   -354.34865908 </i>
   </energy>
  </scstep>
  <scstep>
   <time name="dav">    2.40    2.41</time>
   <time name="total">    2.50    2.51</time>
   <energy>
    <i name="e_fr_energy">   -354.91866221 </i>
    <i name="e_wo_entrp">   -353.80792470 </i>
    <i name="e_0_energy">   -354.36329345 </i>
   </energy>
  </scstep>
  <scstep>
   <time name="dav">    2.12    2.12</time>
   <time name="total">    2.22    2.22</time>
   <energy>
    <i name="e_fr_energy">   -354.89076822 </i>
    <i name="e_wo_entrp">   -353.76611774 </i>
    <i name="e_0_energy">   -354.32844298 </i>
   </energy>
  </scstep>
  <scstep>
   <time name="dav">    2.41    2.41</time>
   <time name="total">    2.51    2.52</time>
   <energy>
    <i name="e_fr_energy">   -354.89651151 </i>
    <i name="e_wo_entrp">   -353.76477797 </i>
    <i name="e_0_energy">   -354.33064474 </i>
   </energy>
  </scstep>
  <scstep>
   <time name="dav">    2.37    2.37</time>
   <time name="total">    2.47    2.47</time>
   <energy>
    <i name="e_fr_energy">   -354.89107704 </i>
    <i name="e_wo_entrp">   -353.77239490 </i>
    <i name="e_0_energy">   -354.33173597 </i>
   </energy>
  </scstep>
  <scstep>
   <time name="dav">    2.34    2.35</time>
   <time name="total">    2.44    2.45</time>
   <energy>
    <i name="e_fr_energy">   -354.89012449 </i>
    <i name="e_wo_entrp">   -353.76688733 </i>
    <i name="e_0_energy">   -354.32850591 </i>
   </energy>
  </scstep>
  <scstep>
   <time name="dav">    2.54    2.55</time>
   <time name="total">    2.64    2.65</time>
   <energy>
    <i name="e_fr_energy">   -354.88488708 </i>
    <i name="e_wo_entrp">   -353.77955322 </i>
    <i name="e_0_energy">   -354.33222015 </i>
   </energy>
  </scstep>
  <scstep>
   <time name="dav">    2.33    2.34</time>
   <time name="total">    2.44    2.45</time>
   <energy>
    <i name="e_fr_energy">   -354.88421527 </i>
    <i name="e_wo_entrp">   -353.77420725 </i>
    <i name="e_0_energy">   -354.32921126 </i>
   </energy>
  </scstep>
  <scstep>
   <time name="dav">    2.15    2.15</time>
   <time name="total">    2.25    2.25</time>
   <energy>
    <i name="e_fr_energy">   -354.88347973 </i>
    <i name="e_wo_entrp">   -353.77371500 </i>
    <i name="e_0_energy">   -354.32859736 </i>
   </energy>
  </scstep>
  <scstep>
   <time name="dav">    2.07    2.08</time>
   <time name="total">    2.17    2.18</time>
   <energy>
    <i name="e_fr_energy">   -354.88331846 </i>
    <i name="e_wo_entrp">   -353.77332779 </i>
    <i name="e_0_energy">   -354.32832313 </i>
   </energy>
  </scstep>
  <scstep>
   <time name="dav">    1.93    1.94</time>
   <time name="total">    2.03    2.04</time>
   <energy>
    <i name="e_fr_energy">   -354.88361683 </i>
    <i name="e_wo_entrp">   -353.77078879 </i>
    <i name="e_0_energy">   -354.32720281 </i>
   </energy>
  </scstep>
  <scstep>
   <time name="dav">    1.85    1.85</time>
   <time name="total">    1.95    1.95</time>
   <energy>
    <i name="e_fr_energy">   -354.88346025 </i>
    <i name="e_wo_entrp">   -353.77170951 </i>
    <i name="e_0_energy">   -354.32758488 </i>
   </energy>
  </scstep>
  <scstep>
   <time name="dav">    1.65    1.66</time>
   <time name="total">    1.75    1.76</time>
   <energy>
    <i name="e_fr_energy">   -354.88393332 </i>
    <i name="e_wo_entrp">   -353.77263227 </i>
    <i name="e_0_energy">   -354.32828279 </i>
   </energy>
  </scstep>
  <scstep>
   <time name="dav">    1.56    1.56</time>
   <time name="total">    1.66    1.67</time>
   <energy>
    <i name="e_fr_energy">   -354.88433762 </i>
    <i name="e_wo_entrp">   -353.77257076 </i>
    <i name="e_0_energy">   -354.32845419 </i>
   </energy>
  </scstep>
  <scstep>
   <time name="dav">    1.37    1.38</time>
   <time name="total">    1.47    1.48</time>
   <energy>
    <i name="e_fr_energy">   -354.88467870 </i>
    <i name="e_wo_entrp">   -353.77328042 </i>
    <i name="e_0_energy">   -354.32897956 </i>
   </energy>
  </scstep>
  <scstep>
   <time name="dav">    1.35    1.35</time>
   <time name="total">    1.45    1.46</time>
   <energy>
    <i name="e_fr_energy">   -354.88492319 </i>
    <i name="e_wo_entrp">   -353.77312984 </i>
    <i name="e_0_energy">   -354.32902652 </i>
   </energy>
  </scstep>
  <scstep>
   <time name="dav">    1.35    1.35</time>
   <time name="total">    1.45    1.45</time>
   <energy>
    <i name="e_fr_energy">   -354.88542517 </i>
    <i name="e_wo_entrp">   -353.77379422 </i>
    <i name="e_0_energy">   -354.32960970 </i>
   </energy>
  </scstep>
  <scstep>
   <time name="dav">    1.43    1.43</time>
   <time name="total">    1.53    1.54</time>
   <energy>
    <i name="e_fr_energy">   -354.88591850 </i>
    <i name="e_wo_entrp">   -353.77355144 </i>
    <i name="e_0_energy">   -354.32973497 </i>
   </energy>
  </scstep>
  <scstep>
   <time name="dav">    1.46    1.46</time>
   <time name="total">    1.56    1.56</time>
   <energy>
    <i name="e_fr_energy">   -354.88662471 </i>
    <i name="e_wo_entrp">   -353.77455041 </i>
    <i name="e_0_energy">   -354.33058756 </i>
   </energy>
  </scstep>
  <scstep>
   <time name="dav">    1.45    1.45</time>
   <time name="total">    1.55    1.56</time>
   <energy>
    <i name="e_fr_energy">   -354.88691601 </i>
    <i name="e_wo_entrp">   -353.77432082 </i>
    <i name="e_0_energy">   -354.33061841 </i>
   </energy>
  </scstep>
  <scstep>
   <time name="dav">    1.33    1.33</time>
   <time name="total">    1.43    1.43</time>
   <energy>
    <i name="e_fr_energy">   -354.88728014 </i>
    <i name="e_wo_entrp">   -353.77528484 </i>
    <i name="e_0_energy">   -354.33128249 </i>
   </energy>
  </scstep>
  <scstep>
   <time name="dav">    1.39    1.39</time>
   <time name="total">    1.44    1.45</time>
   <energy>
    <i name="alphaZ">   1820.93486007 </i>
    <i name="ewald"> 175097.43087128 </i>
    <i name="hartreedc">-296710.85116552 </i>
    <i name="XCdc">   3622.31571462 </i>
    <i name="pawpsdc"> 130549.00322057 </i>
    <i name="pawaedc">-135519.25396645 </i>
    <i name="eentropy">     -1.11202568 </i>
    <i name="bandstr"> -15215.95992286 </i>
    <i name="atom"> 136002.60505376 </i>
    <i name="e_fr_energy">   -354.88736022 </i>
    <i name="e_wo_entrp">   -353.77533454 </i>
    <i name="e_0_energy">   -354.33134738 </i>
   </energy>
  </scstep>
  <structure>
   <crystal>
    <varray name="basis" >
     <v>      10.40335375      -4.78920500       0.00000000 </v>
     <v>       0.00000000       9.57841000       0.00000000 </v>
     <v>       0.00000000       0.00000000      20.50076286 </v>
    </varray>
    <i name="volume">   2042.85156262 </i>
    <varray name="rec_basis" >
     <v>       0.09612285       0.00000000       0.00000000 </v>
     <v>       0.04806142       0.10440146       0.00000000 </v>
     <v>       0.00000000       0.00000000       0.04877867 </v>
    </varray>
   </crystal>
   <varray name="positions" >
    <v>       0.58044680       0.07437514       0.34941513 </v>
    <v>       0.76256081       0.16543215       0.22731652 </v>
    <v>       0.94467483       0.25648915       0.10521791 </v>
    <v>       0.39833278       0.98331813       0.47151374 </v>
    <v>       0.03518947       0.80174648       0.26801605 </v>
    <v>       0.21730349       0.89280348       0.14591744 </v>
    <v>       0.39941750       0.98386049       0.02381883 </v>
    <v>       0.67096144       0.61963246       0.51221327 </v>
    <v>       0.85307546       0.71068947       0.39011466 </v>
    <v>       0.12570412       0.34700380       0.43081420 </v>
    <v>       0.30781813       0.43806081       0.30871559 </v>
    <v>       0.48993215       0.52911781       0.18661698 </v>
    <v>       0.67204616       0.62017482       0.06451837 </v>
    <v>       0.23035801       0.03143375       0.40699537 </v>
    <v>       0.41247203       0.12249075       0.28489676 </v>
    <v>       0.59458604       0.21354776       0.16279815 </v>
    <v>       0.77670006       0.30460477       0.04069954 </v>
    <v>       0.04932872       0.94091910       0.08139907 </v>
    <v>       0.50298667       0.66774808       0.44769490 </v>
    <v>       0.68510069       0.75880508       0.32559629 </v>
    <v>       0.86721470       0.84986209       0.20349768 </v>
    <v>       0.13984337       0.48617642       0.24419722 </v>
    <v>       0.32195738       0.57723343       0.12209861 </v>
    <v>       0.50407140       0.66829044       0.00000000 </v>
    <v>       0.95772935       0.39511942       0.36629583 </v>
    <v>       0.39833278       0.24752413       0.47151374 </v>
    <v>       0.58044680       0.33858114       0.34941513 </v>
    <v>       0.76256081       0.42963815       0.22731652 </v>
    <v>       0.94467483       0.52069515       0.10521791 </v>
    <v>       0.03518947       0.06595248       0.26801605 </v>
    <v>       0.21730349       0.15700948       0.14591744 </v>
    <v>       0.85307546       0.97489547       0.39011466 </v>
    <v>       0.12570412       0.61120980       0.43081420 </v>
    <v>       0.30781813       0.70226681       0.30871559 </v>
    <v>       0.48993215       0.79332382       0.18661698 </v>
    <v>       0.67204616       0.88438082       0.06451837 </v>
    <v>       0.18441112       0.17667530       0.48070540 </v>
    <v>       0.36652513       0.26773231       0.35860679 </v>
    <v>       0.54863915       0.35878931       0.23650818 </v>
    <v>       0.73075316       0.44984632       0.11440957 </v>
    <v>       0.00338182       0.08616065       0.15510911 </v>
    <v>       0.18549584       0.17721766       0.03301050 </v>
    <v>       0.63915379       0.90404664       0.39930633 </v>
    <v>       0.82126781       0.99510365       0.27720772 </v>
    <v>       0.09389647       0.63141797       0.31790726 </v>
    <v>       0.27601049       0.72247498       0.19580864 </v>
    <v>       0.45812450       0.81353199       0.07371003 </v>
    <v>       0.91178246       0.54036097       0.44000587 </v>
    <v>       0.12675994       0.47963471       0.07446623 </v>
    <v>       0.58041790       0.20646369       0.44076206 </v>
    <v>       0.76253191       0.29752070       0.31866345 </v>
    <v>       0.94464593       0.38857770       0.19656484 </v>
    <v>       0.21727459       0.02489203       0.23726438 </v>
    <v>       0.39938860       0.11594904       0.11516577 </v>
    <v>       0.03516057       0.93383503       0.35936299 </v>
    <v>       0.85304656       0.84277802       0.48146160 </v>
    <v>       0.30778923       0.57014936       0.40006253 </v>
    <v>       0.48990325       0.66120636       0.27796392 </v>
    <v>       0.67201726       0.75226337       0.15586531 </v>
    <v>       0.85413128       0.84332038       0.03376670 </v>
    <v>       0.54863915       0.02235931       0.23650818 </v>
    <v>       0.73075316       0.11341632       0.11440957 </v>
    <v>       0.18441112       0.84024530       0.48070540 </v>
    <v>       0.36652513       0.93130231       0.35860679 </v>
    <v>       0.00338182       0.74973065       0.15510911 </v>
    <v>       0.18549584       0.84078766       0.03301050 </v>
    <v>       0.63915379       0.56761664       0.39930633 </v>
    <v>       0.82126781       0.65867365       0.27720772 </v>
    <v>       0.09389647       0.29498797       0.31790726 </v>
    <v>       0.27601049       0.38604498       0.19580864 </v>
    <v>       0.45812450       0.47710199       0.07371003 </v>
    <v>       0.91178246       0.20393097       0.44000587 </v>
   </varray>
  </structure>
  <varray name="forces" >
   <v>      -0.25246218      -0.06957979       0.14761018 </v>
   <v>       0.16178575       0.10021153       0.08686844 </v>
   <v>       0.61215916       0.46290972       0.60625100 </v>
   <v>      -0.41442842       0.23692462      -1.22186860 </v>
   <v>      -0.00059434       0.08041775       0.15154096 </v>
   <v>       0.19379209       0.11005532      -0.26760848 </v>
   <v>      -1.13759657      -0.55637551       1.94937663 </v>
   <v>       0.74967437       0.86889125      -2.14676981 </v>
   <v>       0.14838355      -0.12955210       0.42171576 </v>
   <v>      -0.32894213      -0.78973842      -0.39250934 </v>
   <v>      -0.11044703      -0.07593704       0.07653512 </v>
   <v>       0.06033007       0.22672077      -0.22414030 </v>
   <v>       0.41821901       0.27469502       0.73559653 </v>
   <v>      -0.26998491      -0.00416804       0.17981982 </v>
   <v>       0.21265332       0.01142240       0.15285354 </v>
   <v>       0.00164955      -0.01247202      -0.29475517 </v>
   <v>      -0.33223233      -0.02201888       1.73259844 </v>
   <v>       0.29513897       0.20956695      -0.70861389 </v>
   <v>       0.57505096      -0.21227873      -1.07954661 </v>
   <v>      -0.12332291       0.12300126       0.17246231 </v>
   <v>       0.12083137       0.04064288       0.14215452 </v>
   <v>       0.11816324       0.00264121       0.13579080 </v>
   <v>      -0.00254678      -0.05069488      -0.49979082 </v>
   <v>      -0.39115239       0.04583173       1.95218049 </v>
   <v>      -0.05435042      -0.03982549       0.58301072 </v>
   <v>      -0.27429309      -0.14742333      -1.07941746 </v>
   <v>      -0.31875467      -0.10322722       0.16744907 </v>
   <v>       0.14368228      -0.08606783       0.04228767 </v>
   <v>       0.52259678      -0.45407453       0.62895587 </v>
   <v>      -0.01265744      -0.08820274       0.05974994 </v>
   <v>       0.11210315      -0.03512461      -0.57744552 </v>
   <v>      -0.14175802       0.18610797       0.50259522 </v>
   <v>      -0.33360465       0.74955207      -0.44931109 </v>
   <v>      -0.07869611       0.05723729       0.08057619 </v>
   <v>       0.07009362      -0.08164428       0.05544676 </v>
   <v>       0.49445285      -0.20405181       0.66132767 </v>
   <v>       1.02721894       0.43387907      -0.00566248 </v>
   <v>      -0.00740619      -0.24240150      -0.01415788 </v>
   <v>      -0.05131040      -0.10182318      -0.11415486 </v>
   <v>       0.33853079      -0.27354241      -1.33612844 </v>
   <v>       0.09619913      -0.13785437      -0.26645834 </v>
   <v>      -0.68742193      -0.64611690       1.33838277 </v>
   <v>      -0.39702984      -0.36575890       0.14804501 </v>
   <v>       0.03262523      -0.06861601       0.01290533 </v>
   <v>       0.01620038      -0.30059075      -0.18983400 </v>
   <v>      -0.06371281      -0.13804417      -0.04045961 </v>
   <v>       0.51100336       0.12786859      -1.66562250 </v>
   <v>       0.72400416      -0.21773020      -0.08771011 </v>
   <v>      -1.26720836      -0.01637506      -0.55910973 </v>
   <v>      -0.81637867       0.06219602       1.39389680 </v>
   <v>       0.04828613       0.01208097       0.10265462 </v>
   <v>      -0.18578970      -0.03076100      -0.17485629 </v>
   <v>       0.02392548       0.04255870      -0.22129806 </v>
   <v>      -0.00962481      -0.27510203      -0.98087319 </v>
   <v>       0.04410976       0.06712300       0.10997901 </v>
   <v>      -0.69083941      -0.95787847       0.32618200 </v>
   <v>      -0.01935672       0.09195414       1.70282083 </v>
   <v>      -0.08090933      -0.06650473      -0.01629637 </v>
   <v>      -0.05593765       0.00120029      -0.27534261 </v>
   <v>      -1.52937081      -0.03559656      -0.34427854 </v>
   <v>      -0.06044123       0.16633949      -0.17353709 </v>
   <v>       0.43219273       0.27878755      -1.29540229 </v>
   <v>       1.03741882      -0.43085773      -0.00981345 </v>
   <v>       0.03556369       0.24758369       0.00458185 </v>
   <v>       0.12086385       0.06911931      -0.41620275 </v>
   <v>       0.32150178       0.54318728       0.58220529 </v>
   <v>      -0.33565478       0.33270818       1.11961740 </v>
   <v>      -0.13806312       0.09100428       0.02993004 </v>
   <v>       0.04914750       0.30913561      -0.21909401 </v>
   <v>      -0.01765080       0.12721528      -0.07830277 </v>
   <v>       0.29146649       0.40448131      -0.62755667 </v>
   <v>       0.83091263       0.27275872      -0.24202542 </v>
  </varray>
  <varray name="stress" >
   <v>     -27.26432072      -0.65610173      10.34276091 </v>
   <v>      -0.65610168     -18.84701984       0.89962442 </v>
   <v>      10.34276093       0.89962428     -19.79408438 </v>
  </varray>
  <energy>
   <i name="e_fr_energy">   -354.88736022 </i>
   <i name="e_wo_entrp">   -353.77533454 </i>
   <i name="e_0_energy">   -354.33134738 </i>
  </energy>
  <time name="totalsc">   97.21   97.55</time>
  <eigenvalues>
   <array>
    <dimension dim="1">band</dimension>
    <dimension dim="2">kpoint</dimension>
    <dimension dim="3">spin</dimension>
    <field>eigene</field>
    <field>occ</field>
    <set>
     <set comment="spin 1">
      <set comment="kpoint 1">
       <r>  -62.9822    1.0000 </r>
       <r>  -62.9458    1.0000 </r>
       <r>  -62.9401    1.0000 </r>
       <r>  -62.9384    1.0000 </r>
       <r>  -62.9342    1.0000 </r>
       <r>  -62.9290    1.0000 </r>
       <r>  -62.9265    1.0000 </r>
       <r>  -62.9230    1.0000 </r>
       <r>  -62.9159    1.0000 </r>
       <r>  -62.9150    1.0000 </r>
       <r>  -62.9108    1.0000 </r>
       <r>  -62.9089    1.0000 </r>
       <r>  -62.9035    1.0000 </r>
       <r>  -62.9027    1.0000 </r>
       <r>  -62.9008    1.0000 </r>
       <r>  -62.8971    1.0000 </r>
       <r>  -62.8913    1.0000 </r>
       <r>  -62.8905    1.0000 </r>
       <r>  -62.8903    1.0000 </r>
       <r>  -62.8892    1.0000 </r>
       <r>  -62.8833    1.0000 </r>
       <r>  -62.8814    1.0000 </r>
       <r>  -62.8802    1.0000 </r>
       <r>  -62.8776    1.0000 </r>
       <r>  -62.8764    1.0000 </r>
       <r>  -62.8728    1.0000 </r>
       <r>  -62.8680    1.0000 </r>
       <r>  -62.8653    1.0000 </r>
       <r>  -62.8650    1.0000 </r>
       <r>  -62.8636    1.0000 </r>
       <r>  -62.8635    1.0000 </r>
       <r>  -62.8619    1.0000 </r>
       <r>  -62.8512    1.0000 </r>
       <r>  -62.8502    1.0000 </r>
       <r>  -62.8490    1.0000 </r>
       <r>  -62.8486    1.0000 </r>
       <r>  -62.8473    1.0000 </r>
       <r>  -62.8445    1.0000 </r>
       <r>  -62.8375    1.0000 </r>
       <r>  -62.8328    1.0000 </r>
       <r>  -62.8317    1.0000 </r>
       <r>  -62.8235    1.0000 </r>
       <r>  -62.8219    1.0000 </r>
       <r>  -62.8043    1.0000 </r>
       <r>  -62.7984    1.0000 </r>
       <r>  -62.7962    1.0000 </r>
       <r>  -62.7926    1.0000 </r>
       <r>  -62.7764    1.0000 </r>
       <r>  -62.7715    1.0000 </r>
       <r>  -62.7615    1.0000 </r>
       <r>  -62.7516    1.0000 </r>
       <r>  -62.7471    1.0000 </r>
       <r>  -62.7345    1.0000 </r>
       <r>  -62.7308    1.0000 </r>
       <r>  -62.7186    1.0000 </r>
       <r>  -62.6965    1.0000 </r>
       <r>  -62.6938    1.0000 </r>
       <r>  -62.6781    1.0000 </r>
       <r>  -62.6718    1.0000 </r>
       <r>  -62.6716    1.0000 </r>
       <r>  -62.6713    1.0000 </r>
       <r>  -62.6693    1.0000 </r>
       <r>  -62.6655    1.0000 </r>
       <r>  -62.6580    1.0000 </r>
       <r>  -62.6567    1.0000 </r>
       <r>  -62.6450    1.0000 </r>
       <r>  -62.6277    1.0000 </r>
       <r>  -62.6196    1.0000 </r>
       <r>  -62.6192    1.0000 </r>
       <r>  -62.6126    1.0000 </r>
       <r>  -62.5818    1.0000 </r>
       <r>  -62.5797    1.0000 </r>
       <r>  -62.5765    1.0000 </r>
       <r>  -62.5592    1.0000 </r>
       <r>  -62.5324    1.0000 </r>
       <r>  -62.5256    1.0000 </r>
       <r>  -62.4994    1.0000 </r>
       <r>  -62.4881    1.0000 </r>
       <r>  -62.4876    1.0000 </r>
       <r>  -62.4843    1.0000 </r>
       <r>  -62.4689    1.0000 </r>
       <r>  -62.4636    1.0000 </r>
       <r>  -62.4602    1.0000 </r>
       <r>  -62.3868    1.0000 </r>
       <r>  -62.3672    1.0000 </r>
       <r>  -62.2316    1.0000 </r>
       <r>  -62.2091    1.0000 </r>
       <r>  -62.1529    1.0000 </r>
       <r>  -62.1362    1.0000 </r>
       <r>  -62.1241    1.0000 </r>
       <r>  -62.0624    1.0000 </r>
       <r>  -61.9790    1.0000 </r>
       <r>  -61.9587    1.0000 </r>
       <r>  -61.9571    1.0000 </r>
       <r>  -61.9295    1.0000 </r>
       <r>  -61.9175    1.0000 </r>
       <r>  -61.8580    1.0000 </r>
       <r>  -61.8307    1.0000 </r>
       <r>  -61.8092    1.0000 </r>
       <r>  -61.7701    1.0000 </r>
       <r>  -61.7601    1.0000 </r>
       <r>  -61.7286    1.0000 </r>
       <r>  -61.7147    1.0000 </r>
       <r>  -61.6828    1.0000 </r>
       <r>  -61.5843    1.0000 </r>
       <r>  -61.5614    1.0000 </r>
       <r>  -61.5145    1.0000 </r>
       <r>  -61.3537    1.0000 </r>
       <r>  -14.2336    1.0000 </r>
       <r>  -13.5414    1.0000 </r>
       <r>  -13.4800    1.0000 </r>
       <r>  -13.4642    1.0000 </r>
       <r>  -13.2965    1.0000 </r>
       <r>  -13.2247    1.0000 </r>
       <r>  -13.0444    1.0000 </r>
       <r>  -13.0101    1.0000 </r>
       <r>  -12.9274    1.0000 </r>
       <r>  -12.8579    1.0000 </r>
       <r>  -12.7993    1.0000 </r>
       <r>  -12.7196    1.0000 </r>
       <r>  -12.6117    1.0000 </r>
       <r>  -12.5333    1.0000 </r>
       <r>  -12.4932    1.0000 </r>
       <r>  -12.4391    1.0000 </r>
       <r>  -12.3811    1.0000 </r>
       <r>  -12.3507    1.0000 </r>
       <r>  -12.2840    1.0000 </r>
       <r>  -12.2382    1.0000 </r>
       <r>  -12.1521    1.0000 </r>
       <r>  -12.1334    1.0000 </r>
       <r>  -12.0501    1.0000 </r>
       <r>  -11.9595    1.0000 </r>
       <r>  -11.9367    1.0000 </r>
       <r>  -11.8022    1.0000 </r>
       <r>  -11.7866    1.0000 </r>
       <r>  -11.6879    1.0000 </r>
       <r>  -11.4304    1.0000 </r>
       <r>  -11.3610    1.0000 </r>
       <r>  -11.3375    1.0000 </r>
       <r>  -11.2544    1.0000 </r>
       <r>  -11.0840    1.0000 </r>
       <r>  -11.0216    1.0000 </r>
       <r>  -10.9904    1.0000 </r>
       <r>  -10.5658    1.0000 </r>
       <r>   -6.1458    1.0000 </r>
       <r>   -6.0865    1.0000 </r>
       <r>   -5.6936    1.0000 </r>
       <r>   -5.6418    1.0000 </r>
       <r>   -5.6195    1.0000 </r>
       <r>   -5.4271    1.0000 </r>
       <r>   -5.3842    1.0000 </r>
       <r>   -5.3501    1.0000 </r>
       <r>   -5.3278    1.0000 </r>
       <r>   -5.2510    1.0000 </r>
       <r>   -5.1946    1.0000 </r>
       <r>   -5.1842    1.0000 </r>
       <r>   -5.0584    1.0000 </r>
       <r>   -5.0404    1.0000 </r>
       <r>   -5.0263    1.0000 </r>
       <r>   -4.9724    1.0000 </r>
       <r>   -4.9549    1.0000 </r>
       <r>   -4.9074    1.0000 </r>
       <r>   -4.8788    1.0000 </r>
       <r>   -4.8540    1.0000 </r>
       <r>   -4.8219    1.0000 </r>
       <r>   -4.7860    1.0000 </r>
       <r>   -4.7580    1.0000 </r>
       <r>   -4.6961    1.0000 </r>
       <r>   -4.6002    1.0000 </r>
       <r>   -4.5547    1.0000 </r>
       <r>   -4.5107    1.0000 </r>
       <r>   -4.4585    1.0000 </r>
       <r>   -4.3794    1.0000 </r>
       <r>   -4.3091    1.0000 </r>
       <r>   -4.2784    1.0000 </r>
       <r>   -4.2532    1.0000 </r>
       <r>   -4.1699    1.0000 </r>
       <r>   -4.1214    1.0000 </r>
       <r>   -4.0644    1.0000 </r>
       <r>   -4.0271    1.0000 </r>
       <r>   -3.9543    1.0000 </r>
       <r>   -3.8893    1.0000 </r>
       <r>   -3.8298    1.0000 </r>
       <r>   -3.8027    1.0000 </r>
       <r>   -3.7623    1.0000 </r>
       <r>   -3.7046    1.0000 </r>
       <r>   -3.6669    1.0000 </r>
       <r>   -3.6198    1.0000 </r>
       <r>   -3.6034    1.0000 </r>
       <r>   -3.5544    1.0000 </r>
       <r>   -3.5241    1.0000 </r>
       <r>   -3.4736    1.0000 </r>
       <r>   -3.4644    1.0000 </r>
       <r>   -3.4397    1.0000 </r>
       <r>   -3.4193    1.0000 </r>
       <r>   -3.3816    1.0000 </r>
       <r>   -3.3052    1.0000 </r>
       <r>   -3.3007    1.0000 </r>
       <r>   -3.2719    1.0000 </r>
       <r>   -3.2538    1.0000 </r>
       <r>   -3.2362    1.0000 </r>
       <r>   -3.2291    1.0000 </r>
       <r>   -3.1317    1.0000 </r>
       <r>   -3.0926    1.0000 </r>
       <r>   -3.0748    1.0000 </r>
       <r>   -3.0483    1.0000 </r>
       <r>   -3.0133    1.0000 </r>
       <r>   -3.0071    1.0000 </r>
       <r>   -2.9741    1.0000 </r>
       <r>   -2.9477    1.0000 </r>
       <r>   -2.8989    1.0000 </r>
       <r>   -2.8867    1.0000 </r>
       <r>   -2.8722    1.0000 </r>
       <r>   -2.8372    1.0000 </r>
       <r>   -2.7962    1.0000 </r>
       <r>   -2.7760    1.0000 </r>
       <r>   -2.7428    1.0000 </r>
       <r>   -2.7271    1.0000 </r>
       <r>   -2.7108    1.0000 </r>
       <r>   -2.6810    1.0000 </r>
       <r>   -2.6609    1.0000 </r>
       <r>   -2.6462    1.0000 </r>
       <r>   -2.6111    1.0000 </r>
       <r>   -2.5962    1.0000 </r>
       <r>   -2.5474    1.0000 </r>
       <r>   -2.5205    1.0000 </r>
       <r>   -2.5031    1.0000 </r>
       <r>   -2.4657    1.0000 </r>
       <r>   -2.4425    1.0000 </r>
       <r>   -2.3826    1.0000 </r>
       <r>   -2.3035    1.0000 </r>
       <r>   -2.2749    1.0000 </r>
       <r>   -2.2485    1.0000 </r>
       <r>   -2.2040    1.0000 </r>
       <r>   -2.1728    1.0000 </r>
       <r>   -2.1391    1.0000 </r>
       <r>   -2.1006    1.0000 </r>
       <r>   -1.9749    1.0000 </r>
       <r>   -1.9582    1.0000 </r>
       <r>   -1.9140    1.0000 </r>
       <r>   -1.8939    1.0000 </r>
       <r>   -1.8661    1.0000 </r>
       <r>   -1.8132    1.0000 </r>
       <r>   -1.8088    1.0000 </r>
       <r>   -1.7652    1.0000 </r>
       <r>   -1.7030    1.0000 </r>
       <r>   -1.6889    1.0000 </r>
       <r>   -1.6765    1.0000 </r>
       <r>   -1.6440    1.0000 </r>
       <r>   -1.6012    1.0000 </r>
       <r>   -1.5629    1.0000 </r>
       <r>   -1.5504    1.0000 </r>
       <r>   -1.5156    1.0000 </r>
       <r>   -1.5126    1.0000 </r>
       <r>   -1.4771    1.0000 </r>
       <r>   -1.4328    1.0000 </r>
       <r>   -1.4018    1.0000 </r>
       <r>   -1.3855    1.0000 </r>
       <r>   -1.3126    1.0000 </r>
       <r>   -1.2928    1.0000 </r>
       <r>   -1.2368    1.0000 </r>
       <r>   -1.2195    1.0000 </r>
       <r>   -1.2124    1.0000 </r>
       <r>   -1.1819    1.0000 </r>
       <r>   -1.1628    1.0000 </r>
       <r>   -1.1358    1.0000 </r>
       <r>   -1.1155    1.0000 </r>
       <r>   -1.0847    1.0000 </r>
       <r>   -1.0699    1.0000 </r>
       <r>   -1.0560    1.0000 </r>
       <r>   -1.0330    1.0000 </r>
       <r>   -1.0261    1.0000 </r>
       <r>   -1.0023    1.0000 </r>
       <r>   -0.9829    1.0000 </r>
       <r>   -0.9591    1.0000 </r>
       <r>   -0.9535    1.0000 </r>
       <r>   -0.9263    1.0000 </r>
       <r>   -0.9172    1.0000 </r>
       <r>   -0.9008    1.0000 </r>
       <r>   -0.8839    1.0000 </r>
       <r>   -0.8693    1.0000 </r>
       <r>   -0.8596    1.0000 </r>
       <r>   -0.8466    1.0000 </r>
       <r>   -0.8108    1.0000 </r>
       <r>   -0.7840    1.0000 </r>
       <r>   -0.7597    1.0000 </r>
       <r>   -0.7534    1.0000 </r>
       <r>   -0.7308    1.0000 </r>
       <r>   -0.7135    1.0000 </r>
       <r>   -0.7027    1.0000 </r>
       <r>   -0.6842    1.0000 </r>
       <r>   -0.6733    1.0000 </r>
       <r>   -0.6608    1.0000 </r>
       <r>   -0.6285    1.0000 </r>
       <r>   -0.6210    1.0000 </r>
       <r>   -0.6021    1.0000 </r>
       <r>   -0.5920    1.0000 </r>
       <r>   -0.5813    1.0000 </r>
       <r>   -0.5765    1.0000 </r>
       <r>   -0.5734    1.0000 </r>
       <r>   -0.5667    1.0000 </r>
       <r>   -0.5482    1.0000 </r>
       <r>   -0.5415    1.0000 </r>
       <r>   -0.5234    1.0000 </r>
       <r>   -0.5127    1.0000 </r>
       <r>   -0.4960    1.0000 </r>
       <r>   -0.4902    1.0000 </r>
       <r>   -0.4875    1.0000 </r>
       <r>   -0.4725    1.0000 </r>
       <r>   -0.4603    1.0000 </r>
       <r>   -0.4478    1.0000 </r>
       <r>   -0.4410    1.0000 </r>
       <r>   -0.4259    1.0000 </r>
       <r>   -0.4204    1.0000 </r>
       <r>   -0.4077    1.0000 </r>
       <r>   -0.3958    1.0000 </r>
       <r>   -0.3842    1.0000 </r>
       <r>   -0.3799    1.0000 </r>
       <r>   -0.3671    1.0000 </r>
       <r>   -0.3519    1.0000 </r>
       <r>   -0.3477    1.0000 </r>
       <r>   -0.3401    1.0000 </r>
       <r>   -0.3198    1.0000 </r>
       <r>   -0.3126    1.0000 </r>
       <r>   -0.2949    1.0000 </r>
       <r>   -0.2869    1.0000 </r>
       <r>   -0.2796    1.0000 </r>
       <r>   -0.2552    1.0000 </r>
       <r>   -0.2462    1.0000 </r>
       <r>   -0.2365    1.0000 </r>
       <r>   -0.2252    1.0000 </r>
       <r>   -0.2231    1.0000 </r>
       <r>   -0.2113    1.0000 </r>
       <r>   -0.1739    1.0000 </r>
       <r>   -0.1613    1.0000 </r>
       <r>   -0.1401    1.0000 </r>
       <r>   -0.1133    1.0000 </r>
       <r>   -0.1077    1.0000 </r>
       <r>   -0.0967    1.0000 </r>
       <r>   -0.0872    1.0000 </r>
       <r>   -0.0680    1.0000 </r>
       <r>   -0.0516    1.0000 </r>
       <r>   -0.0391    1.0000 </r>
       <r>   -0.0311    1.0000 </r>
       <r>   -0.0156    1.0000 </r>
       <r>    0.0003    1.0000 </r>
       <r>    0.0134    1.0000 </r>
       <r>    0.0454    1.0000 </r>
       <r>    0.0648    1.0000 </r>
       <r>    0.0881    1.0000 </r>
       <r>    0.1096    1.0000 </r>
       <r>    0.1212    1.0000 </r>
       <r>    0.1361    1.0000 </r>
       <r>    0.1484    1.0000 </r>
       <r>    0.1673    1.0000 </r>
       <r>    0.1720    1.0000 </r>
       <r>    0.2171    1.0000 </r>
       <r>    0.2267    1.0000 </r>
       <r>    0.2428    1.0000 </r>
       <r>    0.2729    1.0000 </r>
       <r>    0.2861    1.0000 </r>
       <r>    0.2997    1.0000 </r>
       <r>    0.3127    1.0000 </r>
       <r>    0.3381    1.0000 </r>
       <r>    0.3540    1.0000 </r>
       <r>    0.3715    1.0000 </r>
       <r>    0.3988    1.0000 </r>
       <r>    0.4084    1.0000 </r>
       <r>    0.4274    1.0000 </r>
       <r>    0.4577    1.0000 </r>
       <r>    0.4727    1.0000 </r>
       <r>    0.4837    1.0000 </r>
       <r>    0.4901    1.0000 </r>
       <r>    0.5279    1.0000 </r>
       <r>    0.5478    1.0000 </r>
       <r>    0.5622    1.0000 </r>
       <r>    0.5713    1.0000 </r>
       <r>    0.5936    1.0000 </r>
       <r>    0.6055    1.0000 </r>
       <r>    0.6155    1.0000 </r>
       <r>    0.6642    1.0000 </r>
       <r>    0.6824    0.9999 </r>
       <r>    0.7083    0.9998 </r>
       <r>    0.7419    0.9996 </r>
       <r>    0.7542    0.9995 </r>
       <r>    0.8176    0.9976 </r>
       <r>    0.8498    0.9952 </r>
       <r>    0.8782    0.9916 </r>
       <r>    0.8981    0.9878 </r>
       <r>    0.9193    0.9822 </r>
       <r>    0.9743    0.9566 </r>
       <r>    1.0543    0.8743 </r>
       <r>    1.1106    0.7731 </r>
       <r>    1.1574    0.6620 </r>
       <r>    1.1647    0.6429 </r>
       <r>    1.2025    0.5395 </r>
       <r>    1.2565    0.3887 </r>
       <r>    1.2745    0.3407 </r>
       <r>    1.2929    0.2945 </r>
       <r>    1.3147    0.2436 </r>
       <r>    1.3891    0.1111 </r>
       <r>    1.4202    0.0748 </r>
       <r>    1.4566    0.0447 </r>
       <r>    1.4688    0.0372 </r>
       <r>    1.4781    0.0322 </r>
       <r>    1.5334    0.0125 </r>
       <r>    1.5541    0.0085 </r>
       <r>    1.5667    0.0066 </r>
       <r>    1.6280    0.0018 </r>
       <r>    1.6712    0.0007 </r>
       <r>    1.6942    0.0004 </r>
       <r>    1.7102    0.0002 </r>
       <r>    1.7311    0.0001 </r>
       <r>    1.7881    0.0000 </r>
       <r>    1.8236    0.0000 </r>
       <r>    1.8524    0.0000 </r>
       <r>    1.8614    0.0000 </r>
       <r>    1.8695    0.0000 </r>
       <r>    1.8921    0.0000 </r>
       <r>    1.9180    0.0000 </r>
       <r>    1.9631    0.0000 </r>
       <r>    2.0410    0.0000 </r>
       <r>    2.0994    0.0000 </r>
       <r>    2.1267    0.0000 </r>
       <r>    2.1764    0.0000 </r>
       <r>    2.2318    0.0000 </r>
       <r>    2.2621    0.0000 </r>
       <r>    2.3276    0.0000 </r>
       <r>    2.3562    0.0000 </r>
       <r>    2.3965    0.0000 </r>
       <r>    2.4388    0.0000 </r>
       <r>    2.4812    0.0000 </r>
       <r>    2.6150    0.0000 </r>
       <r>    2.8435    0.0000 </r>
       <r>    3.1517    0.0000 </r>
       <r>    3.6641    0.0000 </r>
       <r>    4.0509    0.0000 </r>
       <r>    4.2497    0.0000 </r>
       <r>    4.3893    0.0000 </r>
       <r>    4.4353    0.0000 </r>
       <r>    4.5392    0.0000 </r>
       <r>    4.7040    0.0000 </r>
       <r>    4.7425    0.0000 </r>
       <r>    4.9029    0.0000 </r>
       <r>    5.0842    0.0000 </r>
       <r>    5.3141    0.0000 </r>
       <r>    5.3389    0.0000 </r>
       <r>    5.5069    0.0000 </r>
       <r>    5.5578    0.0000 </r>
       <r>    5.6121    0.0000 </r>
       <r>    5.6820    0.0000 </r>
       <r>    5.7179    0.0000 </r>
       <r>    5.7687    0.0000 </r>
       <r>    5.9507    0.0000 </r>
       <r>    5.9847    0.0000 </r>
       <r>    6.1134    0.0000 </r>
       <r>    6.1715    0.0000 </r>
       <r>    6.2205    0.0000 </r>
       <r>    6.2694    0.0000 </r>
       <r>    6.3646    0.0000 </r>
       <r>    6.4111    0.0000 </r>
       <r>    6.4914    0.0000 </r>
       <r>    6.5642    0.0000 </r>
       <r>    6.6552    0.0000 </r>
       <r>    6.6830    0.0000 </r>
       <r>    6.7725    0.0000 </r>
       <r>    6.7831    0.0000 </r>
       <r>    6.8229    0.0000 </r>
       <r>    6.8695    0.0000 </r>
       <r>    6.9030    0.0000 </r>
       <r>    6.9379    0.0000 </r>
       <r>    6.9967    0.0000 </r>
       <r>    7.0450    0.0000 </r>
       <r>    7.1339    0.0000 </r>
       <r>    7.1770    0.0000 </r>
       <r>    7.2178    0.0000 </r>
       <r>    7.2467    0.0000 </r>
       <r>    7.2868    0.0000 </r>
       <r>    7.3162    0.0000 </r>
       <r>    7.3672    0.0000 </r>
      </set>
     </set>
    </set>
   </array>
  </eigenvalues>
  <separator name="orbital magnetization" >
   <v name="MAGDIPOLOUT">      0.00000000      0.00000000      0.00000000</v>
  </separator>
  <dos>
   <i name="efermi">      1.21648332 </i>
   <total>
    <array>
     <dimension dim="1">gridpoints</dimension>
     <dimension dim="2">spin</dimension>
     <field>energy</field>
     <field>total</field>
     <field>integrated</field>
     <set>
      <set comment="spin 1">
       <r>   -66.4997     0.0000     0.0000 </r>
       <r>   -66.2417     0.0000     0.0000 </r>
       <r>   -65.9838     0.0000     0.0000 </r>
       <r>   -65.7259     0.0000     0.0000 </r>
       <r>   -65.4679     0.0000     0.0000 </r>
       <r>   -65.2100     0.0000     0.0000 </r>
       <r>   -64.9520     0.0000     0.0000 </r>
       <r>   -64.6941     0.0000     0.0000 </r>
       <r>   -64.4361     0.0000     0.0000 </r>
       <r>   -64.1782     0.0000     0.0000 </r>
       <r>   -63.9202     0.0000     0.0000 </r>
       <r>   -63.6623     0.0000     0.0000 </r>
       <r>   -63.4043     0.0644     0.0166 </r>
       <r>   -63.1464    12.5698     3.2590 </r>
       <r>   -62.8884   175.4904    48.5264 </r>
       <r>   -62.6305   297.9059   125.3706 </r>
       <r>   -62.3725   149.0054   163.8062 </r>
       <r>   -62.1146    56.5303   178.3881 </r>
       <r>   -61.8566    59.4544   193.7242 </r>
       <r>   -61.5987    55.9864   208.1658 </r>
       <r>   -61.3407    24.9942   214.6130 </r>
       <r>   -61.0828     5.1491   215.9412 </r>
       <r>   -60.8248     0.2273   215.9998 </r>
       <r>   -60.5669     0.0007   216.0000 </r>
       <r>   -60.3089     0.0000   216.0000 </r>
       <r>   -60.0510     0.0000   216.0000 </r>
       <r>   -59.7931     0.0000   216.0000 </r>
       <r>   -59.5351     0.0000   216.0000 </r>
       <r>   -59.2772     0.0000   216.0000 </r>
       <r>   -59.0192     0.0000   216.0000 </r>
       <r>   -58.7613     0.0000   216.0000 </r>
       <r>   -58.5033     0.0000   216.0000 </r>
       <r>   -58.2454     0.0000   216.0000 </r>
       <r>   -57.9874     0.0000   216.0000 </r>
       <r>   -57.7295     0.0000   216.0000 </r>
       <r>   -57.4715     0.0000   216.0000 </r>
       <r>   -57.2136     0.0000   216.0000 </r>
       <r>   -56.9556     0.0000   216.0000 </r>
       <r>   -56.6977     0.0000   216.0000 </r>
       <r>   -56.4397     0.0000   216.0000 </r>
       <r>   -56.1818     0.0000   216.0000 </r>
       <r>   -55.9238     0.0000   216.0000 </r>
       <r>   -55.6659     0.0000   216.0000 </r>
       <r>   -55.4079     0.0000   216.0000 </r>
       <r>   -55.1500     0.0000   216.0000 </r>
       <r>   -54.8920     0.0000   216.0000 </r>
       <r>   -54.6341     0.0000   216.0000 </r>
       <r>   -54.3761     0.0000   216.0000 </r>
       <r>   -54.1182     0.0000   216.0000 </r>
       <r>   -53.8603     0.0000   216.0000 </r>
       <r>   -53.6023     0.0000   216.0000 </r>
       <r>   -53.3444     0.0000   216.0000 </r>
       <r>   -53.0864     0.0000   216.0000 </r>
       <r>   -52.8285     0.0000   216.0000 </r>
       <r>   -52.5705     0.0000   216.0000 </r>
       <r>   -52.3126     0.0000   216.0000 </r>
       <r>   -52.0546     0.0000   216.0000 </r>
       <r>   -51.7967     0.0000   216.0000 </r>
       <r>   -51.5387     0.0000   216.0000 </r>
       <r>   -51.2808     0.0000   216.0000 </r>
       <r>   -51.0228     0.0000   216.0000 </r>
       <r>   -50.7649     0.0000   216.0000 </r>
       <r>   -50.5069     0.0000   216.0000 </r>
       <r>   -50.2490     0.0000   216.0000 </r>
       <r>   -49.9910     0.0000   216.0000 </r>
       <r>   -49.7331     0.0000   216.0000 </r>
       <r>   -49.4751     0.0000   216.0000 </r>
       <r>   -49.2172     0.0000   216.0000 </r>
       <r>   -48.9592     0.0000   216.0000 </r>
       <r>   -48.7013     0.0000   216.0000 </r>
       <r>   -48.4433     0.0000   216.0000 </r>
       <r>   -48.1854     0.0000   216.0000 </r>
       <r>   -47.9274     0.0000   216.0000 </r>
       <r>   -47.6695     0.0000   216.0000 </r>
       <r>   -47.4116     0.0000   216.0000 </r>
       <r>   -47.1536     0.0000   216.0000 </r>
       <r>   -46.8957     0.0000   216.0000 </r>
       <r>   -46.6377     0.0000   216.0000 </r>
       <r>   -46.3798     0.0000   216.0000 </r>
       <r>   -46.1218     0.0000   216.0000 </r>
       <r>   -45.8639     0.0000   216.0000 </r>
       <r>   -45.6059     0.0000   216.0000 </r>
       <r>   -45.3480     0.0000   216.0000 </r>
       <r>   -45.0900     0.0000   216.0000 </r>
       <r>   -44.8321     0.0000   216.0000 </r>
       <r>   -44.5741     0.0000   216.0000 </r>
       <r>   -44.3162     0.0000   216.0000 </r>
       <r>   -44.0582     0.0000   216.0000 </r>
       <r>   -43.8003     0.0000   216.0000 </r>
       <r>   -43.5423     0.0000   216.0000 </r>
       <r>   -43.2844     0.0000   216.0000 </r>
       <r>   -43.0264     0.0000   216.0000 </r>
       <r>   -42.7685     0.0000   216.0000 </r>
       <r>   -42.5105     0.0000   216.0000 </r>
       <r>   -42.2526     0.0000   216.0000 </r>
       <r>   -41.9946     0.0000   216.0000 </r>
       <r>   -41.7367     0.0000   216.0000 </r>
       <r>   -41.4788     0.0000   216.0000 </r>
       <r>   -41.2208     0.0000   216.0000 </r>
       <r>   -40.9629     0.0000   216.0000 </r>
       <r>   -40.7049     0.0000   216.0000 </r>
       <r>   -40.4470     0.0000   216.0000 </r>
       <r>   -40.1890     0.0000   216.0000 </r>
       <r>   -39.9311     0.0000   216.0000 </r>
       <r>   -39.6731     0.0000   216.0000 </r>
       <r>   -39.4152     0.0000   216.0000 </r>
       <r>   -39.1572     0.0000   216.0000 </r>
       <r>   -38.8993     0.0000   216.0000 </r>
       <r>   -38.6413     0.0000   216.0000 </r>
       <r>   -38.3834     0.0000   216.0000 </r>
       <r>   -38.1254     0.0000   216.0000 </r>
       <r>   -37.8675     0.0000   216.0000 </r>
       <r>   -37.6095     0.0000   216.0000 </r>
       <r>   -37.3516     0.0000   216.0000 </r>
       <r>   -37.0936     0.0000   216.0000 </r>
       <r>   -36.8357     0.0000   216.0000 </r>
       <r>   -36.5777     0.0000   216.0000 </r>
       <r>   -36.3198     0.0000   216.0000 </r>
       <r>   -36.0618     0.0000   216.0000 </r>
       <r>   -35.8039     0.0000   216.0000 </r>
       <r>   -35.5460     0.0000   216.0000 </r>
       <r>   -35.2880     0.0000   216.0000 </r>
       <r>   -35.0301     0.0000   216.0000 </r>
       <r>   -34.7721     0.0000   216.0000 </r>
       <r>   -34.5142     0.0000   216.0000 </r>
       <r>   -34.2562     0.0000   216.0000 </r>
       <r>   -33.9983     0.0000   216.0000 </r>
       <r>   -33.7403     0.0000   216.0000 </r>
       <r>   -33.4824     0.0000   216.0000 </r>
       <r>   -33.2244     0.0000   216.0000 </r>
       <r>   -32.9665     0.0000   216.0000 </r>
       <r>   -32.7085     0.0000   216.0000 </r>
       <r>   -32.4506     0.0000   216.0000 </r>
       <r>   -32.1926     0.0000   216.0000 </r>
       <r>   -31.9347     0.0000   216.0000 </r>
       <r>   -31.6767     0.0000   216.0000 </r>
       <r>   -31.4188     0.0000   216.0000 </r>
       <r>   -31.1608     0.0000   216.0000 </r>
       <r>   -30.9029     0.0000   216.0000 </r>
       <r>   -30.6449     0.0000   216.0000 </r>
       <r>   -30.3870     0.0000   216.0000 </r>
       <r>   -30.1290     0.0000   216.0000 </r>
       <r>   -29.8711     0.0000   216.0000 </r>
       <r>   -29.6132     0.0000   216.0000 </r>
       <r>   -29.3552     0.0000   216.0000 </r>
       <r>   -29.0973     0.0000   216.0000 </r>
       <r>   -28.8393     0.0000   216.0000 </r>
       <r>   -28.5814     0.0000   216.0000 </r>
       <r>   -28.3234     0.0000   216.0000 </r>
       <r>   -28.0655     0.0000   216.0000 </r>
       <r>   -27.8075     0.0000   216.0000 </r>
       <r>   -27.5496     0.0000   216.0000 </r>
       <r>   -27.2916     0.0000   216.0000 </r>
       <r>   -27.0337     0.0000   216.0000 </r>
       <r>   -26.7757     0.0000   216.0000 </r>
       <r>   -26.5178     0.0000   216.0000 </r>
       <r>   -26.2598     0.0000   216.0000 </r>
       <r>   -26.0019     0.0000   216.0000 </r>
       <r>   -25.7439     0.0000   216.0000 </r>
       <r>   -25.4860     0.0000   216.0000 </r>
       <r>   -25.2280     0.0000   216.0000 </r>
       <r>   -24.9701     0.0000   216.0000 </r>
       <r>   -24.7121     0.0000   216.0000 </r>
       <r>   -24.4542     0.0000   216.0000 </r>
       <r>   -24.1962     0.0000   216.0000 </r>
       <r>   -23.9383     0.0000   216.0000 </r>
       <r>   -23.6803     0.0000   216.0000 </r>
       <r>   -23.4224     0.0000   216.0000 </r>
       <r>   -23.1645     0.0000   216.0000 </r>
       <r>   -22.9065     0.0000   216.0000 </r>
       <r>   -22.6486     0.0000   216.0000 </r>
       <r>   -22.3906     0.0000   216.0000 </r>
       <r>   -22.1327     0.0000   216.0000 </r>
       <r>   -21.8747     0.0000   216.0000 </r>
       <r>   -21.6168     0.0000   216.0000 </r>
       <r>   -21.3588     0.0000   216.0000 </r>
       <r>   -21.1009     0.0000   216.0000 </r>
       <r>   -20.8429     0.0000   216.0000 </r>
       <r>   -20.5850     0.0000   216.0000 </r>
       <r>   -20.3270     0.0000   216.0000 </r>
       <r>   -20.0691     0.0000   216.0000 </r>
       <r>   -19.8111     0.0000   216.0000 </r>
       <r>   -19.5532     0.0000   216.0000 </r>
       <r>   -19.2952     0.0000   216.0000 </r>
       <r>   -19.0373     0.0000   216.0000 </r>
       <r>   -18.7793     0.0000   216.0000 </r>
       <r>   -18.5214     0.0000   216.0000 </r>
       <r>   -18.2634     0.0000   216.0000 </r>
       <r>   -18.0055     0.0000   216.0000 </r>
       <r>   -17.7475     0.0000   216.0000 </r>
       <r>   -17.4896     0.0000   216.0000 </r>
       <r>   -17.2317     0.0000   216.0000 </r>
       <r>   -16.9737     0.0000   216.0000 </r>
       <r>   -16.7158     0.0000   216.0000 </r>
       <r>   -16.4578     0.0000   216.0000 </r>
       <r>   -16.1999     0.0000   216.0000 </r>
       <r>   -15.9419     0.0000   216.0000 </r>
       <r>   -15.6840     0.0000   216.0000 </r>
       <r>   -15.4260     0.0000   216.0000 </r>
       <r>   -15.1681     0.0000   216.0000 </r>
       <r>   -14.9101     0.0000   216.0000 </r>
       <r>   -14.6522     0.0119   216.0031 </r>
       <r>   -14.3942     0.9811   216.2562 </r>
       <r>   -14.1363     4.8564   217.5089 </r>
       <r>   -13.8783     1.9564   218.0135 </r>
       <r>   -13.6204     4.5769   219.1941 </r>
       <r>   -13.3624    18.3514   223.9278 </r>
       <r>   -13.1045    19.3336   228.9149 </r>
       <r>   -12.8465    24.8615   235.3279 </r>
       <r>   -12.5886    27.1478   242.3306 </r>
       <r>   -12.3306    34.3004   251.1783 </r>
       <r>   -12.0727    34.3020   260.0264 </r>
       <r>   -11.8147    28.2517   267.3139 </r>
       <r>   -11.5568    18.7067   272.1393 </r>
       <r>   -11.2989    19.4534   277.1572 </r>
       <r>   -11.0409    21.3175   282.6560 </r>
       <r>   -10.7830    12.4072   285.8565 </r>
       <r>   -10.5250     5.3071   287.2254 </r>
       <r>   -10.2671     2.8685   287.9653 </r>
       <r>   -10.0091     0.1340   287.9999 </r>
       <r>    -9.7512     0.0003   288.0000 </r>
       <r>    -9.4932     0.0000   288.0000 </r>
       <r>    -9.2353     0.0000   288.0000 </r>
       <r>    -8.9773     0.0000   288.0000 </r>
       <r>    -8.7194     0.0000   288.0000 </r>
       <r>    -8.4614     0.0000   288.0000 </r>
       <r>    -8.2035     0.0000   288.0000 </r>
       <r>    -7.9455     0.0000   288.0000 </r>
       <r>    -7.6876     0.0000   288.0000 </r>
       <r>    -7.4296     0.0000   288.0000 </r>
       <r>    -7.1717     0.0000   288.0000 </r>
       <r>    -6.9137     0.0000   288.0000 </r>
       <r>    -6.6558     0.0014   288.0004 </r>
       <r>    -6.3978     0.3954   288.1024 </r>
       <r>    -6.1399     6.3523   289.7409 </r>
       <r>    -5.8819     9.2525   292.1276 </r>
       <r>    -5.6240    14.2612   295.8062 </r>
       <r>    -5.3660    27.5258   302.9065 </r>
       <r>    -5.1081    40.0050   313.2257 </r>
       <r>    -4.8502    51.4551   326.4984 </r>
       <r>    -4.5922    43.9540   337.8363 </r>
       <r>    -4.3343    35.7406   347.0555 </r>
       <r>    -4.0763    37.1821   356.6465 </r>
       <r>    -3.8184    38.5123   366.5807 </r>
       <r>    -3.5604    49.9040   379.4534 </r>
       <r>    -3.3025    61.8737   395.4136 </r>
       <r>    -3.0445    64.4335   412.0340 </r>
       <r>    -2.7866    72.7761   430.8065 </r>
       <r>    -2.5286    73.4953   449.7644 </r>
       <r>    -2.2707    54.3025   463.7717 </r>
       <r>    -2.0127    45.8319   475.5939 </r>
       <r>    -1.7548    54.3296   489.6081 </r>
       <r>    -1.4968    65.4308   506.4858 </r>
       <r>    -1.2389    67.5630   523.9135 </r>
       <r>    -0.9809    93.5673   548.0490 </r>
       <r>    -0.7230   117.4358   578.3413 </r>
       <r>    -0.4650   155.7494   618.5166 </r>
       <r>    -0.2071   165.3632   661.1717 </r>
       <r>     0.0509   131.0259   694.9695 </r>
       <r>     0.3088   111.9167   723.8382 </r>
       <r>     0.5668   104.8610   750.8868 </r>
       <r>     0.8247    79.4576   771.3828 </r>
       <r>     1.0826    52.8383   785.0123 </r>
       <r>     1.3406    55.1356   799.2344 </r>
       <r>     1.5985    63.1315   815.5190 </r>
       <r>     1.8565    65.5378   832.4244 </r>
       <r>     2.1144    53.4417   846.2095 </r>
       <r>     2.3724    42.9497   857.2883 </r>
       <r>     2.6303    28.1596   864.5520 </r>
       <r>     2.8883    10.4657   867.2516 </r>
       <r>     3.1462     6.5345   868.9372 </r>
       <r>     3.4042     4.0886   869.9919 </r>
       <r>     3.6621     3.8876   870.9947 </r>
       <r>     3.9201     5.0826   872.3057 </r>
       <r>     4.1780     8.3443   874.4581 </r>
       <r>     4.4360    16.1446   878.6226 </r>
       <r>     4.6939    18.6957   883.4451 </r>
       <r>     4.9519    15.3889   887.4146 </r>
       <r>     5.2098    11.8513   890.4717 </r>
       <r>     5.4678    18.3627   895.2083 </r>
       <r>     5.7257    28.0593   902.4461 </r>
       <r>     5.9837    23.9935   908.6352 </r>
       <r>     6.2416    26.9566   915.5886 </r>
       <r>     6.4996    29.6817   923.2449 </r>
       <r>     6.7575    34.6221   932.1756 </r>
       <r>     7.0154    42.9256   943.2482 </r>
       <r>     7.2734    40.2872   953.6402 </r>
       <r>     7.5313    22.5372   959.4536 </r>
       <r>     7.7893     2.1018   959.9958 </r>
       <r>     8.0472     0.0164   960.0000 </r>
       <r>     8.3052     0.0000   960.0000 </r>
       <r>     8.5631     0.0000   960.0000 </r>
       <r>     8.8211     0.0000   960.0000 </r>
       <r>     9.0790     0.0000   960.0000 </r>
       <r>     9.3370     0.0000   960.0000 </r>
       <r>     9.5949     0.0000   960.0000 </r>
       <r>     9.8529     0.0000   960.0000 </r>
       <r>    10.1108     0.0000   960.0000 </r>
       <r>    10.3688     0.0000   960.0000 </r>
       <r>    10.6267     0.0000   960.0000 </r>
       <r>    10.8847     0.0000   960.0000 </r>
      </set>
     </set>
    </array>
   </total>
  </dos>
 </calculation>
 <structure name="finalpos" >
  <crystal>
   <varray name="basis" >
    <v>      10.40335375      -4.78920500       0.00000000 </v>
    <v>       0.00000000       9.57841000       0.00000000 </v>
    <v>       0.00000000       0.00000000      20.50076286 </v>
   </varray>
   <i name="volume">   2042.85156262 </i>
   <varray name="rec_basis" >
    <v>       0.09612285       0.00000000       0.00000000 </v>
    <v>       0.04806142       0.10440146       0.00000000 </v>
    <v>       0.00000000       0.00000000       0.04877867 </v>
   </varray>
  </crystal>
  <varray name="positions" >
   <v>       0.58044680       0.07437514       0.34941513 </v>
   <v>       0.76256081       0.16543215       0.22731652 </v>
   <v>       0.94467483       0.25648915       0.10521791 </v>
   <v>       0.39833278       0.98331813       0.47151374 </v>
   <v>       0.03518947       0.80174648       0.26801605 </v>
   <v>       0.21730349       0.89280348       0.14591744 </v>
   <v>       0.39941750       0.98386049       0.02381883 </v>
   <v>       0.67096144       0.61963246       0.51221327 </v>
   <v>       0.85307546       0.71068947       0.39011466 </v>
   <v>       0.12570412       0.34700380       0.43081420 </v>
   <v>       0.30781813       0.43806081       0.30871559 </v>
   <v>       0.48993215       0.52911781       0.18661698 </v>
   <v>       0.67204616       0.62017482       0.06451837 </v>
   <v>       0.23035801       0.03143375       0.40699537 </v>
   <v>       0.41247203       0.12249075       0.28489676 </v>
   <v>       0.59458604       0.21354776       0.16279815 </v>
   <v>       0.77670006       0.30460477       0.04069954 </v>
   <v>       0.04932872       0.94091910       0.08139907 </v>
   <v>       0.50298667       0.66774808       0.44769490 </v>
   <v>       0.68510069       0.75880508       0.32559629 </v>
   <v>       0.86721470       0.84986209       0.20349768 </v>
   <v>       0.13984337       0.48617642       0.24419722 </v>
   <v>       0.32195738       0.57723343       0.12209861 </v>
   <v>       0.50407140       0.66829044       0.00000000 </v>
   <v>       0.95772935       0.39511942       0.36629583 </v>
   <v>       0.39833278       0.24752413       0.47151374 </v>
   <v>       0.58044680       0.33858114       0.34941513 </v>
   <v>       0.76256081       0.42963815       0.22731652 </v>
   <v>       0.94467483       0.52069515       0.10521791 </v>
   <v>       0.03518947       0.06595248       0.26801605 </v>
   <v>       0.21730349       0.15700948       0.14591744 </v>
   <v>       0.85307546       0.97489547       0.39011466 </v>
   <v>       0.12570412       0.61120980       0.43081420 </v>
   <v>       0.30781813       0.70226681       0.30871559 </v>
   <v>       0.48993215       0.79332382       0.18661698 </v>
   <v>       0.67204616       0.88438082       0.06451837 </v>
   <v>       0.18441112       0.17667530       0.48070540 </v>
   <v>       0.36652513       0.26773231       0.35860679 </v>
   <v>       0.54863915       0.35878931       0.23650818 </v>
   <v>       0.73075316       0.44984632       0.11440957 </v>
   <v>       0.00338182       0.08616065       0.15510911 </v>
   <v>       0.18549584       0.17721766       0.03301050 </v>
   <v>       0.63915379       0.90404664       0.39930633 </v>
   <v>       0.82126781       0.99510365       0.27720772 </v>
   <v>       0.09389647       0.63141797       0.31790726 </v>
   <v>       0.27601049       0.72247498       0.19580864 </v>
   <v>       0.45812450       0.81353199       0.07371003 </v>
   <v>       0.91178246       0.54036097       0.44000587 </v>
   <v>       0.12675994       0.47963471       0.07446623 </v>
   <v>       0.58041790       0.20646369       0.44076206 </v>
   <v>       0.76253191       0.29752070       0.31866345 </v>
   <v>       0.94464593       0.38857770       0.19656484 </v>
   <v>       0.21727459       0.02489203       0.23726438 </v>
   <v>       0.39938860       0.11594904       0.11516577 </v>
   <v>       0.03516057       0.93383503       0.35936299 </v>
   <v>       0.85304656       0.84277802       0.48146160 </v>
   <v>       0.30778923       0.57014936       0.40006253 </v>
   <v>       0.48990325       0.66120636       0.27796392 </v>
   <v>       0.67201726       0.75226337       0.15586531 </v>
   <v>       0.85413128       0.84332038       0.03376670 </v>
   <v>       0.54863915       0.02235931       0.23650818 </v>
   <v>       0.73075316       0.11341632       0.11440957 </v>
   <v>       0.18441112       0.84024530       0.48070540 </v>
   <v>       0.36652513       0.93130231       0.35860679 </v>
   <v>       0.00338182       0.74973065       0.15510911 </v>
   <v>       0.18549584       0.84078766       0.03301050 </v>
   <v>       0.63915379       0.56761664       0.39930633 </v>
   <v>       0.82126781       0.65867365       0.27720772 </v>
   <v>       0.09389647       0.29498797       0.31790726 </v>
   <v>       0.27601049       0.38604498       0.19580864 </v>
   <v>       0.45812450       0.47710199       0.07371003 </v>
   <v>       0.91178246       0.20393097       0.44000587 </v>
  </varray>
 </structure>
</modeling>
