 vasp.6.1.0 28Jan20 (build Mar 31 2020 17:42:31) gamma-only                     
  
 executed on             LinuxIFC date 2020.04.13  05:47:10
 running on   48 total cores
 distrk:  each k-point on   48 cores,    1 groups
 distr:  one band on NCORE=   6 cores,    8 groups


--------------------------------------------------------------------------------------------------------


 INCAR:
 POTCAR:    PAW_PBE Ni_pv 06Sep2000               
 POTCAR:    PAW_PBE S 06Sep2000                   
 POTCAR:    PAW_PBE Ni_pv 06Sep2000               
   VRHFIN =Ni:                                                                                      
   LEXCH  = PE                                                                                      
   EATOM  =  3501.1230 eV,  257.3253 Ry                                                             
                                                                                                    
   TITEL  = PAW_PBE Ni_pv 06Sep2000                                                                 
   LULTRA =        F    use ultrasoft PP ?                                                          
   IUNSCR =        1    unscreen: 0-lin 1-nonlin 2-no                                               
   RPACOR =    1.500    partial core radius                                                         
   POMASS =   58.690; ZVAL   =   16.000    mass and valenz                                          
   RCORE  =    2.000    outmost cutoff radius                                                       
   RWIGS  =    2.000; RWIGS  =    1.058    wigner-seitz radius (au A)                               
   ENMAX  =  367.986; ENMIN  =  275.989 eV                                                          
   RCLOC  =    1.301    cutoff for local pot                                                        
   LCOR   =        T    correct aug charges                                                         
   LPAW   =        T    paw PP                                                                      
   EAUG   =  703.443                                                                                
   DEXC   =    0.000                                                                                
   RMAX   =    2.041    core radius for proj-oper                                                   
   RAUG   =    1.300    factor for augmentation sphere                                              
   RDEP   =    2.103    radius for radial grids                                                     
   RDEPT  =    1.618    core radius for aug-charge                                                  
                                                                                                    
   Atomic configuration                                                                             
    8 entries                                                                                       
     n  l   j            E        occ.                                                              
     1  0  0.50     -8206.4253   2.0000                                                             
     2  0  0.50      -976.1748   2.0000                                                             
     2  1  1.50      -839.0571   6.0000                                                             
     3  0  0.50      -105.9991   2.0000                                                             
     3  1  1.50       -66.4603   6.0000                                                             
     3  2  2.50        -4.6458   9.0000                                                             
     4  0  0.50        -4.4926   1.0000                                                             
     4  3  2.50        -1.3606   0.0000                                                             
   Description                                                                                      
     l       E           TYP  RCUT    TYP  RCUT                                                     
     1    -66.4602962     23  1.700                                                                 
     1     -1.3605826     23  1.700                                                                 
     2     -4.6457867     23  2.000                                                                 
     2     -6.0063693     23  2.000                                                                 
     0     -4.4925576     23  1.900                                                                 
     0     16.3626226     23  1.900                                                                 
  local pseudopotential read in
  partial core-charges read in
  partial kinetic energy density read in
  atomic valenz-charges read in
  non local Contribution for L=           1  read in
    real space projection operators read in
  non local Contribution for L=           1  read in
    real space projection operators read in
  non local Contribution for L=           2  read in
    real space projection operators read in
  non local Contribution for L=           2  read in
    real space projection operators read in
  non local Contribution for L=           0  read in
    real space projection operators read in
  non local Contribution for L=           0  read in
    real space projection operators read in
    PAW grid and wavefunctions read in
 
   number of l-projection  operators is LMAX  =           6
   number of lm-projection operators is LMMAX =          18
 
 POTCAR:    PAW_PBE S 06Sep2000                   
   VRHFIN =S : s2p4                                                                                 
   LEXCH  = PE                                                                                      
   EATOM  =   276.8230 eV,   20.3459 Ry                                                             
                                                                                                    
   TITEL  = PAW_PBE S 06Sep2000                                                                     
   LULTRA =        F    use ultrasoft PP ?                                                          
   IUNSCR =        1    unscreen: 0-lin 1-nonlin 2-no                                               
   RPACOR =    1.500    partial core radius                                                         
   POMASS =   32.066; ZVAL   =    6.000    mass and valenz                                          
   RCORE  =    1.900    outmost cutoff radius                                                       
   RWIGS  =    2.200; RWIGS  =    1.164    wigner-seitz radius (au A)                               
   ENMAX  =  258.689; ENMIN  =  194.016 eV                                                          
   ICORE  =        2    local potential                                                             
   LCOR   =        T    correct aug charges                                                         
   LPAW   =        T    paw PP                                                                      
   EAUG   =  335.092                                                                                
   DEXC   =    0.000                                                                                
   RMAX   =    1.942    core radius for proj-oper                                                   
   RAUG   =    1.300    factor for augmentation sphere                                              
   RDEP   =    1.954    radius for radial grids                                                     
   RDEPT  =    1.744    core radius for aug-charge                                                  
                                                                                                    
   Atomic configuration                                                                             
    6 entries                                                                                       
     n  l   j            E        occ.                                                              
     1  0  0.50     -2405.8406   2.0000                                                             
     2  0  0.50      -211.7007   2.0000                                                             
     2  1  1.50      -156.4958   6.0000                                                             
     3  0  0.50       -17.2562   2.0000                                                             
     3  1  0.50        -7.0085   4.0000                                                             
     3  2  1.50        -6.8029   0.0000                                                             
   Description                                                                                      
     l       E           TYP  RCUT    TYP  RCUT                                                     
     0    -17.2561641     23  1.900                                                                 
     0    -15.8743224     23  1.900                                                                 
     1     -7.0085400     23  1.900                                                                 
     1     -2.7779785     23  1.900                                                                 
     2     -6.8029130     23  1.900                                                                 
  local pseudopotential read in
  partial core-charges read in
  partial kinetic energy density read in
  atomic valenz-charges read in
  non local Contribution for L=           0  read in
    real space projection operators read in
  non local Contribution for L=           0  read in
    real space projection operators read in
  non local Contribution for L=           1  read in
    real space projection operators read in
  non local Contribution for L=           1  read in
    real space projection operators read in
    PAW grid and wavefunctions read in
 
   number of l-projection  operators is LMAX  =           4
   number of lm-projection operators is LMMAX =           8
 
 Optimization of the real space projectors (new method)

 maximal supplied QI-value         = 18.90
 optimisation between [QCUT,QGAM] = [ 10.77, 21.73] = [ 32.49,132.25] Ry 
 Optimized for a Real-space Cutoff    1.38 Angstroem

   l    n(q)    QCUT    max X(q) W(low)/X(q) W(high)/X(q)  e(spline) 
   1      8    10.771     2.836    0.40E-04    0.29E-04    0.12E-06
   1      8    10.771     4.023    0.10E-03    0.48E-04    0.29E-06
   2      8    10.771    73.368    0.42E-03    0.97E-04    0.44E-06
   2      8    10.771    69.010    0.42E-03    0.99E-04    0.45E-06
   0      9    10.771    54.797    0.10E-03    0.56E-04    0.74E-07
   0      9    10.771    24.266    0.89E-04    0.49E-04    0.67E-07
 Optimization of the real space projectors (new method)

 maximal supplied QI-value         = 19.84
 optimisation between [QCUT,QGAM] = [ 10.71, 21.63] = [ 32.15,130.99] Ry 
 Optimized for a Real-space Cutoff    1.19 Angstroem

   l    n(q)    QCUT    max X(q) W(low)/X(q) W(high)/X(q)  e(spline) 
   0      8    10.715   187.594    0.41E-03    0.53E-04    0.66E-07
   0      8    10.715   164.243    0.41E-03    0.53E-04    0.65E-07
   1      7    10.715    67.533    0.19E-03    0.59E-03    0.68E-07
   1      7    10.715    50.729    0.19E-03    0.58E-03    0.67E-07
  PAW_PBE Ni_pv 06Sep2000               :
 energy of atom  1       EATOM=-3501.1230
 kinetic energy error for atom=    0.0925 (will be added to EATOM!!)
  PAW_PBE S 06Sep2000                   :
 energy of atom  2       EATOM= -276.8230
 kinetic energy error for atom=    0.0033 (will be added to EATOM!!)
 
 
 POSCAR: Structure 42 made from 02-1-7.xsd file
  positions in direct lattice
  No initial velocities read in
 exchange correlation table for  LEXCH =        8
   RHO(1)=    0.500       N(1)  =     2000
   RHO(2)=  100.500       N(2)  =     4000
 


--------------------------------------------------------------------------------------------------------


 ion  position               nearest neighbor table
   1  0.580  0.074  0.354-  44 2.25  66 2.26  51 2.26  63 2.36  52 2.36  28 2.53  15 2.53
   2  0.763  0.165  0.233-  45 2.25  52 2.26  63 2.26  53 2.36  64 2.36  16 2.53  29 2.53
   3  0.945  0.256  0.111-  42 2.25  53 2.26  64 2.26  50 2.36  17 2.53  30 2.53
   4  0.398  0.983  0.475-  65 2.26  51 2.36  66 2.36  14 2.53  27 2.53
   5  0.035  0.802  0.273-  46 2.25  57 2.26  70 2.26  54 2.36  67 2.36  21 2.53  31 2.53
   6  0.217  0.893  0.152-  47 2.25  67 2.26  54 2.26  68 2.36  55 2.36  32 2.53  18 2.53
   7  0.399  0.984  0.031-  48 2.25  68 2.26  55 2.26  56 2.36
   8  0.671  0.620  0.516-  58 2.36  69 2.36  19 2.53  33 2.53
   9  0.853  0.711  0.394-  49 2.25  69 2.26  58 2.26  57 2.36  70 2.36  34 2.53  20 2.53
  10  0.126  0.347  0.435-  38 2.25  74 2.26  59 2.36  71 2.36  26 2.53
  11  0.308  0.438  0.313-  39 2.25  59 2.26  71 2.26  60 2.36  72 2.36  22 2.53  35 2.53
  12  0.490  0.529  0.192-  40 2.25  60 2.26  72 2.26  61 2.36  73 2.36  36 2.53  23 2.53
  13  0.672  0.620  0.071-  41 2.25  73 2.26  61 2.26  62 2.36  24 2.53  37 2.53
  14  0.230  0.031  0.411-  57 2.25  65 2.26  38 2.26  66 2.36  39 2.36   4 2.53  27 2.53
  15  0.412  0.122  0.290-  54 2.25  39 2.26  66 2.26  63 2.36  40 2.36  28 2.53   1 2.53
  16  0.595  0.214  0.169-  55 2.25  63 2.26  40 2.26  64 2.36  41 2.36   2 2.53  29 2.53
  17  0.777  0.305  0.047-  56 2.25  64 2.26  41 2.26   3 2.53  30 2.53
  18  0.049  0.941  0.088-  62 2.25  42 2.26  67 2.26  43 2.36  68 2.36  32 2.53   6 2.53
  19  0.503  0.668  0.451-  59 2.25  44 2.36  69 2.36   8 2.53  33 2.53
  20  0.685  0.759  0.330-  60 2.25  44 2.26  69 2.26  70 2.36  45 2.36  34 2.53   9 2.53
  21  0.867  0.850  0.209-  61 2.25  70 2.26  45 2.26  42 2.36  67 2.36   5 2.53  31 2.53
  22  0.140  0.486  0.249-  53 2.25  46 2.26  71 2.26  72 2.36  47 2.36  11 2.53  35 2.53
  23  0.322  0.577  0.128-  50 2.25  47 2.26  72 2.26  48 2.36  73 2.36  36 2.53  12 2.53
  24  0.504  0.668  0.007-  48 2.26  73 2.26  13 2.53  37 2.53
  25  0.776  0.304  0.492-  51 2.25  74 2.36  49 2.36
  26  0.958  0.395  0.371-  52 2.25  74 2.26  49 2.26  46 2.36  71 2.36  10 2.53
  27  0.398  0.248  0.475-  38 2.26  39 2.36  51 2.36   4 2.53  14 2.53
  28  0.580  0.339  0.354-  69 2.25  39 2.26  51 2.26  52 2.36  40 2.36  15 2.53   1 2.53
  29  0.763  0.430  0.233-  70 2.25  52 2.26  40 2.26  53 2.36  41 2.36   2 2.53  16 2.53
  30  0.945  0.521  0.111-  67 2.25  53 2.26  41 2.26  50 2.36   3 2.53  17 2.53
  31  0.035  0.066  0.273-  71 2.25  45 2.26  57 2.26  42 2.36  54 2.36   5 2.53  21 2.53
  32  0.217  0.157  0.152-  72 2.25  42 2.26  54 2.26  55 2.36  43 2.36  18 2.53   6 2.53
  33  0.671  0.884  0.516-  58 2.36  44 2.36   8 2.53  19 2.53
  34  0.853  0.975  0.394-  74 2.25  44 2.26  58 2.26  45 2.36  57 2.36  20 2.53   9 2.53
  35  0.308  0.702  0.313-  66 2.25  59 2.26  46 2.26  60 2.36  47 2.36  11 2.53  22 2.53
  36  0.490  0.793  0.192-  63 2.25  60 2.26  47 2.26  61 2.36  48 2.36  23 2.53  12 2.53
  37  0.672  0.884  0.071-  64 2.25  48 2.26  61 2.26  62 2.36  13 2.53  24 2.53
  38  0.184  0.177  0.484-  10 2.25  27 2.26  14 2.26
  39  0.367  0.268  0.363-  11 2.25  28 2.26  15 2.26  14 2.36  27 2.36
  40  0.549  0.359  0.242-  12 2.25  29 2.26  16 2.26  15 2.36  28 2.36
  41  0.731  0.450  0.121-  13 2.25  17 2.26  30 2.26  16 2.36  29 2.36
  42  0.003  0.086  0.161-   3 2.25  32 2.26  18 2.26  21 2.36  31 2.36
  43  0.185  0.177  0.040-  18 2.36  32 2.36
  44  0.639  0.904  0.403-   1 2.25  34 2.26  20 2.26  19 2.36  33 2.36
  45  0.821  0.995  0.282-   2 2.25  31 2.26  21 2.26  20 2.36  34 2.36
  46  0.094  0.631  0.323-   5 2.25  22 2.26  35 2.26  26 2.36
  47  0.276  0.722  0.201-   6 2.25  23 2.26  36 2.26  22 2.36  35 2.36
  48  0.458  0.814  0.080-   7 2.25  37 2.26  24 2.26  23 2.36  36 2.36
  49  0.912  0.540  0.444-   9 2.25  26 2.26  25 2.36
  50  0.127  0.480  0.081-  23 2.25   3 2.36  30 2.36
  51  0.580  0.206  0.445-  25 2.25   1 2.26  28 2.26   4 2.36  27 2.36
  52  0.763  0.298  0.323-  26 2.25  29 2.26   2 2.26  28 2.36   1 2.36
  53  0.945  0.389  0.202-  22 2.25   3 2.26  30 2.26  29 2.36   2 2.36
  54  0.217  0.025  0.243-  15 2.25   6 2.26  32 2.26   5 2.36  31 2.36
  55  0.399  0.116  0.121-  16 2.25   7 2.26  32 2.36   6 2.36
  56  0.582  0.207  0.000-  17 2.25   7 2.36
  57  0.035  0.934  0.364-  14 2.25   5 2.26  31 2.26   9 2.36  34 2.36
  58  0.853  0.843  0.485-  34 2.26   9 2.26  33 2.36   8 2.36
  59  0.308  0.570  0.404-  19 2.25  11 2.26  35 2.26  10 2.36
  60  0.490  0.661  0.283-  20 2.25  36 2.26  12 2.26  11 2.36  35 2.36
  61  0.672  0.752  0.162-  21 2.25  13 2.26  37 2.26  36 2.36  12 2.36
  62  0.854  0.843  0.040-  18 2.25  13 2.36  37 2.36
  63  0.549  0.022  0.242-  36 2.25  16 2.26   2 2.26  15 2.36   1 2.36
  64  0.731  0.113  0.121-  37 2.25  17 2.26   3 2.26  16 2.36   2 2.36
  65  0.184  0.840  0.484-   4 2.26  14 2.26
  66  0.367  0.931  0.363-  35 2.25   1 2.26  15 2.26  14 2.36   4 2.36
  67  0.003  0.750  0.161-  30 2.25   6 2.26  18 2.26  21 2.36   5 2.36
  68  0.185  0.841  0.040-   7 2.26  18 2.36   6 2.36
  69  0.639  0.568  0.403-  28 2.25   9 2.26  20 2.26  19 2.36   8 2.36
  70  0.821  0.659  0.282-  29 2.25   5 2.26  21 2.26  20 2.36   9 2.36
  71  0.094  0.295  0.323-  31 2.25  22 2.26  11 2.26  26 2.36  10 2.36
  72  0.276  0.386  0.201-  32 2.25  23 2.26  12 2.26  22 2.36  11 2.36
  73  0.458  0.477  0.080-  13 2.26  24 2.26  12 2.36  23 2.36
  74  0.912  0.204  0.444-  34 2.25  26 2.26  10 2.26  25 2.36
 
  Warning from LATTYP: Monoclinic adjustment (A1->A3, A2->A1, A3->A2)!
  LATTYP: Found a base centered orthorhombic cell.
 ALAT       =     9.5784100000
 B/A-ratio  =     2.1722506661
 C/A-ratio  =     2.1551480229
  
  Lattice vectors:
  
 A1 = (  10.4033537511,  -4.7892050000,   0.0000000000)
 A2 = ( -10.4033537511,  -4.7892050000,   0.0000000000)
 A3 = (   0.0000000000,   0.0000000000, -20.6428913744)


Analysis of symmetry for initial positions (statically):
=====================================================================
 Subroutine PRICEL returns:
 Original cell was already a primitive cell.
 

 Routine SETGRP: Setting up the symmetry group for a 
 base centered orthorhombic supercell.


 Subroutine GETGRP returns: Found  1 space group operations
 (whereof  1 operations were pure point group operations)
 out of a pool of  8 trial point group operations.


The static configuration has the point symmetry C_1 .


Analysis of symmetry for dynamics (positions and initial velocities):
=====================================================================
 Subroutine PRICEL returns:
 Original cell was already a primitive cell.
 

 Routine SETGRP: Setting up the symmetry group for a 
 base centered orthorhombic supercell.


 Subroutine GETGRP returns: Found  1 space group operations
 (whereof  1 operations were pure point group operations)
 out of a pool of  8 trial point group operations.


The dynamic configuration has the point symmetry C_1 .


 Subroutine INISYM returns: Found  1 space group operations
 (whereof  1 operations are pure point group operations),
 and found     1 'primitive' translations


----------------------------------------------------------------------------------------

                                     Primitive cell                                     

  volume of cell :    2057.0143

  direct lattice vectors                    reciprocal lattice vectors
    10.403353751 -4.789205000  0.000000000     0.096122849  0.000000000  0.000000000
     0.000000000  9.578410000  0.000000000     0.048061424  0.104401461  0.000000000
     0.000000000  0.000000000 20.642891374     0.000000000  0.000000000  0.048442826

  length of vectors
    11.452783670  9.578410000 20.642891374     0.096122849  0.114932874  0.048442826

  position of ions in fractional coordinates (direct lattice)
     0.580446796  0.074375138  0.353894474
     0.762560812  0.165432146  0.232636526
     0.944674827  0.256489154  0.111378578
     0.398332781  0.983318131  0.475152422
     0.035189473  0.801746477  0.273055842
     0.217303488  0.892803484  0.151797894
     0.399417503  0.983860492  0.030539946
     0.670961443  0.619632462  0.515571738
     0.853075458  0.710689469  0.394313790
     0.125704120  0.347003800  0.434733106
     0.307818135  0.438060808  0.313475158
     0.489932150  0.529117815  0.192217210
     0.672046165  0.620174823  0.070959262
     0.230358012  0.031433746  0.411078267
     0.412472027  0.122490754  0.289820319
     0.594586043  0.213547761  0.168562371
     0.776700058  0.304604769  0.047304423
     0.049328719  0.940919100  0.087723739
     0.502986674  0.667748077  0.451497583
     0.685100689  0.758805085  0.330239635
     0.867214704  0.849862092  0.208981687
     0.139843366  0.486176423  0.249401003
     0.321957381  0.577233431  0.128143055
     0.504071396  0.668290438  0.006885107
     0.775615336  0.304062408  0.491916899
     0.957729351  0.395119416  0.370658951
     0.398332781  0.247524131  0.475152422
     0.580446796  0.338581138  0.353894474
     0.762560812  0.429638146  0.232636526
     0.944674827  0.520695154  0.111378578
     0.035189473  0.065952477  0.273055842
     0.217303488  0.157009484  0.151797894
     0.670961443  0.883838462  0.515571738
     0.853075458  0.974895469  0.394313790
     0.307818135  0.702266808  0.313475158
     0.489932150  0.793323815  0.192217210
     0.672046165  0.884380823  0.070959262
     0.184411117  0.176675299  0.484280801
     0.366525132  0.267732306  0.363022853
     0.548639147  0.358789314  0.241764905
     0.730753162  0.449846321  0.120506957
     0.003381824  0.086160652  0.160926273
     0.185495839  0.177217660  0.039668325
     0.639153794  0.904046637  0.403442169
     0.821267809  0.995103645  0.282184221
     0.093896470  0.631417975  0.322603537
     0.276010485  0.722474983  0.201345589
     0.458124501  0.813531990  0.080087641
     0.911782455  0.540360968  0.443861485
     0.126759941  0.479634711  0.080838632
     0.580417896  0.206463688  0.444612476
     0.762531911  0.297520696  0.323354528
     0.944645926  0.388577703  0.202096580
     0.217274588  0.024892034  0.242515896
     0.399388603  0.115949042  0.121257948
     0.581502618  0.207006049  0.000000000
     0.035160573  0.933835026  0.363773844
     0.853046557  0.842778019  0.485031792
     0.307789234  0.570149357  0.404193160
     0.489903249  0.661206365  0.282935212
     0.672017264  0.752263372  0.161677264
     0.854131279  0.843320380  0.040419316
     0.548639147  0.022359314  0.241764905
     0.730753162  0.113416321  0.120506957
     0.184411117  0.840245299  0.484280801
     0.366525132  0.931302306  0.363022853
     0.003381824  0.749730652  0.160926273
     0.185495839  0.840787660  0.039668325
     0.639153794  0.567616637  0.403442169
     0.821267809  0.658673645  0.282184221
     0.093896470  0.294987975  0.322603537
     0.276010485  0.386044983  0.201345589
     0.458124501  0.477101990  0.080087641
     0.911782455  0.203930968  0.443861485

  ion indices of the primitive-cell ions
   primitive index   ion index
                 1           1
                 2           2
                 3           3
                 4           4
                 5           5
                 6           6
                 7           7
                 8           8
                 9           9
                10          10
                11          11
                12          12
                13          13
                14          14
                15          15
                16          16
                17          17
                18          18
                19          19
                20          20
                21          21
                22          22
                23          23
                24          24
                25          25
                26          26
                27          27
                28          28
                29          29
                30          30
                31          31
                32          32
                33          33
                34          34
                35          35
                36          36
                37          37
                38          38
                39          39
                40          40
                41          41
                42          42
                43          43
                44          44
                45          45
                46          46
                47          47
                48          48
                49          49
                50          50
                51          51
                52          52
                53          53
                54          54
                55          55
                56          56
                57          57
                58          58
                59          59
                60          60
                61          61
                62          62
                63          63
                64          64
                65          65
                66          66
                67          67
                68          68
                69          69
                70          70
                71          71
                72          72
                73          73
                74          74

----------------------------------------------------------------------------------------

 
 
 KPOINTS: gamma-point-only calculation. no periodi

Automatic generation of k-mesh.
Space group operators:
 irot       det(A)        alpha          n_x          n_y          n_z        tau_x        tau_y        tau_z
    1     1.000000     0.000000     1.000000     0.000000     0.000000     0.000000     0.000000     0.000000
 
 Subroutine IBZKPT returns following result:
 ===========================================
 
 Found      1 irreducible k-points:
 
 Following reciprocal coordinates:
            Coordinates               Weight
  0.000000  0.000000  0.000000      1.000000
 
 Following cartesian coordinates:
            Coordinates               Weight
  0.000000  0.000000  0.000000      1.000000
 


--------------------------------------------------------------------------------------------------------




 Dimension of arrays:
   k-points           NKPTS =      1   k-points in BZ     NKDIM =      1   number of bands    NBANDS=    488
   number of dos      NEDOS =    301   number of ions     NIONS =     74
   non local maximal  LDIM  =      6   non local SUM 2l+1 LMDIM =     18
   total plane-waves  NPLWV = 324000
   max r-space proj   IRMAX =   1787   max aug-charges    IRDMAX=   5161
   dimension x,y,z NGX =    60 NGY =   50 NGZ =  108
   dimension x,y,z NGXF=   120 NGYF=  100 NGZF=  216
   support grid    NGXF=   120 NGYF=  100 NGZF=  216
   ions per type =              37  37
   NGX,Y,Z   is equivalent  to a cutoff of   8.71,  8.68,  8.70 a.u.
   NGXF,Y,Z  is equivalent  to a cutoff of  17.42, 17.36, 17.40 a.u.

 SYSTEM =  "Millerite NiS"                         
 POSCAR =  Structure 42 made from 02-1-7.xsd file  

 Startparameter for this run:
   NWRITE =      2    write-flag & timer
   PREC   = normal    normal or accurate (medium, high low for compatibility)
   ISTART =      0    job   : 0-new  1-cont  2-samecut
   ICHARG =      2    charge: 1-file 2-atom 10-const
   ISPIN  =      1    spin polarized calculation?
   LNONCOLLINEAR =      F non collinear calculations
   LSORBIT =      F    spin-orbit coupling
   INIWAV =      1    electr: 0-lowe 1-rand  2-diag
   LASPH  =      F    aspherical Exc in radial PAW
   METAGGA=      F    non-selfconsistent MetaGGA calc.

 Electronic Relaxation 1
   ENCUT  =  450.0 eV  33.07 Ry    5.75 a.u.  19.81 16.57 35.71*2*pi/ulx,y,z
   ENINI  =  450.0     initial cutoff
   ENAUG  =  703.4 eV  augmentation charge cutoff
   NELM   =    100;   NELMIN=  2; NELMDL= -5     # of ELM steps 
   EDIFF  = 0.1E-03   stopping-criterion for ELM
   LREAL  =      T    real-space projection
   NLSPLINE    = F    spline interpolate recip. space projectors
   LCOMPAT=      F    compatible to vasp.4.4
   GGA_COMPAT  = T    GGA compatible to vasp.4.4-vasp.4.6
   LMAXPAW     = -100 max onsite density
   LMAXMIX     =    2 max onsite mixed and CHGCAR
   VOSKOWN=      0    Vosko Wilk Nusair interpolation
   ROPT   =   -0.00050  -0.00050
 Ionic relaxation
   EDIFFG = 0.1E-02   stopping-criterion for IOM
   NSW    =      0    number of steps for IOM
   NBLOCK =      1;   KBLOCK =      1    inner block; outer block 
   IBRION =     -1    ionic relax: 0-MD 1-quasi-New 2-CG
   NFREE  =      0    steps in history (QN), initial steepest desc. (CG)
   ISIF   =      2    stress and relaxation
   IWAVPR =     10    prediction:  0-non 1-charg 2-wave 3-comb
   ISYM   =      2    0-nonsym 1-usesym 2-fastsym
   LCORR  =      T    Harris-Foulkes like correction to forces

   POTIM  = 0.5000    time-step for ionic-motion
   TEIN   =    0.0    initial temperature
   TEBEG  =    0.0;   TEEND  =   0.0 temperature during run
   SMASS  =  -3.00    Nose mass-parameter (am)
   estimated Nose-frequenzy (Omega)   =  0.10E-29 period in steps = 0.13E+47 mass=  -0.300E-26a.u.
   SCALEE = 1.0000    scale energy and forces
   NPACO  =    256;   APACO  = 16.0  distance and # of slots for P.C.
   PSTRESS=    0.0 pullay stress

  Mass of Ions in am
   POMASS =  58.69 32.07
  Ionic Valenz
   ZVAL   =  16.00  6.00
  Atomic Wigner-Seitz radii
   RWIGS  =  -1.00 -1.00
  virtual crystal weights 
   VCA    =   1.00  1.00
   NELECT =     814.0000    total number of electrons
   NUPDOWN=      -1.0000    fix difference up-down

 DOS related values:
   EMIN   =  10.00;   EMAX   =-10.00  energy-range for DOS
   EFERMI =   0.00
   ISMEAR =     0;   SIGMA  =   0.20  broadening in eV -4-tet -1-fermi 0-gaus

 Electronic relaxation 2 (details)
   IALGO  =     38    algorithm
   LDIAG  =      T    sub-space diagonalisation (order eigenvalues)
   LSUBROT=      F    optimize rotation matrix (better conditioning)
   TURBO    =      0    0=normal 1=particle mesh
   IRESTART =      0    0=no restart 2=restart with 2 vectors
   NREBOOT  =      0    no. of reboots
   NMIN     =      0    reboot dimension
   EREF     =   0.00    reference energy to select bands
   IMIX   =      4    mixing-type and parameters
     AMIX     =   0.40;   BMIX     =  1.00
     AMIX_MAG =   1.60;   BMIX_MAG =  1.00
     AMIN     =   0.10
     WC   =   100.;   INIMIX=   1;  MIXPRE=   1;  MAXMIX= -45

 Intra band minimization:
   WEIMIN = 0.0000     energy-eigenvalue tresh-hold
   EBREAK =  0.51E-07  absolut break condition
   DEPER  =   0.30     relativ break condition  

   TIME   =   0.40     timestep for ELM

  volume/ion in A,a.u.               =      27.80       187.59
  Fermi-wavevector in a.u.,A,eV,Ry     =   1.201906  2.271273 19.654680  1.444578
  Thomas-Fermi vector in A             =   2.337702
 
 Write flags
   LWAVE        =      F    write WAVECAR
   LDOWNSAMPLE  =      F    k-point downsampling of WAVECAR
   LCHARG       =      F    write CHGCAR
   LVTOT        =      F    write LOCPOT, total local potential
   LVHAR        =      F    write LOCPOT, Hartree potential only
   LELF         =      F    write electronic localiz. function (ELF)
   LORBIT       =      0    0 simple, 1 ext, 2 COOP (PROOUT), +10 PAW based schemes


 Dipole corrections
   LMONO  =      F    monopole corrections only (constant potential shift)
   LDIPOL =      F    correct potential (dipole corrections)
   IDIPOL =      0    1-x, 2-y, 3-z, 4-all directions 
   EPSILON=  1.0000000 bulk dielectric constant

 Exchange correlation treatment:
   GGA     =    --    GGA type
   LEXCH   =     8    internal setting for exchange type
   VOSKOWN=      0    Vosko Wilk Nusair interpolation
   LHFCALC =     F    Hartree Fock is set to
   LHFONE  =     F    Hartree Fock one center treatment
   AEXX    =    0.0000 exact exchange contribution

 Linear response parameters
   LEPSILON=     F    determine dielectric tensor
   LRPA    =     F    only Hartree local field effects (RPA)
   LNABLA  =     F    use nabla operator in PAW spheres
   LVEL    =     F    velocity operator in full k-point grid
   LINTERFAST=   F  fast interpolation
   KINTER  =     0    interpolate to denser k-point grid
   CSHIFT  =0.1000    complex shift for real part using Kramers Kronig
   OMEGAMAX=  -1.0    maximum frequency
   DEG_THRESHOLD= 0.2000000E-02 threshold for treating states as degnerate
   RTIME   =   -0.100 relaxation time in fs
  (WPLASMAI=    0.000 imaginary part of plasma frequency in eV, 0.658/RTIME)
   DFIELD  = 0.0000000 0.0000000 0.0000000 field for delta impulse in time
 
 Orbital magnetization related:
   ORBITALMAG=     F  switch on orbital magnetization
   LCHIMAG   =     F  perturbation theory with respect to B field
   DQ        =  0.001000  dq finite difference perturbation B field
   LLRAUG    =     F  two centre corrections for induced B field



--------------------------------------------------------------------------------------------------------


 Static calculation
 charge density and potential will be updated during run
 non-spin polarized calculation
 Variant of blocked Davidson
 Davidson routine will perform the subspace rotation
 perform sub-space diagonalisation
    after iterative eigenvector-optimisation
 modified Broyden-mixing scheme, WC =      100.0
 initial mixing is a Kerker type mixing with AMIX =  0.4000 and BMIX =      1.0000
 Hartree-type preconditioning will be used
 using additional bands           81
 real space projection scheme for non local part
 use partial core corrections
 calculate Harris-corrections to forces 
   (improved forces if not selfconsistent)
 use gradient corrections 
 use of overlap-Matrix (Vanderbilt PP)
 Gauss-broadening in eV      SIGMA  =   0.20


--------------------------------------------------------------------------------------------------------


  energy-cutoff  :      450.00
  volume of cell :     2057.01
      direct lattice vectors                 reciprocal lattice vectors
    10.403353751 -4.789205000  0.000000000     0.096122849  0.000000000  0.000000000
     0.000000000  9.578410000  0.000000000     0.048061424  0.104401461  0.000000000
     0.000000000  0.000000000 20.642891374     0.000000000  0.000000000  0.048442826

  length of vectors
    11.452783670  9.578410000 20.642891374     0.096122849  0.114932874  0.048442826


 
 k-points in units of 2pi/SCALE and weight: gamma-point-only calculation. no periodi
   0.00000000  0.00000000  0.00000000       1.000
 
 k-points in reciprocal lattice and weights: gamma-point-only calculation. no periodi
   0.00000000  0.00000000  0.00000000       1.000
 
 position of ions in fractional coordinates (direct lattice) 
   0.58044680  0.07437514  0.35389447
   0.76256081  0.16543215  0.23263653
   0.94467483  0.25648915  0.11137858
   0.39833278  0.98331813  0.47515242
   0.03518947  0.80174648  0.27305584
   0.21730349  0.89280348  0.15179789
   0.39941750  0.98386049  0.03053995
   0.67096144  0.61963246  0.51557174
   0.85307546  0.71068947  0.39431379
   0.12570412  0.34700380  0.43473311
   0.30781813  0.43806081  0.31347516
   0.48993215  0.52911781  0.19221721
   0.67204616  0.62017482  0.07095926
   0.23035801  0.03143375  0.41107827
   0.41247203  0.12249075  0.28982032
   0.59458604  0.21354776  0.16856237
   0.77670006  0.30460477  0.04730442
   0.04932872  0.94091910  0.08772374
   0.50298667  0.66774808  0.45149758
   0.68510069  0.75880508  0.33023963
   0.86721470  0.84986209  0.20898169
   0.13984337  0.48617642  0.24940100
   0.32195738  0.57723343  0.12814306
   0.50407140  0.66829044  0.00688511
   0.77561534  0.30406241  0.49191690
   0.95772935  0.39511942  0.37065895
   0.39833278  0.24752413  0.47515242
   0.58044680  0.33858114  0.35389447
   0.76256081  0.42963815  0.23263653
   0.94467483  0.52069515  0.11137858
   0.03518947  0.06595248  0.27305584
   0.21730349  0.15700948  0.15179789
   0.67096144  0.88383846  0.51557174
   0.85307546  0.97489547  0.39431379
   0.30781813  0.70226681  0.31347516
   0.48993215  0.79332382  0.19221721
   0.67204616  0.88438082  0.07095926
   0.18441112  0.17667530  0.48428080
   0.36652513  0.26773231  0.36302285
   0.54863915  0.35878931  0.24176490
   0.73075316  0.44984632  0.12050696
   0.00338182  0.08616065  0.16092627
   0.18549584  0.17721766  0.03966833
   0.63915379  0.90404664  0.40344217
   0.82126781  0.99510365  0.28218422
   0.09389647  0.63141797  0.32260354
   0.27601049  0.72247498  0.20134559
   0.45812450  0.81353199  0.08008764
   0.91178246  0.54036097  0.44386148
   0.12675994  0.47963471  0.08083863
   0.58041790  0.20646369  0.44461248
   0.76253191  0.29752070  0.32335453
   0.94464593  0.38857770  0.20209658
   0.21727459  0.02489203  0.24251590
   0.39938860  0.11594904  0.12125795
   0.58150262  0.20700605  0.00000000
   0.03516057  0.93383503  0.36377384
   0.85304656  0.84277802  0.48503179
   0.30778923  0.57014936  0.40419316
   0.48990325  0.66120636  0.28293521
   0.67201726  0.75226337  0.16167726
   0.85413128  0.84332038  0.04041932
   0.54863915  0.02235931  0.24176490
   0.73075316  0.11341632  0.12050696
   0.18441112  0.84024530  0.48428080
   0.36652513  0.93130231  0.36302285
   0.00338182  0.74973065  0.16092627
   0.18549584  0.84078766  0.03966833
   0.63915379  0.56761664  0.40344217
   0.82126781  0.65867365  0.28218422
   0.09389647  0.29498797  0.32260354
   0.27601049  0.38604498  0.20134559
   0.45812450  0.47710199  0.08008764
   0.91178246  0.20393097  0.44386148
 
 position of ions in cartesian coordinates  (Angst):
   6.03859335 -2.06748313  7.30540518
   7.93318988 -2.06748313  4.80229054
   9.82778641 -2.06748313  2.29917589
   4.14399683  7.51092687  9.80851983
   0.36608854  7.51092687  5.63666209
   2.26068506  7.51092687  3.13354744
   4.15528158  7.51092687  0.63043279
   6.98024924  2.72172187 10.64289138
   8.87484577  2.72172187  8.13977673
   1.30774443  2.72172187  8.97414828
   3.20234095  2.72172187  6.47103364
   5.09693747  2.72172187  3.96791899
   6.99153399  2.72172187  1.46480434
   2.39649589 -0.80214644  8.48584401
   4.29109241 -0.80214643  5.98272936
   6.18568894 -0.80214644  3.47961471
   8.08028546 -0.80214644  0.97650007
   0.51318411  8.77626357  1.81087162
   5.23274830  3.98705856  9.32021556
   7.12734482  3.98705857  6.81710091
   9.02194134  3.98705856  4.31398626
   1.45484001  3.98705856  5.14835781
   3.34943653  3.98705857  2.64524316
   5.24403305  3.98705856  0.14212852
   8.06900072 -0.80214644 10.15458711
   9.96359724 -0.80214643  7.65147246
   4.14399683  0.46319027  9.80851983
   6.03859335  0.46319026  7.30540518
   7.93318988  0.46319026  4.80229054
   9.82778641  0.46319027  2.29917589
   0.36608854  0.46319027  5.63666209
   2.26068506  0.46319026  3.13354744
   6.98024924  5.25239527 10.64289138
   8.87484577  5.25239526  8.13977673
   3.20234095  5.25239527  6.47103364
   5.09693747  5.25239526  3.96791899
   6.99153399  5.25239527  1.46480434
   1.91849409  0.80908581  9.99695597
   3.81309061  0.80908580  7.49384132
   5.70768713  0.80908581  4.99072667
   7.60228365  0.80908580  2.48761202
   0.03518231  0.80908580  3.32198357
   1.92977883  0.80908581  0.81886892
   6.64934302  5.59829080  8.32821287
   8.54393954  5.59829081  5.82509822
   0.97683819  5.59829080  6.65946977
   2.87143471  5.59829081  4.15635512
   4.76603125  5.59829080  1.65324047
   9.48559542  0.80908581  9.16258442
   1.31872851  3.98705857  1.66874310
   6.03829270 -0.80214644  9.17808705
   7.93288922 -0.80214643  6.67497240
   9.82748574 -0.80214644  4.17185775
   2.26038440 -0.80214644  5.00622930
   4.15498092 -0.80214643  2.50311465
   6.04957744 -0.80214644  0.00000000
   0.36578788  8.77626356  7.50934395
   8.87454510  3.98705857 10.01245860
   3.20204028  3.98705856  8.34371550
   5.09663680  3.98705857  5.84060085
   6.99123332  3.98705856  3.33748620
   8.88582985  3.98705857  0.83437155
   5.70768713 -2.41337867  4.99072667
   7.60228365 -2.41337867  2.48761202
   1.91849409  7.16503133  9.99695597
   3.81309061  7.16503133  7.49384132
   0.03518231  7.16503133  3.32198357
   1.92977883  7.16503133  0.81886892
   6.64934302  2.37582633  8.32821287
   8.54393954  2.37582633  5.82509822
   0.97683819  2.37582633  6.65946977
   2.87143471  2.37582633  4.15635512
   4.76603125  2.37582632  1.65324047
   9.48559542 -2.41337867  9.16258442
 


--------------------------------------------------------------------------------------------------------


 use parallel FFT for orbitals z direction half grid
 k-point   1 :   0.0000 0.0000 0.0000  plane waves:   22299

 maximum and minimum number of plane-waves per node :      3721     3709

 maximum number of plane-waves:     22299
 maximum index in each direction: 
   IXMAX=   19   IYMAX=   16   IZMAX=   35
   IXMIN=  -19   IYMIN=  -16   IZMIN=    0


 real space projection operators:
  total allocation   :      11264.09 KBytes
  max/ min on nodes  :       1883.83       1869.92


 parallel 3D FFT for wavefunctions:
    minimum data exchange during FFTs selected (reduces bandwidth)
 parallel 3D FFT for charge:
    minimum data exchange during FFTs selected (reduces bandwidth)


 total amount of memory used by VASP MPI-rank0    45234. kBytes
=======================================================================

   base      :      30000. kBytes
   nonlr-proj:       2307. kBytes
   fftplans  :       3298. kBytes
   grid      :       5820. kBytes
   one-center:        101. kBytes
   wavefun   :       3708. kBytes
 
     INWAV:  cpu time    0.0000: real time    0.0000
 Broyden mixing: mesh for mixing (old mesh)
   NGX = 39   NGY = 33   NGZ = 71
  (NGX  =120   NGY  =100   NGZ  =216)
  gives a total of  91377 points

 initial charge density was supplied:
 charge density of overlapping atoms calculated
 number of electron     814.0000000 magnetization 
 keeping initial charge density in first step


--------------------------------------------------------------------------------------------------------


 Maximum index for non-local projection operator          297
 Maximum index for augmentation-charges          322 (set IRDMAX)


--------------------------------------------------------------------------------------------------------


 First call to EWALD:  gamma=   0.139
 Maximum number of real-space cells 3x 4x 2
 Maximum number of reciprocal cells 3x 2x 4

    FEWALD:  cpu time    0.0036: real time    0.0039


--------------------------------------- Iteration      1(   1)  ---------------------------------------


    POTLOK:  cpu time    0.0512: real time    0.0551
    SETDIJ:  cpu time    0.0050: real time    0.0068
     EDDAV:  cpu time    2.3657: real time    2.3733
       DOS:  cpu time    0.0009: real time    0.0009
    --------------------------------------------
      LOOP:  cpu time    2.4227: real time    2.4362

 eigenvalue-minimisations  :  1200
 total energy-change (2. order) : 0.9927226E+04  (-0.5236685E+05)
 number of electron     814.0000000 magnetization 
 augmentation part      814.0000000 magnetization 

 Free energy of the ion-electron system (eV)
  ---------------------------------------------------
  alpha Z        PSCENC =      1910.25942632
  Ewald energy   TEWEN  =    172554.80703999
  -Hartree energ DENC   =   -298409.24452436
  -exchange      EXHF   =         0.00000000
  -V(xc)+E(xc)   XCENC  =      3751.98664768
  PAW double counting   =    115860.90926010  -120909.33166199
  entropy T*S    EENTRO =        -0.37483765
  eigenvalues    EBANDS =     -4612.24087425
  atomic energy  EATOM  =    139780.45519414
  Solvation  Ediel_sol  =         0.00000000
  ---------------------------------------------------
  free energy    TOTEN  =      9927.22566996 eV

  energy without entropy =     9927.60050761  energy(sigma->0) =     9927.41308879


--------------------------------------------------------------------------------------------------------




--------------------------------------- Iteration      1(   2)  ---------------------------------------


     EDDAV:  cpu time    2.0779: real time    2.0839
       DOS:  cpu time    0.0052: real time    0.0052
    --------------------------------------------
      LOOP:  cpu time    2.0831: real time    2.0891

 eigenvalue-minimisations  :  1032
 total energy-change (2. order) :-0.9311964E+04  (-0.8989114E+04)
 number of electron     814.0000000 magnetization 
 augmentation part      814.0000000 magnetization 

 Free energy of the ion-electron system (eV)
  ---------------------------------------------------
  alpha Z        PSCENC =      1910.25942632
  Ewald energy   TEWEN  =    172554.80703999
  -Hartree energ DENC   =   -298409.24452436
  -exchange      EXHF   =         0.00000000
  -V(xc)+E(xc)   XCENC  =      3751.98664768
  PAW double counting   =    115860.90926010  -120909.33166199
  entropy T*S    EENTRO =        -0.86737834
  eigenvalues    EBANDS =    -13923.71198325
  atomic energy  EATOM  =    139780.45519414
  Solvation  Ediel_sol  =         0.00000000
  ---------------------------------------------------
  free energy    TOTEN  =       615.26202028 eV

  energy without entropy =      616.12939861  energy(sigma->0) =      615.69570945


--------------------------------------------------------------------------------------------------------




--------------------------------------- Iteration      1(   3)  ---------------------------------------


     EDDAV:  cpu time    2.2547: real time    2.2600
       DOS:  cpu time    0.0052: real time    0.0052
    --------------------------------------------
      LOOP:  cpu time    2.2599: real time    2.2652

 eigenvalue-minimisations  :  1136
 total energy-change (2. order) :-0.9658000E+03  (-0.9082231E+03)
 number of electron     814.0000000 magnetization 
 augmentation part      814.0000000 magnetization 

 Free energy of the ion-electron system (eV)
  ---------------------------------------------------
  alpha Z        PSCENC =      1910.25942632
  Ewald energy   TEWEN  =    172554.80703999
  -Hartree energ DENC   =   -298409.24452436
  -exchange      EXHF   =         0.00000000
  -V(xc)+E(xc)   XCENC  =      3751.98664768
  PAW double counting   =    115860.90926010  -120909.33166199
  entropy T*S    EENTRO =        -1.36958849
  eigenvalues    EBANDS =    -14889.00975845
  atomic energy  EATOM  =    139780.45519414
  Solvation  Ediel_sol  =         0.00000000
  ---------------------------------------------------
  free energy    TOTEN  =      -350.53796508 eV

  energy without entropy =     -349.16837659  energy(sigma->0) =     -349.85317083


--------------------------------------------------------------------------------------------------------




--------------------------------------- Iteration      1(   4)  ---------------------------------------


     EDDAV:  cpu time    2.3282: real time    2.3376
       DOS:  cpu time    0.0051: real time    0.0051
    --------------------------------------------
      LOOP:  cpu time    2.3334: real time    2.3428

 eigenvalue-minimisations  :  1168
 total energy-change (2. order) :-0.6302443E+02  (-0.6223484E+02)
 number of electron     814.0000000 magnetization 
 augmentation part      814.0000000 magnetization 

 Free energy of the ion-electron system (eV)
  ---------------------------------------------------
  alpha Z        PSCENC =      1910.25942632
  Ewald energy   TEWEN  =    172554.80703999
  -Hartree energ DENC   =   -298409.24452436
  -exchange      EXHF   =         0.00000000
  -V(xc)+E(xc)   XCENC  =      3751.98664768
  PAW double counting   =    115860.90926010  -120909.33166199
  entropy T*S    EENTRO =        -1.46047414
  eigenvalues    EBANDS =    -14951.94330541
  atomic energy  EATOM  =    139780.45519414
  Solvation  Ediel_sol  =         0.00000000
  ---------------------------------------------------
  free energy    TOTEN  =      -413.56239769 eV

  energy without entropy =     -412.10192355  energy(sigma->0) =     -412.83216062


--------------------------------------------------------------------------------------------------------




--------------------------------------- Iteration      1(   5)  ---------------------------------------


     EDDAV:  cpu time    2.4311: real time    2.4391
       DOS:  cpu time    0.0049: real time    0.0049
    CHARGE:  cpu time    0.0411: real time    0.0412
    MIXING:  cpu time    0.0027: real time    0.0028
    --------------------------------------------
      LOOP:  cpu time    2.4797: real time    2.4880

 eigenvalue-minimisations  :  1256
 total energy-change (2. order) :-0.2101427E+01  (-0.2097510E+01)
 number of electron     814.0000362 magnetization 
 augmentation part      293.8289156 magnetization 

 Broyden mixing:
  rms(total) = 0.83920E+01    rms(broyden)= 0.83758E+01
  rms(prec ) = 0.88277E+01
  weight for this iteration     100.00

 Free energy of the ion-electron system (eV)
  ---------------------------------------------------
  alpha Z        PSCENC =      1910.25942632
  Ewald energy   TEWEN  =    172554.80703999
  -Hartree energ DENC   =   -298409.24452436
  -exchange      EXHF   =         0.00000000
  -V(xc)+E(xc)   XCENC  =      3751.98664768
  PAW double counting   =    115860.90926010  -120909.33166199
  entropy T*S    EENTRO =        -1.44893689
  eigenvalues    EBANDS =    -14954.05626998
  atomic energy  EATOM  =    139780.45519414
  Solvation  Ediel_sol  =         0.00000000
  ---------------------------------------------------
  free energy    TOTEN  =      -415.66382501 eV

  energy without entropy =     -414.21488812  energy(sigma->0) =     -414.93935657


--------------------------------------------------------------------------------------------------------




--------------------------------------- Iteration      1(   6)  ---------------------------------------


    POTLOK:  cpu time    0.0490: real time    0.0491
    SETDIJ:  cpu time    0.0044: real time    0.0063
     EDDAV:  cpu time    2.2567: real time    2.2622
       DOS:  cpu time    0.0017: real time    0.0018
    CHARGE:  cpu time    0.0432: real time    0.0433
    MIXING:  cpu time    0.0024: real time    0.0026
    --------------------------------------------
      LOOP:  cpu time    2.3575: real time    2.3652

 eigenvalue-minimisations  :  1160
 total energy-change (2. order) :-0.9599328E+02  (-0.1034230E+03)
 number of electron     814.0000407 magnetization 
 augmentation part      363.9734351 magnetization 

 Broyden mixing:
  rms(total) = 0.16497E+02    rms(broyden)= 0.16494E+02
  rms(prec ) = 0.17209E+02
  weight for this iteration     100.00

 eigenvalues of (default mixing * dielectric matrix)
  average eigenvalue GAMMA=   0.2196
  0.2196

 Free energy of the ion-electron system (eV)
  ---------------------------------------------------
  alpha Z        PSCENC =      1910.25942632
  Ewald energy   TEWEN  =    172554.80703999
  -Hartree energ DENC   =   -295509.34044521
  -exchange      EXHF   =         0.00000000
  -V(xc)+E(xc)   XCENC  =      3672.14029399
  PAW double counting   =    117611.47736650  -122410.63570205
  entropy T*S    EENTRO =        -0.92326105
  eigenvalues    EBANDS =    -18119.89701360
  atomic energy  EATOM  =    139780.45519414
  Solvation  Ediel_sol  =         0.00000000
  ---------------------------------------------------
  free energy    TOTEN  =      -511.65710097 eV

  energy without entropy =     -510.73383993  energy(sigma->0) =     -511.19547045


--------------------------------------------------------------------------------------------------------




--------------------------------------- Iteration      1(   7)  ---------------------------------------


    POTLOK:  cpu time    0.0478: real time    0.0480
    SETDIJ:  cpu time    0.0049: real time    0.0050
     EDDAV:  cpu time    2.2654: real time    2.2729
       DOS:  cpu time    0.0017: real time    0.0017
    CHARGE:  cpu time    0.0444: real time    0.0445
    MIXING:  cpu time    0.0023: real time    0.0023
    --------------------------------------------
      LOOP:  cpu time    2.3665: real time    2.3742

 eigenvalue-minimisations  :  1144
 total energy-change (2. order) : 0.1261106E+03  (-0.1812086E+02)
 number of electron     814.0000402 magnetization 
 augmentation part      342.2632806 magnetization 

 Broyden mixing:
  rms(total) = 0.65933E+01    rms(broyden)= 0.65920E+01
  rms(prec ) = 0.69241E+01
  weight for this iteration     100.00

 eigenvalues of (default mixing * dielectric matrix)
  average eigenvalue GAMMA=   0.5081
  0.5081  0.5081

 Free energy of the ion-electron system (eV)
  ---------------------------------------------------
  alpha Z        PSCENC =      1910.25942632
  Ewald energy   TEWEN  =    172554.80703999
  -Hartree energ DENC   =   -296817.91675125
  -exchange      EXHF   =         0.00000000
  -V(xc)+E(xc)   XCENC  =      3702.10883416
  PAW double counting   =    121810.83778473  -126758.58491202
  entropy T*S    EENTRO =        -1.05093374
  eigenvalues    EBANDS =    -16566.46215341
  atomic energy  EATOM  =    139780.45519414
  Solvation  Ediel_sol  =         0.00000000
  ---------------------------------------------------
  free energy    TOTEN  =      -385.54647108 eV

  energy without entropy =     -384.49553734  energy(sigma->0) =     -385.02100421


--------------------------------------------------------------------------------------------------------




--------------------------------------- Iteration      1(   8)  ---------------------------------------


    POTLOK:  cpu time    0.0502: real time    0.0513
    SETDIJ:  cpu time    0.0045: real time    0.0062
     EDDAV:  cpu time    2.5869: real time    2.5930
       DOS:  cpu time    0.0016: real time    0.0016
    CHARGE:  cpu time    0.0432: real time    0.0433
    MIXING:  cpu time    0.0023: real time    0.0023
    --------------------------------------------
      LOOP:  cpu time    2.6887: real time    2.6978

 eigenvalue-minimisations  :  1376
 total energy-change (2. order) :-0.6292306E+02  (-0.1631838E+02)
 number of electron     814.0000329 magnetization 
 augmentation part      313.4539217 magnetization 

 Broyden mixing:
  rms(total) = 0.15784E+02    rms(broyden)= 0.15780E+02
  rms(prec ) = 0.19763E+02
  weight for this iteration     100.00

 eigenvalues of (default mixing * dielectric matrix)
  average eigenvalue GAMMA=   0.3969
  0.6458  0.4570  0.0880

 Free energy of the ion-electron system (eV)
  ---------------------------------------------------
  alpha Z        PSCENC =      1910.25942632
  Ewald energy   TEWEN  =    172554.80703999
  -Hartree energ DENC   =   -297380.21108002
  -exchange      EXHF   =         0.00000000
  -V(xc)+E(xc)   XCENC  =      3725.47319223
  PAW double counting   =    127390.60859602  -132453.10344111
  entropy T*S    EENTRO =        -0.80425403
  eigenvalues    EBANDS =    -15975.95420360
  atomic energy  EATOM  =    139780.45519414
  Solvation  Ediel_sol  =         0.00000000
  ---------------------------------------------------
  free energy    TOTEN  =      -448.46953006 eV

  energy without entropy =     -447.66527603  energy(sigma->0) =     -448.06740305


--------------------------------------------------------------------------------------------------------




--------------------------------------- Iteration      1(   9)  ---------------------------------------


    POTLOK:  cpu time    0.0479: real time    0.0480
    SETDIJ:  cpu time    0.0049: real time    0.0049
     EDDAV:  cpu time    2.3086: real time    2.3142
       DOS:  cpu time    0.0017: real time    0.0017
    CHARGE:  cpu time    0.0437: real time    0.0438
    MIXING:  cpu time    0.0024: real time    0.0024
    --------------------------------------------
      LOOP:  cpu time    2.4091: real time    2.4148

 eigenvalue-minimisations  :  1192
 total energy-change (2. order) : 0.6470162E+02  (-0.1115990E+02)
 number of electron     814.0000369 magnetization 
 augmentation part      315.4525808 magnetization 

 Broyden mixing:
  rms(total) = 0.76510E+01    rms(broyden)= 0.76438E+01
  rms(prec ) = 0.89107E+01
  weight for this iteration     100.00

 eigenvalues of (default mixing * dielectric matrix)
  average eigenvalue GAMMA=   0.3939
  0.8889  0.3782  0.2376  0.0708

 Free energy of the ion-electron system (eV)
  ---------------------------------------------------
  alpha Z        PSCENC =      1910.25942632
  Ewald energy   TEWEN  =    172554.80703999
  -Hartree energ DENC   =   -297500.74681570
  -exchange      EXHF   =         0.00000000
  -V(xc)+E(xc)   XCENC  =      3725.84030648
  PAW double counting   =    128638.90649864  -133713.95317121
  entropy T*S    EENTRO =        -1.48767026
  eigenvalues    EBANDS =    -15777.84871631
  atomic energy  EATOM  =    139780.45519414
  Solvation  Ediel_sol  =         0.00000000
  ---------------------------------------------------
  free energy    TOTEN  =      -383.76790790 eV

  energy without entropy =     -382.28023764  energy(sigma->0) =     -383.02407277


--------------------------------------------------------------------------------------------------------




--------------------------------------- Iteration      1(  10)  ---------------------------------------


    POTLOK:  cpu time    0.0472: real time    0.0473
    SETDIJ:  cpu time    0.0050: real time    0.0050
     EDDAV:  cpu time    2.5769: real time    2.5830
       DOS:  cpu time    0.0016: real time    0.0016
    CHARGE:  cpu time    0.0438: real time    0.0439
    MIXING:  cpu time    0.0024: real time    0.0024
    --------------------------------------------
      LOOP:  cpu time    2.6770: real time    2.6834

 eigenvalue-minimisations  :  1368
 total energy-change (2. order) :-0.3271331E+01  (-0.7946400E+01)
 number of electron     814.0000390 magnetization 
 augmentation part      316.0973806 magnetization 

 Broyden mixing:
  rms(total) = 0.58955E+01    rms(broyden)= 0.58903E+01
  rms(prec ) = 0.65217E+01
  weight for this iteration     100.00

 eigenvalues of (default mixing * dielectric matrix)
  average eigenvalue GAMMA=   0.5265
  1.6452  0.4003  0.4003  0.1093  0.0772

 Free energy of the ion-electron system (eV)
  ---------------------------------------------------
  alpha Z        PSCENC =      1910.25942632
  Ewald energy   TEWEN  =    172554.80703999
  -Hartree energ DENC   =   -297559.75469254
  -exchange      EXHF   =         0.00000000
  -V(xc)+E(xc)   XCENC  =      3724.21699471
  PAW double counting   =    130176.49657711  -135261.90332198
  entropy T*S    EENTRO =        -1.33949323
  eigenvalues    EBANDS =    -15710.27696360
  atomic energy  EATOM  =    139780.45519414
  Solvation  Ediel_sol  =         0.00000000
  ---------------------------------------------------
  free energy    TOTEN  =      -387.03923908 eV

  energy without entropy =     -385.69974586  energy(sigma->0) =     -386.36949247


--------------------------------------------------------------------------------------------------------




--------------------------------------- Iteration      1(  11)  ---------------------------------------


    POTLOK:  cpu time    0.0473: real time    0.0475
    SETDIJ:  cpu time    0.0049: real time    0.0049
     EDDAV:  cpu time    2.6359: real time    2.6422
       DOS:  cpu time    0.0006: real time    0.0006
    CHARGE:  cpu time    0.0455: real time    0.0456
    MIXING:  cpu time    0.0022: real time    0.0022
    --------------------------------------------
      LOOP:  cpu time    2.7364: real time    2.7430

 eigenvalue-minimisations  :  1400
 total energy-change (2. order) :-0.7566130E+01  (-0.3235620E+01)
 number of electron     814.0000336 magnetization 
 augmentation part      315.5860924 magnetization 

 Broyden mixing:
  rms(total) = 0.10030E+02    rms(broyden)= 0.10028E+02
  rms(prec ) = 0.12060E+02
  weight for this iteration     100.00

 eigenvalues of (default mixing * dielectric matrix)
  average eigenvalue GAMMA=   0.4866
  1.8383  0.4052  0.4052  0.1030  0.1030  0.0648

 Free energy of the ion-electron system (eV)
  ---------------------------------------------------
  alpha Z        PSCENC =      1910.25942632
  Ewald energy   TEWEN  =    172554.80703999
  -Hartree energ DENC   =   -297503.19012841
  -exchange      EXHF   =         0.00000000
  -V(xc)+E(xc)   XCENC  =      3721.89078615
  PAW double counting   =    133610.90291734  -138722.56877828
  entropy T*S    EENTRO =        -1.14699465
  eigenvalues    EBANDS =    -15746.01483215
  atomic energy  EATOM  =    139780.45519414
  Solvation  Ediel_sol  =         0.00000000
  ---------------------------------------------------
  free energy    TOTEN  =      -394.60536955 eV

  energy without entropy =     -393.45837490  energy(sigma->0) =     -394.03187223


--------------------------------------------------------------------------------------------------------




--------------------------------------- Iteration      1(  12)  ---------------------------------------


    POTLOK:  cpu time    0.0482: real time    0.0483
    SETDIJ:  cpu time    0.0049: real time    0.0049
     EDDAV:  cpu time    2.6172: real time    2.6247
       DOS:  cpu time    0.0006: real time    0.0006
    CHARGE:  cpu time    0.0459: real time    0.0460
    MIXING:  cpu time    0.0024: real time    0.0024
    --------------------------------------------
      LOOP:  cpu time    2.7192: real time    2.7270

 eigenvalue-minimisations  :  1368
 total energy-change (2. order) : 0.1786906E+02  (-0.2523435E+01)
 number of electron     814.0000399 magnetization 
 augmentation part      320.5772104 magnetization 

 Broyden mixing:
  rms(total) = 0.41046E+01    rms(broyden)= 0.41025E+01
  rms(prec ) = 0.47739E+01
  weight for this iteration     100.00

 eigenvalues of (default mixing * dielectric matrix)
  average eigenvalue GAMMA=   0.4690
  1.9279  0.4023  0.4023  0.2549  0.1507  0.0791  0.0660

 Free energy of the ion-electron system (eV)
  ---------------------------------------------------
  alpha Z        PSCENC =      1910.25942632
  Ewald energy   TEWEN  =    172554.80703999
  -Hartree energ DENC   =   -297515.55768813
  -exchange      EXHF   =         0.00000000
  -V(xc)+E(xc)   XCENC  =      3720.30764107
  PAW double counting   =    134636.91038469  -139753.55162429
  entropy T*S    EENTRO =        -1.10984741
  eigenvalues    EBANDS =    -15709.25683792
  atomic energy  EATOM  =    139780.45519414
  Solvation  Ediel_sol  =         0.00000000
  ---------------------------------------------------
  free energy    TOTEN  =      -376.73631155 eV

  energy without entropy =     -375.62646414  energy(sigma->0) =     -376.18138784


--------------------------------------------------------------------------------------------------------




--------------------------------------- Iteration      1(  13)  ---------------------------------------


    POTLOK:  cpu time    0.0477: real time    0.0499
    SETDIJ:  cpu time    0.0045: real time    0.0064
     EDDAV:  cpu time    2.5031: real time    2.5090
       DOS:  cpu time    0.0006: real time    0.0006
    CHARGE:  cpu time    0.0454: real time    0.0455
    MIXING:  cpu time    0.0025: real time    0.0025
    --------------------------------------------
      LOOP:  cpu time    2.6038: real time    2.6140

 eigenvalue-minimisations  :  1312
 total energy-change (2. order) : 0.2999741E+01  (-0.1808049E+01)
 number of electron     814.0000387 magnetization 
 augmentation part      319.4820808 magnetization 

 Broyden mixing:
  rms(total) = 0.58969E+01    rms(broyden)= 0.58943E+01
  rms(prec ) = 0.66583E+01
  weight for this iteration     100.00

 eigenvalues of (default mixing * dielectric matrix)
  average eigenvalue GAMMA=   0.4523
  1.9823  0.4186  0.4186  0.4017  0.1557  0.0680  0.0866  0.0866

 Free energy of the ion-electron system (eV)
  ---------------------------------------------------
  alpha Z        PSCENC =      1910.25942632
  Ewald energy   TEWEN  =    172554.80703999
  -Hartree energ DENC   =   -297492.97235097
  -exchange      EXHF   =         0.00000000
  -V(xc)+E(xc)   XCENC  =      3720.67563833
  PAW double counting   =    135302.98138095  -140428.50348255
  entropy T*S    EENTRO =        -1.27682466
  eigenvalues    EBANDS =    -15720.16259198
  atomic energy  EATOM  =    139780.45519414
  Solvation  Ediel_sol  =         0.00000000
  ---------------------------------------------------
  free energy    TOTEN  =      -373.73657043 eV

  energy without entropy =     -372.45974578  energy(sigma->0) =     -373.09815811


--------------------------------------------------------------------------------------------------------




--------------------------------------- Iteration      1(  14)  ---------------------------------------


    POTLOK:  cpu time    0.0482: real time    0.0485
    SETDIJ:  cpu time    0.0049: real time    0.0070
     EDDAV:  cpu time    2.5177: real time    2.5236
       DOS:  cpu time    0.0006: real time    0.0006
    CHARGE:  cpu time    0.0453: real time    0.0455
    MIXING:  cpu time    0.0025: real time    0.0025
    --------------------------------------------
      LOOP:  cpu time    2.6194: real time    2.6278

 eigenvalue-minimisations  :  1328
 total energy-change (2. order) :-0.4044232E+00  (-0.3563617E+01)
 number of electron     814.0000408 magnetization 
 augmentation part      321.7308565 magnetization 

 Broyden mixing:
  rms(total) = 0.39019E+01    rms(broyden)= 0.39008E+01
  rms(prec ) = 0.46123E+01
  weight for this iteration     100.00

 eigenvalues of (default mixing * dielectric matrix)
  average eigenvalue GAMMA=   0.4445
  2.0499  0.4991  0.4466  0.4466  0.1906  0.1094  0.1094  0.0828  0.0660

 Free energy of the ion-electron system (eV)
  ---------------------------------------------------
  alpha Z        PSCENC =      1910.25942632
  Ewald energy   TEWEN  =    172554.80703999
  -Hartree energ DENC   =   -297508.77321135
  -exchange      EXHF   =         0.00000000
  -V(xc)+E(xc)   XCENC  =      3720.11813387
  PAW double counting   =    135595.74686394  -140722.77996865
  entropy T*S    EENTRO =        -1.15578008
  eigenvalues    EBANDS =    -15702.81869177
  atomic energy  EATOM  =    139780.45519414
  Solvation  Ediel_sol  =         0.00000000
  ---------------------------------------------------
  free energy    TOTEN  =      -374.14099360 eV

  energy without entropy =     -372.98521352  energy(sigma->0) =     -373.56310356


--------------------------------------------------------------------------------------------------------




--------------------------------------- Iteration      1(  15)  ---------------------------------------


    POTLOK:  cpu time    0.0477: real time    0.0478
    SETDIJ:  cpu time    0.0050: real time    0.0050
     EDDAV:  cpu time    2.4065: real time    2.4122
       DOS:  cpu time    0.0006: real time    0.0006
    CHARGE:  cpu time    0.0454: real time    0.0455
    MIXING:  cpu time    0.0026: real time    0.0026
    --------------------------------------------
      LOOP:  cpu time    2.5078: real time    2.5138

 eigenvalue-minimisations  :  1256
 total energy-change (2. order) : 0.6498200E+01  (-0.9973679E+00)
 number of electron     814.0000406 magnetization 
 augmentation part      322.3197649 magnetization 

 Broyden mixing:
  rms(total) = 0.29474E+01    rms(broyden)= 0.29448E+01
  rms(prec ) = 0.32919E+01
  weight for this iteration     100.00

 eigenvalues of (default mixing * dielectric matrix)
  average eigenvalue GAMMA=   0.4150
  2.0551  0.4503  0.4503  0.4558  0.2416  0.1260  0.1260  0.0665  0.0894  0.0894

 Free energy of the ion-electron system (eV)
  ---------------------------------------------------
  alpha Z        PSCENC =      1910.25942632
  Ewald energy   TEWEN  =    172554.80703999
  -Hartree energ DENC   =   -297477.60390373
  -exchange      EXHF   =         0.00000000
  -V(xc)+E(xc)   XCENC  =      3720.41900221
  PAW double counting   =    135825.69342600  -140956.48066423
  entropy T*S    EENTRO =        -1.16057689
  eigenvalues    EBANDS =    -15724.03173731
  atomic energy  EATOM  =    139780.45519414
  Solvation  Ediel_sol  =         0.00000000
  ---------------------------------------------------
  free energy    TOTEN  =      -367.64279350 eV

  energy without entropy =     -366.48221661  energy(sigma->0) =     -367.06250505


--------------------------------------------------------------------------------------------------------




--------------------------------------- Iteration      1(  16)  ---------------------------------------


    POTLOK:  cpu time    0.0475: real time    0.0476
    SETDIJ:  cpu time    0.0051: real time    0.0051
     EDDAV:  cpu time    2.4846: real time    2.4906
       DOS:  cpu time    0.0007: real time    0.0007
    CHARGE:  cpu time    0.0400: real time    0.0401
    MIXING:  cpu time    0.0027: real time    0.0027
    --------------------------------------------
      LOOP:  cpu time    2.5806: real time    2.5867

 eigenvalue-minimisations  :  1296
 total energy-change (2. order) : 0.9324970E+00  (-0.1080846E+01)
 number of electron     814.0000401 magnetization 
 augmentation part      322.5970437 magnetization 

 Broyden mixing:
  rms(total) = 0.21810E+01    rms(broyden)= 0.21796E+01
  rms(prec ) = 0.25239E+01
  weight for this iteration     100.00

 eigenvalues of (default mixing * dielectric matrix)
  average eigenvalue GAMMA=   0.4217
  2.0089  0.5767  0.5767  0.4103  0.4103  0.1520  0.1520  0.0662  0.1008  0.1008
  0.0846

 Free energy of the ion-electron system (eV)
  ---------------------------------------------------
  alpha Z        PSCENC =      1910.25942632
  Ewald energy   TEWEN  =    172554.80703999
  -Hartree energ DENC   =   -297496.97679230
  -exchange      EXHF   =         0.00000000
  -V(xc)+E(xc)   XCENC  =      3720.46558006
  PAW double counting   =    135786.62402683  -140916.98926719
  entropy T*S    EENTRO =        -1.02150735
  eigenvalues    EBANDS =    -15704.33399696
  atomic energy  EATOM  =    139780.45519414
  Solvation  Ediel_sol  =         0.00000000
  ---------------------------------------------------
  free energy    TOTEN  =      -366.71029646 eV

  energy without entropy =     -365.68878912  energy(sigma->0) =     -366.19954279


--------------------------------------------------------------------------------------------------------




--------------------------------------- Iteration      1(  17)  ---------------------------------------


    POTLOK:  cpu time    0.0479: real time    0.0480
    SETDIJ:  cpu time    0.0050: real time    0.0050
     EDDAV:  cpu time    2.4064: real time    2.4121
       DOS:  cpu time    0.0006: real time    0.0006
    CHARGE:  cpu time    0.0402: real time    0.0403
    MIXING:  cpu time    0.0028: real time    0.0028
    --------------------------------------------
      LOOP:  cpu time    2.5028: real time    2.5087

 eigenvalue-minimisations  :  1248
 total energy-change (2. order) : 0.1415153E+01  (-0.1448556E+00)
 number of electron     814.0000397 magnetization 
 augmentation part      321.8402595 magnetization 

 Broyden mixing:
  rms(total) = 0.18435E+01    rms(broyden)= 0.18431E+01
  rms(prec ) = 0.21365E+01
  weight for this iteration     100.00

 eigenvalues of (default mixing * dielectric matrix)
  average eigenvalue GAMMA=   0.4194
  1.9683  0.6853  0.6853  0.4042  0.4042  0.1986  0.1986  0.1205  0.1205  0.0662
  0.0904  0.0904

 Free energy of the ion-electron system (eV)
  ---------------------------------------------------
  alpha Z        PSCENC =      1910.25942632
  Ewald energy   TEWEN  =    172554.80703999
  -Hartree energ DENC   =   -297526.26343363
  -exchange      EXHF   =         0.00000000
  -V(xc)+E(xc)   XCENC  =      3721.13119686
  PAW double counting   =    135506.75983457  -140635.53393009
  entropy T*S    EENTRO =        -1.06779883
  eigenvalues    EBANDS =    -15675.84267245
  atomic energy  EATOM  =    139780.45519414
  Solvation  Ediel_sol  =         0.00000000
  ---------------------------------------------------
  free energy    TOTEN  =      -365.29514311 eV

  energy without entropy =     -364.22734428  energy(sigma->0) =     -364.76124370


--------------------------------------------------------------------------------------------------------




--------------------------------------- Iteration      1(  18)  ---------------------------------------


    POTLOK:  cpu time    0.0478: real time    0.0479
    SETDIJ:  cpu time    0.0049: real time    0.0049
     EDDAV:  cpu time    2.5143: real time    2.5203
       DOS:  cpu time    0.0008: real time    0.0008
    CHARGE:  cpu time    0.0397: real time    0.0398
    MIXING:  cpu time    0.0029: real time    0.0029
    --------------------------------------------
      LOOP:  cpu time    2.6103: real time    2.6165

 eigenvalue-minimisations  :  1320
 total energy-change (2. order) : 0.7716811E+00  (-0.9647434E-01)
 number of electron     814.0000394 magnetization 
 augmentation part      321.4842134 magnetization 

 Broyden mixing:
  rms(total) = 0.15683E+01    rms(broyden)= 0.15680E+01
  rms(prec ) = 0.18101E+01
  weight for this iteration     100.00

 eigenvalues of (default mixing * dielectric matrix)
  average eigenvalue GAMMA=   0.4367
  1.9594  0.8194  0.8194  0.4241  0.4241  0.3812  0.2069  0.1388  0.1388  0.0662
  0.1150  0.0916  0.0916

 Free energy of the ion-electron system (eV)
  ---------------------------------------------------
  alpha Z        PSCENC =      1910.25942632
  Ewald energy   TEWEN  =    172554.80703999
  -Hartree energ DENC   =   -297538.77045769
  -exchange      EXHF   =         0.00000000
  -V(xc)+E(xc)   XCENC  =      3721.46764002
  PAW double counting   =    135313.77469298  -140440.70351684
  entropy T*S    EENTRO =        -1.07431987
  eigenvalues    EBANDS =    -15664.73916105
  atomic energy  EATOM  =    139780.45519414
  Solvation  Ediel_sol  =         0.00000000
  ---------------------------------------------------
  free energy    TOTEN  =      -364.52346200 eV

  energy without entropy =     -363.44914213  energy(sigma->0) =     -363.98630206


--------------------------------------------------------------------------------------------------------




--------------------------------------- Iteration      1(  19)  ---------------------------------------


    POTLOK:  cpu time    0.0479: real time    0.0480
    SETDIJ:  cpu time    0.0050: real time    0.0050
     EDDAV:  cpu time    2.5057: real time    2.5116
       DOS:  cpu time    0.0006: real time    0.0006
    CHARGE:  cpu time    0.0398: real time    0.0399
    MIXING:  cpu time    0.0032: real time    0.0032
    --------------------------------------------
      LOOP:  cpu time    2.6021: real time    2.6083

 eigenvalue-minimisations  :  1312
 total energy-change (2. order) : 0.6402368E+00  (-0.6286763E-01)
 number of electron     814.0000394 magnetization 
 augmentation part      321.4042876 magnetization 

 Broyden mixing:
  rms(total) = 0.12278E+01    rms(broyden)= 0.12274E+01
  rms(prec ) = 0.13992E+01
  weight for this iteration     100.00

 eigenvalues of (default mixing * dielectric matrix)
  average eigenvalue GAMMA=   0.4628
  1.9757  1.0402  1.0402  0.4499  0.4499  0.4214  0.2868  0.1600  0.1600  0.1230
  0.1230  0.0662  0.0912  0.0912

 Free energy of the ion-electron system (eV)
  ---------------------------------------------------
  alpha Z        PSCENC =      1910.25942632
  Ewald energy   TEWEN  =    172554.80703999
  -Hartree energ DENC   =   -297536.99338595
  -exchange      EXHF   =         0.00000000
  -V(xc)+E(xc)   XCENC  =      3721.59705303
  PAW double counting   =    135185.25076040  -140310.07601052
  entropy T*S    EENTRO =        -1.14241899
  eigenvalues    EBANDS =    -15668.04088365
  atomic energy  EATOM  =    139780.45519414
  Solvation  Ediel_sol  =         0.00000000
  ---------------------------------------------------
  free energy    TOTEN  =      -363.88322523 eV

  energy without entropy =     -362.74080624  energy(sigma->0) =     -363.31201573


--------------------------------------------------------------------------------------------------------




--------------------------------------- Iteration      1(  20)  ---------------------------------------


    POTLOK:  cpu time    0.0481: real time    0.0482
    SETDIJ:  cpu time    0.0050: real time    0.0050
     EDDAV:  cpu time    2.6364: real time    2.6443
       DOS:  cpu time    0.0006: real time    0.0006
    CHARGE:  cpu time    0.0406: real time    0.0407
    MIXING:  cpu time    0.0033: real time    0.0033
    --------------------------------------------
      LOOP:  cpu time    2.7341: real time    2.7422

 eigenvalue-minimisations  :  1376
 total energy-change (2. order) : 0.2310903E+00  (-0.7350736E-01)
 number of electron     814.0000388 magnetization 
 augmentation part      321.3008289 magnetization 

 Broyden mixing:
  rms(total) = 0.10876E+01    rms(broyden)= 0.10869E+01
  rms(prec ) = 0.12265E+01
  weight for this iteration     100.00

 eigenvalues of (default mixing * dielectric matrix)
  average eigenvalue GAMMA=   0.4523
  1.9650  1.1115  1.1115  0.4614  0.4614  0.4040  0.3398  0.1659  0.1659  0.0662
  0.1216  0.1216  0.0918  0.0918  0.1042

 Free energy of the ion-electron system (eV)
  ---------------------------------------------------
  alpha Z        PSCENC =      1910.25942632
  Ewald energy   TEWEN  =    172554.80703999
  -Hartree energ DENC   =   -297539.86791785
  -exchange      EXHF   =         0.00000000
  -V(xc)+E(xc)   XCENC  =      3721.57613469
  PAW double counting   =    135024.79713857  -140146.31773643
  entropy T*S    EENTRO =        -1.17382676
  eigenvalues    EBANDS =    -15668.18758759
  atomic energy  EATOM  =    139780.45519414
  Solvation  Ediel_sol  =         0.00000000
  ---------------------------------------------------
  free energy    TOTEN  =      -363.65213491 eV

  energy without entropy =     -362.47830816  energy(sigma->0) =     -363.06522154


--------------------------------------------------------------------------------------------------------




--------------------------------------- Iteration      1(  21)  ---------------------------------------


    POTLOK:  cpu time    0.0486: real time    0.0509
    SETDIJ:  cpu time    0.0043: real time    0.0062
     EDDAV:  cpu time    2.4489: real time    2.4547
       DOS:  cpu time    0.0005: real time    0.0005
    CHARGE:  cpu time    0.0452: real time    0.0454
    MIXING:  cpu time    0.0034: real time    0.0034
    --------------------------------------------
      LOOP:  cpu time    2.5510: real time    2.5612

 eigenvalue-minimisations  :  1272
 total energy-change (2. order) : 0.2047063E+00  (-0.1730678E-01)
 number of electron     814.0000389 magnetization 
 augmentation part      321.1581295 magnetization 

 Broyden mixing:
  rms(total) = 0.92930E+00    rms(broyden)= 0.92922E+00
  rms(prec ) = 0.10439E+01
  weight for this iteration     100.00

 eigenvalues of (default mixing * dielectric matrix)
  average eigenvalue GAMMA=   0.4974
  1.9749  1.3829  1.3829  0.5424  0.5424  0.4026  0.4026  0.3485  0.1884  0.0662
  0.0913  0.0913  0.1460  0.1460  0.1250  0.1250

 Free energy of the ion-electron system (eV)
  ---------------------------------------------------
  alpha Z        PSCENC =      1910.25942632
  Ewald energy   TEWEN  =    172554.80703999
  -Hartree energ DENC   =   -297545.89294270
  -exchange      EXHF   =         0.00000000
  -V(xc)+E(xc)   XCENC  =      3721.66610555
  PAW double counting   =    134920.31349825  -140040.49248882
  entropy T*S    EENTRO =        -1.19160443
  eigenvalues    EBANDS =    -15663.37165695
  atomic energy  EATOM  =    139780.45519414
  Solvation  Ediel_sol  =         0.00000000
[...]
  Alpha Z  1910.25943  1910.25943  1910.25943
  Ewald  221840.78646222675.03628************  -611.26295  -517.31059   -25.92605
  Hartree259601.13507260926.67547************  -564.23886  -383.08237    73.36646
  E(xc)   -5163.94095 -5166.21092 -5169.25156     0.21862    -0.39973    -0.71472
  Local  ************************481548.57955  1180.41171   896.03258   -80.75325
  n-local  -696.86083  -713.55142  -715.30296     1.53175    -1.99864    -2.03859
  augment  5937.05533  5965.73007  5963.04094    -2.95623     2.71095    13.61331
  Kinetic 11241.85922 11290.44696 11302.01140    -7.25805     5.88996    36.20668
  Fock        0.00000     0.00000     0.00000     0.00000     0.00000     0.00000
  -------------------------------------------------------------------------------------
  Total     -41.04561   -25.19975   -23.56995    -3.55401     1.84216    13.75384
  in kB     -31.96980   -19.62771   -18.35828    -2.76816     1.43483    10.71266
  external pressure =      -23.32 kB  Pullay stress =        0.00 kB


 VOLUME and BASIS-vectors are now :
 -----------------------------------------------------------------------------
  energy-cutoff  :      450.00
  volume of cell :     2057.01
      direct lattice vectors                 reciprocal lattice vectors
    10.403353751 -4.789205000  0.000000000     0.096122849  0.000000000  0.000000000
     0.000000000  9.578410000  0.000000000     0.048061424  0.104401461  0.000000000
     0.000000000  0.000000000 20.642891374     0.000000000  0.000000000  0.048442826

  length of vectors
    11.452783670  9.578410000 20.642891374     0.096122849  0.114932874  0.048442826


 FORCES acting on ions
    electron-ion (+dipol)            ewald-force                    non-local-force                 convergence-correction
 -----------------------------------------------------------------------------------------------
   -.193E+03 0.455E+03 -.213E+04   0.193E+03 -.457E+03 0.214E+04   -.138E+00 0.122E+01 -.800E+00   -.225E+00 0.149E+00 -.617E+00
   -.302E+03 0.416E+03 0.563E+03   0.302E+03 -.417E+03 -.561E+03   0.171E-01 0.560E+00 -.901E+00   0.308E-01 0.926E-01 -.385E+00
   -.472E+03 0.399E+03 0.360E+04   0.474E+03 -.397E+03 -.360E+04   -.659E+00 -.209E+01 -.941E+00   0.439E-01 0.918E-01 0.107E+00
   0.133E+03 0.633E+03 -.460E+04   -.142E+03 -.630E+03 0.460E+04   0.787E+01 -.322E+01 0.177E+01   -.299E+00 0.217E+00 -.240E+00
   -.298E+03 0.530E+03 -.467E+03   0.298E+03 -.532E+03 0.469E+03   0.229E+00 0.184E+01 -.135E+01   -.932E-01 -.549E-02 -.495E+00
   -.195E+03 0.404E+03 0.248E+04   0.196E+03 -.405E+03 -.248E+04   -.740E+00 0.107E+01 0.158E+01   -.962E-01 -.627E-01 -.125E+00
   0.119E+03 -.161E+03 0.461E+04   -.118E+03 0.164E+03 -.461E+04   -.535E+00 -.232E+01 -.417E+01   -.310E-01 -.103E+00 0.140E+00
   -.110E+03 0.595E+03 -.482E+04   0.110E+03 -.584E+03 0.481E+04   0.569E+00 -.102E+02 0.799E+01   -.153E+00 -.367E+00 -.146E+00
   -.557E+03 0.588E+03 -.309E+04   0.557E+03 -.590E+03 0.309E+04   -.488E+00 0.219E+01 -.214E+01   0.161E+00 -.102E+00 -.880E+00
   -.142E+03 -.198E+03 -.416E+04   0.143E+03 0.193E+03 0.416E+04   -.115E+01 0.465E+01 -.566E+00   0.141E+00 -.113E-01 -.434E+00
   -.904E+02 0.348E+03 -.136E+04   0.900E+02 -.348E+03 0.137E+04   0.475E+00 0.525E+00 -.193E+01   -.771E-02 -.112E+00 -.555E+00
   -.137E+03 0.512E+03 0.152E+04   0.137E+03 -.513E+03 -.152E+04   0.410E+00 0.798E+00 -.267E+00   0.123E+00 -.415E-01 -.269E+00
   -.334E+03 0.566E+03 0.411E+04   0.335E+03 -.564E+03 -.411E+04   -.529E+00 -.188E+01 -.369E+00   0.532E-01 0.883E-01 0.789E-01
   0.633E+03 0.162E+03 -.312E+04   -.637E+03 -.163E+03 0.312E+04   0.326E+01 0.712E+00 -.377E+01   0.274E+00 -.136E+00 -.278E+00
   0.472E+03 0.128E+02 -.251E+03   -.473E+03 -.127E+02 0.252E+03   0.170E+01 -.425E-01 -.696E-01   0.492E-01 0.144E-01 -.328E+00
   0.459E+03 -.698E+02 0.252E+04   -.461E+03 0.698E+02 -.253E+04   0.254E+01 -.213E-01 0.174E+00   0.519E-01 0.427E-01 -.431E-01
   -.413E+02 -.445E+02 0.488E+04   0.347E+02 0.433E+02 -.488E+04   0.463E+01 0.103E+01 -.351E+01   0.131E+00 0.609E-01 0.306E+00
   0.254E+03 -.439E+02 0.434E+04   -.254E+03 0.453E+02 -.435E+04   0.290E+00 -.941E+00 0.412E+01   -.187E+00 -.779E-01 0.619E-01
   0.848E+03 -.416E+02 -.386E+04   -.847E+03 0.412E+02 0.386E+04   0.281E+00 0.376E+00 0.134E+01   -.631E+00 -.387E-02 -.696E+00
   0.366E+03 0.128E+02 -.114E+04   -.367E+03 -.127E+02 0.115E+04   0.130E+01 -.491E-01 0.341E+00   0.220E-01 -.891E-01 -.787E+00
   0.305E+03 0.146E+02 0.157E+04   -.306E+03 -.146E+02 -.157E+04   0.124E+01 0.188E-01 0.672E-01   -.395E-01 -.531E-01 -.331E+00
   0.403E+03 -.388E+02 0.546E+03   -.405E+03 0.397E+02 -.545E+03   0.198E+01 -.759E+00 -.660E+00   -.186E+00 0.861E-02 -.490E+00
   0.622E+03 0.101E+03 0.346E+04   -.625E+03 -.102E+03 -.346E+04   0.269E+01 0.789E+00 0.110E+01   -.645E-01 0.206E-01 -.124E+00
   0.459E+03 0.164E+03 0.507E+04   -.455E+03 -.165E+03 -.505E+04   -.424E+01 0.695E+00 -.146E+02   0.104E+00 -.203E-01 0.182E+00
   -.277E+03 -.476E+02 -.461E+04   0.277E+03 0.491E+02 0.460E+04   0.110E+00 -.136E+01 0.876E+01   -.466E-01 0.610E-01 -.256E+00
   -.640E+02 -.261E+03 -.247E+04   0.630E+02 0.263E+03 0.247E+04   0.128E+01 -.158E+01 -.226E+01   0.134E-01 0.159E+00 -.872E+00
   0.218E+02 -.515E+03 -.463E+04   -.288E+02 0.512E+03 0.463E+04   0.681E+01 0.325E+01 0.229E+01   -.174E+00 -.324E+00 -.254E+00
   -.233E+03 -.449E+03 -.212E+04   0.233E+03 0.450E+03 0.212E+04   0.374E-01 -.109E+01 -.735E+00   -.172E+00 -.977E-01 -.646E+00
   -.302E+03 -.441E+03 0.563E+03   0.302E+03 0.442E+03 -.561E+03   0.309E-02 -.605E+00 -.946E+00   0.425E-01 -.400E-02 -.394E+00
   -.432E+03 -.392E+03 0.359E+04   0.433E+03 0.390E+03 -.359E+04   -.687E+00 0.194E+01 -.469E+00   0.332E-01 0.177E-01 0.106E+00
   -.285E+03 -.457E+03 -.381E+03   0.284E+03 0.458E+03 0.382E+03   0.543E+00 -.640E+00 -.943E+00   -.582E-01 -.536E-01 -.533E+00
   -.313E+03 -.490E+03 0.264E+04   0.314E+03 0.491E+03 -.264E+04   -.558E+00 -.161E+01 0.315E+01   -.758E-01 -.126E-01 -.750E-01
   -.675E+02 -.582E+03 -.482E+04   0.677E+02 0.571E+03 0.481E+04   0.703E+00 0.101E+02 0.800E+01   -.201E+00 0.319E+00 -.854E-01
   -.446E+03 -.469E+03 -.306E+04   0.446E+03 0.470E+03 0.306E+04   -.311E+00 -.130E+01 -.183E+01   0.118E+00 -.829E-01 -.895E+00
   0.263E+02 -.434E+03 -.153E+04   -.281E+02 0.435E+03 0.153E+04   0.158E+01 -.770E+00 -.212E+01   -.860E-01 0.891E-01 -.473E+00
   -.151E+03 -.438E+03 0.143E+04   0.150E+03 0.439E+03 -.143E+04   0.365E+00 -.650E+00 -.133E+01   0.893E-01 0.709E-02 -.295E+00
   -.444E+03 -.446E+03 0.408E+04   0.446E+03 0.444E+03 -.408E+04   -.151E+01 0.215E+01 -.504E+00   0.122E-01 -.175E+00 0.694E-01
   0.213E+03 -.576E+02 -.183E+04   -.216E+03 0.571E+02 0.183E+04   0.356E+01 0.106E+01 -.411E+01   0.140E+00 -.144E+00 -.276E-01
   0.140E+03 -.158E+03 -.830E+03   -.141E+03 0.160E+03 0.829E+03   0.169E+01 -.216E+01 0.829E+00   0.291E-01 -.101E+00 -.151E+00
   0.107E+03 -.143E+03 0.218E+03   -.109E+03 0.145E+03 -.219E+03   0.166E+01 -.214E+01 0.794E+00   0.303E-01 -.540E-01 -.114E+00
   0.692E+02 -.143E+03 0.123E+04   -.706E+02 0.144E+03 -.123E+04   0.193E+01 -.213E+01 -.997E-01   0.449E-01 0.518E-01 0.301E-01
   0.511E+02 -.166E+03 0.924E+03   -.524E+02 0.168E+03 -.925E+03   0.143E+01 -.239E+01 0.871E+00   -.711E-01 -.118E-01 -.514E-01
   -.564E+02 -.183E+03 0.186E+04   0.572E+02 0.185E+03 -.187E+04   -.152E+01 -.276E+01 0.455E+01   -.310E-01 -.159E-02 0.248E-01
   0.116E+03 -.151E+03 -.112E+04   -.117E+03 0.153E+03 0.112E+04   0.590E+00 -.209E+01 0.151E+01   -.109E+00 0.564E-01 -.424E+00
   0.595E+02 -.150E+03 -.148E+03   -.612E+02 0.153E+03 0.148E+03   0.163E+01 -.225E+01 0.262E+00   -.145E-02 -.397E-01 -.257E+00
   0.577E+02 -.105E+03 -.724E+03   -.584E+02 0.107E+03 0.727E+03   0.758E+00 -.250E+01 -.273E+01   -.488E-01 -.776E-02 -.215E+00
   0.130E+03 -.137E+03 0.533E+03   -.132E+03 0.139E+03 -.535E+03   0.158E+01 -.195E+01 0.122E+01   -.632E-01 -.207E-01 -.118E+00
   0.152E+03 -.148E+03 0.145E+04   -.154E+03 0.151E+03 -.146E+04   0.192E+01 -.261E+01 -.636E+00   0.190E-01 -.218E-01 -.268E-01
   -.247E+03 -.509E+02 -.157E+04   0.249E+03 0.514E+02 0.158E+04   -.333E+01 -.141E+01 -.150E+01   0.146E+00 0.662E-01 -.254E+00
   -.684E+02 0.223E+02 0.168E+04   0.689E+02 -.224E+02 -.168E+04   -.180E+01 -.739E-02 0.409E+01   -.511E-01 0.257E-01 0.521E-01
   -.117E+03 0.294E+01 -.159E+04   0.119E+03 -.297E+01 0.159E+04   -.180E+01 0.669E-01 0.505E+00   -.295E+00 -.269E-02 -.225E+00
   -.165E+03 -.116E+02 -.659E+03   0.167E+03 0.116E+02 0.661E+03   -.183E+01 0.122E-01 -.187E+01   -.692E-02 0.279E-01 -.271E+00
   -.147E+03 -.509E+01 0.399E+03   0.149E+03 0.507E+01 -.398E+03   -.165E+01 -.551E-01 -.168E+01   0.161E-01 0.308E-01 -.129E+00
   -.994E+02 0.317E+01 0.452E+02   0.101E+03 -.331E+01 -.436E+02   -.134E+01 0.233E+00 -.179E+01   0.130E-01 -.114E-01 -.751E-01
   -.566E+02 -.139E+03 0.122E+04   0.576E+02 0.141E+03 -.122E+04   -.137E+01 -.252E+01 0.608E+00   0.462E-01 -.251E-01 -.313E-02
   0.592E+02 -.121E+03 0.179E+04   -.599E+02 0.123E+03 -.179E+04   0.748E+00 -.306E+01 0.268E+01   -.319E-01 -.557E-02 0.446E-01
   -.148E+03 0.489E+02 -.105E+04   0.149E+03 -.490E+02 0.105E+04   -.111E+01 0.165E+00 -.871E+00   0.758E-01 -.499E-01 -.219E+00
   -.397E+03 0.237E+02 -.183E+04   0.402E+03 -.237E+02 0.183E+04   -.702E+01 0.662E-01 -.240E+01   0.308E+00 -.500E-01 -.164E+00
   0.115E+03 -.121E+03 -.143E+04   -.115E+03 0.122E+03 0.143E+04   0.103E+01 -.178E+01 -.132E+01   0.263E-01 0.419E-01 -.151E+00
   -.686E+02 -.174E+01 -.314E+03   0.699E+02 0.164E+01 0.316E+03   -.148E+01 0.107E+00 -.174E+01   0.671E-01 -.258E-01 -.163E+00
   -.122E+03 0.137E+02 0.716E+03   0.124E+03 -.134E+02 -.713E+03   -.148E+01 -.201E+00 -.250E+01   0.775E-01 -.285E-01 -.950E-01
   -.166E+03 0.404E+01 0.182E+04   0.166E+03 -.384E+01 -.182E+04   -.161E+01 -.181E+00 0.399E+01   -.296E-01 -.268E-01 0.781E-01
   0.107E+03 0.138E+03 0.196E+03   -.109E+03 -.139E+03 -.197E+03   0.145E+01 0.193E+01 0.780E+00   0.130E-01 0.709E-01 -.115E+00
   0.353E+02 0.130E+03 0.121E+04   -.365E+02 -.132E+03 -.121E+04   0.179E+01 0.210E+01 0.520E-01   0.240E-01 -.199E-01 0.282E-01
   0.275E+03 0.256E+03 -.173E+04   -.278E+03 -.257E+03 0.173E+04   0.369E+01 0.189E+01 -.206E+01   0.118E+00 0.399E-01 -.704E-01
   0.190E+03 0.200E+03 -.862E+03   -.192E+03 -.201E+03 0.861E+03   0.149E+01 0.174E+01 0.102E+01   0.389E-02 0.113E+00 -.973E-01
   0.659E+02 0.165E+03 0.910E+03   -.672E+02 -.167E+03 -.911E+03   0.141E+01 0.231E+01 0.922E+00   -.687E-01 -.189E-01 -.698E-01
   0.141E+03 0.161E+03 0.185E+04   -.143E+03 -.165E+03 -.185E+04   0.236E+01 0.423E+01 0.347E+01   -.184E-01 -.133E-01 0.392E-01
   0.931E+02 0.153E+03 -.112E+04   -.941E+02 -.155E+03 0.112E+04   0.629E+00 0.221E+01 0.163E+01   -.498E-01 -.640E-01 -.428E+00
   0.480E+02 0.162E+03 -.159E+03   -.496E+02 -.164E+03 0.159E+03   0.154E+01 0.216E+01 0.320E+00   -.215E-02 0.135E-01 -.224E+00
   0.799E+02 0.842E+02 -.548E+03   -.816E+02 -.861E+02 0.548E+03   0.167E+01 0.234E+01 0.483E+00   -.165E-01 0.262E-01 -.304E+00
   0.114E+03 0.151E+03 0.577E+03   -.116E+03 -.153E+03 -.578E+03   0.161E+01 0.206E+01 0.102E+01   -.375E-01 0.409E-01 -.794E-01
   0.212E+03 0.344E+03 0.156E+04   -.215E+03 -.350E+03 -.156E+04   0.322E+01 0.638E+01 0.128E+01   0.628E-01 0.444E-01 -.132E-01
   -.497E+02 0.295E+02 -.159E+04   0.496E+02 -.303E+02 0.159E+04   0.131E+00 0.179E+01 -.730E+00   0.681E-01 -.577E-02 -.231E+00
 -----------------------------------------------------------------------------------------------
   -.408E+02 -.295E+01 0.153E+02   -.155E-11 -.149E-11 -.409E-11   0.416E+02 0.351E+01 0.302E+00   -.937E+00 -.595E+00 -.154E+02
 
 
 POSITION                                       TOTAL-FORCE (eV/Angst)
 -----------------------------------------------------------------------------------
      6.03859     -2.06748      7.30541        -0.210456      0.013285     -0.005813
      7.93319     -2.06748      4.80229         0.140858      0.001758      0.028680
      9.82779     -2.06748      2.29918         0.530374      0.562113      0.553903
      4.14400      7.51093      9.80852        -0.629385     -0.138358     -0.962597
      0.36609      7.51093      5.63666        -0.027487     -0.090570      0.084469
      2.26069      7.51093      3.13355         0.149507      0.123232     -0.114558
      4.15528      7.51093      0.63043         0.392146      0.635403      1.051591
      6.98025      2.72172     10.64289         0.706217      0.715023     -1.762436
      8.87485      2.72172      8.13978        -0.119225     -0.227448      0.407010
      1.30774      2.72172      8.97415        -0.019827     -0.609494     -0.573976
      3.20234      2.72172      6.47103         0.057178      0.020426      0.244975
      5.09694      2.72172      3.96792         0.128677      0.195176     -0.219027
      6.99153      2.72172      1.46480         0.432213      0.407131      0.783098
      2.39650     -0.80215      8.48584        -0.420778     -0.056004      0.474118
      4.29109     -0.80215      5.98273         0.185406      0.033279      0.085013
      6.18569     -0.80215      3.47961         0.088718     -0.045321     -0.080214
      8.08029     -0.80215      0.97650        -1.819835     -0.067625      0.646219
      0.51318      8.77626      1.81087         0.343888      0.351155     -0.684237
      5.23275      3.98706      9.32022         0.348069     -0.058203     -0.857687
      7.12734      3.98706      6.81710        -0.078386     -0.020869      0.170424
      9.02194      3.98706      4.31399         0.117973      0.016103      0.181291
      1.45484      3.98706      5.14836         0.047606      0.122731      0.157151
      3.34944      3.98706      2.64524         0.012145     -0.020966     -0.472980
      5.24403      3.98706      0.14213        -0.406152      0.009619      1.882446
      8.06900     -0.80215     10.15459         0.303659      0.197102     -1.738440
      9.96360     -0.80215      7.65147         0.355453      0.312240      0.479086
      4.14400      0.46319      9.80852        -0.389331     -0.091584     -1.036929
      6.03859      0.46319      7.30541        -0.212796     -0.032111     -0.007643
      7.93319      0.46319      4.80229         0.120533      0.000236      0.027139
      9.82779      0.46319      2.29918         0.491223     -0.571294      0.671335
      0.36609      0.46319      5.63666         0.003015     -0.074346      0.082331
      2.26069      0.46319      3.13355         0.105084     -0.125551     -0.513980
      6.98025      5.25240     10.64289         0.681436     -0.770986     -1.731562
      8.87485      5.25240      8.13978        -0.151612     -0.012591      0.276653
      3.20234      5.25240      6.47103        -0.280695     -0.044773      0.324500
      5.09694      5.25240      3.96792         0.060950     -0.066022      0.053019
      6.99153      5.25240      1.46480         0.556008     -0.378106      0.746545
      1.91849      0.80909      9.99696         1.042418      0.441310      0.090433
      3.81309      0.80909      7.49384         0.029961     -0.267064      0.027985
      5.70769      0.80909      4.99073        -0.008471     -0.095361     -0.140117
      7.60228      0.80909      2.48761         0.572962     -0.140186     -0.859658
      0.03518      0.80909      3.32198         0.037405     -0.175985     -0.232191
      1.92978      0.80909      0.81887        -0.752180     -0.676615      1.345508
      6.64934      5.59829      8.32821        -0.408238     -0.135114      0.870448
      8.54394      5.59829      5.82510        -0.076367     -0.029744     -0.099400
      0.97684      5.59829      6.65947        -0.014742     -0.320442     -0.532974
      2.87143      5.59829      4.15636         0.017961     -0.086142     -0.004762
      4.76603      5.59829      1.65324         0.423771     -0.163512     -1.448681
      9.48560      0.80909      9.16258        -0.498013     -0.875860      0.446797
      1.31873      3.98706      1.66874        -1.313696     -0.046574     -0.585708
      6.03829     -0.80215      9.17809         0.067169      0.039944      1.926924
      7.93289     -0.80215      6.67497        -0.144551      0.031653      0.102965
      9.82749     -0.80215      4.17186        -0.205562     -0.045736     -0.185843
      2.26038     -0.80215      5.00623         0.154630      0.073862     -0.274819
      4.15498     -0.80215      2.50311        -0.397943     -0.147415     -0.529133
      6.04958     -0.80215      0.00000         0.031347     -0.776039      0.101203
      0.36579      8.77626      7.50934         0.103505      0.025745      0.138679
      8.87455      3.98706     10.01246        -1.192480      0.016332      1.193272
      3.20204      3.98706      8.34372         0.351615     -0.470624      1.055860
      5.09664      3.98706      5.84060        -0.042918     -0.015812     -0.094802
      6.99123      3.98706      3.33749        -0.070321      0.016238     -0.293389
      8.88583      3.98706      0.83437        -1.565178     -0.012932     -0.314604
      5.70769     -2.41338      4.99073        -0.081553      0.124772     -0.188948
      7.60228     -2.41338      2.48761         0.613199      0.164332     -0.922462
      1.91849      7.16503      9.99696         1.437958      0.511952     -0.118570
      3.81309      7.16503      7.49384        -0.087761      0.177008      0.152472
      0.03518      7.16503      3.32198         0.047104      0.070710     -0.471754
      1.92978      7.16503      0.81887         0.392606      0.450761      0.575233
      6.64934      2.37583      8.32821        -0.432037      0.173762      0.939922
      8.54394      2.37583      5.82510        -0.033616      0.027253     -0.134572
      0.97684      2.37583      6.65947        -0.014899      0.470782      0.018370
      2.87143      2.37583      4.15636        -0.079902      0.068983     -0.035850
      4.76603      2.37583      1.65324         0.341933      0.404834     -0.659799
      9.48560     -2.41338      9.16258         0.162518      0.977132      0.493048
 -----------------------------------------------------------------------------------
    total drift:                               -0.147372     -0.034009      0.199641


--------------------------------------------------------------------------------------------------------



  FREE ENERGIE OF THE ION-ELECTRON SYSTEM (eV)
  ---------------------------------------------------
  free  energy   TOTEN  =      -363.01487682 eV

  energy  without entropy=     -361.78220636  energy(sigma->0) =     -362.39854159
 


--------------------------------------------------------------------------------------------------------


    POTLOK:  cpu time    0.0529: real time    0.0530


--------------------------------------------------------------------------------------------------------


     LOOP+:  cpu time   94.7672: real time   95.0683
    4ORBIT:  cpu time    0.0000: real time    0.0000

 total amount of memory used by VASP MPI-rank0    45234. kBytes
=======================================================================

   base      :      30000. kBytes
   nonlr-proj:       2307. kBytes
   fftplans  :       3298. kBytes
   grid      :       5820. kBytes
   one-center:        101. kBytes
   wavefun   :       3708. kBytes
 
  
  
 General timing and accounting informations for this job:
 ========================================================
  
                  Total CPU time used (sec):       96.891
                            User time (sec):       96.290
                          System time (sec):        0.601
                         Elapsed time (sec):       97.668
  
                   Maximum memory used (kb):      227348.
                   Average memory used (kb):           0.
  
                          Minor page faults:        75575
                          Major page faults:            0
                 Voluntary context switches:         1091
