<?xml version="1.0" encoding="ISO-8859-1"?>
<modeling>
 <generator>
  <i name="program" type="string">vasp </i>
  <i name="version" type="string">6.1.0  </i>
  <i name="subversion" type="string">28Jan20 (build Mar 31 2020 17:42:31) gamma-only                       parallel </i>
  <i name="platform" type="string">LinuxIFC </i>
  <i name="date" type="string">2020 04 13 </i>
  <i name="time" type="string">04:18:21 </i>
 </generator>
 <incar>
  <i type="string" name="SYSTEM">"Millerite NiS"</i>
  <i type="int" name="NSIM">     4</i>
  <i type="int" name="NELM">   100</i>
  <i name="ENCUT">    450.00000000</i>
  <i type="string" name="LREAL">A</i>
  <i type="int" name="ISMEAR">     0</i>
  <i type="int" name="NWRITE">     2</i>
  <i type="logical" name="LWAVE"> F  </i>
  <i type="logical" name="LCHARG"> F  </i>
  <i type="int" name="NCORE">     6</i>
  <i type="int" name="NELM">   100</i>
 </incar>
 <structure name="primitive_cell" >
  <crystal>
   <varray name="basis" >
    <v>      10.40335375      -4.78920500       0.00000000 </v>
    <v>       0.00000000       9.57841000       0.00000000 </v>
    <v>       0.00000000       0.00000000      20.50076286 </v>
   </varray>
   <i name="volume">   2042.85156262 </i>
   <varray name="rec_basis" >
    <v>       0.09612285       0.00000000       0.00000000 </v>
    <v>       0.04806142       0.10440146       0.00000000 </v>
    <v>       0.00000000       0.00000000       0.04877867 </v>
   </varray>
  </crystal>
  <varray name="positions" >
   <v>       0.58044680       0.07437514       0.34941513 </v>
   <v>       0.76256081       0.16543215       0.22731652 </v>
   <v>       0.94467483       0.25648915       0.10521791 </v>
   <v>       0.39833278       0.98331813       0.47151374 </v>
   <v>       0.03518947       0.80174648       0.26801605 </v>
   <v>       0.21730349       0.89280348       0.14591744 </v>
   <v>       0.39941750       0.98386049       0.02381883 </v>
   <v>       0.67096144       0.61963246       0.51221327 </v>
   <v>       0.85307546       0.71068947       0.39011466 </v>
   <v>       0.12570412       0.34700380       0.43081420 </v>
   <v>       0.30781813       0.43806081       0.30871559 </v>
   <v>       0.48993215       0.52911781       0.18661698 </v>
   <v>       0.67204616       0.62017482       0.06451837 </v>
   <v>       0.23035801       0.03143375       0.40699537 </v>
   <v>       0.41247203       0.12249075       0.28489676 </v>
   <v>       0.59458604       0.21354776       0.16279815 </v>
   <v>       0.77670006       0.30460477       0.04069954 </v>
   <v>       0.04932872       0.94091910       0.08139907 </v>
   <v>       0.50298667       0.66774808       0.44769490 </v>
   <v>       0.68510069       0.75880508       0.32559629 </v>
   <v>       0.86721470       0.84986209       0.20349768 </v>
   <v>       0.13984337       0.48617642       0.24419722 </v>
   <v>       0.32195738       0.57723343       0.12209861 </v>
   <v>       0.50407140       0.66829044       0.00000000 </v>
   <v>       0.95772935       0.39511942       0.36629583 </v>
   <v>       0.39833278       0.24752413       0.47151374 </v>
   <v>       0.58044680       0.33858114       0.34941513 </v>
   <v>       0.76256081       0.42963815       0.22731652 </v>
   <v>       0.03518947       0.06595248       0.26801605 </v>
   <v>       0.21730349       0.15700948       0.14591744 </v>
   <v>       0.39941750       0.24806649       0.02381883 </v>
   <v>       0.67096144       0.88383846       0.51221327 </v>
   <v>       0.85307546       0.97489547       0.39011466 </v>
   <v>       0.12570412       0.61120980       0.43081420 </v>
   <v>       0.30781813       0.70226681       0.30871559 </v>
   <v>       0.48993215       0.79332382       0.18661698 </v>
   <v>       0.18441112       0.17667530       0.48070540 </v>
   <v>       0.36652513       0.26773231       0.35860679 </v>
   <v>       0.54863915       0.35878931       0.23650818 </v>
   <v>       0.73075316       0.44984632       0.11440957 </v>
   <v>       0.00338182       0.08616065       0.15510911 </v>
   <v>       0.18549584       0.17721766       0.03301050 </v>
   <v>       0.63915379       0.90404664       0.39930633 </v>
   <v>       0.82126781       0.99510365       0.27720772 </v>
   <v>       0.09389647       0.63141797       0.31790726 </v>
   <v>       0.27601049       0.72247498       0.19580864 </v>
   <v>       0.45812450       0.81353199       0.07371003 </v>
   <v>       0.91178246       0.54036097       0.44000587 </v>
   <v>       0.12675994       0.47963471       0.07446623 </v>
   <v>       0.58041790       0.20646369       0.44076206 </v>
   <v>       0.76253191       0.29752070       0.31866345 </v>
   <v>       0.94464593       0.38857770       0.19656484 </v>
   <v>       0.21727459       0.02489203       0.23726438 </v>
   <v>       0.39938860       0.11594904       0.11516577 </v>
   <v>       0.03516057       0.93383503       0.35936299 </v>
   <v>       0.85304656       0.84277802       0.48146160 </v>
   <v>       0.30778923       0.57014936       0.40006253 </v>
   <v>       0.48990325       0.66120636       0.27796392 </v>
   <v>       0.67201726       0.75226337       0.15586531 </v>
   <v>       0.85413128       0.84332038       0.03376670 </v>
   <v>       0.54863915       0.02235931       0.23650818 </v>
   <v>       0.73075316       0.11341632       0.11440957 </v>
   <v>       0.18441112       0.84024530       0.48070540 </v>
   <v>       0.36652513       0.93130231       0.35860679 </v>
   <v>       0.00338182       0.74973065       0.15510911 </v>
   <v>       0.18549584       0.84078766       0.03301050 </v>
   <v>       0.63915379       0.56761664       0.39930633 </v>
   <v>       0.82126781       0.65867365       0.27720772 </v>
   <v>       0.09389647       0.29498797       0.31790726 </v>
   <v>       0.27601049       0.38604498       0.19580864 </v>
   <v>       0.45812450       0.47710199       0.07371003 </v>
   <v>       0.91178246       0.20393097       0.44000587 </v>
  </varray>
 </structure>
 <varray name="primitive_index" >
  <v type="int" >        1 </v>
  <v type="int" >        2 </v>
  <v type="int" >        3 </v>
  <v type="int" >        4 </v>
  <v type="int" >        5 </v>
  <v type="int" >        6 </v>
  <v type="int" >        7 </v>
  <v type="int" >        8 </v>
  <v type="int" >        9 </v>
  <v type="int" >       10 </v>
  <v type="int" >       11 </v>
  <v type="int" >       12 </v>
  <v type="int" >       13 </v>
  <v type="int" >       14 </v>
  <v type="int" >       15 </v>
  <v type="int" >       16 </v>
  <v type="int" >       17 </v>
  <v type="int" >       18 </v>
  <v type="int" >       19 </v>
  <v type="int" >       20 </v>
  <v type="int" >       21 </v>
  <v type="int" >       22 </v>
  <v type="int" >       23 </v>
  <v type="int" >       24 </v>
  <v type="int" >       25 </v>
  <v type="int" >       26 </v>
  <v type="int" >       27 </v>
  <v type="int" >       28 </v>
  <v type="int" >       29 </v>
  <v type="int" >       30 </v>
  <v type="int" >       31 </v>
  <v type="int" >       32 </v>
  <v type="int" >       33 </v>
  <v type="int" >       34 </v>
  <v type="int" >       35 </v>
  <v type="int" >       36 </v>
  <v type="int" >       37 </v>
  <v type="int" >       38 </v>
  <v type="int" >       39 </v>
  <v type="int" >       40 </v>
  <v type="int" >       41 </v>
  <v type="int" >       42 </v>
  <v type="int" >       43 </v>
  <v type="int" >       44 </v>
  <v type="int" >       45 </v>
  <v type="int" >       46 </v>
  <v type="int" >       47 </v>
  <v type="int" >       48 </v>
  <v type="int" >       49 </v>
  <v type="int" >       50 </v>
  <v type="int" >       51 </v>
  <v type="int" >       52 </v>
  <v type="int" >       53 </v>
  <v type="int" >       54 </v>
  <v type="int" >       55 </v>
  <v type="int" >       56 </v>
  <v type="int" >       57 </v>
  <v type="int" >       58 </v>
  <v type="int" >       59 </v>
  <v type="int" >       60 </v>
  <v type="int" >       61 </v>
  <v type="int" >       62 </v>
  <v type="int" >       63 </v>
  <v type="int" >       64 </v>
  <v type="int" >       65 </v>
  <v type="int" >       66 </v>
  <v type="int" >       67 </v>
  <v type="int" >       68 </v>
  <v type="int" >       69 </v>
  <v type="int" >       70 </v>
  <v type="int" >       71 </v>
  <v type="int" >       72 </v>
 </varray>
 <kpoints>
  <generation param="Gamma">
   <v type="int" name="divisions">       1        1        1 </v>
   <v name="usershift">      0.00000000       0.00000000       0.00000000 </v>
   <v name="genvec1">      1.00000000       0.00000000       0.00000000 </v>
   <v name="genvec2">      0.00000000       1.00000000       0.00000000 </v>
   <v name="genvec3">      0.00000000       0.00000000       1.00000000 </v>
   <v name="shift">      0.00000000       0.00000000       0.00000000 </v>
  </generation>
  <varray name="kpointlist" >
   <v>       0.00000000       0.00000000       0.00000000 </v>
  </varray>
  <varray name="weights" >
   <v>       1.00000000 </v>
  </varray>
 </kpoints>
 <parameters>
  <separator name="general" >
   <i type="string" name="SYSTEM">"Millerite NiS"</i>
   <i type="logical" name="LCOMPAT"> F  </i>
  </separator>
  <separator name="electronic" >
   <i type="string" name="PREC">normal</i>
   <i name="ENMAX">    450.00000000</i>
   <i name="ENAUG">    703.44300000</i>
   <i name="EDIFF">      0.00010000</i>
   <i type="int" name="IALGO">    38</i>
   <i type="int" name="IWAVPR">    10</i>
   <i type="int" name="NBANDS">   480</i>
   <i type="int" name="NBANDSLOW">    -1</i>
   <i type="int" name="NBANDSHIGH">    -1</i>
   <i name="NELECT">    792.00000000</i>
   <i type="int" name="TURBO">     0</i>
   <i type="int" name="IRESTART">     0</i>
   <i type="int" name="NREBOOT">     0</i>
   <i type="int" name="NMIN">     0</i>
   <i name="EREF">      0.00000000</i>
   <separator name="electronic smearing" >
    <i type="int" name="ISMEAR">     0</i>
    <i name="SIGMA">      0.20000000</i>
    <i name="KSPACING">      0.50000000</i>
    <i type="logical" name="KGAMMA"> T  </i>
    <i type="logical" name="KBLOWUP"> T  </i>
   </separator>
   <separator name="electronic projectors" >
    <i type="logical" name="LREAL"> T  </i>
    <v name="ROPT">     -0.00050000     -0.00050000</v>
    <i type="int" name="LMAXPAW">  -100</i>
    <i type="int" name="LMAXMIX">     2</i>
    <i type="logical" name="NLSPLINE"> F  </i>
   </separator>
   <separator name="electronic startup" >
    <i type="int" name="ISTART">     0</i>
    <i type="int" name="ICHARG">     2</i>
    <i type="int" name="INIWAV">     1</i>
   </separator>
   <separator name="electronic spin" >
    <i type="int" name="ISPIN">     1</i>
    <i type="logical" name="LNONCOLLINEAR"> F  </i>
    <v name="MAGMOM">      1.00000000      1.00000000      1.00000000      1.00000000      1.00000000      1.00000000      1.00000000      1.00000000      1.00000000      1.00000000      1.00000000      1.00000000      1.00000000      1.00000000      1.00000000      1.00000000      1.00000000      1.00000000      1.00000000      1.00000000
      1.00000000      1.00000000      1.00000000      1.00000000      1.00000000      1.00000000      1.00000000      1.00000000      1.00000000      1.00000000      1.00000000      1.00000000      1.00000000      1.00000000      1.00000000      1.00000000      1.00000000      1.00000000      1.00000000      1.00000000
      1.00000000      1.00000000      1.00000000      1.00000000      1.00000000      1.00000000      1.00000000      1.00000000      1.00000000      1.00000000      1.00000000      1.00000000      1.00000000      1.00000000      1.00000000      1.00000000      1.00000000      1.00000000      1.00000000      1.00000000
      1.00000000      1.00000000      1.00000000      1.00000000      1.00000000      1.00000000      1.00000000      1.00000000      1.00000000      1.00000000      1.00000000      1.00000000</v>
    <i name="NUPDOWN">     -1.00000000</i>
    <i type="logical" name="LSORBIT"> F  </i>
    <v name="SAXIS">      0.00000000      0.00000000      1.00000000</v>
    <i type="logical" name="LSPIRAL"> F  </i>
    <v name="QSPIRAL">      0.00000000      0.00000000      0.00000000</v>
    <i type="logical" name="LZEROZ"> F  </i>
   </separator>
   <separator name="electronic exchange-correlation" >
    <i type="logical" name="LASPH"> F  </i>
    <i type="logical" name="LMETAGGA"> F  </i>
   </separator>
   <separator name="electronic convergence" >
    <i type="int" name="NELM">   100</i>
    <i type="int" name="NELMDL">    -5</i>
    <i type="int" name="NELMIN">     2</i>
    <i name="ENINI">    450.00000000</i>
    <separator name="electronic convergence detail" >
     <i type="logical" name="LDIAG"> T  </i>
     <i type="logical" name="LSUBROT"> F  </i>
     <i name="WEIMIN">      0.00000000</i>
     <i name="EBREAK">      0.00000005</i>
     <i name="DEPER">      0.30000000</i>
     <i type="int" name="NRMM">     4</i>
     <i name="TIME">      0.40000000</i>
    </separator>
   </separator>
   <separator name="electronic mixer" >
    <i name="AMIX">      0.40000000</i>
    <i name="BMIX">      1.00000000</i>
    <i name="AMIN">      0.10000000</i>
    <i name="AMIX_MAG">      1.60000000</i>
    <i name="BMIX_MAG">      1.00000000</i>
    <separator name="electronic mixer details" >
     <i type="int" name="IMIX">     4</i>
     <i type="logical" name="MIXFIRST"> F  </i>
     <i type="int" name="MAXMIX">   -45</i>
     <i name="WC">    100.00000000</i>
     <i type="int" name="INIMIX">     1</i>
     <i type="int" name="MIXPRE">     1</i>
     <i type="int" name="MREMOVE">     5</i>
    </separator>
   </separator>
   <separator name="electronic dipolcorrection" >
    <i type="logical" name="LDIPOL"> F  </i>
    <i type="logical" name="LMONO"> F  </i>
    <i type="int" name="IDIPOL">     0</i>
    <i name="EPSILON">      1.00000000</i>
    <v name="DIPOL">   -100.00000000   -100.00000000   -100.00000000</v>
    <i name="EFIELD">      0.00000000</i>
   </separator>
  </separator>
  <separator name="grids" >
   <i type="int" name="NGX">    60</i>
   <i type="int" name="NGY">    50</i>
   <i type="int" name="NGZ">   108</i>
   <i type="int" name="NGXF">   120</i>
   <i type="int" name="NGYF">   100</i>
   <i type="int" name="NGZF">   216</i>
   <i type="logical" name="ADDGRID"> F  </i>
  </separator>
  <separator name="ionic" >
   <i type="int" name="NSW">     0</i>
   <i type="int" name="IBRION">    -1</i>
   <i type="int" name="MDALGO">     0</i>
   <i type="int" name="ISIF">     2</i>
   <i name="PSTRESS">      0.00000000</i>
   <i name="EDIFFG">      0.00100000</i>
   <i type="int" name="NFREE">     0</i>
   <i name="POTIM">      0.50000000</i>
   <i name="SMASS">     -3.00000000</i>
   <i name="SCALEE">      1.00000000</i>
  </separator>
  <separator name="ionic md" >
   <i name="TEBEG">      0.00010000</i>
   <i name="TEEND">      0.00010000</i>
   <i type="int" name="NBLOCK">     1</i>
   <i type="int" name="KBLOCK">     1</i>
   <i type="int" name="NPACO">   256</i>
   <i name="APACO">     16.00000000</i>
  </separator>
  <separator name="symmetry" >
   <i type="int" name="ISYM">     2</i>
   <i name="SYMPREC">      0.00001000</i>
  </separator>
  <separator name="dos" >
   <i type="int" name="LORBIT">     0</i>
   <v name="RWIGS">     -1.00000000     -1.00000000</v>
   <i type="int" name="NEDOS">   301</i>
   <i name="EMIN">     10.00000000</i>
   <i name="EMAX">    -10.00000000</i>
   <i name="EFERMI">      0.00000000</i>
  </separator>
  <separator name="writing" >
   <i type="int" name="NWRITE">     2</i>
   <i type="logical" name="LWAVE"> F  </i>
   <i type="logical" name="LDOWNSAMPLE"> F  </i>
   <i type="logical" name="LCHARG"> F  </i>
   <i type="logical" name="LPARD"> F  </i>
   <i type="logical" name="LVTOT"> F  </i>
   <i type="logical" name="LVHAR"> F  </i>
   <i type="logical" name="LELF"> F  </i>
   <i type="logical" name="LOPTICS"> F  </i>
   <v name="STM">      0.00000000      0.00000000      0.00000000      0.00000000      0.00000000      0.00000000      0.00000000</v>
  </separator>
  <separator name="performance" >
   <i type="int" name="NPAR">     8</i>
   <i type="int" name="NSIM">     4</i>
   <i type="int" name="NBLK">    -1</i>
   <i type="logical" name="LPLANE"> T  </i>
   <i type="logical" name="LSCALAPACK"> T  </i>
   <i type="logical" name="LSCAAWARE"> F  </i>
   <i type="logical" name="LSCALU"> F  </i>
   <i type="logical" name="LASYNC"> F  </i>
   <i type="logical" name="LORBITALREAL"> F  </i>
  </separator>
  <separator name="miscellaneous" >
   <i type="int" name="IDIOT">     3</i>
   <i type="int" name="PHON_NSTRUCT">    -1</i>
   <i type="logical" name="LMUSIC"> F  </i>
   <v name="POMASS">     58.69000000     32.06600000</v>
   <v name="DARWINR">      0.00000000      0.00000000</v>
   <v name="DARWINV">      1.00000000      1.00000000</v>
   <i type="logical" name="LCORR"> T  </i>
  </separator>
  <i type="logical" name="GGA_COMPAT"> T  </i>
  <i type="logical" name="LBERRY"> F  </i>
  <i type="int" name="ICORELEVEL">     0</i>
  <i type="logical" name="LDAU"> F  </i>
  <i type="int" name="I_CONSTRAINED_M">     0</i>
  <separator name="electronic exchange-correlation" >
   <i type="string" name="GGA">--</i>
   <i type="int" name="VOSKOWN">     0</i>
   <i type="logical" name="LHFCALC"> F  </i>
   <i type="string" name="PRECFOCK"></i>
   <i type="logical" name="LSYMGRAD"> F  </i>
   <i type="logical" name="LHFONE"> F  </i>
   <i type="logical" name="LRHFCALC"> F  </i>
   <i type="logical" name="LTHOMAS"> F  </i>
   <i type="logical" name="LMODELHF"> F  </i>
   <i type="logical" name="LFOCKACE"> F  </i>
   <i name="ENCUT4O">     -1.00000000</i>
   <i type="int" name="EXXOEP">     0</i>
   <i type="int" name="FOURORBIT">     0</i>
   <i name="AEXX">      0.00000000</i>
   <i name="HFALPHA">      0.00000000</i>
   <i name="MCALPHA">      0.00000000</i>
   <i name="ALDAX">      1.00000000</i>
   <i name="AGGAX">      1.00000000</i>
   <i name="ALDAC">      1.00000000</i>
   <i name="AGGAC">      1.00000000</i>
   <i type="int" name="NKREDX">     1</i>
   <i type="int" name="NKREDY">     1</i>
   <i type="int" name="NKREDZ">     1</i>
   <i type="logical" name="SHIFTRED"> F  </i>
   <i type="logical" name="ODDONLY"> F  </i>
   <i type="logical" name="EVENONLY"> F  </i>
   <i type="int" name="LMAXFOCK">     0</i>
   <i type="int" name="NMAXFOCKAE">     0</i>
   <i type="logical" name="LFOCKAEDFT"> F  </i>
   <i name="HFSCREEN">      0.00000000</i>
   <i name="HFSCREENC">      0.00000000</i>
   <i type="int" name="NBANDSGWLOW">     0</i>
  </separator>
  <separator name="vdW DFT" >
   <i type="logical" name="LUSE_VDW"> F  </i>
   <i name="Zab_VDW">     -0.84910000</i>
   <i name="PARAM1">      0.12340000</i>
   <i name="PARAM2">      1.00000000</i>
   <i name="PARAM3">      0.00000000</i>
  </separator>
  <separator name="model GW" >
   <i type="int" name="MODEL_GW">     0</i>
   <i name="MODEL_EPS0">     17.02376302</i>
   <i name="MODEL_ALPHA">      1.00000000</i>
  </separator>
  <separator name="linear response parameters" >
   <i type="logical" name="LEPSILON"> F  </i>
   <i type="logical" name="LRPA"> F  </i>
   <i type="logical" name="LNABLA"> F  </i>
   <i type="logical" name="LVEL"> F  </i>
   <i type="int" name="KINTER">     0</i>
   <i name="CSHIFT">      0.10000000</i>
   <i name="OMEGAMAX">     -1.00000000</i>
   <i name="DEG_THRESHOLD">      0.00200000</i>
   <i name="RTIME">     -0.10000000</i>
   <i name="WPLASMAI">      0.00000000</i>
   <v name="DFIELD">      0.00000000      0.00000000      0.00000000</v>
   <v name="WPLASMA">      0.00000000      0.00000000      0.00000000      0.00000000      0.00000000      0.00000000      0.00000000      0.00000000      0.00000000</v>
  </separator>
  <separator name="orbital magnetization" >
   <i type="logical" name="NUCIND"> F  </i>
   <v name="MAGPOS">      0.00000000      0.00000000      0.00000000</v>
   <i type="logical" name="LNICSALL"> T  </i>
   <i type="logical" name="ORBITALMAG"> F  </i>
   <i type="logical" name="LMAGBLOCH"> F  </i>
   <i type="logical" name="LCHIMAG"> F  </i>
   <i type="logical" name="LGAUGE"> T  </i>
   <i type="int" name="MAGATOM">     0</i>
   <v name="MAGDIPOL">      0.00000000      0.00000000      0.00000000</v>
   <v name="AVECCONST">      0.00000000      0.00000000      0.00000000</v>
  </separator>
  <separator name="response functions" >
   <i type="logical" name="LFINITE_TEMPERATURE"> F  </i>
   <i type="logical" name="LADDER"> F  </i>
   <i type="logical" name="LRPAFORCE"> F  </i>
   <i type="logical" name="LFXC"> F  </i>
   <i type="logical" name="LHARTREE"> T  </i>
   <i type="int" name="IBSE">     0</i>
   <v type="int" name="KPOINT">    -1     0     0     0</v>
   <i type="logical" name="LTCTC"> F  </i>
   <i type="logical" name="LTCTE"> F  </i>
   <i type="logical" name="LTETE"> F  </i>
   <i type="logical" name="LTRIPLET"> F  </i>
   <i type="logical" name="LFXCEPS"> F  </i>
   <i type="logical" name="LFXHEG"> F  </i>
   <i type="int" name="NATURALO">     2</i>
   <i type="logical" name="LHOLEGF"> F  </i>
   <i type="logical" name="L2ORDER"> F  </i>
   <i type="logical" name="LDMP1"> F  </i>
   <i type="logical" name="LMP2LT"> F  </i>
   <i type="logical" name="LSMP2LT"> F  </i>
   <i type="logical" name="LGWLF"> F  </i>
   <i name="ENCUTGW">     -2.00000000</i>
   <i name="ENCUTGWSOFT">     -2.00000000</i>
   <i name="ENCUTLF">     -1.00000000</i>
   <i type="logical" name="LESF_SPLINES"> F  </i>
   <i type="int" name="LMAXMP2">    -1</i>
   <i name="SCISSOR">      0.00000000</i>
   <i type="int" name="NOMEGA">     0</i>
   <i type="int" name="NOMEGAR">     0</i>
   <i type="int" name="NBANDSGW">    -1</i>
   <i type="int" name="NBANDSO">    -1</i>
   <i type="int" name="NBANDSV">    -1</i>
   <i type="int" name="NELM">   100</i>
   <i type="int" name="NELMHF">     1</i>
   <i type="int" name="DIM">     3</i>
   <i type="int" name="IESPILON">     4</i>
   <i type="int" name="ANTIRES">     0</i>
   <i name="OMEGAMAX">    -30.00000000</i>
   <i name="OMEGAMIN">    -30.00000000</i>
   <i name="OMEGATL">   -200.00000000</i>
   <i type="int" name="OMEGAGRID">     0</i>
   <i name="CSHIFT">     -0.10000000</i>
   <i type="logical" name="LSELFENERGY"> F  </i>
   <i type="logical" name="LSPECTRAL"> F  </i>
   <i type="logical" name="LSPECTRALGW"> F  </i>
   <i type="logical" name="LSINGLES"> F  </i>
   <i type="logical" name="LFERMIGW"> F  </i>
   <i type="logical" name="ODDONLYGW"> F  </i>
   <i type="logical" name="EVENONLYGW"> F  </i>
   <i type="int" name="NKREDLFX">     1</i>
   <i type="int" name="NKREDLFY">     1</i>
   <i type="int" name="NKREDLFZ">     1</i>
   <i type="int" name="MAXMEM">  2800</i>
   <i type="int" name="TELESCOPE">     0</i>
   <i type="int" name="NTAUPAR">    -1</i>
   <i type="int" name="NOMEGAPAR">    -1</i>
   <i name="LAMBDA">      1.00000000</i>
  </separator>
  <separator name="External order field" >
   <i name="OFIELD_KAPPA">      0.00000000</i>
   <v name="OFIELD_K">      0.00000000      0.00000000      0.00000000</v>
   <i name="OFIELD_Q6_NEAR">      0.00000000</i>
   <i name="OFIELD_Q6_FAR">      0.00000000</i>
   <i name="OFIELD_A">      0.00000000</i>
  </separator>
 </parameters>
 <atominfo>
  <atoms>      72 </atoms>
  <types>       2 </types>
  <array name="atoms" >
   <dimension dim="1">ion</dimension>
   <field type="string">element</field>
   <field type="int">atomtype</field>
   <set>
    <rc><c>Ni</c><c>   1</c></rc>
    <rc><c>Ni</c><c>   1</c></rc>
    <rc><c>Ni</c><c>   1</c></rc>
    <rc><c>Ni</c><c>   1</c></rc>
    <rc><c>Ni</c><c>   1</c></rc>
    <rc><c>Ni</c><c>   1</c></rc>
    <rc><c>Ni</c><c>   1</c></rc>
    <rc><c>Ni</c><c>   1</c></rc>
    <rc><c>Ni</c><c>   1</c></rc>
    <rc><c>Ni</c><c>   1</c></rc>
    <rc><c>Ni</c><c>   1</c></rc>
    <rc><c>Ni</c><c>   1</c></rc>
    <rc><c>Ni</c><c>   1</c></rc>
    <rc><c>Ni</c><c>   1</c></rc>
    <rc><c>Ni</c><c>   1</c></rc>
    <rc><c>Ni</c><c>   1</c></rc>
    <rc><c>Ni</c><c>   1</c></rc>
    <rc><c>Ni</c><c>   1</c></rc>
    <rc><c>Ni</c><c>   1</c></rc>
    <rc><c>Ni</c><c>   1</c></rc>
    <rc><c>Ni</c><c>   1</c></rc>
    <rc><c>Ni</c><c>   1</c></rc>
    <rc><c>Ni</c><c>   1</c></rc>
    <rc><c>Ni</c><c>   1</c></rc>
    <rc><c>Ni</c><c>   1</c></rc>
    <rc><c>Ni</c><c>   1</c></rc>
    <rc><c>Ni</c><c>   1</c></rc>
    <rc><c>Ni</c><c>   1</c></rc>
    <rc><c>Ni</c><c>   1</c></rc>
    <rc><c>Ni</c><c>   1</c></rc>
    <rc><c>Ni</c><c>   1</c></rc>
    <rc><c>Ni</c><c>   1</c></rc>
    <rc><c>Ni</c><c>   1</c></rc>
    <rc><c>Ni</c><c>   1</c></rc>
    <rc><c>Ni</c><c>   1</c></rc>
    <rc><c>Ni</c><c>   1</c></rc>
    <rc><c>S </c><c>   2</c></rc>
    <rc><c>S </c><c>   2</c></rc>
    <rc><c>S </c><c>   2</c></rc>
    <rc><c>S </c><c>   2</c></rc>
    <rc><c>S </c><c>   2</c></rc>
    <rc><c>S </c><c>   2</c></rc>
    <rc><c>S </c><c>   2</c></rc>
    <rc><c>S </c><c>   2</c></rc>
    <rc><c>S </c><c>   2</c></rc>
    <rc><c>S </c><c>   2</c></rc>
    <rc><c>S </c><c>   2</c></rc>
    <rc><c>S </c><c>   2</c></rc>
    <rc><c>S </c><c>   2</c></rc>
    <rc><c>S </c><c>   2</c></rc>
    <rc><c>S </c><c>   2</c></rc>
    <rc><c>S </c><c>   2</c></rc>
    <rc><c>S </c><c>   2</c></rc>
    <rc><c>S </c><c>   2</c></rc>
    <rc><c>S </c><c>   2</c></rc>
    <rc><c>S </c><c>   2</c></rc>
    <rc><c>S </c><c>   2</c></rc>
    <rc><c>S </c><c>   2</c></rc>
    <rc><c>S </c><c>   2</c></rc>
    <rc><c>S </c><c>   2</c></rc>
    <rc><c>S </c><c>   2</c></rc>
    <rc><c>S </c><c>   2</c></rc>
    <rc><c>S </c><c>   2</c></rc>
    <rc><c>S </c><c>   2</c></rc>
    <rc><c>S </c><c>   2</c></rc>
    <rc><c>S </c><c>   2</c></rc>
    <rc><c>S </c><c>   2</c></rc>
    <rc><c>S </c><c>   2</c></rc>
    <rc><c>S </c><c>   2</c></rc>
    <rc><c>S </c><c>   2</c></rc>
    <rc><c>S </c><c>   2</c></rc>
    <rc><c>S </c><c>   2</c></rc>
   </set>
  </array>
  <array name="atomtypes" >
   <dimension dim="1">type</dimension>
   <field type="int">atomspertype</field>
   <field type="string">element</field>
   <field>mass</field>
   <field>valence</field>
   <field type="string">pseudopotential</field>
   <set>
    <rc><c>  36</c><c>Ni</c><c>     58.69000000</c><c>     16.00000000</c><c>  PAW_PBE Ni_pv 06Sep2000               </c></rc>
    <rc><c>  36</c><c>S </c><c>     32.06600000</c><c>      6.00000000</c><c>  PAW_PBE S 06Sep2000                   </c></rc>
   </set>
  </array>
 </atominfo>
 <structure name="initialpos" >
  <crystal>
   <varray name="basis" >
    <v>      10.40335375      -4.78920500       0.00000000 </v>
    <v>       0.00000000       9.57841000       0.00000000 </v>
    <v>       0.00000000       0.00000000      20.50076286 </v>
   </varray>
   <i name="volume">   2042.85156262 </i>
   <varray name="rec_basis" >
    <v>       0.09612285       0.00000000       0.00000000 </v>
    <v>       0.04806142       0.10440146       0.00000000 </v>
    <v>       0.00000000       0.00000000       0.04877867 </v>
   </varray>
  </crystal>
  <varray name="positions" >
   <v>       0.58044680       0.07437514       0.34941513 </v>
   <v>       0.76256081       0.16543215       0.22731652 </v>
   <v>       0.94467483       0.25648915       0.10521791 </v>
   <v>       0.39833278       0.98331813       0.47151374 </v>
   <v>       0.03518947       0.80174648       0.26801605 </v>
   <v>       0.21730349       0.89280348       0.14591744 </v>
   <v>       0.39941750       0.98386049       0.02381883 </v>
   <v>       0.67096144       0.61963246       0.51221327 </v>
   <v>       0.85307546       0.71068947       0.39011466 </v>
   <v>       0.12570412       0.34700380       0.43081420 </v>
   <v>       0.30781813       0.43806081       0.30871559 </v>
   <v>       0.48993215       0.52911781       0.18661698 </v>
   <v>       0.67204616       0.62017482       0.06451837 </v>
   <v>       0.23035801       0.03143375       0.40699537 </v>
   <v>       0.41247203       0.12249075       0.28489676 </v>
   <v>       0.59458604       0.21354776       0.16279815 </v>
   <v>       0.77670006       0.30460477       0.04069954 </v>
   <v>       0.04932872       0.94091910       0.08139907 </v>
   <v>       0.50298667       0.66774808       0.44769490 </v>
   <v>       0.68510069       0.75880508       0.32559629 </v>
   <v>       0.86721470       0.84986209       0.20349768 </v>
   <v>       0.13984337       0.48617642       0.24419722 </v>
   <v>       0.32195738       0.57723343       0.12209861 </v>
   <v>       0.50407140       0.66829044       0.00000000 </v>
   <v>       0.95772935       0.39511942       0.36629583 </v>
   <v>       0.39833278       0.24752413       0.47151374 </v>
   <v>       0.58044680       0.33858114       0.34941513 </v>
   <v>       0.76256081       0.42963815       0.22731652 </v>
   <v>       0.03518947       0.06595248       0.26801605 </v>
   <v>       0.21730349       0.15700948       0.14591744 </v>
   <v>       0.39941750       0.24806649       0.02381883 </v>
   <v>       0.67096144       0.88383846       0.51221327 </v>
   <v>       0.85307546       0.97489547       0.39011466 </v>
   <v>       0.12570412       0.61120980       0.43081420 </v>
   <v>       0.30781813       0.70226681       0.30871559 </v>
   <v>       0.48993215       0.79332382       0.18661698 </v>
   <v>       0.18441112       0.17667530       0.48070540 </v>
   <v>       0.36652513       0.26773231       0.35860679 </v>
   <v>       0.54863915       0.35878931       0.23650818 </v>
   <v>       0.73075316       0.44984632       0.11440957 </v>
   <v>       0.00338182       0.08616065       0.15510911 </v>
   <v>       0.18549584       0.17721766       0.03301050 </v>
   <v>       0.63915379       0.90404664       0.39930633 </v>
   <v>       0.82126781       0.99510365       0.27720772 </v>
   <v>       0.09389647       0.63141797       0.31790726 </v>
   <v>       0.27601049       0.72247498       0.19580864 </v>
   <v>       0.45812450       0.81353199       0.07371003 </v>
   <v>       0.91178246       0.54036097       0.44000587 </v>
   <v>       0.12675994       0.47963471       0.07446623 </v>
   <v>       0.58041790       0.20646369       0.44076206 </v>
   <v>       0.76253191       0.29752070       0.31866345 </v>
   <v>       0.94464593       0.38857770       0.19656484 </v>
   <v>       0.21727459       0.02489203       0.23726438 </v>
   <v>       0.39938860       0.11594904       0.11516577 </v>
   <v>       0.03516057       0.93383503       0.35936299 </v>
   <v>       0.85304656       0.84277802       0.48146160 </v>
   <v>       0.30778923       0.57014936       0.40006253 </v>
   <v>       0.48990325       0.66120636       0.27796392 </v>
   <v>       0.67201726       0.75226337       0.15586531 </v>
   <v>       0.85413128       0.84332038       0.03376670 </v>
   <v>       0.54863915       0.02235931       0.23650818 </v>
   <v>       0.73075316       0.11341632       0.11440957 </v>
   <v>       0.18441112       0.84024530       0.48070540 </v>
   <v>       0.36652513       0.93130231       0.35860679 </v>
   <v>       0.00338182       0.74973065       0.15510911 </v>
   <v>       0.18549584       0.84078766       0.03301050 </v>
   <v>       0.63915379       0.56761664       0.39930633 </v>
   <v>       0.82126781       0.65867365       0.27720772 </v>
   <v>       0.09389647       0.29498797       0.31790726 </v>
   <v>       0.27601049       0.38604498       0.19580864 </v>
   <v>       0.45812450       0.47710199       0.07371003 </v>
   <v>       0.91178246       0.20393097       0.44000587 </v>
  </varray>
 </structure>
 <calculation>
  <scstep>
   <time name="dav">    2.23    2.24</time>
   <time name="total">    2.28    2.30</time>
   <energy>
    <i name="alphaZ">   1820.93486007 </i>
    <i name="ewald"> 163669.51774458 </i>
    <i name="hartreedc">-285987.19290330 </i>
    <i name="XCdc">   3649.41448839 </i>
    <i name="pawpsdc"> 112729.53333415 </i>
    <i name="pawaedc">-117641.51188735 </i>
    <i name="eentropy">     -0.39338042 </i>
    <i name="bandstr">  -4659.64452543 </i>
    <i name="atom"> 136002.60505376 </i>
    <i name="e_fr_energy">   9583.26278445 </i>
    <i name="e_wo_entrp">   9583.65616487 </i>
    <i name="e_0_energy">   9583.45947466 </i>
   </energy>
  </scstep>
  <scstep>
   <time name="dav">    1.93    1.94</time>
   <time name="total">    1.93    1.94</time>
   <energy>
    <i name="e_fr_energy">    602.58596536 </i>
    <i name="e_wo_entrp">    603.40057669 </i>
    <i name="e_0_energy">    602.99327103 </i>
   </energy>
  </scstep>
  <scstep>
   <time name="dav">    2.10    2.10</time>
   <time name="total">    2.10    2.10</time>
   <energy>
    <i name="e_fr_energy">   -339.54867132 </i>
    <i name="e_wo_entrp">   -338.24498028 </i>
    <i name="e_0_energy">   -338.89682580 </i>
   </energy>
  </scstep>
  <scstep>
   <time name="dav">    2.21    2.22</time>
   <time name="total">    2.22    2.22</time>
   <energy>
    <i name="e_fr_energy">   -401.27613088 </i>
    <i name="e_wo_entrp">   -399.87571775 </i>
    <i name="e_0_energy">   -400.57592432 </i>
   </energy>
  </scstep>
  <scstep>
   <time name="dav">    2.25    2.26</time>
   <time name="total">    2.29    2.30</time>
   <energy>
    <i name="e_fr_energy">   -403.10847707 </i>
    <i name="e_wo_entrp">   -401.70370792 </i>
    <i name="e_0_energy">   -402.40609249 </i>
   </energy>
  </scstep>
  <scstep>
   <time name="dav">    2.16    2.17</time>
   <time name="total">    2.26    2.27</time>
   <energy>
    <i name="e_fr_energy">   -494.34076872 </i>
    <i name="e_wo_entrp">   -493.44248210 </i>
    <i name="e_0_energy">   -493.89162541 </i>
   </energy>
  </scstep>
  <scstep>
   <time name="dav">    2.11    2.11</time>
   <time name="total">    2.20    2.21</time>
   <energy>
    <i name="e_fr_energy">   -374.22096871 </i>
    <i name="e_wo_entrp">   -373.27198191 </i>
    <i name="e_0_energy">   -373.74647531 </i>
   </energy>
  </scstep>
  <scstep>
   <time name="dav">    2.45    2.46</time>
   <time name="total">    2.55    2.56</time>
   <energy>
    <i name="e_fr_energy">   -435.03710887 </i>
    <i name="e_wo_entrp">   -434.24322845 </i>
    <i name="e_0_energy">   -434.64016866 </i>
   </energy>
  </scstep>
  <scstep>
   <time name="dav">    2.24    2.25</time>
   <time name="total">    2.33    2.34</time>
   <energy>
    <i name="e_fr_energy">   -374.72377975 </i>
    <i name="e_wo_entrp">   -373.49985881 </i>
    <i name="e_0_energy">   -374.11181928 </i>
   </energy>
  </scstep>
  <scstep>
   <time name="dav">    2.40    2.41</time>
   <time name="total">    2.50    2.50</time>
   <energy>
    <i name="e_fr_energy">   -371.24409867 </i>
    <i name="e_wo_entrp">   -369.96529396 </i>
    <i name="e_0_energy">   -370.60469632 </i>
   </energy>
  </scstep>
  <scstep>
   <time name="dav">    2.39    2.40</time>
   <time name="total">    2.49    2.49</time>
   <energy>
    <i name="e_fr_energy">   -375.16355654 </i>
    <i name="e_wo_entrp">   -374.20736450 </i>
    <i name="e_0_energy">   -374.68546052 </i>
   </energy>
  </scstep>
  <scstep>
   <time name="dav">    2.46    2.46</time>
   <time name="total">    2.55    2.56</time>
   <energy>
    <i name="e_fr_energy">   -360.58553260 </i>
    <i name="e_wo_entrp">   -359.52868132 </i>
    <i name="e_0_energy">   -360.05710696 </i>
   </energy>
  </scstep>
  <scstep>
   <time name="dav">    2.42    2.42</time>
   <time name="total">    2.51    2.52</time>
   <energy>
    <i name="e_fr_energy">   -360.35277213 </i>
    <i name="e_wo_entrp">   -359.07471888 </i>
    <i name="e_0_energy">   -359.71374550 </i>
   </energy>
  </scstep>
  <scstep>
   <time name="dav">    2.34    2.34</time>
   <time name="total">    2.43    2.44</time>
   <energy>
    <i name="e_fr_energy">   -359.58031605 </i>
    <i name="e_wo_entrp">   -358.47757232 </i>
    <i name="e_0_energy">   -359.02894418 </i>
   </energy>
  </scstep>
  <scstep>
   <time name="dav">    2.26    2.26</time>
   <time name="total">    2.35    2.36</time>
   <energy>
    <i name="e_fr_energy">   -357.34399494 </i>
    <i name="e_wo_entrp">   -356.36525014 </i>
    <i name="e_0_energy">   -356.85462254 </i>
   </energy>
  </scstep>
  <scstep>
   <time name="dav">    2.33    2.33</time>
   <time name="total">    2.42    2.43</time>
   <energy>
    <i name="e_fr_energy">   -356.33517538 </i>
    <i name="e_wo_entrp">   -355.34066199 </i>
    <i name="e_0_energy">   -355.83791869 </i>
   </energy>
  </scstep>
  <scstep>
   <time name="dav">    2.42    2.42</time>
   <time name="total">    2.51    2.52</time>
   <energy>
    <i name="e_fr_energy">   -354.47055418 </i>
    <i name="e_wo_entrp">   -353.48266015 </i>
    <i name="e_0_energy">   -353.97660716 </i>
   </energy>
  </scstep>
  <scstep>
   <time name="dav">    2.44    2.44</time>
   <time name="total">    2.53    2.54</time>
   <energy>
    <i name="e_fr_energy">   -354.28673620 </i>
    <i name="e_wo_entrp">   -353.24308765 </i>
    <i name="e_0_energy">   -353.76491193 </i>
   </energy>
  </scstep>
  <scstep>
   <time name="dav">    2.35    2.36</time>
   <time name="total">    2.45    2.46</time>
   <energy>
    <i name="e_fr_energy">   -353.36039053 </i>
    <i name="e_wo_entrp">   -352.35327636 </i>
    <i name="e_0_energy">   -352.85683345 </i>
   </energy>
  </scstep>
  <scstep>
   <time name="dav">    2.38    2.39</time>
   <time name="total">    2.48    2.48</time>
   <energy>
    <i name="e_fr_energy">   -353.01223848 </i>
    <i name="e_wo_entrp">   -351.98253152 </i>
    <i name="e_0_energy">   -352.49738500 </i>
   </energy>
  </scstep>
  <scstep>
   <time name="dav">    2.47    2.48</time>
   <time name="total">    2.57    2.58</time>
   <energy>
    <i name="e_fr_energy">   -352.48680117 </i>
    <i name="e_wo_entrp">   -351.38763776 </i>
    <i name="e_0_energy">   -351.93721946 </i>
   </energy>
  </scstep>
  <scstep>
   <time name="dav">    2.39    2.40</time>
   <time name="total">    2.50    2.51</time>
   <energy>
    <i name="e_fr_energy">   -352.26495395 </i>
    <i name="e_wo_entrp">   -351.15963637 </i>
    <i name="e_0_energy">   -351.71229516 </i>
   </energy>
  </scstep>
  <scstep>
   <time name="dav">    2.18    2.19</time>
   <time name="total">    2.29    2.29</time>
   <energy>
    <i name="e_fr_energy">   -352.14807697 </i>
    <i name="e_wo_entrp">   -351.03169886 </i>
    <i name="e_0_energy">   -351.58988792 </i>
   </energy>
  </scstep>
  <scstep>
   <time name="dav">    2.36    2.36</time>
   <time name="total">    2.46    2.47</time>
   <energy>
    <i name="e_fr_energy">   -352.07050776 </i>
    <i name="e_wo_entrp">   -350.94241382 </i>
    <i name="e_0_energy">   -351.50646079 </i>
   </energy>
  </scstep>
  <scstep>
   <time name="dav">    2.56    2.57</time>
   <time name="total">    2.67    2.67</time>
   <energy>
    <i name="e_fr_energy">   -351.97781319 </i>
    <i name="e_wo_entrp">   -350.82882839 </i>
    <i name="e_0_energy">   -351.40332079 </i>
   </energy>
  </scstep>
  <scstep>
   <time name="dav">    2.35    2.36</time>
   <time name="total">    2.45    2.46</time>
   <energy>
    <i name="e_fr_energy">   -351.95794986 </i>
    <i name="e_wo_entrp">   -350.80003364 </i>
    <i name="e_0_energy">   -351.37899175 </i>
   </energy>
  </scstep>
  <scstep>
   <time name="dav">    2.33    2.34</time>
   <time name="total">    2.43    2.44</time>
   <energy>
    <i name="e_fr_energy">   -351.93332770 </i>
    <i name="e_wo_entrp">   -350.79068591 </i>
    <i name="e_0_energy">   -351.36200680 </i>
   </energy>
  </scstep>
  <scstep>
   <time name="dav">    2.48    2.49</time>
   <time name="total">    2.59    2.59</time>
   <energy>
    <i name="e_fr_energy">   -351.91594084 </i>
    <i name="e_wo_entrp">   -350.73274602 </i>
    <i name="e_0_energy">   -351.32434343 </i>
   </energy>
  </scstep>
  <scstep>
   <time name="dav">    2.38    2.39</time>
   <time name="total">    2.48    2.49</time>
   <energy>
    <i name="e_fr_energy">   -351.90429386 </i>
    <i name="e_wo_entrp">   -350.71885530 </i>
    <i name="e_0_energy">   -351.31157458 </i>
   </energy>
  </scstep>
  <scstep>
   <time name="dav">    2.34    2.35</time>
   <time name="total">    2.44    2.45</time>
   <energy>
    <i name="e_fr_energy">   -351.89702946 </i>
    <i name="e_wo_entrp">   -350.71324972 </i>
    <i name="e_0_energy">   -351.30513959 </i>
   </energy>
  </scstep>
  <scstep>
   <time name="dav">    2.40    2.41</time>
   <time name="total">    2.51    2.51</time>
   <energy>
    <i name="e_fr_energy">   -351.88985836 </i>
    <i name="e_wo_entrp">   -350.71358554 </i>
    <i name="e_0_energy">   -351.30172195 </i>
   </energy>
  </scstep>
  <scstep>
   <time name="dav">    2.34    2.35</time>
   <time name="total">    2.44    2.45</time>
   <energy>
    <i name="e_fr_energy">   -351.89124264 </i>
    <i name="e_wo_entrp">   -350.72409840 </i>
    <i name="e_0_energy">   -351.30767052 </i>
   </energy>
  </scstep>
  <scstep>
   <time name="dav">    2.13    2.14</time>
   <time name="total">    2.24    2.24</time>
   <energy>
    <i name="e_fr_energy">   -351.88926765 </i>
    <i name="e_wo_entrp">   -350.72337113 </i>
    <i name="e_0_energy">   -351.30631939 </i>
   </energy>
  </scstep>
  <scstep>
   <time name="dav">    2.10    2.11</time>
   <time name="total">    2.20    2.21</time>
   <energy>
    <i name="e_fr_energy">   -351.88801159 </i>
    <i name="e_wo_entrp">   -350.72057057 </i>
    <i name="e_0_energy">   -351.30429108 </i>
   </energy>
  </scstep>
  <scstep>
   <time name="dav">    2.11    2.11</time>
   <time name="total">    2.21    2.22</time>
   <energy>
    <i name="e_fr_energy">   -351.88908371 </i>
    <i name="e_wo_entrp">   -350.72385043 </i>
    <i name="e_0_energy">   -351.30646707 </i>
   </energy>
  </scstep>
  <scstep>
   <time name="dav">    1.97    1.98</time>
   <time name="total">    2.07    2.08</time>
   <energy>
    <i name="e_fr_energy">   -351.88872400 </i>
    <i name="e_wo_entrp">   -350.72213112 </i>
    <i name="e_0_energy">   -351.30542756 </i>
   </energy>
  </scstep>
  <scstep>
   <time name="dav">    1.85    1.86</time>
   <time name="total">    1.96    1.96</time>
   <energy>
    <i name="e_fr_energy">   -351.88844727 </i>
    <i name="e_wo_entrp">   -350.72036200 </i>
    <i name="e_0_energy">   -351.30440464 </i>
   </energy>
  </scstep>
  <scstep>
   <time name="dav">    1.65    1.65</time>
   <time name="total">    1.70    1.71</time>
   <energy>
    <i name="alphaZ">   1820.93486007 </i>
    <i name="ewald"> 163669.51774458 </i>
    <i name="hartreedc">-285321.53958635 </i>
    <i name="XCdc">   3620.30724655 </i>
    <i name="pawpsdc"> 130218.13909914 </i>
    <i name="pawaedc">-135187.42609628 </i>
    <i name="eentropy">     -1.16828595 </i>
    <i name="bandstr"> -15173.25856175 </i>
    <i name="atom"> 136002.60505376 </i>
    <i name="e_fr_energy">   -351.88852623 </i>
    <i name="e_wo_entrp">   -350.72024028 </i>
    <i name="e_0_energy">   -351.30438325 </i>
   </energy>
  </scstep>
  <structure>
   <crystal>
    <varray name="basis" >
     <v>      10.40335375      -4.78920500       0.00000000 </v>
     <v>       0.00000000       9.57841000       0.00000000 </v>
     <v>       0.00000000       0.00000000      20.50076286 </v>
    </varray>
    <i name="volume">   2042.85156262 </i>
    <varray name="rec_basis" >
     <v>       0.09612285       0.00000000       0.00000000 </v>
     <v>       0.04806142       0.10440146       0.00000000 </v>
     <v>       0.00000000       0.00000000       0.04877867 </v>
    </varray>
   </crystal>
   <varray name="positions" >
    <v>       0.58044680       0.07437514       0.34941513 </v>
    <v>       0.76256081       0.16543215       0.22731652 </v>
    <v>       0.94467483       0.25648915       0.10521791 </v>
    <v>       0.39833278       0.98331813       0.47151374 </v>
    <v>       0.03518947       0.80174648       0.26801605 </v>
    <v>       0.21730349       0.89280348       0.14591744 </v>
    <v>       0.39941750       0.98386049       0.02381883 </v>
    <v>       0.67096144       0.61963246       0.51221327 </v>
    <v>       0.85307546       0.71068947       0.39011466 </v>
    <v>       0.12570412       0.34700380       0.43081420 </v>
    <v>       0.30781813       0.43806081       0.30871559 </v>
    <v>       0.48993215       0.52911781       0.18661698 </v>
    <v>       0.67204616       0.62017482       0.06451837 </v>
    <v>       0.23035801       0.03143375       0.40699537 </v>
    <v>       0.41247203       0.12249075       0.28489676 </v>
    <v>       0.59458604       0.21354776       0.16279815 </v>
    <v>       0.77670006       0.30460477       0.04069954 </v>
    <v>       0.04932872       0.94091910       0.08139907 </v>
    <v>       0.50298667       0.66774808       0.44769490 </v>
    <v>       0.68510069       0.75880508       0.32559629 </v>
    <v>       0.86721470       0.84986209       0.20349768 </v>
    <v>       0.13984337       0.48617642       0.24419722 </v>
    <v>       0.32195738       0.57723343       0.12209861 </v>
    <v>       0.50407140       0.66829044       0.00000000 </v>
    <v>       0.95772935       0.39511942       0.36629583 </v>
    <v>       0.39833278       0.24752413       0.47151374 </v>
    <v>       0.58044680       0.33858114       0.34941513 </v>
    <v>       0.76256081       0.42963815       0.22731652 </v>
    <v>       0.03518947       0.06595248       0.26801605 </v>
    <v>       0.21730349       0.15700948       0.14591744 </v>
    <v>       0.39941750       0.24806649       0.02381883 </v>
    <v>       0.67096144       0.88383846       0.51221327 </v>
    <v>       0.85307546       0.97489547       0.39011466 </v>
    <v>       0.12570412       0.61120980       0.43081420 </v>
    <v>       0.30781813       0.70226681       0.30871559 </v>
    <v>       0.48993215       0.79332382       0.18661698 </v>
    <v>       0.18441112       0.17667530       0.48070540 </v>
    <v>       0.36652513       0.26773231       0.35860679 </v>
    <v>       0.54863915       0.35878931       0.23650818 </v>
    <v>       0.73075316       0.44984632       0.11440957 </v>
    <v>       0.00338182       0.08616065       0.15510911 </v>
    <v>       0.18549584       0.17721766       0.03301050 </v>
    <v>       0.63915379       0.90404664       0.39930633 </v>
    <v>       0.82126781       0.99510365       0.27720772 </v>
    <v>       0.09389647       0.63141797       0.31790726 </v>
    <v>       0.27601049       0.72247498       0.19580864 </v>
    <v>       0.45812450       0.81353199       0.07371003 </v>
    <v>       0.91178246       0.54036097       0.44000587 </v>
    <v>       0.12675994       0.47963471       0.07446623 </v>
    <v>       0.58041790       0.20646369       0.44076206 </v>
    <v>       0.76253191       0.29752070       0.31866345 </v>
    <v>       0.94464593       0.38857770       0.19656484 </v>
    <v>       0.21727459       0.02489203       0.23726438 </v>
    <v>       0.39938860       0.11594904       0.11516577 </v>
    <v>       0.03516057       0.93383503       0.35936299 </v>
    <v>       0.85304656       0.84277802       0.48146160 </v>
    <v>       0.30778923       0.57014936       0.40006253 </v>
    <v>       0.48990325       0.66120636       0.27796392 </v>
    <v>       0.67201726       0.75226337       0.15586531 </v>
    <v>       0.85413128       0.84332038       0.03376670 </v>
    <v>       0.54863915       0.02235931       0.23650818 </v>
    <v>       0.73075316       0.11341632       0.11440957 </v>
    <v>       0.18441112       0.84024530       0.48070540 </v>
    <v>       0.36652513       0.93130231       0.35860679 </v>
    <v>       0.00338182       0.74973065       0.15510911 </v>
    <v>       0.18549584       0.84078766       0.03301050 </v>
    <v>       0.63915379       0.56761664       0.39930633 </v>
    <v>       0.82126781       0.65867365       0.27720772 </v>
    <v>       0.09389647       0.29498797       0.31790726 </v>
    <v>       0.27601049       0.38604498       0.19580864 </v>
    <v>       0.45812450       0.47710199       0.07371003 </v>
    <v>       0.91178246       0.20393097       0.44000587 </v>
   </varray>
  </structure>
  <varray name="forces" >
   <v>      -0.28668097       0.04547149       0.12196458 </v>
   <v>       0.31564375       0.30948408      -0.06954290 </v>
   <v>       0.44815274       0.85853224       0.84539790 </v>
   <v>      -0.30049042       0.15567291      -1.13205447 </v>
   <v>       0.02230299       0.15485593      -0.08093617 </v>
   <v>      -0.01791496       0.03610444      -0.32719748 </v>
   <v>      -1.22197425      -0.32011248       1.65742461 </v>
   <v>       0.65174522       0.85933419      -1.82538258 </v>
   <v>       0.00194210      -0.23060416       0.31369483 </v>
   <v>      -0.31370011      -0.76782457      -0.41528323 </v>
   <v>      -0.09333902      -0.09946257       0.05792306 </v>
   <v>       0.15311608       0.22201799       0.05687716 </v>
   <v>       0.76613874       0.35600782       0.82589404 </v>
   <v>      -0.25580521      -0.03101271       0.18813082 </v>
   <v>       0.14690790       0.02385248       0.11474246 </v>
   <v>       0.29299121       0.20053615      -0.29298128 </v>
   <v>      -0.36940481       0.22193928       2.13779362 </v>
   <v>       0.00256344      -0.21246193      -0.71279415 </v>
   <v>       0.44135669      -0.00751151      -0.67033071 </v>
   <v>      -0.07643173      -0.01777254       0.17723386 </v>
   <v>       0.31695112      -0.10687882       0.08964768 </v>
   <v>       0.00064175       0.03688697       0.16767850 </v>
   <v>      -0.33388103       0.12648044      -0.54232919 </v>
   <v>      -0.28152278       0.17426513       2.15141407 </v>
   <v>      -0.04792792      -0.03010611       0.61468493 </v>
   <v>      -0.29372133      -0.14828966      -1.08232086 </v>
   <v>      -0.29267386      -0.11566393       0.13460268 </v>
   <v>       0.33862409      -0.20473380      -0.11939651 </v>
   <v>      -0.03712723      -0.02071808       0.13915356 </v>
   <v>       0.08249927       0.01997491      -0.36757682 </v>
   <v>      -1.11940803       0.14826103       1.52359957 </v>
   <v>       0.65189200      -0.85288434      -1.81102643 </v>
   <v>      -0.01878064       0.22310251       0.35896254 </v>
   <v>      -0.26757755       0.75531407      -0.38855029 </v>
   <v>      -0.08150298       0.04047817       0.04265827 </v>
   <v>       0.21510172      -0.22294623      -0.18964880 </v>
   <v>       1.04370079       0.43351653       0.00723099 </v>
   <v>       0.06364561      -0.18602927      -0.01719952 </v>
   <v>      -0.08674349      -0.10950013      -0.11521455 </v>
   <v>       0.00349905      -0.62196355      -1.21131340 </v>
   <v>      -0.02682091       0.00675618      -0.30576286 </v>
   <v>       0.23920653      -0.31318462       0.54105015 </v>
   <v>      -0.37233229      -0.11775505       0.90668710 </v>
   <v>      -0.07056617      -0.10672524      -0.07685306 </v>
   <v>       0.07490924      -0.23755792      -0.26143751 </v>
   <v>      -0.11442951      -0.11824084       0.02181767 </v>
   <v>       0.02738803      -0.47376987      -1.48974663 </v>
   <v>       0.75716260      -0.22567214      -0.12554762 </v>
   <v>      -0.48560283      -0.92212298      -0.52197942 </v>
   <v>      -0.80097110       0.02790199       1.43063070 </v>
   <v>       0.04116223       0.11090369       0.05611466 </v>
   <v>      -0.33230001      -0.20712620      -0.29593889 </v>
   <v>       0.02815777      -0.02415393      -0.22326331 </v>
   <v>       0.46461257      -0.06857857      -1.06373496 </v>
   <v>       0.03981456      -0.01277074       0.11076990 </v>
   <v>      -1.23677155       0.00751042       1.21408911 </v>
   <v>      -0.06403490       0.02911911       1.63952553 </v>
   <v>      -0.11780003       0.10036436      -0.05658913 </v>
   <v>      -0.10225718      -0.16557932      -0.45709624 </v>
   <v>      -0.92813586      -0.65237762       0.00580607 </v>
   <v>       0.05810659       0.05218384      -0.22035827 </v>
   <v>       0.43422092       0.51944795      -0.78158420 </v>
   <v>       1.03145258      -0.43580405       0.01580316 </v>
   <v>       0.03512383       0.24178152      -0.01992833 </v>
   <v>      -0.12271506       0.29698688       0.23874967 </v>
   <v>       0.28589811       0.33978233       0.67592782 </v>
   <v>      -0.36112353       0.12775943       0.89586461 </v>
   <v>      -0.03856109       0.11550728      -0.11681672 </v>
   <v>       0.03471894       0.32800100      -0.23793746 </v>
   <v>       0.07447881       0.09432284      -0.21551310 </v>
   <v>       0.59617153       0.35461808      -1.51482560 </v>
   <v>       0.78902925       0.23285984      -0.12355324 </v>
  </varray>
  <varray name="stress" >
   <v>     -28.70279011      -3.09564752      11.35960523 </v>
   <v>      -3.09564754     -20.99087331       1.81808854 </v>
   <v>      11.35960504       1.81808858     -22.63747819 </v>
  </varray>
  <energy>
   <i name="e_fr_energy">   -351.88852623 </i>
   <i name="e_wo_entrp">   -350.72024028 </i>
   <i name="e_0_energy">   -351.30438325 </i>
  </energy>
  <time name="totalsc">   91.38   91.69</time>
  <eigenvalues>
   <array>
    <dimension dim="1">band</dimension>
    <dimension dim="2">kpoint</dimension>
    <dimension dim="3">spin</dimension>
    <field>eigene</field>
    <field>occ</field>
    <set>
     <set comment="spin 1">
      <set comment="kpoint 1">
       <r>  -62.9692    1.0000 </r>
       <r>  -62.9426    1.0000 </r>
       <r>  -62.9354    1.0000 </r>
       <r>  -62.9330    1.0000 </r>
       <r>  -62.9251    1.0000 </r>
       <r>  -62.9186    1.0000 </r>
       <r>  -62.9124    1.0000 </r>
       <r>  -62.9117    1.0000 </r>
       <r>  -62.9011    1.0000 </r>
       <r>  -62.9004    1.0000 </r>
       <r>  -62.8927    1.0000 </r>
       <r>  -62.8911    1.0000 </r>
       <r>  -62.8834    1.0000 </r>
       <r>  -62.8827    1.0000 </r>
       <r>  -62.8824    1.0000 </r>
       <r>  -62.8767    1.0000 </r>
       <r>  -62.8760    1.0000 </r>
       <r>  -62.8730    1.0000 </r>
       <r>  -62.8724    1.0000 </r>
       <r>  -62.8709    1.0000 </r>
       <r>  -62.8705    1.0000 </r>
       <r>  -62.8665    1.0000 </r>
       <r>  -62.8657    1.0000 </r>
       <r>  -62.8652    1.0000 </r>
       <r>  -62.8621    1.0000 </r>
       <r>  -62.8554    1.0000 </r>
       <r>  -62.8529    1.0000 </r>
       <r>  -62.8503    1.0000 </r>
       <r>  -62.8494    1.0000 </r>
       <r>  -62.8484    1.0000 </r>
       <r>  -62.8453    1.0000 </r>
       <r>  -62.8401    1.0000 </r>
       <r>  -62.8385    1.0000 </r>
       <r>  -62.8322    1.0000 </r>
       <r>  -62.8319    1.0000 </r>
       <r>  -62.8263    1.0000 </r>
       <r>  -62.8254    1.0000 </r>
       <r>  -62.8240    1.0000 </r>
       <r>  -62.8179    1.0000 </r>
       <r>  -62.8136    1.0000 </r>
       <r>  -62.8111    1.0000 </r>
       <r>  -62.8108    1.0000 </r>
       <r>  -62.8074    1.0000 </r>
       <r>  -62.7876    1.0000 </r>
       <r>  -62.7794    1.0000 </r>
       <r>  -62.7664    1.0000 </r>
       <r>  -62.7660    1.0000 </r>
       <r>  -62.7644    1.0000 </r>
       <r>  -62.7544    1.0000 </r>
       <r>  -62.7440    1.0000 </r>
       <r>  -62.7352    1.0000 </r>
       <r>  -62.7152    1.0000 </r>
       <r>  -62.7109    1.0000 </r>
       <r>  -62.7090    1.0000 </r>
       <r>  -62.7029    1.0000 </r>
       <r>  -62.6771    1.0000 </r>
       <r>  -62.6699    1.0000 </r>
       <r>  -62.6661    1.0000 </r>
       <r>  -62.6635    1.0000 </r>
       <r>  -62.6607    1.0000 </r>
       <r>  -62.6592    1.0000 </r>
       <r>  -62.6534    1.0000 </r>
       <r>  -62.6473    1.0000 </r>
       <r>  -62.6325    1.0000 </r>
       <r>  -62.6240    1.0000 </r>
       <r>  -62.6155    1.0000 </r>
       <r>  -62.6122    1.0000 </r>
       <r>  -62.5835    1.0000 </r>
       <r>  -62.5747    1.0000 </r>
       <r>  -62.5579    1.0000 </r>
       <r>  -62.5566    1.0000 </r>
       <r>  -62.5001    1.0000 </r>
       <r>  -62.4729    1.0000 </r>
       <r>  -62.4658    1.0000 </r>
       <r>  -62.4474    1.0000 </r>
       <r>  -62.4287    1.0000 </r>
       <r>  -62.3960    1.0000 </r>
       <r>  -62.3882    1.0000 </r>
       <r>  -62.3733    1.0000 </r>
       <r>  -62.3046    1.0000 </r>
       <r>  -62.2680    1.0000 </r>
       <r>  -62.2220    1.0000 </r>
       <r>  -62.2197    1.0000 </r>
       <r>  -62.2100    1.0000 </r>
       <r>  -62.1722    1.0000 </r>
       <r>  -62.1311    1.0000 </r>
       <r>  -62.1291    1.0000 </r>
       <r>  -62.1050    1.0000 </r>
       <r>  -62.0433    1.0000 </r>
       <r>  -62.0088    1.0000 </r>
       <r>  -61.9234    1.0000 </r>
       <r>  -61.9211    1.0000 </r>
       <r>  -61.9165    1.0000 </r>
       <r>  -61.8983    1.0000 </r>
       <r>  -61.8857    1.0000 </r>
       <r>  -61.8540    1.0000 </r>
       <r>  -61.7846    1.0000 </r>
       <r>  -61.7644    1.0000 </r>
       <r>  -61.7514    1.0000 </r>
       <r>  -61.7198    1.0000 </r>
       <r>  -61.7042    1.0000 </r>
       <r>  -61.6923    1.0000 </r>
       <r>  -61.5891    1.0000 </r>
       <r>  -61.5828    1.0000 </r>
       <r>  -61.5335    1.0000 </r>
       <r>  -61.4908    1.0000 </r>
       <r>  -61.4514    1.0000 </r>
       <r>  -61.3977    1.0000 </r>
       <r>  -14.1711    1.0000 </r>
       <r>  -13.5142    1.0000 </r>
       <r>  -13.4141    1.0000 </r>
       <r>  -13.3726    1.0000 </r>
       <r>  -13.2437    1.0000 </r>
       <r>  -13.1271    1.0000 </r>
       <r>  -13.0132    1.0000 </r>
       <r>  -12.9492    1.0000 </r>
       <r>  -12.8313    1.0000 </r>
       <r>  -12.7898    1.0000 </r>
       <r>  -12.7089    1.0000 </r>
       <r>  -12.6694    1.0000 </r>
       <r>  -12.5298    1.0000 </r>
       <r>  -12.4849    1.0000 </r>
       <r>  -12.4175    1.0000 </r>
       <r>  -12.3777    1.0000 </r>
       <r>  -12.3086    1.0000 </r>
       <r>  -12.2767    1.0000 </r>
       <r>  -12.1888    1.0000 </r>
       <r>  -12.1566    1.0000 </r>
       <r>  -12.1204    1.0000 </r>
       <r>  -11.9949    1.0000 </r>
       <r>  -11.9468    1.0000 </r>
       <r>  -11.8838    1.0000 </r>
       <r>  -11.8426    1.0000 </r>
       <r>  -11.7151    1.0000 </r>
       <r>  -11.6907    1.0000 </r>
       <r>  -11.5935    1.0000 </r>
       <r>  -11.5742    1.0000 </r>
       <r>  -11.4705    1.0000 </r>
       <r>  -11.3863    1.0000 </r>
       <r>  -11.3701    1.0000 </r>
       <r>  -11.1065    1.0000 </r>
       <r>  -11.0158    1.0000 </r>
       <r>  -10.6505    1.0000 </r>
       <r>  -10.3926    1.0000 </r>
       <r>   -6.0895    1.0000 </r>
       <r>   -6.0350    1.0000 </r>
       <r>   -5.6317    1.0000 </r>
       <r>   -5.5702    1.0000 </r>
       <r>   -5.5416    1.0000 </r>
       <r>   -5.3701    1.0000 </r>
       <r>   -5.3177    1.0000 </r>
       <r>   -5.2799    1.0000 </r>
       <r>   -5.2249    1.0000 </r>
       <r>   -5.1622    1.0000 </r>
       <r>   -5.1415    1.0000 </r>
       <r>   -5.1190    1.0000 </r>
       <r>   -5.0388    1.0000 </r>
       <r>   -4.9613    1.0000 </r>
       <r>   -4.9418    1.0000 </r>
       <r>   -4.9332    1.0000 </r>
       <r>   -4.9123    1.0000 </r>
       <r>   -4.8802    1.0000 </r>
       <r>   -4.8539    1.0000 </r>
       <r>   -4.7549    1.0000 </r>
       <r>   -4.7183    1.0000 </r>
       <r>   -4.6764    1.0000 </r>
       <r>   -4.5811    1.0000 </r>
       <r>   -4.5605    1.0000 </r>
       <r>   -4.4871    1.0000 </r>
       <r>   -4.4606    1.0000 </r>
       <r>   -4.3899    1.0000 </r>
       <r>   -4.3579    1.0000 </r>
       <r>   -4.3438    1.0000 </r>
       <r>   -4.3193    1.0000 </r>
       <r>   -4.2334    1.0000 </r>
       <r>   -4.1756    1.0000 </r>
       <r>   -4.1516    1.0000 </r>
       <r>   -4.0217    1.0000 </r>
       <r>   -3.9708    1.0000 </r>
       <r>   -3.9584    1.0000 </r>
       <r>   -3.8634    1.0000 </r>
       <r>   -3.7762    1.0000 </r>
       <r>   -3.7324    1.0000 </r>
       <r>   -3.7071    1.0000 </r>
       <r>   -3.6521    1.0000 </r>
       <r>   -3.6316    1.0000 </r>
       <r>   -3.6107    1.0000 </r>
       <r>   -3.5934    1.0000 </r>
       <r>   -3.5454    1.0000 </r>
       <r>   -3.4701    1.0000 </r>
       <r>   -3.4230    1.0000 </r>
       <r>   -3.4059    1.0000 </r>
       <r>   -3.3926    1.0000 </r>
       <r>   -3.3783    1.0000 </r>
       <r>   -3.3667    1.0000 </r>
       <r>   -3.3403    1.0000 </r>
       <r>   -3.2779    1.0000 </r>
       <r>   -3.2717    1.0000 </r>
       <r>   -3.2522    1.0000 </r>
       <r>   -3.1869    1.0000 </r>
       <r>   -3.1347    1.0000 </r>
       <r>   -3.1151    1.0000 </r>
       <r>   -3.1071    1.0000 </r>
       <r>   -3.0795    1.0000 </r>
       <r>   -3.0140    1.0000 </r>
       <r>   -2.9992    1.0000 </r>
       <r>   -2.9619    1.0000 </r>
       <r>   -2.9135    1.0000 </r>
       <r>   -2.8955    1.0000 </r>
       <r>   -2.8785    1.0000 </r>
       <r>   -2.8547    1.0000 </r>
       <r>   -2.8455    1.0000 </r>
       <r>   -2.8158    1.0000 </r>
       <r>   -2.7634    1.0000 </r>
       <r>   -2.7307    1.0000 </r>
       <r>   -2.7180    1.0000 </r>
       <r>   -2.7039    1.0000 </r>
       <r>   -2.6982    1.0000 </r>
       <r>   -2.6562    1.0000 </r>
       <r>   -2.6270    1.0000 </r>
       <r>   -2.5973    1.0000 </r>
       <r>   -2.5717    1.0000 </r>
       <r>   -2.5170    1.0000 </r>
       <r>   -2.4510    1.0000 </r>
       <r>   -2.4306    1.0000 </r>
       <r>   -2.4110    1.0000 </r>
       <r>   -2.3770    1.0000 </r>
       <r>   -2.3595    1.0000 </r>
       <r>   -2.3061    1.0000 </r>
       <r>   -2.2828    1.0000 </r>
       <r>   -2.2437    1.0000 </r>
       <r>   -2.2387    1.0000 </r>
       <r>   -2.2131    1.0000 </r>
       <r>   -2.1754    1.0000 </r>
       <r>   -2.0958    1.0000 </r>
       <r>   -2.0651    1.0000 </r>
       <r>   -2.0234    1.0000 </r>
       <r>   -1.9522    1.0000 </r>
       <r>   -1.9440    1.0000 </r>
       <r>   -1.9061    1.0000 </r>
       <r>   -1.8719    1.0000 </r>
       <r>   -1.8526    1.0000 </r>
       <r>   -1.8085    1.0000 </r>
       <r>   -1.7639    1.0000 </r>
       <r>   -1.7152    1.0000 </r>
       <r>   -1.6902    1.0000 </r>
       <r>   -1.6510    1.0000 </r>
       <r>   -1.6029    1.0000 </r>
       <r>   -1.5870    1.0000 </r>
       <r>   -1.5577    1.0000 </r>
       <r>   -1.5023    1.0000 </r>
       <r>   -1.4798    1.0000 </r>
       <r>   -1.4394    1.0000 </r>
       <r>   -1.4105    1.0000 </r>
       <r>   -1.3440    1.0000 </r>
       <r>   -1.3314    1.0000 </r>
       <r>   -1.2657    1.0000 </r>
       <r>   -1.2330    1.0000 </r>
       <r>   -1.2207    1.0000 </r>
       <r>   -1.2154    1.0000 </r>
       <r>   -1.1884    1.0000 </r>
       <r>   -1.1499    1.0000 </r>
       <r>   -1.1228    1.0000 </r>
       <r>   -1.1155    1.0000 </r>
       <r>   -1.0990    1.0000 </r>
       <r>   -1.0789    1.0000 </r>
       <r>   -1.0508    1.0000 </r>
       <r>   -1.0370    1.0000 </r>
       <r>   -1.0137    1.0000 </r>
       <r>   -0.9981    1.0000 </r>
       <r>   -0.9755    1.0000 </r>
       <r>   -0.9689    1.0000 </r>
       <r>   -0.9577    1.0000 </r>
       <r>   -0.9121    1.0000 </r>
       <r>   -0.9006    1.0000 </r>
       <r>   -0.8904    1.0000 </r>
       <r>   -0.8791    1.0000 </r>
       <r>   -0.8353    1.0000 </r>
       <r>   -0.8310    1.0000 </r>
       <r>   -0.7868    1.0000 </r>
       <r>   -0.7680    1.0000 </r>
       <r>   -0.7548    1.0000 </r>
       <r>   -0.7369    1.0000 </r>
       <r>   -0.7263    1.0000 </r>
       <r>   -0.7135    1.0000 </r>
       <r>   -0.7013    1.0000 </r>
       <r>   -0.6857    1.0000 </r>
       <r>   -0.6741    1.0000 </r>
       <r>   -0.6622    1.0000 </r>
       <r>   -0.6384    1.0000 </r>
       <r>   -0.6332    1.0000 </r>
       <r>   -0.6200    1.0000 </r>
       <r>   -0.6137    1.0000 </r>
       <r>   -0.6029    1.0000 </r>
       <r>   -0.5959    1.0000 </r>
       <r>   -0.5936    1.0000 </r>
       <r>   -0.5639    1.0000 </r>
       <r>   -0.5593    1.0000 </r>
       <r>   -0.5443    1.0000 </r>
       <r>   -0.5360    1.0000 </r>
       <r>   -0.5263    1.0000 </r>
       <r>   -0.5133    1.0000 </r>
       <r>   -0.5058    1.0000 </r>
       <r>   -0.4884    1.0000 </r>
       <r>   -0.4781    1.0000 </r>
       <r>   -0.4686    1.0000 </r>
       <r>   -0.4605    1.0000 </r>
       <r>   -0.4409    1.0000 </r>
       <r>   -0.4324    1.0000 </r>
       <r>   -0.4211    1.0000 </r>
       <r>   -0.4145    1.0000 </r>
       <r>   -0.4056    1.0000 </r>
       <r>   -0.4055    1.0000 </r>
       <r>   -0.3942    1.0000 </r>
       <r>   -0.3863    1.0000 </r>
       <r>   -0.3664    1.0000 </r>
       <r>   -0.3542    1.0000 </r>
       <r>   -0.3471    1.0000 </r>
       <r>   -0.3400    1.0000 </r>
       <r>   -0.3193    1.0000 </r>
       <r>   -0.3143    1.0000 </r>
       <r>   -0.3007    1.0000 </r>
       <r>   -0.2860    1.0000 </r>
       <r>   -0.2794    1.0000 </r>
       <r>   -0.2663    1.0000 </r>
       <r>   -0.2626    1.0000 </r>
       <r>   -0.2452    1.0000 </r>
       <r>   -0.2234    1.0000 </r>
       <r>   -0.1968    1.0000 </r>
       <r>   -0.1929    1.0000 </r>
       <r>   -0.1739    1.0000 </r>
       <r>   -0.1649    1.0000 </r>
       <r>   -0.1612    1.0000 </r>
       <r>   -0.1391    1.0000 </r>
       <r>   -0.1208    1.0000 </r>
       <r>   -0.1123    1.0000 </r>
       <r>   -0.1093    1.0000 </r>
       <r>   -0.0767    1.0000 </r>
       <r>   -0.0727    1.0000 </r>
       <r>   -0.0411    1.0000 </r>
       <r>   -0.0271    1.0000 </r>
       <r>   -0.0219    1.0000 </r>
       <r>   -0.0129    1.0000 </r>
       <r>    0.0106    1.0000 </r>
       <r>    0.0283    1.0000 </r>
       <r>    0.0432    1.0000 </r>
       <r>    0.0582    1.0000 </r>
       <r>    0.0688    1.0000 </r>
       <r>    0.0888    1.0000 </r>
       <r>    0.1174    1.0000 </r>
       <r>    0.1542    1.0000 </r>
       <r>    0.1860    1.0000 </r>
       <r>    0.2046    1.0000 </r>
       <r>    0.2237    1.0000 </r>
       <r>    0.2284    1.0000 </r>
       <r>    0.2578    1.0000 </r>
       <r>    0.2817    1.0000 </r>
       <r>    0.2860    1.0000 </r>
       <r>    0.3110    1.0000 </r>
       <r>    0.3158    1.0000 </r>
       <r>    0.3515    1.0000 </r>
       <r>    0.3644    1.0000 </r>
       <r>    0.3876    1.0000 </r>
       <r>    0.3969    1.0000 </r>
       <r>    0.4253    1.0000 </r>
       <r>    0.4470    1.0000 </r>
       <r>    0.4509    1.0000 </r>
       <r>    0.4807    1.0000 </r>
       <r>    0.4864    1.0000 </r>
       <r>    0.5110    1.0000 </r>
       <r>    0.5251    1.0000 </r>
       <r>    0.5458    1.0000 </r>
       <r>    0.5471    1.0000 </r>
       <r>    0.5689    1.0000 </r>
       <r>    0.5755    1.0000 </r>
       <r>    0.6028    1.0000 </r>
       <r>    0.6154    1.0000 </r>
       <r>    0.6419    1.0000 </r>
       <r>    0.6579    1.0000 </r>
       <r>    0.6726    1.0000 </r>
       <r>    0.6801    0.9999 </r>
       <r>    0.6996    0.9999 </r>
       <r>    0.7476    0.9996 </r>
       <r>    0.7701    0.9993 </r>
       <r>    0.8081    0.9983 </r>
       <r>    0.8561    0.9953 </r>
       <r>    0.8807    0.9923 </r>
       <r>    0.9005    0.9887 </r>
       <r>    0.9304    0.9807 </r>
       <r>    0.9772    0.9589 </r>
       <r>    1.0416    0.9002 </r>
       <r>    1.0771    0.8489 </r>
       <r>    1.1106    0.7867 </r>
       <r>    1.1414    0.7180 </r>
       <r>    1.1819    0.6143 </r>
       <r>    1.2185    0.5128 </r>
       <r>    1.2567    0.4060 </r>
       <r>    1.2708    0.3677 </r>
       <r>    1.2832    0.3352 </r>
       <r>    1.3054    0.2801 </r>
       <r>    1.3889    0.1205 </r>
       <r>    1.4393    0.0631 </r>
       <r>    1.4635    0.0445 </r>
       <r>    1.4832    0.0329 </r>
       <r>    1.5095    0.0214 </r>
       <r>    1.5148    0.0196 </r>
       <r>    1.5632    0.0081 </r>
       <r>    1.5972    0.0041 </r>
       <r>    1.6474    0.0013 </r>
       <r>    1.6718    0.0008 </r>
       <r>    1.6884    0.0005 </r>
       <r>    1.7089    0.0003 </r>
       <r>    1.7349    0.0001 </r>
       <r>    1.7997    0.0000 </r>
       <r>    1.8332    0.0000 </r>
       <r>    1.8472    0.0000 </r>
       <r>    1.8726    0.0000 </r>
       <r>    1.8871    0.0000 </r>
       <r>    1.8987    0.0000 </r>
       <r>    1.9282    0.0000 </r>
       <r>    1.9436    0.0000 </r>
       <r>    2.0692    0.0000 </r>
       <r>    2.1009    0.0000 </r>
       <r>    2.1413    0.0000 </r>
       <r>    2.1761    0.0000 </r>
       <r>    2.2161    0.0000 </r>
       <r>    2.2309    0.0000 </r>
       <r>    2.2639    0.0000 </r>
       <r>    2.3042    0.0000 </r>
       <r>    2.3502    0.0000 </r>
       <r>    2.4272    0.0000 </r>
       <r>    2.4482    0.0000 </r>
       <r>    2.4878    0.0000 </r>
       <r>    2.6223    0.0000 </r>
       <r>    3.1395    0.0000 </r>
       <r>    3.3849    0.0000 </r>
       <r>    3.4171    0.0000 </r>
       <r>    3.9719    0.0000 </r>
       <r>    4.2822    0.0000 </r>
       <r>    4.4767    0.0000 </r>
       <r>    4.5865    0.0000 </r>
       <r>    4.6195    0.0000 </r>
       <r>    4.8110    0.0000 </r>
       <r>    4.8178    0.0000 </r>
       <r>    4.9873    0.0000 </r>
       <r>    5.0568    0.0000 </r>
       <r>    5.1937    0.0000 </r>
       <r>    5.3211    0.0000 </r>
       <r>    5.3610    0.0000 </r>
       <r>    5.5278    0.0000 </r>
       <r>    5.6899    0.0000 </r>
       <r>    5.7328    0.0000 </r>
       <r>    5.8714    0.0000 </r>
       <r>    5.9947    0.0000 </r>
       <r>    6.0145    0.0000 </r>
       <r>    6.0781    0.0000 </r>
       <r>    6.1335    0.0000 </r>
       <r>    6.1987    0.0000 </r>
       <r>    6.2322    0.0000 </r>
       <r>    6.2921    0.0000 </r>
       <r>    6.3576    0.0000 </r>
       <r>    6.4114    0.0000 </r>
       <r>    6.4746    0.0000 </r>
       <r>    6.4993    0.0000 </r>
       <r>    6.5846    0.0000 </r>
       <r>    6.6371    0.0000 </r>
       <r>    6.7303    0.0000 </r>
       <r>    6.8119    0.0000 </r>
       <r>    6.8575    0.0000 </r>
       <r>    6.8824    0.0000 </r>
       <r>    6.9129    0.0000 </r>
       <r>    6.9285    0.0000 </r>
       <r>    6.9635    0.0000 </r>
       <r>    7.0609    0.0000 </r>
       <r>    7.1307    0.0000 </r>
       <r>    7.1549    0.0000 </r>
       <r>    7.1704    0.0000 </r>
       <r>    7.2034    0.0000 </r>
       <r>    7.2104    0.0000 </r>
       <r>    7.2798    0.0000 </r>
      </set>
     </set>
    </set>
   </array>
  </eigenvalues>
  <separator name="orbital magnetization" >
   <v name="MAGDIPOLOUT">      0.00000000      0.00000000      0.00000000</v>
  </separator>
  <dos>
   <i name="efermi">      1.22301645 </i>
   <total>
    <array>
     <dimension dim="1">gridpoints</dimension>
     <dimension dim="2">spin</dimension>
     <field>energy</field>
     <field>total</field>
     <field>integrated</field>
     <set>
      <set comment="spin 1">
       <r>   -66.4817     0.0000     0.0000 </r>
       <r>   -66.2241     0.0000     0.0000 </r>
       <r>   -65.9665     0.0000     0.0000 </r>
       <r>   -65.7089     0.0000     0.0000 </r>
       <r>   -65.4514     0.0000     0.0000 </r>
       <r>   -65.1938     0.0000     0.0000 </r>
       <r>   -64.9362     0.0000     0.0000 </r>
       <r>   -64.6786     0.0000     0.0000 </r>
       <r>   -64.4210     0.0000     0.0000 </r>
       <r>   -64.1635     0.0000     0.0000 </r>
       <r>   -63.9059     0.0000     0.0000 </r>
       <r>   -63.6483     0.0000     0.0000 </r>
       <r>   -63.3907     0.0661     0.0170 </r>
       <r>   -63.1331    12.3477     3.1975 </r>
       <r>   -62.8756   170.9949    47.2424 </r>
       <r>   -62.6180   284.0168   120.3993 </r>
       <r>   -62.3604   132.3369   154.4866 </r>
       <r>   -62.1028    71.9884   173.0294 </r>
       <r>   -61.8452    66.1246   190.0617 </r>
       <r>   -61.5877    60.5748   205.6646 </r>
       <r>   -61.3301    33.9066   214.3982 </r>
       <r>   -61.0725     6.0878   215.9663 </r>
       <r>   -60.8149     0.1305   216.0000 </r>
       <r>   -60.5574     0.0002   216.0000 </r>
       <r>   -60.2998     0.0000   216.0000 </r>
       <r>   -60.0422     0.0000   216.0000 </r>
       <r>   -59.7846     0.0000   216.0000 </r>
       <r>   -59.5270     0.0000   216.0000 </r>
       <r>   -59.2695     0.0000   216.0000 </r>
       <r>   -59.0119     0.0000   216.0000 </r>
       <r>   -58.7543     0.0000   216.0000 </r>
       <r>   -58.4967     0.0000   216.0000 </r>
       <r>   -58.2391     0.0000   216.0000 </r>
       <r>   -57.9816     0.0000   216.0000 </r>
       <r>   -57.7240     0.0000   216.0000 </r>
       <r>   -57.4664     0.0000   216.0000 </r>
       <r>   -57.2088     0.0000   216.0000 </r>
       <r>   -56.9512     0.0000   216.0000 </r>
       <r>   -56.6937     0.0000   216.0000 </r>
       <r>   -56.4361     0.0000   216.0000 </r>
       <r>   -56.1785     0.0000   216.0000 </r>
       <r>   -55.9209     0.0000   216.0000 </r>
       <r>   -55.6633     0.0000   216.0000 </r>
       <r>   -55.4058     0.0000   216.0000 </r>
       <r>   -55.1482     0.0000   216.0000 </r>
       <r>   -54.8906     0.0000   216.0000 </r>
       <r>   -54.6330     0.0000   216.0000 </r>
       <r>   -54.3754     0.0000   216.0000 </r>
       <r>   -54.1179     0.0000   216.0000 </r>
       <r>   -53.8603     0.0000   216.0000 </r>
       <r>   -53.6027     0.0000   216.0000 </r>
       <r>   -53.3451     0.0000   216.0000 </r>
       <r>   -53.0875     0.0000   216.0000 </r>
       <r>   -52.8300     0.0000   216.0000 </r>
       <r>   -52.5724     0.0000   216.0000 </r>
       <r>   -52.3148     0.0000   216.0000 </r>
       <r>   -52.0572     0.0000   216.0000 </r>
       <r>   -51.7996     0.0000   216.0000 </r>
       <r>   -51.5421     0.0000   216.0000 </r>
       <r>   -51.2845     0.0000   216.0000 </r>
       <r>   -51.0269     0.0000   216.0000 </r>
       <r>   -50.7693     0.0000   216.0000 </r>
       <r>   -50.5117     0.0000   216.0000 </r>
       <r>   -50.2542     0.0000   216.0000 </r>
       <r>   -49.9966     0.0000   216.0000 </r>
       <r>   -49.7390     0.0000   216.0000 </r>
       <r>   -49.4814     0.0000   216.0000 </r>
       <r>   -49.2238     0.0000   216.0000 </r>
       <r>   -48.9663     0.0000   216.0000 </r>
       <r>   -48.7087     0.0000   216.0000 </r>
       <r>   -48.4511     0.0000   216.0000 </r>
       <r>   -48.1935     0.0000   216.0000 </r>
       <r>   -47.9359     0.0000   216.0000 </r>
       <r>   -47.6784     0.0000   216.0000 </r>
       <r>   -47.4208     0.0000   216.0000 </r>
       <r>   -47.1632     0.0000   216.0000 </r>
       <r>   -46.9056     0.0000   216.0000 </r>
       <r>   -46.6480     0.0000   216.0000 </r>
       <r>   -46.3905     0.0000   216.0000 </r>
       <r>   -46.1329     0.0000   216.0000 </r>
       <r>   -45.8753     0.0000   216.0000 </r>
       <r>   -45.6177     0.0000   216.0000 </r>
       <r>   -45.3601     0.0000   216.0000 </r>
       <r>   -45.1026     0.0000   216.0000 </r>
       <r>   -44.8450     0.0000   216.0000 </r>
       <r>   -44.5874     0.0000   216.0000 </r>
       <r>   -44.3298     0.0000   216.0000 </r>
       <r>   -44.0722     0.0000   216.0000 </r>
       <r>   -43.8147     0.0000   216.0000 </r>
       <r>   -43.5571     0.0000   216.0000 </r>
       <r>   -43.2995     0.0000   216.0000 </r>
       <r>   -43.0419     0.0000   216.0000 </r>
       <r>   -42.7843     0.0000   216.0000 </r>
       <r>   -42.5268     0.0000   216.0000 </r>
       <r>   -42.2692     0.0000   216.0000 </r>
       <r>   -42.0116     0.0000   216.0000 </r>
       <r>   -41.7540     0.0000   216.0000 </r>
       <r>   -41.4965     0.0000   216.0000 </r>
       <r>   -41.2389     0.0000   216.0000 </r>
       <r>   -40.9813     0.0000   216.0000 </r>
       <r>   -40.7237     0.0000   216.0000 </r>
       <r>   -40.4661     0.0000   216.0000 </r>
       <r>   -40.2086     0.0000   216.0000 </r>
       <r>   -39.9510     0.0000   216.0000 </r>
       <r>   -39.6934     0.0000   216.0000 </r>
       <r>   -39.4358     0.0000   216.0000 </r>
       <r>   -39.1782     0.0000   216.0000 </r>
       <r>   -38.9207     0.0000   216.0000 </r>
       <r>   -38.6631     0.0000   216.0000 </r>
       <r>   -38.4055     0.0000   216.0000 </r>
       <r>   -38.1479     0.0000   216.0000 </r>
       <r>   -37.8903     0.0000   216.0000 </r>
       <r>   -37.6328     0.0000   216.0000 </r>
       <r>   -37.3752     0.0000   216.0000 </r>
       <r>   -37.1176     0.0000   216.0000 </r>
       <r>   -36.8600     0.0000   216.0000 </r>
       <r>   -36.6024     0.0000   216.0000 </r>
       <r>   -36.3449     0.0000   216.0000 </r>
       <r>   -36.0873     0.0000   216.0000 </r>
       <r>   -35.8297     0.0000   216.0000 </r>
       <r>   -35.5721     0.0000   216.0000 </r>
       <r>   -35.3145     0.0000   216.0000 </r>
       <r>   -35.0570     0.0000   216.0000 </r>
       <r>   -34.7994     0.0000   216.0000 </r>
       <r>   -34.5418     0.0000   216.0000 </r>
       <r>   -34.2842     0.0000   216.0000 </r>
       <r>   -34.0266     0.0000   216.0000 </r>
       <r>   -33.7691     0.0000   216.0000 </r>
       <r>   -33.5115     0.0000   216.0000 </r>
       <r>   -33.2539     0.0000   216.0000 </r>
       <r>   -32.9963     0.0000   216.0000 </r>
       <r>   -32.7387     0.0000   216.0000 </r>
       <r>   -32.4812     0.0000   216.0000 </r>
       <r>   -32.2236     0.0000   216.0000 </r>
       <r>   -31.9660     0.0000   216.0000 </r>
       <r>   -31.7084     0.0000   216.0000 </r>
       <r>   -31.4508     0.0000   216.0000 </r>
       <r>   -31.1933     0.0000   216.0000 </r>
       <r>   -30.9357     0.0000   216.0000 </r>
       <r>   -30.6781     0.0000   216.0000 </r>
       <r>   -30.4205     0.0000   216.0000 </r>
       <r>   -30.1629     0.0000   216.0000 </r>
       <r>   -29.9054     0.0000   216.0000 </r>
       <r>   -29.6478     0.0000   216.0000 </r>
       <r>   -29.3902     0.0000   216.0000 </r>
       <r>   -29.1326     0.0000   216.0000 </r>
       <r>   -28.8750     0.0000   216.0000 </r>
       <r>   -28.6175     0.0000   216.0000 </r>
       <r>   -28.3599     0.0000   216.0000 </r>
       <r>   -28.1023     0.0000   216.0000 </r>
       <r>   -27.8447     0.0000   216.0000 </r>
       <r>   -27.5871     0.0000   216.0000 </r>
       <r>   -27.3296     0.0000   216.0000 </r>
       <r>   -27.0720     0.0000   216.0000 </r>
       <r>   -26.8144     0.0000   216.0000 </r>
       <r>   -26.5568     0.0000   216.0000 </r>
       <r>   -26.2992     0.0000   216.0000 </r>
       <r>   -26.0417     0.0000   216.0000 </r>
       <r>   -25.7841     0.0000   216.0000 </r>
       <r>   -25.5265     0.0000   216.0000 </r>
       <r>   -25.2689     0.0000   216.0000 </r>
       <r>   -25.0113     0.0000   216.0000 </r>
       <r>   -24.7538     0.0000   216.0000 </r>
       <r>   -24.4962     0.0000   216.0000 </r>
       <r>   -24.2386     0.0000   216.0000 </r>
       <r>   -23.9810     0.0000   216.0000 </r>
       <r>   -23.7234     0.0000   216.0000 </r>
       <r>   -23.4659     0.0000   216.0000 </r>
       <r>   -23.2083     0.0000   216.0000 </r>
       <r>   -22.9507     0.0000   216.0000 </r>
       <r>   -22.6931     0.0000   216.0000 </r>
       <r>   -22.4356     0.0000   216.0000 </r>
       <r>   -22.1780     0.0000   216.0000 </r>
       <r>   -21.9204     0.0000   216.0000 </r>
       <r>   -21.6628     0.0000   216.0000 </r>
       <r>   -21.4052     0.0000   216.0000 </r>
       <r>   -21.1477     0.0000   216.0000 </r>
       <r>   -20.8901     0.0000   216.0000 </r>
       <r>   -20.6325     0.0000   216.0000 </r>
       <r>   -20.3749     0.0000   216.0000 </r>
       <r>   -20.1173     0.0000   216.0000 </r>
       <r>   -19.8598     0.0000   216.0000 </r>
       <r>   -19.6022     0.0000   216.0000 </r>
       <r>   -19.3446     0.0000   216.0000 </r>
       <r>   -19.0870     0.0000   216.0000 </r>
       <r>   -18.8294     0.0000   216.0000 </r>
       <r>   -18.5719     0.0000   216.0000 </r>
       <r>   -18.3143     0.0000   216.0000 </r>
       <r>   -18.0567     0.0000   216.0000 </r>
       <r>   -17.7991     0.0000   216.0000 </r>
       <r>   -17.5415     0.0000   216.0000 </r>
       <r>   -17.2840     0.0000   216.0000 </r>
       <r>   -17.0264     0.0000   216.0000 </r>
       <r>   -16.7688     0.0000   216.0000 </r>
       <r>   -16.5112     0.0000   216.0000 </r>
       <r>   -16.2536     0.0000   216.0000 </r>
       <r>   -15.9961     0.0000   216.0000 </r>
       <r>   -15.7385     0.0000   216.0000 </r>
       <r>   -15.4809     0.0000   216.0000 </r>
       <r>   -15.2233     0.0000   216.0000 </r>
       <r>   -14.9657     0.0000   216.0000 </r>
       <r>   -14.7082     0.0006   216.0001 </r>
       <r>   -14.4506     0.1861   216.0481 </r>
       <r>   -14.1930     3.2168   216.8767 </r>
       <r>   -13.9354     4.0020   217.9075 </r>
       <r>   -13.6778     1.6873   218.3421 </r>
       <r>   -13.4203    12.0648   221.4498 </r>
       <r>   -13.1627    19.4487   226.4594 </r>
       <r>   -12.9051    21.3338   231.9545 </r>
       <r>   -12.6475    26.3805   238.7496 </r>
       <r>   -12.3899    30.0443   246.4884 </r>
       <r>   -12.1324    34.4402   255.3595 </r>
       <r>   -11.8748    30.5938   263.2399 </r>
       <r>   -11.6172    29.4304   270.8206 </r>
       <r>   -11.3596    26.3372   277.6045 </r>
       <r>   -11.1020    14.9516   281.4557 </r>
       <r>   -10.8445     9.4192   283.8819 </r>
       <r>   -10.5869     6.3370   285.5142 </r>
       <r>   -10.3293     7.0197   287.3223 </r>
       <r>   -10.0717     2.5405   287.9767 </r>
       <r>    -9.8141     0.0904   288.0000 </r>
       <r>    -9.5566     0.0002   288.0000 </r>
       <r>    -9.2990     0.0000   288.0000 </r>
       <r>    -9.0414     0.0000   288.0000 </r>
       <r>    -8.7838     0.0000   288.0000 </r>
       <r>    -8.5262     0.0000   288.0000 </r>
       <r>    -8.2687     0.0000   288.0000 </r>
       <r>    -8.0111     0.0000   288.0000 </r>
       <r>    -7.7535     0.0000   288.0000 </r>
       <r>    -7.4959     0.0000   288.0000 </r>
       <r>    -7.2383     0.0000   288.0000 </r>
       <r>    -6.9808     0.0000   288.0000 </r>
       <r>    -6.7232     0.0000   288.0000 </r>
       <r>    -6.4656     0.0394   288.0102 </r>
       <r>    -6.2080     2.3799   288.6232 </r>
       <r>    -5.9504     9.8487   291.1600 </r>
       <r>    -5.6929     8.5048   293.3507 </r>
       <r>    -5.4353    20.4789   298.6256 </r>
       <r>    -5.1777    34.1445   307.4205 </r>
       <r>    -4.9201    46.8809   319.4961 </r>
       <r>    -4.6625    44.1808   330.8762 </r>
       <r>    -4.4050    41.0132   341.4404 </r>
       <r>    -4.1474    40.2380   351.8049 </r>
       <r>    -3.8898    33.0906   360.3283 </r>
       <r>    -3.6322    43.6647   371.5755 </r>
       <r>    -3.3746    60.0275   387.0374 </r>
       <r>    -3.1171    64.3837   403.6213 </r>
       <r>    -2.8595    67.1440   420.9163 </r>
       <r>    -2.6019    71.5679   439.3507 </r>
       <r>    -2.3443    61.7315   455.2515 </r>
       <r>    -2.0868    56.7597   469.8716 </r>
       <r>    -1.8292    52.5392   483.4047 </r>
       <r>    -1.5716    54.8878   497.5427 </r>
       <r>    -1.3140    57.9387   512.4665 </r>
       <r>    -1.0564    82.0366   533.5975 </r>
       <r>    -0.7989   106.4166   561.0082 </r>
       <r>    -0.5413   147.6420   599.0378 </r>
       <r>    -0.2837   173.7081   643.7815 </r>
       <r>    -0.0261   143.8408   680.8320 </r>
       <r>     0.2315   110.2324   709.2256 </r>
       <r>     0.4890   108.6937   737.2229 </r>
       <r>     0.7466   100.4688   763.1016 </r>
       <r>     1.0042    64.4649   779.7065 </r>
       <r>     1.2618    56.5584   794.2748 </r>
       <r>     1.5194    60.6103   809.8868 </r>
       <r>     1.7769    65.7352   826.8188 </r>
       <r>     2.0345    60.4453   842.3883 </r>
       <r>     2.2921    50.0480   855.2797 </r>
       <r>     2.5497    36.7475   864.7451 </r>
       <r>     2.8073    11.7973   867.7838 </r>
       <r>     3.0648     3.2926   868.6319 </r>
       <r>     3.3224     9.0616   870.9660 </r>
       <r>     3.5800    10.1744   873.5867 </r>
       <r>     3.8376     2.9224   874.3395 </r>
       <r>     4.0952     5.7095   875.8102 </r>
       <r>     4.3527     8.1741   877.9156 </r>
       <r>     4.6103    15.9519   882.0245 </r>
       <r>     4.8679    19.5543   887.0613 </r>
       <r>     5.1255    18.7241   891.8842 </r>
       <r>     5.3831    18.3289   896.6054 </r>
       <r>     5.6406    16.5539   900.8693 </r>
       <r>     5.8982    20.0062   906.0225 </r>
       <r>     6.1558    30.4831   913.8744 </r>
       <r>     6.4134    35.8378   923.1054 </r>
       <r>     6.6710    33.2628   931.6733 </r>
       <r>     6.9285    38.9860   941.7153 </r>
       <r>     7.1861    44.4608   953.1675 </r>
       <r>     7.4437    24.3357   959.4359 </r>
       <r>     7.7013     2.1739   959.9958 </r>
       <r>     7.9589     0.0162   960.0000 </r>
       <r>     8.2164     0.0000   960.0000 </r>
       <r>     8.4740     0.0000   960.0000 </r>
       <r>     8.7316     0.0000   960.0000 </r>
       <r>     8.9892     0.0000   960.0000 </r>
       <r>     9.2468     0.0000   960.0000 </r>
       <r>     9.5043     0.0000   960.0000 </r>
       <r>     9.7619     0.0000   960.0000 </r>
       <r>    10.0195     0.0000   960.0000 </r>
       <r>    10.2771     0.0000   960.0000 </r>
       <r>    10.5347     0.0000   960.0000 </r>
       <r>    10.7922     0.0000   960.0000 </r>
      </set>
     </set>
    </array>
   </total>
  </dos>
 </calculation>
 <structure name="finalpos" >
  <crystal>
   <varray name="basis" >
    <v>      10.40335375      -4.78920500       0.00000000 </v>
    <v>       0.00000000       9.57841000       0.00000000 </v>
    <v>       0.00000000       0.00000000      20.50076286 </v>
   </varray>
   <i name="volume">   2042.85156262 </i>
   <varray name="rec_basis" >
    <v>       0.09612285       0.00000000       0.00000000 </v>
    <v>       0.04806142       0.10440146       0.00000000 </v>
    <v>       0.00000000       0.00000000       0.04877867 </v>
   </varray>
  </crystal>
  <varray name="positions" >
   <v>       0.58044680       0.07437514       0.34941513 </v>
   <v>       0.76256081       0.16543215       0.22731652 </v>
   <v>       0.94467483       0.25648915       0.10521791 </v>
   <v>       0.39833278       0.98331813       0.47151374 </v>
   <v>       0.03518947       0.80174648       0.26801605 </v>
   <v>       0.21730349       0.89280348       0.14591744 </v>
   <v>       0.39941750       0.98386049       0.02381883 </v>
   <v>       0.67096144       0.61963246       0.51221327 </v>
   <v>       0.85307546       0.71068947       0.39011466 </v>
   <v>       0.12570412       0.34700380       0.43081420 </v>
   <v>       0.30781813       0.43806081       0.30871559 </v>
   <v>       0.48993215       0.52911781       0.18661698 </v>
   <v>       0.67204616       0.62017482       0.06451837 </v>
   <v>       0.23035801       0.03143375       0.40699537 </v>
   <v>       0.41247203       0.12249075       0.28489676 </v>
   <v>       0.59458604       0.21354776       0.16279815 </v>
   <v>       0.77670006       0.30460477       0.04069954 </v>
   <v>       0.04932872       0.94091910       0.08139907 </v>
   <v>       0.50298667       0.66774808       0.44769490 </v>
   <v>       0.68510069       0.75880508       0.32559629 </v>
   <v>       0.86721470       0.84986209       0.20349768 </v>
   <v>       0.13984337       0.48617642       0.24419722 </v>
   <v>       0.32195738       0.57723343       0.12209861 </v>
   <v>       0.50407140       0.66829044       0.00000000 </v>
   <v>       0.95772935       0.39511942       0.36629583 </v>
   <v>       0.39833278       0.24752413       0.47151374 </v>
   <v>       0.58044680       0.33858114       0.34941513 </v>
   <v>       0.76256081       0.42963815       0.22731652 </v>
   <v>       0.03518947       0.06595248       0.26801605 </v>
   <v>       0.21730349       0.15700948       0.14591744 </v>
   <v>       0.39941750       0.24806649       0.02381883 </v>
   <v>       0.67096144       0.88383846       0.51221327 </v>
   <v>       0.85307546       0.97489547       0.39011466 </v>
   <v>       0.12570412       0.61120980       0.43081420 </v>
   <v>       0.30781813       0.70226681       0.30871559 </v>
   <v>       0.48993215       0.79332382       0.18661698 </v>
   <v>       0.18441112       0.17667530       0.48070540 </v>
   <v>       0.36652513       0.26773231       0.35860679 </v>
   <v>       0.54863915       0.35878931       0.23650818 </v>
   <v>       0.73075316       0.44984632       0.11440957 </v>
   <v>       0.00338182       0.08616065       0.15510911 </v>
   <v>       0.18549584       0.17721766       0.03301050 </v>
   <v>       0.63915379       0.90404664       0.39930633 </v>
   <v>       0.82126781       0.99510365       0.27720772 </v>
   <v>       0.09389647       0.63141797       0.31790726 </v>
   <v>       0.27601049       0.72247498       0.19580864 </v>
   <v>       0.45812450       0.81353199       0.07371003 </v>
   <v>       0.91178246       0.54036097       0.44000587 </v>
   <v>       0.12675994       0.47963471       0.07446623 </v>
   <v>       0.58041790       0.20646369       0.44076206 </v>
   <v>       0.76253191       0.29752070       0.31866345 </v>
   <v>       0.94464593       0.38857770       0.19656484 </v>
   <v>       0.21727459       0.02489203       0.23726438 </v>
   <v>       0.39938860       0.11594904       0.11516577 </v>
   <v>       0.03516057       0.93383503       0.35936299 </v>
   <v>       0.85304656       0.84277802       0.48146160 </v>
   <v>       0.30778923       0.57014936       0.40006253 </v>
   <v>       0.48990325       0.66120636       0.27796392 </v>
   <v>       0.67201726       0.75226337       0.15586531 </v>
   <v>       0.85413128       0.84332038       0.03376670 </v>
   <v>       0.54863915       0.02235931       0.23650818 </v>
   <v>       0.73075316       0.11341632       0.11440957 </v>
   <v>       0.18441112       0.84024530       0.48070540 </v>
   <v>       0.36652513       0.93130231       0.35860679 </v>
   <v>       0.00338182       0.74973065       0.15510911 </v>
   <v>       0.18549584       0.84078766       0.03301050 </v>
   <v>       0.63915379       0.56761664       0.39930633 </v>
   <v>       0.82126781       0.65867365       0.27720772 </v>
   <v>       0.09389647       0.29498797       0.31790726 </v>
   <v>       0.27601049       0.38604498       0.19580864 </v>
   <v>       0.45812450       0.47710199       0.07371003 </v>
   <v>       0.91178246       0.20393097       0.44000587 </v>
  </varray>
 </structure>
</modeling>
