       N       E                     dE             d eps       ncg     rms          rms(c)
DAV:   1     0.981789245224E+04    0.98179E+04   -0.50807E+05  1168   0.164E+03
DAV:   2     0.623729435009E+03   -0.91942E+04   -0.88579E+04  1016   0.526E+02
DAV:   3    -0.340888265504E+03   -0.96462E+03   -0.90635E+03  1088   0.181E+02
DAV:   4    -0.404204439901E+03   -0.63316E+02   -0.62470E+02  1088   0.414E+01
DAV:   5    -0.406963596060E+03   -0.27592E+01   -0.27541E+01  1240   0.926E+00    0.818E+01
DAV:   6    -0.490285924640E+03   -0.83322E+02   -0.96222E+02  1176   0.116E+02    0.156E+02
DAV:   7    -0.374459324700E+03    0.11583E+03   -0.17260E+02  1112   0.632E+01    0.604E+01
DAV:   8    -0.416304960793E+03   -0.41846E+02   -0.15635E+02  1336   0.691E+01    0.145E+02
DAV:   9    -0.372969109414E+03    0.43336E+02   -0.10401E+02  1216   0.419E+01    0.609E+01
DAV:  10    -0.383223946902E+03   -0.10255E+02   -0.71181E+01  1384   0.431E+01    0.606E+01
DAV:  11    -0.385457724462E+03   -0.22338E+01   -0.38524E+01  1344   0.437E+01    0.858E+01
DAV:  12    -0.367105473056E+03    0.18352E+02   -0.38250E+01  1320   0.261E+01    0.373E+01
DAV:  13    -0.361053427623E+03    0.60520E+01   -0.14651E+01  1256   0.259E+01    0.262E+01
DAV:  14    -0.361076924287E+03   -0.23497E-01   -0.11018E+01  1320   0.199E+01    0.291E+01
DAV:  15    -0.358646560294E+03    0.24304E+01   -0.66504E+00  1176   0.152E+01    0.168E+01
DAV:  16    -0.357969725101E+03    0.67684E+00   -0.14492E+00  1296   0.613E+00    0.143E+01
DAV:  17    -0.357724444897E+03    0.24528E+00   -0.91970E-01  1232   0.507E+00    0.133E+01
DAV:  18    -0.357437245014E+03    0.28720E+00   -0.35408E-01  1296   0.344E+00    0.112E+01
DAV:  19    -0.357180780972E+03    0.25646E+00   -0.16285E-01  1304   0.260E+00    0.947E+00
DAV:  20    -0.357070037771E+03    0.11074E+00   -0.26657E-01  1344   0.318E+00    0.869E+00
DAV:  21    -0.356812947948E+03    0.25709E+00   -0.20636E-01  1416   0.286E+00    0.531E+00
DAV:  22    -0.356818625446E+03   -0.56775E-02   -0.28241E-01  1320   0.381E+00    0.535E+00
DAV:  23    -0.356719615294E+03    0.99010E-01   -0.23731E-01  1296   0.335E+00    0.264E+00
DAV:  24    -0.356731817000E+03   -0.12202E-01   -0.11383E-01  1272   0.217E+00    0.288E+00
DAV:  25    -0.356701408833E+03    0.30408E-01   -0.89198E-02  1216   0.188E+00    0.151E+00
DAV:  26    -0.356715209180E+03   -0.13800E-01   -0.61596E-02  1320   0.159E+00    0.220E+00
DAV:  27    -0.356705864120E+03    0.93451E-02   -0.45252E-02  1184   0.126E+00    0.166E+00
DAV:  28    -0.356698157820E+03    0.77063E-02   -0.16869E-02  1312   0.845E-01    0.816E-01
DAV:  29    -0.356697781775E+03    0.37604E-03   -0.76200E-03  1304   0.532E-01    0.683E-01
DAV:  30    -0.356697614489E+03    0.16729E-03   -0.56684E-03  1352   0.489E-01    0.579E-01
DAV:  31    -0.356697793235E+03   -0.17875E-03   -0.33038E-03  1224   0.389E-01    0.519E-01
DAV:  32    -0.356697415073E+03    0.37816E-03   -0.22907E-03  1128   0.352E-01    0.359E-01
DAV:  33    -0.356697274113E+03    0.14096E-03   -0.11901E-03  1144   0.229E-01    0.286E-01
DAV:  34    -0.356697090015E+03    0.18410E-03   -0.46156E-04   808   0.151E-01    0.114E-01
DAV:  35    -0.356697381891E+03   -0.29188E-03   -0.20161E-04   592   0.876E-02    0.135E-01
DAV:  36    -0.356697515558E+03   -0.13367E-03   -0.16910E-04   600   0.801E-02    0.788E-02
DAV:  37    -0.356697907186E+03   -0.39163E-03   -0.95544E-05   624   0.632E-02    0.918E-02
DAV:  38    -0.356698160577E+03   -0.25339E-03   -0.95687E-05   600   0.658E-02    0.412E-02
DAV:  39    -0.356698550211E+03   -0.38963E-03   -0.61140E-05   608   0.473E-02    0.632E-02
DAV:  40    -0.356698815345E+03   -0.26513E-03   -0.65198E-05   600   0.501E-02    0.314E-02
DAV:  41    -0.356699208039E+03   -0.39269E-03   -0.52795E-05   648   0.390E-02    0.575E-02
DAV:  42    -0.356699482039E+03   -0.27400E-03   -0.63805E-05   608   0.410E-02    0.336E-02
DAV:  43    -0.356699656592E+03   -0.17455E-03   -0.32168E-05   600   0.215E-02    0.338E-02
DAV:  44    -0.356699761357E+03   -0.10476E-03   -0.23684E-05   592   0.236E-02    0.256E-02
DAV:  45    -0.356699969427E+03   -0.20807E-03   -0.20484E-05   608   0.171E-02    0.249E-02
DAV:  46    -0.356700014949E+03   -0.45522E-04   -0.17350E-05   600   0.181E-02
   1 F= -.35670001E+03 E0= -.35618579E+03  d E =-.102845E+01
