       N       E                     dE             d eps       ncg     rms          rms(c)
DAV:   1     0.970292601024E+04    0.97029E+04   -0.50850E+05  1168   0.163E+03
DAV:   2     0.604330192303E+03   -0.90986E+04   -0.87807E+04  1008   0.522E+02
DAV:   3    -0.342228512015E+03   -0.94656E+03   -0.89295E+03  1112   0.179E+02
DAV:   4    -0.404408144680E+03   -0.62180E+02   -0.61307E+02  1136   0.402E+01
DAV:   5    -0.406632213399E+03   -0.22241E+01   -0.22210E+01  1264   0.828E+00    0.824E+01
DAV:   6    -0.485846273906E+03   -0.79214E+02   -0.95556E+02  1160   0.115E+02    0.154E+02
DAV:   7    -0.374936412507E+03    0.11091E+03   -0.17487E+02  1144   0.642E+01    0.619E+01
DAV:   8    -0.521334902623E+03   -0.14640E+03   -0.14639E+02  1200   0.105E+02    0.175E+02
DAV:   9    -0.382044203769E+03    0.13929E+03   -0.15841E+02  1232   0.551E+01    0.634E+01
DAV:  10    -0.374243461523E+03    0.78007E+01   -0.63292E+01  1424   0.471E+01    0.709E+01
DAV:  11    -0.384210518827E+03   -0.99671E+01   -0.71564E+01  1320   0.410E+01    0.841E+01
DAV:  12    -0.371800504434E+03    0.12410E+02   -0.18739E+01  1336   0.199E+01    0.423E+01
DAV:  13    -0.362292655439E+03    0.95078E+01   -0.19327E+01  1208   0.292E+01    0.296E+01
DAV:  14    -0.369052742080E+03   -0.67601E+01   -0.15770E+01  1328   0.245E+01    0.690E+01
DAV:  15    -0.361280861471E+03    0.77719E+01   -0.40944E+00  1272   0.851E+00    0.258E+01
DAV:  16    -0.358983974092E+03    0.22969E+01   -0.35909E+00  1240   0.123E+01    0.181E+01
DAV:  17    -0.358095181891E+03    0.88879E+00   -0.11049E+00  1312   0.570E+00    0.140E+01
DAV:  18    -0.357744834312E+03    0.35035E+00   -0.80664E-01  1312   0.590E+00    0.124E+01
DAV:  19    -0.357528114614E+03    0.21672E+00   -0.67346E-01  1304   0.556E+00    0.108E+01
DAV:  20    -0.357537355984E+03   -0.92414E-02   -0.72880E-01  1272   0.524E+00    0.106E+01
DAV:  21    -0.357249779649E+03    0.28758E+00   -0.37736E-01  1320   0.341E+00    0.792E+00
DAV:  22    -0.357132152317E+03    0.11763E+00   -0.20870E-01  1296   0.297E+00    0.610E+00
DAV:  23    -0.357110067941E+03    0.22084E-01   -0.27480E-01  1320   0.307E+00    0.551E+00
DAV:  24    -0.357021448962E+03    0.88619E-01   -0.29906E-01  1336   0.318E+00    0.293E+00
DAV:  25    -0.357025180635E+03   -0.37317E-02   -0.12899E-01  1312   0.202E+00    0.264E+00
DAV:  26    -0.357009809009E+03    0.15372E-01   -0.79907E-02  1224   0.178E+00    0.198E+00
DAV:  27    -0.357015844329E+03   -0.60353E-02   -0.46315E-02  1312   0.131E+00    0.213E+00
DAV:  28    -0.357003513410E+03    0.12331E-01   -0.36184E-02  1312   0.119E+00    0.142E+00
DAV:  29    -0.357005868708E+03   -0.23553E-02   -0.24776E-02  1240   0.108E+00    0.157E+00
DAV:  30    -0.356998702284E+03    0.71664E-02   -0.13849E-02  1184   0.790E-01    0.101E+00
DAV:  31    -0.356997870180E+03    0.83210E-03   -0.54830E-03  1296   0.476E-01    0.876E-01
DAV:  32    -0.356995608213E+03    0.22620E-02   -0.25214E-03  1256   0.325E-01    0.478E-01
DAV:  33    -0.356995562372E+03    0.45840E-04   -0.89733E-04  1048   0.192E-01
   1 F= -.35699556E+03 E0= -.35646125E+03  d E =-.106862E+01
