       N       E                     dE             d eps       ncg     rms          rms(c)
DAV:   1     0.134011707987E+05    0.13401E+05   -0.68442E+05  1540   0.167E+03
DAV:   2     0.847391336207E+03   -0.12554E+05   -0.12122E+05  1342   0.538E+02
DAV:   3    -0.451320954445E+03   -0.12987E+04   -0.12307E+04  1432   0.188E+02
DAV:   4    -0.532822723977E+03   -0.81502E+02   -0.80562E+02  1440   0.424E+01
DAV:   5    -0.536345173817E+03   -0.35224E+01   -0.35174E+01  1680   0.929E+00    0.109E+02
DAV:   6    -0.640603787433E+03   -0.10426E+03   -0.12432E+03  1608   0.132E+02    0.195E+02
DAV:   7    -0.518265067256E+03    0.12234E+03   -0.28809E+02  1424   0.843E+01    0.970E+01
DAV:   8    -0.575835473354E+03   -0.57570E+02   -0.27586E+02  1688   0.992E+01    0.158E+02
DAV:   9    -0.578237111440E+03   -0.24016E+01   -0.17105E+02  1696   0.802E+01    0.150E+02
DAV:  10    -0.547791545905E+03    0.30446E+02   -0.21098E+02  1760   0.719E+01    0.106E+02
DAV:  11    -0.544595059809E+03    0.31965E+01   -0.99702E+01  1744   0.527E+01    0.965E+01
DAV:  12    -0.513851624085E+03    0.30743E+02   -0.92095E+01  1760   0.555E+01    0.686E+01
DAV:  13    -0.512292481687E+03    0.15591E+01   -0.72611E+01  1728   0.485E+01    0.762E+01
DAV:  14    -0.491510151863E+03    0.20782E+02   -0.48204E+01  1704   0.343E+01    0.433E+01
DAV:  15    -0.484727066862E+03    0.67831E+01   -0.15570E+01  1752   0.206E+01    0.317E+01
DAV:  16    -0.481447615237E+03    0.32795E+01   -0.58895E+00  1752   0.131E+01    0.288E+01
DAV:  17    -0.479698745302E+03    0.17489E+01   -0.25236E+00  1664   0.817E+00    0.266E+01
DAV:  18    -0.478791299369E+03    0.90745E+00   -0.67261E-01  1736   0.383E+00    0.259E+01
DAV:  19    -0.477242546761E+03    0.15488E+01   -0.38876E-01  1896   0.451E+00    0.241E+01
DAV:  20    -0.475860977162E+03    0.13816E+01   -0.45983E-01  1752   0.450E+00    0.223E+01
DAV:  21    -0.472672308721E+03    0.31887E+01   -0.11956E+00  1856   0.819E+00    0.168E+01
DAV:  22    -0.470801912357E+03    0.18704E+01   -0.24574E+00  1744   0.941E+00    0.108E+01
DAV:  23    -0.470478828434E+03    0.32308E+00   -0.12217E+00  1696   0.456E+00    0.783E+00
DAV:  24    -0.470449400052E+03    0.29428E-01   -0.38363E-01  1520   0.295E+00    0.708E+00
DAV:  25    -0.470436489546E+03    0.12911E-01   -0.34157E-01  1456   0.368E+00    0.689E+00
DAV:  26    -0.470432407703E+03    0.40818E-02   -0.82955E-01  1928   0.632E+00    0.741E+00
DAV:  27    -0.470392038662E+03    0.40369E-01   -0.43719E-01  1728   0.330E+00    0.665E+00
DAV:  28    -0.470285561442E+03    0.10648E+00   -0.17471E-01  1648   0.209E+00    0.485E+00
DAV:  29    -0.470209840987E+03    0.75720E-01   -0.94038E-02  1712   0.176E+00    0.268E+00
DAV:  30    -0.470206911781E+03    0.29292E-02   -0.11778E-01  1816   0.182E+00    0.241E+00
DAV:  31    -0.470195389868E+03    0.11522E-01   -0.77597E-02  1688   0.169E+00    0.176E+00
DAV:  32    -0.470224845856E+03   -0.29456E-01   -0.10715E-01  1952   0.172E+00    0.260E+00
DAV:  33    -0.470201506019E+03    0.23340E-01   -0.24172E-02  1696   0.863E-01    0.186E+00
DAV:  34    -0.470195632312E+03    0.58737E-02   -0.57091E-03  1712   0.384E-01    0.158E+00
DAV:  35    -0.470194613704E+03    0.10186E-02   -0.29690E-03  1608   0.293E-01    0.150E+00
DAV:  36    -0.470184513088E+03    0.10101E-01   -0.11544E-02  1920   0.620E-01    0.679E-01
DAV:  37    -0.470184619324E+03   -0.10624E-03   -0.41393E-03  1688   0.322E-01    0.544E-01
DAV:  38    -0.470185614257E+03   -0.99493E-03   -0.41862E-03  1712   0.361E-01    0.620E-01
DAV:  39    -0.470184584436E+03    0.10298E-02   -0.14079E-03  1488   0.206E-01    0.403E-01
DAV:  40    -0.470184815642E+03   -0.23121E-03   -0.68462E-04  1256   0.156E-01    0.368E-01
DAV:  41    -0.470184735828E+03    0.79814E-04   -0.45306E-04  1160   0.128E-01
   1 F= -.47018474E+03 E0= -.46951529E+03  d E =-.133889E+01
