LAMMPS data file via write_data, version 5 Jun 2019, timestep = 39

96 atoms
2 atom types

0.0000000000000000e+00 1.1256463038200000e+01 xlo xhi
0.0000000000000000e+00 1.0062820337100000e+01 ylo yhi
0.0000000000000000e+00 2.2519955973199998e+01 zlo zhi
5.0445621212000002e+00 0.0000000000000000e+00 0.0000000000000000e+00 xy xz yz

Masses

1 58.71
2 32.06

Atoms # atomic

1 1 5.3522814431000008e+00 4.8178808643000002e+00 6.6478400406000011e+00 0 0 0
2 1 5.9359508271000001e+00 3.8723796037999998e+00 9.5838980147000026e+00 0 0 0
3 1 2.2463310804000001e+00 7.3197209720000000e-01 3.7117820891000011e+00 0 0 0
4 1 6.0361486248416174e-01 8.2755255347463597e-01 1.1120986901389097e+01 0 0 0
5 1 4.7686120570000003e+00 3.3545317850999998e+00 2.9360579516000000e+00 0 0 0
6 1 5.3522814460000001e+00 2.4090305346999998e+00 5.8721159257000002e+00 0 0 0
7 1 5.9359508186999994e+00 1.4635292742000003e+00 8.8081738772000016e+00 0 0 0
8 1 1.8774643570999996e+00 3.7383592494000006e+00 5.8721159257000002e+00 0 0 0
9 1 2.4611337298999998e+00 2.7928579888999998e+00 8.8081738772000016e+00 0 0 0
10 1 3.5488853115688670e+00 2.0926279058540276e+00 1.0811522449093035e+01 0 0 0
11 1 6.9220263184000004e+00 4.6838604998999998e+00 2.9360579516000000e+00 0 0 0
12 1 4.9415553267685368e+00 3.9502082651151926e-01 7.9815831210638633e-01 0 0 0
13 1 1.0980512962200001e+01 4.8178808643000002e+00 6.6478400406000011e+00 0 0 0
14 1 1.1564182346200001e+01 3.8723796037999998e+00 9.5838980147000026e+00 0 0 0
15 1 6.8321164239692154e+00 2.0342619910482509e+00 2.0040288758074727e+00 0 0 0
16 1 7.8745625994999999e+00 7.3197209720000000e-01 3.7117820891000011e+00 0 0 0
17 1 1.0396843576099998e+01 3.3545317850999998e+00 2.9360579516000000e+00 0 0 0
18 1 1.0980512965100001e+01 2.4090305346999998e+00 5.8721159257000002e+00 0 0 0
19 1 1.1564182337800000e+01 1.4635292742000003e+00 8.8081738772000016e+00 0 0 0
20 1 7.5056958762999999e+00 3.7383592494000006e+00 5.8721159257000002e+00 0 0 0
21 1 8.0893652490000001e+00 2.7928579888999998e+00 8.8081738772000016e+00 0 0 0
22 1 1.2550257837500000e+01 4.6838604998999998e+00 2.9360579516000000e+00 0 0 0
23 1 9.3998945700688346e+00 3.4803507360844299e-01 6.0187993588025457e-01 0 0 0
24 1 7.8745625037000000e+00 9.8492910329000001e+00 6.6478400406000011e+00 0 0 0
25 1 8.4582318877000002e+00 8.9037897723999997e+00 9.5838980147000026e+00 0 0 0
26 1 4.7686121410000002e+00 5.7633822657000016e+00 3.7117820891000011e+00 0 0 0
27 1 2.7848313613540538e+00 5.0743868679941126e+00 1.0653054300522479e+01 0 0 0
28 1 2.4740352611389929e+00 2.6673570587337864e-01 1.2978291055255302e+00 0 1 0
29 1 7.2908931174999996e+00 8.3859419535999997e+00 2.9360579516000000e+00 0 0 0
30 1 7.8745625066000011e+00 7.4404407032000011e+00 5.8721159257000002e+00 0 0 0
31 1 8.4582318792999995e+00 6.4949394426999998e+00 8.8081738772000016e+00 0 0 0
32 1 4.3997454177000002e+00 8.7697694178999992e+00 5.8721159257000002e+00 0 0 0
33 1 4.9834147905000004e+00 7.8242681574000015e+00 8.8081738772000016e+00 0 0 0
34 1 9.4443073789999996e+00 9.7152706684000005e+00 2.9360579516000000e+00 0 0 0
35 1 1.3502794022799998e+01 9.8492910329000001e+00 6.6478400406000011e+00 0 0 0
36 1 1.4086463406800000e+01 8.9037897723999997e+00 9.5838980147000026e+00 0 0 0
37 1 4.0580842311664016e+00 7.1981979780646785e+00 1.1005798258405516e+01 1 0 0
38 1 1.0396843660100000e+01 5.7633822657000016e+00 3.7117820891000011e+00 0 0 0
39 1 8.7236317840599149e+00 5.4941658769191424e+00 1.1058526498459313e+01 0 0 0
40 1 1.2440377583713149e+01 9.1043871230764530e+00 5.6542038459553012e-01 0 0 0
41 1 1.2919124636699998e+01 8.3859419535999997e+00 2.9360579516000000e+00 0 0 0
42 1 1.3502794025700000e+01 7.4404407032000011e+00 5.8721159257000002e+00 0 0 0
43 1 1.4086463398399999e+01 6.4949394426999998e+00 8.8081738772000016e+00 0 0 0
44 1 1.0027976936900000e+01 8.7697694178999992e+00 5.8721159257000002e+00 0 0 0
45 1 1.0611646309599999e+01 7.8242681574000015e+00 8.8081738772000016e+00 0 0 0
46 1 1.1238510655544577e+01 7.1545054464854037e+00 1.1139193970252430e+01 0 0 0
47 1 1.5072538898099999e+01 9.7152706684000005e+00 2.9360579516000000e+00 0 0 0
48 1 1.0712529995404811e+01 5.2835956047667434e+00 1.3330274420578729e+00 0 0 0
49 2 1.6618956012999999e+00 1.6787143752000000e+00 7.0115334562000013e+00 0 0 0
50 2 2.2455649853000001e+00 7.3321311469999995e-01 9.9475914302999993e+00 0 0 0
51 2 6.0066601576527923e+00 3.7773157144448746e+00 1.3488569068114027e+00 0 0 0
52 2 6.7064575737999998e+00 2.6242156256000002e+00 4.0754755046000000e+00 0 0 0
53 2 1.8602932207527523e+00 3.2744648068785165e+00 1.0859427941914072e+01 0 0 0
54 2 7.2901269524000005e+00 4.7460539319999997e+00 7.9993114444000009e+00 0 0 0
55 2 3.8074817011950111e+00 1.5599042050664480e+00 2.2169709797124906e+00 0 0 0
56 2 4.1841765896999998e+00 6.6014516489999997e-01 5.0632534928000004e+00 0 0 0
57 2 3.3549927179905623e+00 4.8323481372735007e+00 2.5315595928749719e+00 0 0 0
58 2 3.9643807088999998e+00 3.9988379098000002e+00 5.0632534928000004e+00 0 0 0
59 2 4.5480500867000000e+00 3.0533366593000002e+00 7.9993114444000009e+00 0 0 0
60 2 5.5513131058345460e+00 2.1667575297275579e+00 1.0690443356792175e+01 0 0 0
61 2 7.2901271205000002e+00 1.6787143752000000e+00 7.0115334562000013e+00 0 0 0
62 2 7.8729754756355952e+00 7.4126721436381937e-01 9.3895520626221067e+00 0 0 0
63 2 1.1753727696545413e+01 3.5677099922435160e+00 1.4009048941142432e+00 0 0 0
64 2 1.2334689093000000e+01 2.6242156256000002e+00 4.0754755046000000e+00 0 0 0
65 2 7.7574616082223473e+00 3.7852607930955076e+00 1.0581205948863666e+01 0 0 0
66 2 1.2918358471499999e+01 4.7460539319999997e+00 7.9993114444000009e+00 0 0 0
67 2 9.2287387198000026e+00 1.6056464153000001e+00 2.1271955186999998e+00 0 0 0
68 2 9.8124081087999997e+00 6.6014516489999997e-01 5.0632534928000004e+00 0 0 0
69 2 9.0013750762020095e+00 4.8595689356644050e+00 2.3959128165349886e+00 0 0 0
70 2 9.5926122281000001e+00 3.9988379098000002e+00 5.0632534928000004e+00 0 0 0
71 2 1.0176281605799995e+01 3.0533366593000002e+00 7.9993114444000009e+00 0 0 0
72 2 1.0578111103451164e+01 2.2373505708439088e+00 1.0474846918968369e+01 0 0 0
73 2 4.1841766618999996e+00 6.7101245437000001e+00 7.0115334562000013e+00 0 0 0
74 2 4.6062144770514273e+00 5.6871556803168515e+00 9.7061499685576837e+00 0 0 0
75 2 8.7665250832796229e+00 8.7398742178231341e+00 1.2530008154713381e+00 0 0 0
76 2 9.2287386344000009e+00 7.6556257941999997e+00 4.0754755046000000e+00 0 0 0
77 2 4.7058605577466066e+00 9.0974817260558822e+00 1.0550540490794686e+01 0 0 0
78 2 9.8124080130000007e+00 9.7774641004999996e+00 7.9993114444000009e+00 0 0 0
79 2 6.2528587560201867e+00 6.6157039035478427e+00 2.5466265215768717e+00 0 0 0
80 2 6.7064576503000000e+00 5.6915553334000002e+00 5.0632534928000004e+00 0 0 0
81 2 5.8742128088696486e+00 9.8671070015209317e+00 2.4497952889446091e+00 0 0 0
82 2 6.4866617695000004e+00 9.0302480782999996e+00 5.0632534928000004e+00 0 0 0
83 2 7.0703311473000010e+00 8.0847468279000001e+00 7.9993114444000009e+00 0 0 0
84 2 7.8166818622587977e+00 7.2435586092386890e+00 1.0628002635416189e+01 0 0 0
85 2 9.8124081810000003e+00 6.7101245437000001e+00 7.0115334562000013e+00 0 0 0
86 2 1.0396077565000002e+01 5.7646232831999997e+00 9.9475914302999993e+00 0 0 0
87 2 1.4254856868592347e+01 8.5571078513286309e+00 1.3438657804718572e+00 0 0 0
88 2 1.4856970153500001e+01 7.6556257941999997e+00 4.0754755046000000e+00 0 0 0
89 2 1.0265075085802463e+01 8.8291957611514160e+00 1.0585586779249452e+01 0 0 0
90 2 1.5440639532100001e+01 9.7774641004999996e+00 7.9993114444000009e+00 0 0 0
91 2 1.1851320485990536e+01 6.6174735173731545e+00 2.4129133111198375e+00 0 0 0
92 2 1.2334689169400001e+01 5.6915553334000002e+00 5.0632534928000004e+00 0 0 0
93 2 1.1531223904699999e+01 9.9757493388000000e+00 2.1271955186999998e+00 0 0 0
94 2 1.2114893288699999e+01 9.0302480782999996e+00 5.0632534928000004e+00 0 0 0
95 2 1.2698562666400003e+01 8.0847468279000001e+00 7.9993114444000009e+00 0 0 0
96 2 1.3282232050399998e+01 7.1392455673000006e+00 1.0935369395900002e+01 0 0 0

Velocities

1 0.0000000000000000e+00 0.0000000000000000e+00 0.0000000000000000e+00
2 0.0000000000000000e+00 0.0000000000000000e+00 0.0000000000000000e+00
3 0.0000000000000000e+00 0.0000000000000000e+00 0.0000000000000000e+00
4 0.0000000000000000e+00 0.0000000000000000e+00 0.0000000000000000e+00
5 0.0000000000000000e+00 0.0000000000000000e+00 0.0000000000000000e+00
6 0.0000000000000000e+00 0.0000000000000000e+00 0.0000000000000000e+00
7 0.0000000000000000e+00 0.0000000000000000e+00 0.0000000000000000e+00
8 0.0000000000000000e+00 0.0000000000000000e+00 0.0000000000000000e+00
9 0.0000000000000000e+00 0.0000000000000000e+00 0.0000000000000000e+00
10 0.0000000000000000e+00 0.0000000000000000e+00 0.0000000000000000e+00
11 0.0000000000000000e+00 0.0000000000000000e+00 0.0000000000000000e+00
12 0.0000000000000000e+00 0.0000000000000000e+00 0.0000000000000000e+00
13 0.0000000000000000e+00 0.0000000000000000e+00 0.0000000000000000e+00
14 0.0000000000000000e+00 0.0000000000000000e+00 0.0000000000000000e+00
15 0.0000000000000000e+00 0.0000000000000000e+00 0.0000000000000000e+00
16 0.0000000000000000e+00 0.0000000000000000e+00 0.0000000000000000e+00
17 0.0000000000000000e+00 0.0000000000000000e+00 0.0000000000000000e+00
18 0.0000000000000000e+00 0.0000000000000000e+00 0.0000000000000000e+00
19 0.0000000000000000e+00 0.0000000000000000e+00 0.0000000000000000e+00
20 0.0000000000000000e+00 0.0000000000000000e+00 0.0000000000000000e+00
21 0.0000000000000000e+00 0.0000000000000000e+00 0.0000000000000000e+00
22 0.0000000000000000e+00 0.0000000000000000e+00 0.0000000000000000e+00
23 0.0000000000000000e+00 0.0000000000000000e+00 0.0000000000000000e+00
24 0.0000000000000000e+00 0.0000000000000000e+00 0.0000000000000000e+00
25 0.0000000000000000e+00 0.0000000000000000e+00 0.0000000000000000e+00
26 0.0000000000000000e+00 0.0000000000000000e+00 0.0000000000000000e+00
27 0.0000000000000000e+00 0.0000000000000000e+00 0.0000000000000000e+00
28 0.0000000000000000e+00 0.0000000000000000e+00 0.0000000000000000e+00
29 0.0000000000000000e+00 0.0000000000000000e+00 0.0000000000000000e+00
30 0.0000000000000000e+00 0.0000000000000000e+00 0.0000000000000000e+00
31 0.0000000000000000e+00 0.0000000000000000e+00 0.0000000000000000e+00
32 0.0000000000000000e+00 0.0000000000000000e+00 0.0000000000000000e+00
33 0.0000000000000000e+00 0.0000000000000000e+00 0.0000000000000000e+00
34 0.0000000000000000e+00 0.0000000000000000e+00 0.0000000000000000e+00
35 0.0000000000000000e+00 0.0000000000000000e+00 0.0000000000000000e+00
36 0.0000000000000000e+00 0.0000000000000000e+00 0.0000000000000000e+00
37 0.0000000000000000e+00 0.0000000000000000e+00 0.0000000000000000e+00
38 0.0000000000000000e+00 0.0000000000000000e+00 0.0000000000000000e+00
39 0.0000000000000000e+00 0.0000000000000000e+00 0.0000000000000000e+00
40 0.0000000000000000e+00 0.0000000000000000e+00 0.0000000000000000e+00
41 0.0000000000000000e+00 0.0000000000000000e+00 0.0000000000000000e+00
42 0.0000000000000000e+00 0.0000000000000000e+00 0.0000000000000000e+00
43 0.0000000000000000e+00 0.0000000000000000e+00 0.0000000000000000e+00
44 0.0000000000000000e+00 0.0000000000000000e+00 0.0000000000000000e+00
45 0.0000000000000000e+00 0.0000000000000000e+00 0.0000000000000000e+00
46 0.0000000000000000e+00 0.0000000000000000e+00 0.0000000000000000e+00
47 0.0000000000000000e+00 0.0000000000000000e+00 0.0000000000000000e+00
48 0.0000000000000000e+00 0.0000000000000000e+00 0.0000000000000000e+00
49 0.0000000000000000e+00 0.0000000000000000e+00 0.0000000000000000e+00
50 0.0000000000000000e+00 0.0000000000000000e+00 0.0000000000000000e+00
51 0.0000000000000000e+00 0.0000000000000000e+00 0.0000000000000000e+00
52 0.0000000000000000e+00 0.0000000000000000e+00 0.0000000000000000e+00
53 0.0000000000000000e+00 0.0000000000000000e+00 0.0000000000000000e+00
54 0.0000000000000000e+00 0.0000000000000000e+00 0.0000000000000000e+00
55 0.0000000000000000e+00 0.0000000000000000e+00 0.0000000000000000e+00
56 0.0000000000000000e+00 0.0000000000000000e+00 0.0000000000000000e+00
57 0.0000000000000000e+00 0.0000000000000000e+00 0.0000000000000000e+00
58 0.0000000000000000e+00 0.0000000000000000e+00 0.0000000000000000e+00
59 0.0000000000000000e+00 0.0000000000000000e+00 0.0000000000000000e+00
60 0.0000000000000000e+00 0.0000000000000000e+00 0.0000000000000000e+00
61 0.0000000000000000e+00 0.0000000000000000e+00 0.0000000000000000e+00
62 0.0000000000000000e+00 0.0000000000000000e+00 0.0000000000000000e+00
63 0.0000000000000000e+00 0.0000000000000000e+00 0.0000000000000000e+00
64 0.0000000000000000e+00 0.0000000000000000e+00 0.0000000000000000e+00
65 0.0000000000000000e+00 0.0000000000000000e+00 0.0000000000000000e+00
66 0.0000000000000000e+00 0.0000000000000000e+00 0.0000000000000000e+00
67 0.0000000000000000e+00 0.0000000000000000e+00 0.0000000000000000e+00
68 0.0000000000000000e+00 0.0000000000000000e+00 0.0000000000000000e+00
69 0.0000000000000000e+00 0.0000000000000000e+00 0.0000000000000000e+00
70 0.0000000000000000e+00 0.0000000000000000e+00 0.0000000000000000e+00
71 0.0000000000000000e+00 0.0000000000000000e+00 0.0000000000000000e+00
72 0.0000000000000000e+00 0.0000000000000000e+00 0.0000000000000000e+00
73 0.0000000000000000e+00 0.0000000000000000e+00 0.0000000000000000e+00
74 0.0000000000000000e+00 0.0000000000000000e+00 0.0000000000000000e+00
75 0.0000000000000000e+00 0.0000000000000000e+00 0.0000000000000000e+00
76 0.0000000000000000e+00 0.0000000000000000e+00 0.0000000000000000e+00
77 0.0000000000000000e+00 0.0000000000000000e+00 0.0000000000000000e+00
78 0.0000000000000000e+00 0.0000000000000000e+00 0.0000000000000000e+00
79 0.0000000000000000e+00 0.0000000000000000e+00 0.0000000000000000e+00
80 0.0000000000000000e+00 0.0000000000000000e+00 0.0000000000000000e+00
81 0.0000000000000000e+00 0.0000000000000000e+00 0.0000000000000000e+00
82 0.0000000000000000e+00 0.0000000000000000e+00 0.0000000000000000e+00
83 0.0000000000000000e+00 0.0000000000000000e+00 0.0000000000000000e+00
84 0.0000000000000000e+00 0.0000000000000000e+00 0.0000000000000000e+00
85 0.0000000000000000e+00 0.0000000000000000e+00 0.0000000000000000e+00
86 0.0000000000000000e+00 0.0000000000000000e+00 0.0000000000000000e+00
87 0.0000000000000000e+00 0.0000000000000000e+00 0.0000000000000000e+00
88 0.0000000000000000e+00 0.0000000000000000e+00 0.0000000000000000e+00
89 0.0000000000000000e+00 0.0000000000000000e+00 0.0000000000000000e+00
90 0.0000000000000000e+00 0.0000000000000000e+00 0.0000000000000000e+00
91 0.0000000000000000e+00 0.0000000000000000e+00 0.0000000000000000e+00
92 0.0000000000000000e+00 0.0000000000000000e+00 0.0000000000000000e+00
93 0.0000000000000000e+00 0.0000000000000000e+00 0.0000000000000000e+00
94 0.0000000000000000e+00 0.0000000000000000e+00 0.0000000000000000e+00
95 0.0000000000000000e+00 0.0000000000000000e+00 0.0000000000000000e+00
96 0.0000000000000000e+00 0.0000000000000000e+00 0.0000000000000000e+00
