<?xml version="1.0" encoding="ISO-8859-1"?>
<modeling>
 <generator>
  <i name="program" type="string">vasp </i>
  <i name="version" type="string">5.4.4.18Apr17-6-g9f103f2a35  </i>
  <i name="subversion" type="string">(build Aug 13 2019 17:33:20) gamma-only         parallel </i>
  <i name="platform" type="string">LinuxIFC </i>
  <i name="date" type="string">2020 05 11 </i>
  <i name="time" type="string">09:16:17 </i>
 </generator>
 <incar>
  <i type="string" name="SYSTEM">"Millerite NiS"</i>
  <i type="string" name="PREC">normal</i>
  <i type="int" name="NSIM">     4</i>
  <i type="int" name="NELM">   100</i>
  <i name="ENCUT">    450.00000000</i>
  <i type="string" name="LREAL">A</i>
  <i type="int" name="ISMEAR">     0</i>
  <i type="int" name="NWRITE">     2</i>
  <i type="logical" name="LWAVE"> F  </i>
  <i type="logical" name="LCHARG"> F  </i>
  <v type="int" name="KPOINT_BSE">    -1     0     0     0</v>
  <i type="int" name="NELM">   100</i>
 </incar>
 <structure name="primitive_cell" >
  <crystal>
   <varray name="basis" >
    <v>      11.25646304       0.00000000       0.00000000 </v>
    <v>       5.04456212      10.06282034       0.00000000 </v>
    <v>       0.00000000       0.00000000      22.51995597 </v>
   </varray>
   <i name="volume">   2550.87516496 </i>
   <varray name="rec_basis" >
    <v>       0.08883785      -0.04453504       0.00000000 </v>
    <v>       0.00000000       0.09937572       0.00000000 </v>
    <v>       0.00000000       0.00000000       0.04440506 </v>
   </varray>
  </crystal>
  <varray name="positions" >
   <v>       0.26092069       0.47878037       0.29519774 </v>
   <v>       0.07287763      -0.33317655       0.31134757 </v>
   <v>       0.17409868       0.39738739       0.22483408 </v>
   <v>       0.34231367      -0.43439760       0.22483408 </v>
   <v>       0.26805854       0.30342752       0.35520991 </v>
   <v>       0.43627354       0.47164252       0.35520991 </v>
   <v>       0.36819893       0.23939914       0.26075166 </v>
   <v>      -0.49969806       0.37150214       0.26075166 </v>
   <v>       0.35488056       0.38482050       0.42557357 </v>
   <v>       0.16696083      -0.42725975       0.16482191 </v>
   <v>       0.15592852      -0.43483482       0.43100217 </v>
   <v>       0.47891775       0.26078331       0.18097174 </v>
   <v>      -0.42712237       0.16682345       0.31134757 </v>
   <v>       0.00030194       0.37150214       0.26075166 </v>
   <v>       0.09426180      -0.22245773       0.39112749 </v>
   <v>      -0.03784121      -0.35456073       0.39112749 </v>
   <v>       0.36819893      -0.26060086       0.26075166 </v>
   <v>      -0.06372646       0.47164252       0.35520991 </v>
   <v>       0.26805854      -0.19657248       0.35520991 </v>
   <v>       0.40634206       0.46546200       0.13037583 </v>
   <v>       0.27423906       0.33335901       0.13037583 </v>
   <v>       0.46215879       0.14543927       0.39112749 </v>
   <v>      -0.40573820       0.27754227       0.39112749 </v>
   <v>       0.09426180       0.27754227       0.39112749 </v>
   <v>       0.46215879      -0.35456073       0.39112749 </v>
   <v>       0.00030194      -0.12849786       0.26075166 </v>
   <v>      -0.13180107      -0.26060086       0.26075166 </v>
   <v>      -0.02108225      -0.23921669       0.18097174 </v>
   <v>       0.26085993      -0.34255967       0.11308310 </v>
   <v>       0.08284155       0.48021807       0.11241406 </v>
   <v>       0.34231367       0.06560240       0.22483408 </v>
   <v>      -0.32590132       0.39738739       0.22483408 </v>
   <v>      -0.15768633      -0.43439760       0.22483408 </v>
   <v>       0.17409868      -0.10261261       0.22483408 </v>
   <v>      -0.47942050       0.37616301       0.46985909 </v>
   <v>       0.02141044      -0.49572916       0.47304952 </v>
   <v>       0.39667011       0.21532309       0.47470978 </v>
   <v>       0.07287763       0.16682345       0.31134757 </v>
   <v>      -0.42712237      -0.33317655       0.31134757 </v>
   <v>       0.03993948      -0.28467390       0.48871313 </v>
   <v>      -0.06372646      -0.02835748       0.35520991 </v>
   <v>      -0.23194146      -0.19657248       0.35520991 </v>
   <v>       0.37182509      -0.28016616       0.47193710 </v>
   <v>       0.22208009       0.20795640       0.48008630 </v>
   <v>      -0.23194146       0.30342752       0.35520991 </v>
   <v>       0.43627354      -0.02835748       0.35520991 </v>
   <v>       0.36539590       0.37537346       0.05989607 </v>
   <v>      -0.02108225       0.26078331       0.18097174 </v>
   <v>       0.47891775      -0.23921669       0.18097174 </v>
   <v>       0.27423906      -0.16664099       0.13037583 </v>
   <v>      -0.09365794       0.46546200       0.13037583 </v>
   <v>      -0.33359413       0.07366396       0.41694362 </v>
   <v>      -0.46969416      -0.45401332       0.49105453 </v>
   <v>      -0.41675825       0.48292315       0.10639065 </v>
   <v>      -0.48364538       0.20215625       0.08898902 </v>
   <v>      -0.33303918       0.07274025       0.16482191 </v>
   <v>      -0.14511944      -0.11517949       0.42557357 </v>
   <v>       0.26092069      -0.02121963       0.29519774 </v>
   <v>      -0.23907931       0.47878037       0.29519774 </v>
   <v>       0.01943605       0.32540229       0.48221355 </v>
   <v>       0.26877811       0.15501660       0.09844473 </v>
   <v>       0.01290187      -0.09593122       0.46849739 </v>
   <v>      -0.13798159      -0.29053234       0.48558574 </v>
   <v>       0.16696082       0.07274025       0.16482191 </v>
   <v>      -0.14511944       0.38482050       0.42557357 </v>
   <v>       0.35488056      -0.11517949       0.42557357 </v>
   <v>      -0.23907931      -0.02121963       0.29519774 </v>
   <v>      -0.33303917      -0.42725975       0.16482191 </v>
   <v>       0.16683750       0.07286358       0.44172340 </v>
   <v>      -0.33316250      -0.42713642       0.44172340 </v>
   <v>      -0.49969806      -0.12849786       0.26075166 </v>
   <v>      -0.13180107       0.23939914       0.26075166 </v>
   <v>      -0.15768633       0.06560240       0.22483408 </v>
   <v>      -0.32590132      -0.10261261       0.22483408 </v>
   <v>      -0.09365794      -0.03453800       0.13037583 </v>
   <v>      -0.22576094      -0.16664099       0.13037583 </v>
   <v>      -0.22576094       0.33335901       0.13037583 </v>
   <v>       0.40634206      -0.03453800       0.13037583 </v>
   <v>      -0.03784121       0.14543927       0.39112749 </v>
   <v>      -0.40573820      -0.22245773       0.39112749 </v>
   <v>       0.08242049      -0.01944915       0.10878331 </v>
   <v>      -0.24186356      -0.34238382       0.10714556 </v>
   <v>      -0.25164619       0.15956227       0.09445824 </v>
   <v>      -0.41986119      -0.00865274       0.09445824 </v>
   <v>      -0.11472024      -0.14963126       0.05967444 </v>
   <v>      -0.15990382       0.22233832       0.46513621 </v>
   <v>      -0.48128133      -0.12259233       0.47005362 </v>
   <v>      -0.11471217       0.35454374       0.06220727 </v>
   <v>       0.42140490       0.03925548       0.03544227 </v>
   <v>      -0.32022101      -0.28901588       0.49463658 </v>
   <v>       0.38956865      -0.13146872       0.05563958 </v>
   <v>       0.01676877       0.08223863       0.49382809 </v>
   <v>      -0.28362696      -0.47493889       0.05919316 </v>
   <v>       0.20790889       0.02650705       0.05763018 </v>
   <v>      -0.18043331       0.03458624       0.02672651 </v>
   <v>      -0.30028778      -0.09524499       0.02510753 </v>
  </varray>
 </structure>
 <varray name="primitive_index" >
  <v type="int" >        1 </v>
  <v type="int" >       73 </v>
  <v type="int" >       58 </v>
  <v type="int" >       80 </v>
  <v type="int" >       59 </v>
  <v type="int" >       54 </v>
  <v type="int" >        6 </v>
  <v type="int" >       20 </v>
  <v type="int" >        2 </v>
  <v type="int" >       26 </v>
  <v type="int" >       74 </v>
  <v type="int" >       52 </v>
  <v type="int" >       61 </v>
  <v type="int" >        8 </v>
  <v type="int" >       33 </v>
  <v type="int" >       43 </v>
  <v type="int" >       30 </v>
  <v type="int" >       66 </v>
  <v type="int" >       83 </v>
  <v type="int" >       11 </v>
  <v type="int" >        5 </v>
  <v type="int" >        7 </v>
  <v type="int" >       21 </v>
  <v type="int" >        9 </v>
  <v type="int" >       31 </v>
  <v type="int" >       32 </v>
  <v type="int" >       42 </v>
  <v type="int" >       88 </v>
  <v type="int" >       79 </v>
  <v type="int" >       57 </v>
  <v type="int" >       56 </v>
  <v type="int" >       70 </v>
  <v type="int" >       92 </v>
  <v type="int" >       82 </v>
  <v type="int" >       65 </v>
  <v type="int" >       27 </v>
  <v type="int" >       60 </v>
  <v type="int" >       49 </v>
  <v type="int" >       85 </v>
  <v type="int" >       37 </v>
  <v type="int" >       90 </v>
  <v type="int" >       95 </v>
  <v type="int" >       84 </v>
  <v type="int" >       10 </v>
  <v type="int" >       71 </v>
  <v type="int" >       78 </v>
  <v type="int" >       51 </v>
  <v type="int" >       64 </v>
  <v type="int" >       76 </v>
  <v type="int" >       29 </v>
  <v type="int" >       22 </v>
  <v type="int" >       62 </v>
  <v type="int" >       39 </v>
  <v type="int" >       69 </v>
  <v type="int" >       15 </v>
  <v type="int" >       16 </v>
  <v type="int" >       36 </v>
  <v type="int" >       24 </v>
  <v type="int" >       13 </v>
  <v type="int" >       53 </v>
  <v type="int" >       55 </v>
  <v type="int" >       77 </v>
  <v type="int" >       96 </v>
  <v type="int" >        3 </v>
  <v type="int" >       14 </v>
  <v type="int" >       25 </v>
  <v type="int" >       35 </v>
  <v type="int" >       38 </v>
  <v type="int" >       50 </v>
  <v type="int" >       86 </v>
  <v type="int" >       44 </v>
  <v type="int" >       18 </v>
  <v type="int" >       68 </v>
  <v type="int" >       94 </v>
  <v type="int" >       47 </v>
  <v type="int" >       41 </v>
  <v type="int" >       17 </v>
  <v type="int" >       34 </v>
  <v type="int" >       19 </v>
  <v type="int" >       45 </v>
  <v type="int" >       81 </v>
  <v type="int" >       91 </v>
  <v type="int" >       67 </v>
  <v type="int" >       93 </v>
  <v type="int" >       87 </v>
  <v type="int" >       72 </v>
  <v type="int" >       89 </v>
  <v type="int" >       63 </v>
  <v type="int" >       12 </v>
  <v type="int" >       46 </v>
  <v type="int" >       75 </v>
  <v type="int" >        4 </v>
  <v type="int" >       48 </v>
  <v type="int" >       28 </v>
  <v type="int" >       23 </v>
  <v type="int" >       40 </v>
 </varray>
 <kpoints>
  <generation param="Gamma">
   <v type="int" name="divisions">       1        1        1 </v>
   <v name="usershift">      0.00000000       0.00000000       0.00000000 </v>
   <v name="genvec1">      1.00000000       0.00000000       0.00000000 </v>
   <v name="genvec2">      0.00000000       1.00000000       0.00000000 </v>
   <v name="genvec3">      0.00000000       0.00000000       1.00000000 </v>
   <v name="shift">      0.00000000       0.00000000       0.00000000 </v>
  </generation>
  <varray name="kpointlist" >
   <v>       0.00000000       0.00000000       0.00000000 </v>
  </varray>
  <varray name="weights" >
   <v>       1.00000000 </v>
  </varray>
 </kpoints>
 <parameters>
  <separator name="general" >
   <i type="string" name="SYSTEM">"Millerite NiS"</i>
   <i type="logical" name="LCOMPAT"> F  </i>
  </separator>
  <separator name="electronic" >
   <i type="string" name="PREC">normal</i>
   <i name="ENMAX">    450.00000000</i>
   <i name="ENAUG">    703.44300000</i>
   <i name="EDIFF">      0.00010000</i>
   <i type="int" name="IALGO">    38</i>
   <i type="int" name="IWAVPR">    10</i>
   <i type="int" name="NBANDS">   634</i>
   <i name="NELECT">   1056.00000000</i>
   <i type="int" name="TURBO">     0</i>
   <i type="int" name="IRESTART">     0</i>
   <i type="int" name="NREBOOT">     0</i>
   <i type="int" name="NMIN">     0</i>
   <i name="EREF">      0.00000000</i>
   <separator name="electronic smearing" >
    <i type="int" name="ISMEAR">     0</i>
    <i name="SIGMA">      0.20000000</i>
    <i name="KSPACING">      0.50000000</i>
    <i type="logical" name="KGAMMA"> T  </i>
   </separator>
   <separator name="electronic projectors" >
    <i type="logical" name="LREAL"> T  </i>
    <v name="ROPT">     -0.00050000     -0.00050000</v>
    <i type="int" name="LMAXPAW">  -100</i>
    <i type="int" name="LMAXMIX">     2</i>
    <i type="logical" name="NLSPLINE"> F  </i>
   </separator>
   <separator name="electronic startup" >
    <i type="int" name="ISTART">     0</i>
    <i type="int" name="ICHARG">     2</i>
    <i type="int" name="INIWAV">     1</i>
   </separator>
   <separator name="electronic spin" >
    <i type="int" name="ISPIN">     1</i>
    <i type="logical" name="LNONCOLLINEAR"> F  </i>
    <v name="MAGMOM">      1.00000000      1.00000000      1.00000000      1.00000000      1.00000000      1.00000000      1.00000000      1.00000000      1.00000000      1.00000000      1.00000000      1.00000000      1.00000000      1.00000000      1.00000000      1.00000000      1.00000000      1.00000000      1.00000000      1.00000000
      1.00000000      1.00000000      1.00000000      1.00000000      1.00000000      1.00000000      1.00000000      1.00000000      1.00000000      1.00000000      1.00000000      1.00000000      1.00000000      1.00000000      1.00000000      1.00000000      1.00000000      1.00000000      1.00000000      1.00000000
      1.00000000      1.00000000      1.00000000      1.00000000      1.00000000      1.00000000      1.00000000      1.00000000      1.00000000      1.00000000      1.00000000      1.00000000      1.00000000      1.00000000      1.00000000      1.00000000      1.00000000      1.00000000      1.00000000      1.00000000
      1.00000000      1.00000000      1.00000000      1.00000000      1.00000000      1.00000000      1.00000000      1.00000000      1.00000000      1.00000000      1.00000000      1.00000000      1.00000000      1.00000000      1.00000000      1.00000000      1.00000000      1.00000000      1.00000000      1.00000000
      1.00000000      1.00000000      1.00000000      1.00000000      1.00000000      1.00000000      1.00000000      1.00000000      1.00000000      1.00000000      1.00000000      1.00000000      1.00000000      1.00000000      1.00000000      1.00000000</v>
    <i name="NUPDOWN">     -1.00000000</i>
    <i type="logical" name="LSORBIT"> F  </i>
    <v name="SAXIS">      0.00000000      0.00000000      1.00000000</v>
    <i type="logical" name="LSPIRAL"> F  </i>
    <v name="QSPIRAL">      0.00000000      0.00000000      0.00000000</v>
    <i type="logical" name="LZEROZ"> F  </i>
   </separator>
   <separator name="electronic exchange-correlation" >
    <i type="logical" name="LASPH"> F  </i>
    <i type="logical" name="LMETAGGA"> F  </i>
   </separator>
   <separator name="electronic convergence" >
    <i type="int" name="NELM">   100</i>
    <i type="int" name="NELMDL">    -5</i>
    <i type="int" name="NELMIN">     2</i>
    <i name="ENINI">    450.00000000</i>
    <separator name="electronic convergence detail" >
     <i type="logical" name="LDIAG"> T  </i>
     <i type="logical" name="LSUBROT"> F  </i>
     <i name="WEIMIN">      0.00000000</i>
     <i name="EBREAK">      0.00000004</i>
     <i name="DEPER">      0.30000000</i>
     <i type="int" name="NRMM">     4</i>
     <i name="TIME">      0.40000000</i>
    </separator>
   </separator>
   <separator name="electronic mixer" >
    <i name="AMIX">      0.40000000</i>
    <i name="BMIX">      1.00000000</i>
    <i name="AMIN">      0.10000000</i>
    <i name="AMIX_MAG">      1.60000000</i>
    <i name="BMIX_MAG">      1.00000000</i>
    <separator name="electronic mixer details" >
     <i type="int" name="IMIX">     4</i>
     <i type="logical" name="MIXFIRST"> F  </i>
     <i type="int" name="MAXMIX">   -45</i>
     <i name="WC">    100.00000000</i>
     <i type="int" name="INIMIX">     1</i>
     <i type="int" name="MIXPRE">     1</i>
     <i type="int" name="MREMOVE">     5</i>
    </separator>
   </separator>
   <separator name="electronic dipolcorrection" >
    <i type="logical" name="LDIPOL"> F  </i>
    <i type="logical" name="LMONO"> F  </i>
    <i type="int" name="IDIPOL">     0</i>
    <i name="EPSILON">      1.00000000</i>
    <v name="DIPOL">   -100.00000000   -100.00000000   -100.00000000</v>
    <i name="EFIELD">      0.00000000</i>
   </separator>
  </separator>
  <separator name="grids" >
   <i type="int" name="NGX">    60</i>
   <i type="int" name="NGY">    60</i>
   <i type="int" name="NGZ">   120</i>
   <i type="int" name="NGXF">   120</i>
   <i type="int" name="NGYF">   120</i>
   <i type="int" name="NGZF">   240</i>
   <i type="logical" name="ADDGRID"> F  </i>
  </separator>
  <separator name="ionic" >
   <i type="int" name="NSW">     0</i>
   <i type="int" name="IBRION">    -1</i>
   <i type="int" name="MDALGO">     0</i>
   <i type="int" name="ISIF">     2</i>
   <i name="PSTRESS">      0.00000000</i>
   <i name="EDIFFG">      0.00100000</i>
   <i type="int" name="NFREE">     0</i>
   <i name="POTIM">      0.50000000</i>
   <i name="SMASS">     -3.00000000</i>
   <i name="SCALEE">      1.00000000</i>
  </separator>
  <separator name="ionic md" >
   <i name="TEBEG">      0.00010000</i>
   <i name="TEEND">      0.00010000</i>
   <i type="int" name="NBLOCK">     1</i>
   <i type="int" name="KBLOCK">     1</i>
   <i type="int" name="NPACO">   256</i>
   <i name="APACO">     16.00000000</i>
  </separator>
  <separator name="symmetry" >
   <i type="int" name="ISYM">     2</i>
   <i name="SYMPREC">      0.00001000</i>
  </separator>
  <separator name="dos" >
   <i type="int" name="LORBIT">     0</i>
   <v name="RWIGS">     -1.00000000     -1.00000000</v>
   <i type="int" name="NEDOS">   301</i>
   <i name="EMIN">     10.00000000</i>
   <i name="EMAX">    -10.00000000</i>
   <i name="EFERMI">      0.00000000</i>
  </separator>
  <separator name="writing" >
   <i type="int" name="NWRITE">     2</i>
   <i type="logical" name="LWAVE"> F  </i>
   <i type="logical" name="LDOWNSAMPLE"> F  </i>
   <i type="logical" name="LCHARG"> F  </i>
   <i type="logical" name="LPARD"> F  </i>
   <i type="logical" name="LVTOT"> F  </i>
   <i type="logical" name="LVHAR"> F  </i>
   <i type="logical" name="LELF"> F  </i>
   <i type="logical" name="LOPTICS"> F  </i>
   <v name="STM">      0.00000000      0.00000000      0.00000000      0.00000000      0.00000000      0.00000000      0.00000000</v>
  </separator>
  <separator name="performance" >
   <i type="int" name="NPAR">     2</i>
   <i type="int" name="NSIM">     4</i>
   <i type="int" name="NBLK">    -1</i>
   <i type="logical" name="LPLANE"> T  </i>
   <i type="logical" name="LSCALAPACK"> T  </i>
   <i type="logical" name="LSCAAWARE"> F  </i>
   <i type="logical" name="LSCALU"> F  </i>
   <i type="logical" name="LASYNC"> F  </i>
   <i type="logical" name="LORBITALREAL"> F  </i>
  </separator>
  <separator name="miscellaneous" >
   <i type="int" name="IDIOT">     3</i>
   <i type="int" name="ISPECIAL">     0</i>
   <i type="logical" name="LMUSIC"> F  </i>
   <v name="POMASS">     58.69000000     32.06600000</v>
   <v name="DARWINR">      0.00000000      0.00000000</v>
   <v name="DARWINV">      1.00000000      1.00000000</v>
   <i type="logical" name="LCORR"> T  </i>
  </separator>
  <i type="logical" name="GGA_COMPAT"> T  </i>
  <i type="logical" name="LBERRY"> F  </i>
  <i type="int" name="ICORELEVEL">     0</i>
  <i type="logical" name="LDAU"> F  </i>
  <i type="int" name="I_CONSTRAINED_M">     0</i>
  <separator name="electronic exchange-correlation" >
   <i type="string" name="GGA">--</i>
   <i type="int" name="VOSKOWN">     0</i>
   <i type="logical" name="LHFCALC"> F  </i>
   <i type="string" name="PRECFOCK"></i>
   <i type="logical" name="LSYMGRAD"> F  </i>
   <i type="logical" name="LHFONE"> F  </i>
   <i type="logical" name="LRHFCALC"> F  </i>
   <i type="logical" name="LTHOMAS"> F  </i>
   <i type="logical" name="LMODELHF"> F  </i>
   <i name="ENCUT4O">     -1.00000000</i>
   <i type="int" name="EXXOEP">     0</i>
   <i type="int" name="FOURORBIT">     0</i>
   <i name="AEXX">      0.00000000</i>
   <i name="HFALPHA">      0.00000000</i>
   <i name="MCALPHA">      0.00000000</i>
   <i name="ALDAX">      1.00000000</i>
   <i name="AGGAX">      1.00000000</i>
   <i name="ALDAC">      1.00000000</i>
   <i name="AGGAC">      1.00000000</i>
   <i type="int" name="NKREDX">     1</i>
   <i type="int" name="NKREDY">     1</i>
   <i type="int" name="NKREDZ">     1</i>
   <i type="logical" name="SHIFTRED"> F  </i>
   <i type="logical" name="ODDONLY"> F  </i>
   <i type="logical" name="EVENONLY"> F  </i>
   <i type="int" name="LMAXFOCK">     0</i>
   <i type="int" name="NMAXFOCKAE">     0</i>
   <i type="logical" name="LFOCKAEDFT"> F  </i>
   <i name="HFSCREEN">      0.00000000</i>
   <i name="HFSCREENC">      0.00000000</i>
   <i type="int" name="NBANDSGWLOW">     0</i>
  </separator>
  <separator name="vdW DFT" >
   <i type="logical" name="LUSE_VDW"> F  </i>
   <i name="Zab_VDW">     -0.84910000</i>
   <i name="PARAM1">      0.12340000</i>
   <i name="PARAM2">      1.00000000</i>
   <i name="PARAM3">      0.00000000</i>
  </separator>
  <separator name="model GW" >
   <i type="int" name="MODEL_GW">     0</i>
   <i name="MODEL_EPS0">     15.94296978</i>
   <i name="MODEL_ALPHA">      1.00000000</i>
  </separator>
  <separator name="linear response parameters" >
   <i type="logical" name="LEPSILON"> F  </i>
   <i type="logical" name="LRPA"> F  </i>
   <i type="logical" name="LNABLA"> F  </i>
   <i type="logical" name="LVEL"> F  </i>
   <i type="int" name="KINTER">     0</i>
   <i name="CSHIFT">      0.10000000</i>
   <i name="OMEGAMAX">     -1.00000000</i>
   <i name="DEG_THRESHOLD">      0.00200000</i>
   <i name="RTIME">     -0.10000000</i>
   <i name="WPLASMAI">      0.00000000</i>
   <v name="DFIELD">      0.00000000      0.00000000      0.00000000</v>
   <v name="WPLASMA">      0.00000000      0.00000000      0.00000000      0.00000000      0.00000000      0.00000000      0.00000000      0.00000000      0.00000000</v>
  </separator>
  <separator name="orbital magnetization" >
   <i type="logical" name="NUCIND"> F  </i>
   <v name="MAGPOS">      0.00000000      0.00000000      0.00000000</v>
   <i type="logical" name="LNICSALL"> T  </i>
   <i type="logical" name="ORBITALMAG"> F  </i>
   <i type="logical" name="LMAGBLOCH"> F  </i>
   <i type="logical" name="LCHIMAG"> F  </i>
   <i type="logical" name="LGAUGE"> T  </i>
   <i type="int" name="MAGATOM">     0</i>
   <v name="MAGDIPOL">      0.00000000      0.00000000      0.00000000</v>
   <v name="AVECCONST">      0.00000000      0.00000000      0.00000000</v>
  </separator>
  <separator name="response functions" >
   <i type="logical" name="LADDER"> F  </i>
   <i type="logical" name="LRPAFORCE"> F  </i>
   <i type="logical" name="LFXC"> F  </i>
   <i type="logical" name="LHARTREE"> T  </i>
   <i type="int" name="IBSE">     0</i>
   <v type="int" name="KPOINT">    -1     0     0     0</v>
   <i type="logical" name="LTCTE"> F  </i>
   <i type="logical" name="LTETE"> F  </i>
   <i type="logical" name="LTRIPLET"> F  </i>
   <i type="logical" name="LFXCEPS"> F  </i>
   <i type="logical" name="LFXHEG"> F  </i>
   <i type="int" name="NATURALO">     2</i>
   <i type="logical" name="L2ORDER"> F  </i>
   <i type="logical" name="LMP2LT"> F  </i>
   <i type="logical" name="LUSEW"> F  </i>
   <i name="ENCUTGW">     -2.00000000</i>
   <i name="ENCUTGWSOFT">     -2.00000000</i>
   <i name="ENCUTLF">     -1.00000000</i>
   <i type="int" name="LMAXMP2">    -1</i>
   <i name="SCISSOR">      0.00000000</i>
   <i type="int" name="NOMEGA">     0</i>
   <i type="int" name="NOMEGAR">     0</i>
   <i type="int" name="NBANDSGW">    -1</i>
   <i type="int" name="NBANDSO">    -1</i>
   <i type="int" name="NBANDSV">    -1</i>
   <i type="int" name="NELM">   100</i>
   <i type="int" name="NELMHF">     1</i>
   <i type="int" name="DIM">     3</i>
   <i type="int" name="ANTIRES">     0</i>
   <i name="OMEGAMAX">    -30.00000000</i>
   <i name="OMEGAMIN">    -30.00000000</i>
   <i name="OMEGATL">   -200.00000000</i>
   <i type="int" name="OMEGAGRID">   140</i>
   <i name="CSHIFT">     -0.10000000</i>
   <i type="logical" name="SELFENERGY"> F  </i>
   <i type="logical" name="LSPECTRAL"> F  </i>
   <i type="logical" name="LSPECTRALGW"> F  </i>
   <i type="logical" name="LSINGLES"> F  </i>
   <i type="logical" name="LFERMIGW"> F  </i>
   <i type="logical" name="ODDONLYGW"> F  </i>
   <i type="logical" name="EVENONLYGW"> F  </i>
   <i type="int" name="NKREDLFX">     1</i>
   <i type="int" name="NKREDLFY">     1</i>
   <i type="int" name="NKREDLFZ">     1</i>
   <i type="int" name="MAXMEM">  2800</i>
   <i type="int" name="TELESCOPE">     0</i>
   <i type="int" name="TAUPAR">     1</i>
   <i type="int" name="OMEGAPAR">    -1</i>
   <i name="LAMBDA">      1.00000000</i>
  </separator>
  <separator name="External order field" >
   <i name="OFIELD_KAPPA">      0.00000000</i>
   <v name="OFIELD_K">      0.00000000      0.00000000      0.00000000</v>
   <i name="OFIELD_Q6_NEAR">      0.00000000</i>
   <i name="OFIELD_Q6_FAR">      0.00000000</i>
   <i name="OFIELD_A">      0.00000000</i>
  </separator>
 </parameters>
 <atominfo>
  <atoms>      96 </atoms>
  <types>       2 </types>
  <array name="atoms" >
   <dimension dim="1">ion</dimension>
   <field type="string">element</field>
   <field type="int">atomtype</field>
   <set>
    <rc><c>Ni</c><c>   1</c></rc>
    <rc><c>Ni</c><c>   1</c></rc>
    <rc><c>Ni</c><c>   1</c></rc>
    <rc><c>Ni</c><c>   1</c></rc>
    <rc><c>Ni</c><c>   1</c></rc>
    <rc><c>Ni</c><c>   1</c></rc>
    <rc><c>Ni</c><c>   1</c></rc>
    <rc><c>Ni</c><c>   1</c></rc>
    <rc><c>Ni</c><c>   1</c></rc>
    <rc><c>Ni</c><c>   1</c></rc>
    <rc><c>Ni</c><c>   1</c></rc>
    <rc><c>Ni</c><c>   1</c></rc>
    <rc><c>Ni</c><c>   1</c></rc>
    <rc><c>Ni</c><c>   1</c></rc>
    <rc><c>Ni</c><c>   1</c></rc>
    <rc><c>Ni</c><c>   1</c></rc>
    <rc><c>Ni</c><c>   1</c></rc>
    <rc><c>Ni</c><c>   1</c></rc>
    <rc><c>Ni</c><c>   1</c></rc>
    <rc><c>Ni</c><c>   1</c></rc>
    <rc><c>Ni</c><c>   1</c></rc>
    <rc><c>Ni</c><c>   1</c></rc>
    <rc><c>Ni</c><c>   1</c></rc>
    <rc><c>Ni</c><c>   1</c></rc>
    <rc><c>Ni</c><c>   1</c></rc>
    <rc><c>Ni</c><c>   1</c></rc>
    <rc><c>Ni</c><c>   1</c></rc>
    <rc><c>Ni</c><c>   1</c></rc>
    <rc><c>Ni</c><c>   1</c></rc>
    <rc><c>Ni</c><c>   1</c></rc>
    <rc><c>Ni</c><c>   1</c></rc>
    <rc><c>Ni</c><c>   1</c></rc>
    <rc><c>Ni</c><c>   1</c></rc>
    <rc><c>Ni</c><c>   1</c></rc>
    <rc><c>Ni</c><c>   1</c></rc>
    <rc><c>Ni</c><c>   1</c></rc>
    <rc><c>Ni</c><c>   1</c></rc>
    <rc><c>Ni</c><c>   1</c></rc>
    <rc><c>Ni</c><c>   1</c></rc>
    <rc><c>Ni</c><c>   1</c></rc>
    <rc><c>Ni</c><c>   1</c></rc>
    <rc><c>Ni</c><c>   1</c></rc>
    <rc><c>Ni</c><c>   1</c></rc>
    <rc><c>Ni</c><c>   1</c></rc>
    <rc><c>Ni</c><c>   1</c></rc>
    <rc><c>Ni</c><c>   1</c></rc>
    <rc><c>Ni</c><c>   1</c></rc>
    <rc><c>Ni</c><c>   1</c></rc>
    <rc><c>S </c><c>   2</c></rc>
    <rc><c>S </c><c>   2</c></rc>
    <rc><c>S </c><c>   2</c></rc>
    <rc><c>S </c><c>   2</c></rc>
    <rc><c>S </c><c>   2</c></rc>
    <rc><c>S </c><c>   2</c></rc>
    <rc><c>S </c><c>   2</c></rc>
    <rc><c>S </c><c>   2</c></rc>
    <rc><c>S </c><c>   2</c></rc>
    <rc><c>S </c><c>   2</c></rc>
    <rc><c>S </c><c>   2</c></rc>
    <rc><c>S </c><c>   2</c></rc>
    <rc><c>S </c><c>   2</c></rc>
    <rc><c>S </c><c>   2</c></rc>
    <rc><c>S </c><c>   2</c></rc>
    <rc><c>S </c><c>   2</c></rc>
    <rc><c>S </c><c>   2</c></rc>
    <rc><c>S </c><c>   2</c></rc>
    <rc><c>S </c><c>   2</c></rc>
    <rc><c>S </c><c>   2</c></rc>
    <rc><c>S </c><c>   2</c></rc>
    <rc><c>S </c><c>   2</c></rc>
    <rc><c>S </c><c>   2</c></rc>
    <rc><c>S </c><c>   2</c></rc>
    <rc><c>S </c><c>   2</c></rc>
    <rc><c>S </c><c>   2</c></rc>
    <rc><c>S </c><c>   2</c></rc>
    <rc><c>S </c><c>   2</c></rc>
    <rc><c>S </c><c>   2</c></rc>
    <rc><c>S </c><c>   2</c></rc>
    <rc><c>S </c><c>   2</c></rc>
    <rc><c>S </c><c>   2</c></rc>
    <rc><c>S </c><c>   2</c></rc>
    <rc><c>S </c><c>   2</c></rc>
    <rc><c>S </c><c>   2</c></rc>
    <rc><c>S </c><c>   2</c></rc>
    <rc><c>S </c><c>   2</c></rc>
    <rc><c>S </c><c>   2</c></rc>
    <rc><c>S </c><c>   2</c></rc>
    <rc><c>S </c><c>   2</c></rc>
    <rc><c>S </c><c>   2</c></rc>
    <rc><c>S </c><c>   2</c></rc>
    <rc><c>S </c><c>   2</c></rc>
    <rc><c>S </c><c>   2</c></rc>
    <rc><c>S </c><c>   2</c></rc>
    <rc><c>S </c><c>   2</c></rc>
    <rc><c>S </c><c>   2</c></rc>
    <rc><c>S </c><c>   2</c></rc>
   </set>
  </array>
  <array name="atomtypes" >
   <dimension dim="1">type</dimension>
   <field type="int">atomspertype</field>
   <field type="string">element</field>
   <field>mass</field>
   <field>valence</field>
   <field type="string">pseudopotential</field>
   <set>
    <rc><c>  48</c><c>Ni</c><c>     58.69000000</c><c>     16.00000000</c><c>  PAW_PBE Ni_pv 06Sep2000               </c></rc>
    <rc><c>  48</c><c>S </c><c>     32.06600000</c><c>      6.00000000</c><c>  PAW_PBE S 06Sep2000                   </c></rc>
   </set>
  </array>
 </atominfo>
 <structure name="initialpos" >
  <crystal>
   <varray name="basis" >
    <v>      11.25646304       0.00000000       0.00000000 </v>
    <v>       5.04456212      10.06282034       0.00000000 </v>
    <v>       0.00000000       0.00000000      22.51995597 </v>
   </varray>
   <i name="volume">   2550.87516496 </i>
   <varray name="rec_basis" >
    <v>       0.08883785      -0.04453504       0.00000000 </v>
    <v>       0.00000000       0.09937572       0.00000000 </v>
    <v>       0.00000000       0.00000000       0.04440506 </v>
   </varray>
  </crystal>
  <varray name="positions" >
   <v>       0.26092069       0.47878037       0.29519774 </v>
   <v>       0.35488056       0.38482050       0.42557357 </v>
   <v>       0.16696082       0.07274025       0.16482191 </v>
   <v>       0.01676877       0.08223863       0.49382809 </v>
   <v>       0.27423906       0.33335901       0.13037583 </v>
   <v>       0.36819893       0.23939914       0.26075166 </v>
   <v>       0.46215879       0.14543927       0.39112749 </v>
   <v>       0.00030194       0.37150214       0.26075166 </v>
   <v>       0.09426180       0.27754227       0.39112749 </v>
   <v>       0.22208009       0.20795640       0.48008630 </v>
   <v>       0.40634206       0.46546200       0.13037583 </v>
   <v>       0.42140490       0.03925548       0.03544227 </v>
   <v>       0.76092069       0.47878037       0.29519774 </v>
   <v>       0.85488056       0.38482050       0.42557357 </v>
   <v>       0.51635462       0.20215625       0.08898902 </v>
   <v>       0.66696082       0.07274025       0.16482191 </v>
   <v>       0.77423906       0.33335901       0.13037583 </v>
   <v>       0.86819893       0.23939914       0.26075166 </v>
   <v>       0.96215879       0.14543927       0.39112749 </v>
   <v>       0.50030194       0.37150214       0.26075166 </v>
   <v>       0.59426180       0.27754227       0.39112749 </v>
   <v>       0.90634206       0.46546200       0.13037583 </v>
   <v>       0.81956669       0.03458624       0.02672651 </v>
   <v>       0.26092069       0.97878037       0.29519774 </v>
   <v>       0.35488056       0.88482051       0.42557357 </v>
   <v>       0.16696083       0.57274025       0.16482191 </v>
   <v>       0.02141044       0.50427084       0.47304952 </v>
   <v>       0.20790889       0.02650705       0.05763018 </v>
   <v>       0.27423906       0.83335901       0.13037583 </v>
   <v>       0.36819893       0.73939914       0.26075166 </v>
   <v>       0.46215879       0.64543927       0.39112749 </v>
   <v>       0.00030194       0.87150214       0.26075166 </v>
   <v>       0.09426180       0.77754227       0.39112749 </v>
   <v>       0.40634206       0.96546200       0.13037583 </v>
   <v>       0.76092069       0.97878037       0.29519774 </v>
   <v>       0.85488056       0.88482051       0.42557357 </v>
   <v>       0.03993948       0.71532610       0.48871313 </v>
   <v>       0.66696083       0.57274025       0.16482191 </v>
   <v>       0.53030584       0.54598668       0.49105453 </v>
   <v>       0.69971222       0.90475501       0.02510753 </v>
   <v>       0.77423906       0.83335901       0.13037583 </v>
   <v>       0.86819893       0.73939914       0.26075166 </v>
   <v>       0.96215879       0.64543927       0.39112749 </v>
   <v>       0.50030194       0.87150214       0.26075166 </v>
   <v>       0.59426180       0.77754227       0.39112749 </v>
   <v>       0.67977899       0.71098412       0.49463658 </v>
   <v>       0.90634206       0.96546200       0.13037583 </v>
   <v>       0.71637304       0.52506111       0.05919316 </v>
   <v>       0.07287763       0.16682345       0.31134757 </v>
   <v>       0.16683750       0.07286358       0.44172340 </v>
   <v>       0.36539590       0.37537346       0.05989607 </v>
   <v>       0.47891775       0.26078331       0.18097174 </v>
   <v>       0.01943605       0.32540229       0.48221355 </v>
   <v>       0.43627354       0.47164252       0.35520991 </v>
   <v>       0.26877811       0.15501660       0.09844473 </v>
   <v>       0.34231367       0.06560240       0.22483408 </v>
   <v>       0.08284155       0.48021807       0.11241406 </v>
   <v>       0.17409868       0.39738739       0.22483408 </v>
   <v>       0.26805854       0.30342752       0.35520991 </v>
   <v>       0.39667011       0.21532309       0.47470978 </v>
   <v>       0.57287763       0.16682345       0.31134757 </v>
   <v>       0.66640587       0.07366396       0.41694362 </v>
   <v>       0.88528783       0.35454374       0.06220727 </v>
   <v>       0.97891775       0.26078331       0.18097174 </v>
   <v>       0.52057950       0.37616301       0.46985909 </v>
   <v>       0.93627354       0.47164252       0.35520991 </v>
   <v>       0.74835381       0.15956227       0.09445824 </v>
   <v>       0.84231367       0.06560240       0.22483408 </v>
   <v>       0.58324175       0.48292315       0.10639065 </v>
   <v>       0.67409868       0.39738739       0.22483408 </v>
   <v>       0.76805854       0.30342752       0.35520991 </v>
   <v>       0.84009618       0.22233832       0.46513621 </v>
   <v>       0.07287763       0.66682345       0.31134757 </v>
   <v>       0.15592852       0.56516518       0.43100217 </v>
   <v>       0.38956865       0.86853128       0.05563958 </v>
   <v>       0.47891775       0.76078331       0.18097174 </v>
   <v>       0.01290187       0.90406878       0.46849739 </v>
   <v>       0.43627354       0.97164252       0.35520991 </v>
   <v>       0.26085993       0.65744033       0.11308310 </v>
   <v>       0.34231367       0.56560240       0.22483408 </v>
   <v>       0.08242049       0.98055085       0.10878331 </v>
   <v>       0.17409868       0.89738739       0.22483408 </v>
   <v>       0.26805854       0.80342752       0.35520991 </v>
   <v>       0.37182509       0.71983384       0.47193710 </v>
   <v>       0.57287763       0.66682345       0.31134757 </v>
   <v>       0.66683750       0.57286358       0.44172340 </v>
   <v>       0.88527976       0.85036874       0.05967444 </v>
   <v>       0.97891775       0.76078331       0.18097174 </v>
   <v>       0.51871867       0.87740767       0.47005362 </v>
   <v>       0.93627354       0.97164252       0.35520991 </v>
   <v>       0.75813644       0.65761618       0.10714556 </v>
   <v>       0.84231367       0.56560240       0.22483408 </v>
   <v>       0.58013881       0.99134726       0.09445824 </v>
   <v>       0.67409868       0.89738739       0.22483408 </v>
   <v>       0.76805854       0.80342752       0.35520991 </v>
   <v>       0.86201841       0.70946766       0.48558574 </v>
  </varray>
 </structure>
 <calculation>
  <scstep>
   <time name="dav">   13.44   13.45</time>
   <time name="total">   13.84   13.84</time>
   <energy>
    <i name="alphaZ">   2592.50432107 </i>
    <i name="ewald"> 325372.33439738 </i>
    <i name="hartreedc">-488617.35690563 </i>
    <i name="XCdc">   4903.56981547 </i>
    <i name="pawpsdc"> 150306.04444553 </i>
    <i name="pawaedc">-156855.34918313 </i>
    <i name="eentropy">     -0.51629030 </i>
    <i name="bandstr">  -5636.86654003 </i>
    <i name="atom"> 181336.80673834 </i>
    <i name="e_fr_energy">  13401.17079872 </i>
    <i name="e_wo_entrp">  13401.68708902 </i>
    <i name="e_0_energy">  13401.42894387 </i>
   </energy>
  </scstep>
  <scstep>
   <time name="dav">   12.19   12.20</time>
   <time name="total">   12.20   12.20</time>
   <energy>
    <i name="e_fr_energy">    847.39133621 </i>
    <i name="e_wo_entrp">    848.37204737 </i>
    <i name="e_0_energy">    847.88169179 </i>
   </energy>
  </scstep>
  <scstep>
   <time name="dav">   13.03   13.03</time>
   <time name="total">   13.03   13.03</time>
   <energy>
    <i name="e_fr_energy">   -451.32095445 </i>
    <i name="e_wo_entrp">   -449.96691675 </i>
    <i name="e_0_energy">   -450.64393560 </i>
   </energy>
  </scstep>
  <scstep>
   <time name="dav">   12.86   12.87</time>
   <time name="total">   12.87   12.87</time>
   <energy>
    <i name="e_fr_energy">   -532.82272398 </i>
    <i name="e_wo_entrp">   -531.43337523 </i>
    <i name="e_0_energy">   -532.12804960 </i>
   </energy>
  </scstep>
  <scstep>
   <time name="dav">   14.64   14.64</time>
   <time name="total">   15.06   15.06</time>
   <energy>
    <i name="e_fr_energy">   -536.34517382 </i>
    <i name="e_wo_entrp">   -534.93776858 </i>
    <i name="e_0_energy">   -535.64147120 </i>
   </energy>
  </scstep>
  <scstep>
   <time name="dav">   13.99   13.99</time>
   <time name="total">   14.95   14.96</time>
   <energy>
    <i name="e_fr_energy">   -640.60378743 </i>
    <i name="e_wo_entrp">   -639.44954222 </i>
    <i name="e_0_energy">   -640.02666483 </i>
   </energy>
  </scstep>
  <scstep>
   <time name="dav">   12.73   12.73</time>
   <time name="total">   13.51   13.51</time>
   <energy>
    <i name="e_fr_energy">   -518.26506726 </i>
    <i name="e_wo_entrp">   -517.31338462 </i>
    <i name="e_0_energy">   -517.78922594 </i>
   </energy>
  </scstep>
  <scstep>
   <time name="dav">   14.76   14.76</time>
   <time name="total">   15.55   15.55</time>
   <energy>
    <i name="e_fr_energy">   -575.83547335 </i>
    <i name="e_wo_entrp">   -574.45291576 </i>
    <i name="e_0_energy">   -575.14419456 </i>
   </energy>
  </scstep>
  <scstep>
   <time name="dav">   14.81   14.81</time>
   <time name="total">   15.60   15.60</time>
   <energy>
    <i name="e_fr_energy">   -578.23711144 </i>
    <i name="e_wo_entrp">   -576.79292263 </i>
    <i name="e_0_energy">   -577.51501703 </i>
   </energy>
  </scstep>
  <scstep>
   <time name="dav">   15.20   15.20</time>
   <time name="total">   15.99   15.99</time>
   <energy>
    <i name="e_fr_energy">   -547.79154590 </i>
    <i name="e_wo_entrp">   -546.35781426 </i>
    <i name="e_0_energy">   -547.07468008 </i>
   </energy>
  </scstep>
  <scstep>
   <time name="dav">   14.97   14.97</time>
   <time name="total">   15.75   15.76</time>
   <energy>
    <i name="e_fr_energy">   -544.59505981 </i>
    <i name="e_wo_entrp">   -543.12238250 </i>
    <i name="e_0_energy">   -543.85872116 </i>
   </energy>
  </scstep>
  <scstep>
   <time name="dav">   15.05   15.05</time>
   <time name="total">   16.07   16.07</time>
   <energy>
    <i name="e_fr_energy">   -513.85162408 </i>
    <i name="e_wo_entrp">   -512.57200218 </i>
    <i name="e_0_energy">   -513.21181313 </i>
   </energy>
  </scstep>
  <scstep>
   <time name="dav">   14.78   14.78</time>
   <time name="total">   15.71   15.72</time>
   <energy>
    <i name="e_fr_energy">   -512.29248169 </i>
    <i name="e_wo_entrp">   -511.01505746 </i>
    <i name="e_0_energy">   -511.65376958 </i>
   </energy>
  </scstep>
  <scstep>
   <time name="dav">   14.60   14.61</time>
   <time name="total">   15.45   15.46</time>
   <energy>
    <i name="e_fr_energy">   -491.51015186 </i>
    <i name="e_wo_entrp">   -490.38610909 </i>
    <i name="e_0_energy">   -490.94813048 </i>
   </energy>
  </scstep>
  <scstep>
   <time name="dav">   15.25   15.25</time>
   <time name="total">   16.04   16.04</time>
   <energy>
    <i name="e_fr_energy">   -484.72706686 </i>
    <i name="e_wo_entrp">   -483.62682509 </i>
    <i name="e_0_energy">   -484.17694598 </i>
   </energy>
  </scstep>
  <scstep>
   <time name="dav">   15.18   15.18</time>
   <time name="total">   15.98   15.98</time>
   <energy>
    <i name="e_fr_energy">   -481.44761524 </i>
    <i name="e_wo_entrp">   -480.32046926 </i>
    <i name="e_0_energy">   -480.88404225 </i>
   </energy>
  </scstep>
  <scstep>
   <time name="dav">   14.51   14.51</time>
   <time name="total">   15.30   15.30</time>
   <energy>
    <i name="e_fr_energy">   -479.69874530 </i>
    <i name="e_wo_entrp">   -478.53590627 </i>
    <i name="e_0_energy">   -479.11732579 </i>
   </energy>
  </scstep>
  <scstep>
   <time name="dav">   15.15   15.16</time>
   <time name="total">   15.94   15.95</time>
   <energy>
    <i name="e_fr_energy">   -478.79129937 </i>
    <i name="e_wo_entrp">   -477.62317611 </i>
    <i name="e_0_energy">   -478.20723774 </i>
   </energy>
  </scstep>
  <scstep>
   <time name="dav">   16.12   16.12</time>
   <time name="total">   16.92   16.93</time>
   <energy>
    <i name="e_fr_energy">   -477.24254676 </i>
    <i name="e_wo_entrp">   -476.06444414 </i>
    <i name="e_0_energy">   -476.65349545 </i>
   </energy>
  </scstep>
  <scstep>
   <time name="dav">   15.14   15.14</time>
   <time name="total">   15.94   15.94</time>
   <energy>
    <i name="e_fr_energy">   -475.86097716 </i>
    <i name="e_wo_entrp">   -474.65461922 </i>
    <i name="e_0_energy">   -475.25779819 </i>
   </energy>
  </scstep>
  <scstep>
   <time name="dav">   15.74   15.74</time>
   <time name="total">   16.54   16.55</time>
   <energy>
    <i name="e_fr_energy">   -472.67230872 </i>
    <i name="e_wo_entrp">   -471.44551088 </i>
    <i name="e_0_energy">   -472.05890980 </i>
   </energy>
  </scstep>
  <scstep>
   <time name="dav">   15.03   15.03</time>
   <time name="total">   15.84   15.85</time>
   <energy>
    <i name="e_fr_energy">   -470.80191236 </i>
    <i name="e_wo_entrp">   -469.50654275 </i>
    <i name="e_0_energy">   -470.15422755 </i>
   </energy>
  </scstep>
  <scstep>
   <time name="dav">   14.72   14.72</time>
   <time name="total">   15.54   15.55</time>
   <energy>
    <i name="e_fr_energy">   -470.47882843 </i>
    <i name="e_wo_entrp">   -469.18321023 </i>
    <i name="e_0_energy">   -469.83101933 </i>
   </energy>
  </scstep>
  <scstep>
   <time name="dav">   13.38   13.38</time>
   <time name="total">   14.20   14.20</time>
   <energy>
    <i name="e_fr_energy">   -470.44940005 </i>
    <i name="e_wo_entrp">   -469.13126086 </i>
    <i name="e_0_energy">   -469.79033045 </i>
   </energy>
  </scstep>
  <scstep>
   <time name="dav">   13.10   13.10</time>
   <time name="total">   13.92   13.93</time>
   <energy>
    <i name="e_fr_energy">   -470.43648955 </i>
    <i name="e_wo_entrp">   -469.15097956 </i>
    <i name="e_0_energy">   -469.79373455 </i>
   </energy>
  </scstep>
  <scstep>
   <time name="dav">   16.25   16.25</time>
   <time name="total">   17.08   17.09</time>
   <energy>
    <i name="e_fr_energy">   -470.43240770 </i>
    <i name="e_wo_entrp">   -469.03238437 </i>
    <i name="e_0_energy">   -469.73239604 </i>
   </energy>
  </scstep>
  <scstep>
   <time name="dav">   14.94   14.94</time>
   <time name="total">   15.76   15.76</time>
   <energy>
    <i name="e_fr_energy">   -470.39203866 </i>
    <i name="e_wo_entrp">   -468.99434025 </i>
    <i name="e_0_energy">   -469.69318946 </i>
   </energy>
  </scstep>
  <scstep>
   <time name="dav">   14.43   14.43</time>
   <time name="total">   15.25   15.25</time>
   <energy>
    <i name="e_fr_energy">   -470.28556144 </i>
    <i name="e_wo_entrp">   -468.89417017 </i>
    <i name="e_0_energy">   -469.58986581 </i>
   </energy>
  </scstep>
  <scstep>
   <time name="dav">   14.58   14.59</time>
   <time name="total">   15.67   15.68</time>
   <energy>
    <i name="e_fr_energy">   -470.20984099 </i>
    <i name="e_wo_entrp">   -468.85684455 </i>
    <i name="e_0_energy">   -469.53334277 </i>
   </energy>
  </scstep>
  <scstep>
   <time name="dav">   15.35   15.35</time>
   <time name="total">   16.40   16.40</time>
   <energy>
    <i name="e_fr_energy">   -470.20691178 </i>
    <i name="e_wo_entrp">   -468.87906888 </i>
    <i name="e_0_energy">   -469.54299033 </i>
   </energy>
  </scstep>
  <scstep>
   <time name="dav">   14.39   14.40</time>
   <time name="total">   15.23   15.24</time>
   <energy>
    <i name="e_fr_energy">   -470.19538987 </i>
    <i name="e_wo_entrp">   -468.84640822 </i>
    <i name="e_0_energy">   -469.52089904 </i>
   </energy>
  </scstep>
  <scstep>
   <time name="dav">   16.42   16.42</time>
   <time name="total">   17.51   17.51</time>
   <energy>
    <i name="e_fr_energy">   -470.22484586 </i>
    <i name="e_wo_entrp">   -468.90483590 </i>
    <i name="e_0_energy">   -469.56484088 </i>
   </energy>
  </scstep>
  <scstep>
   <time name="dav">   14.44   14.44</time>
   <time name="total">   15.28   15.28</time>
   <energy>
    <i name="e_fr_energy">   -470.20150602 </i>
    <i name="e_wo_entrp">   -468.87691249 </i>
    <i name="e_0_energy">   -469.53920925 </i>
   </energy>
  </scstep>
  <scstep>
   <time name="dav">   14.76   14.76</time>
   <time name="total">   15.61   15.61</time>
   <energy>
    <i name="e_fr_energy">   -470.19563231 </i>
    <i name="e_wo_entrp">   -468.86768268 </i>
    <i name="e_0_energy">   -469.53165750 </i>
   </energy>
  </scstep>
  <scstep>
   <time name="dav">   14.10   14.11</time>
   <time name="total">   14.96   14.96</time>
   <energy>
    <i name="e_fr_energy">   -470.19461370 </i>
    <i name="e_wo_entrp">   -468.86777570 </i>
    <i name="e_0_energy">   -469.53119470 </i>
   </energy>
  </scstep>
  <scstep>
   <time name="dav">   16.19   16.20</time>
   <time name="total">   17.04   17.04</time>
   <energy>
    <i name="e_fr_energy">   -470.18451309 </i>
    <i name="e_wo_entrp">   -468.84651955 </i>
    <i name="e_0_energy">   -469.51551632 </i>
   </energy>
  </scstep>
  <scstep>
   <time name="dav">   14.62   14.62</time>
   <time name="total">   15.47   15.48</time>
   <energy>
    <i name="e_fr_energy">   -470.18461932 </i>
    <i name="e_wo_entrp">   -468.84750504 </i>
    <i name="e_0_energy">   -469.51606218 </i>
   </energy>
  </scstep>
  <scstep>
   <time name="dav">   14.78   14.78</time>
   <time name="total">   15.63   15.64</time>
   <energy>
    <i name="e_fr_energy">   -470.18561426 </i>
    <i name="e_wo_entrp">   -468.84169697 </i>
    <i name="e_0_energy">   -469.51365561 </i>
   </energy>
  </scstep>
  <scstep>
   <time name="dav">   13.07   13.08</time>
   <time name="total">   13.94   13.95</time>
   <energy>
    <i name="e_fr_energy">   -470.18458444 </i>
    <i name="e_wo_entrp">   -468.84409832 </i>
    <i name="e_0_energy">   -469.51434138 </i>
   </energy>
  </scstep>
  <scstep>
   <time name="dav">   11.73   11.74</time>
   <time name="total">   12.59   12.60</time>
   <energy>
    <i name="e_fr_energy">   -470.18481564 </i>
    <i name="e_wo_entrp">   -468.84430105 </i>
    <i name="e_0_energy">   -469.51455834 </i>
   </energy>
  </scstep>
  <scstep>
   <time name="dav">   10.91   10.91</time>
   <time name="total">   11.30   11.31</time>
   <energy>
    <i name="alphaZ">   2592.50432107 </i>
    <i name="ewald"> 325372.33439738 </i>
    <i name="hartreedc">-487703.05399046 </i>
    <i name="XCdc">   4862.70469586 </i>
    <i name="pawpsdc"> 184034.58799530 </i>
    <i name="pawaedc">-190682.58380710 </i>
    <i name="eentropy">     -1.33888693 </i>
    <i name="bandstr"> -20282.14619930 </i>
    <i name="atom"> 181336.80673834 </i>
    <i name="e_fr_energy">   -470.18473583 </i>
    <i name="e_wo_entrp">   -468.84584890 </i>
    <i name="e_0_energy">   -469.51529236 </i>
   </energy>
  </scstep>
  <structure>
   <crystal>
    <varray name="basis" >
     <v>      11.25646304       0.00000000       0.00000000 </v>
     <v>       5.04456212      10.06282034       0.00000000 </v>
     <v>       0.00000000       0.00000000      22.51995597 </v>
    </varray>
    <i name="volume">   2550.87516496 </i>
    <varray name="rec_basis" >
     <v>       0.08883785      -0.04453504       0.00000000 </v>
     <v>       0.00000000       0.09937572       0.00000000 </v>
     <v>       0.00000000       0.00000000       0.04440506 </v>
    </varray>
   </crystal>
   <varray name="positions" >
    <v>       0.26092069       0.47878037       0.29519774 </v>
    <v>       0.35488056       0.38482050       0.42557357 </v>
    <v>       0.16696082       0.07274025       0.16482191 </v>
    <v>       0.01676877       0.08223863       0.49382809 </v>
    <v>       0.27423906       0.33335901       0.13037583 </v>
    <v>       0.36819893       0.23939914       0.26075166 </v>
    <v>       0.46215879       0.14543927       0.39112749 </v>
    <v>       0.00030194       0.37150214       0.26075166 </v>
    <v>       0.09426180       0.27754227       0.39112749 </v>
    <v>       0.22208009       0.20795640       0.48008630 </v>
    <v>       0.40634206       0.46546200       0.13037583 </v>
    <v>       0.42140490       0.03925548       0.03544227 </v>
    <v>       0.76092069       0.47878037       0.29519774 </v>
    <v>       0.85488056       0.38482050       0.42557357 </v>
    <v>       0.51635462       0.20215625       0.08898902 </v>
    <v>       0.66696082       0.07274025       0.16482191 </v>
    <v>       0.77423906       0.33335901       0.13037583 </v>
    <v>       0.86819893       0.23939914       0.26075166 </v>
    <v>       0.96215879       0.14543927       0.39112749 </v>
    <v>       0.50030194       0.37150214       0.26075166 </v>
    <v>       0.59426180       0.27754227       0.39112749 </v>
    <v>       0.90634206       0.46546200       0.13037583 </v>
    <v>       0.81956669       0.03458624       0.02672651 </v>
    <v>       0.26092069       0.97878037       0.29519774 </v>
    <v>       0.35488056       0.88482051       0.42557357 </v>
    <v>       0.16696083       0.57274025       0.16482191 </v>
    <v>       0.02141044       0.50427084       0.47304952 </v>
    <v>       0.20790889       0.02650705       0.05763018 </v>
    <v>       0.27423906       0.83335901       0.13037583 </v>
    <v>       0.36819893       0.73939914       0.26075166 </v>
    <v>       0.46215879       0.64543927       0.39112749 </v>
    <v>       0.00030194       0.87150214       0.26075166 </v>
    <v>       0.09426180       0.77754227       0.39112749 </v>
    <v>       0.40634206       0.96546200       0.13037583 </v>
    <v>       0.76092069       0.97878037       0.29519774 </v>
    <v>       0.85488056       0.88482051       0.42557357 </v>
    <v>       0.03993948       0.71532610       0.48871313 </v>
    <v>       0.66696083       0.57274025       0.16482191 </v>
    <v>       0.53030584       0.54598668       0.49105453 </v>
    <v>       0.69971222       0.90475501       0.02510753 </v>
    <v>       0.77423906       0.83335901       0.13037583 </v>
    <v>       0.86819893       0.73939914       0.26075166 </v>
    <v>       0.96215879       0.64543927       0.39112749 </v>
    <v>       0.50030194       0.87150214       0.26075166 </v>
    <v>       0.59426180       0.77754227       0.39112749 </v>
    <v>       0.67977899       0.71098412       0.49463658 </v>
    <v>       0.90634206       0.96546200       0.13037583 </v>
    <v>       0.71637304       0.52506111       0.05919316 </v>
    <v>       0.07287763       0.16682345       0.31134757 </v>
    <v>       0.16683750       0.07286358       0.44172340 </v>
    <v>       0.36539590       0.37537346       0.05989607 </v>
    <v>       0.47891775       0.26078331       0.18097174 </v>
    <v>       0.01943605       0.32540229       0.48221355 </v>
    <v>       0.43627354       0.47164252       0.35520991 </v>
    <v>       0.26877811       0.15501660       0.09844473 </v>
    <v>       0.34231367       0.06560240       0.22483408 </v>
    <v>       0.08284155       0.48021807       0.11241406 </v>
    <v>       0.17409868       0.39738739       0.22483408 </v>
    <v>       0.26805854       0.30342752       0.35520991 </v>
    <v>       0.39667011       0.21532309       0.47470978 </v>
    <v>       0.57287763       0.16682345       0.31134757 </v>
    <v>       0.66640587       0.07366396       0.41694362 </v>
    <v>       0.88528783       0.35454374       0.06220727 </v>
    <v>       0.97891775       0.26078331       0.18097174 </v>
    <v>       0.52057950       0.37616301       0.46985909 </v>
    <v>       0.93627354       0.47164252       0.35520991 </v>
    <v>       0.74835381       0.15956227       0.09445824 </v>
    <v>       0.84231367       0.06560240       0.22483408 </v>
    <v>       0.58324175       0.48292315       0.10639065 </v>
    <v>       0.67409868       0.39738739       0.22483408 </v>
    <v>       0.76805854       0.30342752       0.35520991 </v>
    <v>       0.84009618       0.22233832       0.46513621 </v>
    <v>       0.07287763       0.66682345       0.31134757 </v>
    <v>       0.15592852       0.56516518       0.43100217 </v>
    <v>       0.38956865       0.86853128       0.05563958 </v>
    <v>       0.47891775       0.76078331       0.18097174 </v>
    <v>       0.01290187       0.90406878       0.46849739 </v>
    <v>       0.43627354       0.97164252       0.35520991 </v>
    <v>       0.26085993       0.65744033       0.11308310 </v>
    <v>       0.34231367       0.56560240       0.22483408 </v>
    <v>       0.08242049       0.98055085       0.10878331 </v>
    <v>       0.17409868       0.89738739       0.22483408 </v>
    <v>       0.26805854       0.80342752       0.35520991 </v>
    <v>       0.37182509       0.71983384       0.47193710 </v>
    <v>       0.57287763       0.66682345       0.31134757 </v>
    <v>       0.66683750       0.57286358       0.44172340 </v>
    <v>       0.88527976       0.85036874       0.05967444 </v>
    <v>       0.97891775       0.76078331       0.18097174 </v>
    <v>       0.51871867       0.87740767       0.47005362 </v>
    <v>       0.93627354       0.97164252       0.35520991 </v>
    <v>       0.75813644       0.65761618       0.10714556 </v>
    <v>       0.84231367       0.56560240       0.22483408 </v>
    <v>       0.58013881       0.99134726       0.09445824 </v>
    <v>       0.67409868       0.89738739       0.22483408 </v>
    <v>       0.76805854       0.80342752       0.35520991 </v>
    <v>       0.86201841       0.70946766       0.48558574 </v>
   </varray>
  </structure>
  <varray name="forces" >
   <v>       0.15749835      -0.23969889      -0.26987004 </v>
   <v>      -0.75722317       1.36437882      -1.73079480 </v>
   <v>      -0.04494170       0.76764928       1.40795771 </v>
   <v>       0.10365436      -1.02201788       1.82077795 </v>
   <v>      -0.51602584      -0.67023035       1.84259229 </v>
   <v>      -0.09166614       0.14511817      -0.09599681 </v>
   <v>       0.07245504      -0.41302347      -2.17529896 </v>
   <v>      -0.12083847       0.03376625       0.05909624 </v>
   <v>      -0.06724972       0.08943340      -1.27255765 </v>
   <v>      -0.19161447       0.18488809       0.99239141 </v>
   <v>       1.07175338       0.09808168       1.81741302 </v>
   <v>       0.54855962       0.47157976      -1.23890026 </v>
   <v>       0.16523617      -0.17096684      -0.13546581 </v>
   <v>      -0.41802742       1.06123848      -1.37051421 </v>
   <v>       0.70334163      -0.68501385      -0.84547365 </v>
   <v>       0.52321560      -0.08960930       0.86440436 </v>
   <v>      -0.56089683      -1.76547735       1.92685862 </v>
   <v>       0.08985106       0.02917673      -0.02076314 </v>
   <v>       0.28264842       0.08106513      -2.22728523 </v>
   <v>      -0.03268989       0.09337720       0.02373766 </v>
   <v>       0.28079068      -0.03612513      -2.00840463 </v>
   <v>       1.46265121      -0.28937533       2.36986324 </v>
   <v>       0.31015687       0.42558230      -1.68978698 </v>
   <v>      -0.01335188      -0.25356241      -0.12000839 </v>
   <v>      -0.68414593       0.78313385      -1.27415869 </v>
   <v>      -0.26890991       0.57647367       2.01676977 </v>
   <v>       0.20024304       0.31650402       0.65578521 </v>
   <v>      -0.97741229       1.02400994      -1.58181554 </v>
   <v>       0.44076773      -0.91260875       1.25375742 </v>
   <v>      -0.01038829       0.14793367       0.09236524 </v>
   <v>       0.18265231      -0.07928517      -1.98613442 </v>
   <v>       0.12731079      -0.01828980       0.02071950 </v>
   <v>       0.49175718       0.22125330      -1.12410584 </v>
   <v>       0.94596031      -0.79626545       3.81995985 </v>
   <v>       0.14441143      -0.13534149       0.01725985 </v>
   <v>      -0.97236749       0.43901952      -0.95087854 </v>
   <v>       1.06190243      -0.30110191       1.58237468 </v>
   <v>      -0.43167773       0.75015882       2.17978281 </v>
   <v>       0.00493881      -0.22084347       1.35032817 </v>
   <v>      -0.75764164      -0.08714585      -1.22738561 </v>
   <v>      -0.39549950      -0.15203483       1.78542826 </v>
   <v>       0.00939718       0.01725591       0.00729323 </v>
   <v>      -0.90207201       0.66143209      -1.99346056 </v>
   <v>      -0.07688466      -0.01361086       0.01907338 </v>
   <v>       0.10296544      -0.33138209      -1.89376723 </v>
   <v>       0.53737543      -0.24617525       1.55051489 </v>
   <v>       0.12620671       0.31666660       1.46940001 </v>
   <v>      -0.72824619       1.27690869      -1.93532632 </v>
   <v>       0.07221650      -0.19458747      -0.19113470 </v>
   <v>       1.67033495      -1.74054774      -0.80878058 </v>
   <v>       0.01996881       0.39622530      -3.95215967 </v>
   <v>       0.16236127      -0.20967111       0.98285493 </v>
   <v>      -0.26234147       0.71990818       2.78862306 </v>
   <v>      -0.00179435       0.19298711      -0.69815462 </v>
   <v>      -0.57256836       1.92467823      -0.51921413 </v>
   <v>       0.19946791       0.03350157       0.17454356 </v>
   <v>      -1.18059352       0.56901390      -2.26701811 </v>
   <v>      -0.15035259      -0.24272893       0.56942864 </v>
   <v>      -0.18325495      -0.06170865      -0.41074035 </v>
   <v>       0.26384699      -1.11279538       3.26105050 </v>
   <v>      -0.19091641       0.34802381      -0.94095453 </v>
   <v>       0.30969121      -0.86903109       1.74677992 </v>
   <v>       1.25944871      -2.12697451      -3.38360939 </v>
   <v>       0.07164171      -0.15494425       0.27350502 </v>
   <v>       0.78057282      -0.43984021       3.02540428 </v>
   <v>      -0.09158629       0.25800997      -0.26776675 </v>
   <v>      -0.19478464       1.88633774       0.64865934 </v>
   <v>       0.04142321      -0.03491773       0.24962720 </v>
   <v>      -1.64612173       0.29030010      -1.31099215 </v>
   <v>      -0.01282774      -0.21558238       0.50947597 </v>
   <v>      -0.13735736       0.27588149      -1.12322623 </v>
   <v>      -2.43296682       0.43649310       1.97577676 </v>
   <v>      -0.00238178       0.11031680      -0.32106998 </v>
   <v>       1.62536632      -1.03274872       0.65168504 </v>
   <v>       0.44814559      -2.73937365      -2.91842333 </v>
   <v>       0.04064469       0.14937292      -0.01350020 </v>
   <v>       0.64731708       0.33402093       2.03263327 </v>
   <v>      -0.09223185       0.20227423      -0.54866402 </v>
   <v>      -0.04577036       1.27571106      -2.27222916 </v>
   <v>       0.29116347       0.03270827       0.69785934 </v>
   <v>      -1.54632395       0.29795384      -1.23285189 </v>
   <v>       0.15832374      -0.13352342       0.84411700 </v>
   <v>      -0.23710188      -0.02846674      -0.51970892 </v>
   <v>      -2.23328990       0.35329315       2.52816760 </v>
   <v>       0.17091678      -0.20370451      -0.13663514 </v>
   <v>       0.75248941      -1.45464165      -0.87010016 </v>
   <v>       1.58078545      -2.45737031      -2.30234348 </v>
   <v>       0.01225146       0.01882864       0.27280231 </v>
   <v>       0.80070690       2.30187201       2.23362841 </v>
   <v>       0.03230467      -0.04376731      -1.03973798 </v>
   <v>       0.44576433       1.77199212      -1.38677566 </v>
   <v>       0.06826302      -0.14329278       0.67172326 </v>
   <v>      -0.82755282      -0.37010184       0.69436166 </v>
   <v>      -0.09283715      -0.05850148      -0.01315246 </v>
   <v>      -0.05060453      -0.37970052      -0.09903538 </v>
   <v>      -0.86778656      -0.17808176       0.93752048 </v>
  </varray>
  <varray name="stress" >
   <v>      62.88185793       0.19209592       0.88338481 </v>
   <v>       0.19209532      61.71688628       0.29595321 </v>
   <v>       0.88338532       0.29595313      69.16655779 </v>
  </varray>
  <energy>
   <i name="e_fr_energy">   -470.18473583 </i>
   <i name="e_wo_entrp">   -469.51529236 </i>
   <i name="e_0_energy">     -1.33888693 </i>
  </energy>
  <time name="totalsc">  634.14  634.31</time>
  <eigenvalues>
   <array>
    <dimension dim="1">band</dimension>
    <dimension dim="2">kpoint</dimension>
    <dimension dim="3">spin</dimension>
    <field>eigene</field>
    <field>occ</field>
    <set>
     <set comment="spin 1">
      <set comment="kpoint 1">
       <r>  -63.1135    1.0000 </r>
       <r>  -63.0772    1.0000 </r>
       <r>  -63.0357    1.0000 </r>
       <r>  -63.0313    1.0000 </r>
       <r>  -62.9992    1.0000 </r>
       <r>  -62.9744    1.0000 </r>
       <r>  -62.9726    1.0000 </r>
       <r>  -62.9494    1.0000 </r>
       <r>  -62.9440    1.0000 </r>
       <r>  -62.9388    1.0000 </r>
       <r>  -62.9116    1.0000 </r>
       <r>  -62.8826    1.0000 </r>
       <r>  -62.8676    1.0000 </r>
       <r>  -62.8552    1.0000 </r>
       <r>  -62.8543    1.0000 </r>
       <r>  -62.8496    1.0000 </r>
       <r>  -62.8419    1.0000 </r>
       <r>  -62.8303    1.0000 </r>
       <r>  -62.8260    1.0000 </r>
       <r>  -62.8195    1.0000 </r>
       <r>  -62.8092    1.0000 </r>
       <r>  -62.7952    1.0000 </r>
       <r>  -62.7894    1.0000 </r>
       <r>  -62.7857    1.0000 </r>
       <r>  -62.7786    1.0000 </r>
       <r>  -62.7774    1.0000 </r>
       <r>  -62.7728    1.0000 </r>
       <r>  -62.7674    1.0000 </r>
       <r>  -62.7541    1.0000 </r>
       <r>  -62.7269    1.0000 </r>
       <r>  -62.7243    1.0000 </r>
       <r>  -62.7221    1.0000 </r>
       <r>  -62.7201    1.0000 </r>
       <r>  -62.6951    1.0000 </r>
       <r>  -62.6951    1.0000 </r>
       <r>  -62.6822    1.0000 </r>
       <r>  -62.6700    1.0000 </r>
       <r>  -62.6654    1.0000 </r>
       <r>  -62.6527    1.0000 </r>
       <r>  -62.6423    1.0000 </r>
       <r>  -62.6227    1.0000 </r>
       <r>  -62.6142    1.0000 </r>
       <r>  -62.6048    1.0000 </r>
       <r>  -62.5791    1.0000 </r>
       <r>  -62.5635    1.0000 </r>
       <r>  -62.5621    1.0000 </r>
       <r>  -62.5608    1.0000 </r>
       <r>  -62.5578    1.0000 </r>
       <r>  -62.5519    1.0000 </r>
       <r>  -62.5516    1.0000 </r>
       <r>  -62.5432    1.0000 </r>
       <r>  -62.5404    1.0000 </r>
       <r>  -62.5325    1.0000 </r>
       <r>  -62.5321    1.0000 </r>
       <r>  -62.5248    1.0000 </r>
       <r>  -62.5211    1.0000 </r>
       <r>  -62.5194    1.0000 </r>
       <r>  -62.5181    1.0000 </r>
       <r>  -62.5055    1.0000 </r>
       <r>  -62.5022    1.0000 </r>
       <r>  -62.5017    1.0000 </r>
       <r>  -62.4991    1.0000 </r>
       <r>  -62.4867    1.0000 </r>
       <r>  -62.4859    1.0000 </r>
       <r>  -62.4817    1.0000 </r>
       <r>  -62.4776    1.0000 </r>
       <r>  -62.4735    1.0000 </r>
       <r>  -62.4679    1.0000 </r>
       <r>  -62.4633    1.0000 </r>
       <r>  -62.4612    1.0000 </r>
       <r>  -62.4592    1.0000 </r>
       <r>  -62.4461    1.0000 </r>
       <r>  -62.4456    1.0000 </r>
       <r>  -62.4455    1.0000 </r>
       <r>  -62.4423    1.0000 </r>
       <r>  -62.4392    1.0000 </r>
       <r>  -62.4365    1.0000 </r>
       <r>  -62.4353    1.0000 </r>
       <r>  -62.4232    1.0000 </r>
       <r>  -62.4209    1.0000 </r>
       <r>  -62.4195    1.0000 </r>
       <r>  -62.4165    1.0000 </r>
       <r>  -62.4125    1.0000 </r>
       <r>  -62.4062    1.0000 </r>
       <r>  -62.4016    1.0000 </r>
       <r>  -62.3973    1.0000 </r>
       <r>  -62.3965    1.0000 </r>
       <r>  -62.3962    1.0000 </r>
       <r>  -62.3930    1.0000 </r>
       <r>  -62.3897    1.0000 </r>
       <r>  -62.3884    1.0000 </r>
       <r>  -62.3829    1.0000 </r>
       <r>  -62.3827    1.0000 </r>
       <r>  -62.3762    1.0000 </r>
       <r>  -62.3712    1.0000 </r>
       <r>  -62.3703    1.0000 </r>
       <r>  -62.3702    1.0000 </r>
       <r>  -62.3686    1.0000 </r>
       <r>  -62.3645    1.0000 </r>
       <r>  -62.3558    1.0000 </r>
       <r>  -62.3540    1.0000 </r>
       <r>  -62.3535    1.0000 </r>
       <r>  -62.3534    1.0000 </r>
       <r>  -62.3504    1.0000 </r>
       <r>  -62.3461    1.0000 </r>
       <r>  -62.3247    1.0000 </r>
       <r>  -62.3158    1.0000 </r>
       <r>  -62.3150    1.0000 </r>
       <r>  -62.3147    1.0000 </r>
       <r>  -62.3024    1.0000 </r>
       <r>  -62.2967    1.0000 </r>
       <r>  -62.2707    1.0000 </r>
       <r>  -62.2634    1.0000 </r>
       <r>  -62.2633    1.0000 </r>
       <r>  -62.2546    1.0000 </r>
       <r>  -62.2416    1.0000 </r>
       <r>  -62.2380    1.0000 </r>
       <r>  -62.2279    1.0000 </r>
       <r>  -62.2169    1.0000 </r>
       <r>  -62.2168    1.0000 </r>
       <r>  -62.2062    1.0000 </r>
       <r>  -62.1974    1.0000 </r>
       <r>  -62.1931    1.0000 </r>
       <r>  -62.1921    1.0000 </r>
       <r>  -62.1730    1.0000 </r>
       <r>  -62.1628    1.0000 </r>
       <r>  -62.1481    1.0000 </r>
       <r>  -62.0607    1.0000 </r>
       <r>  -62.0501    1.0000 </r>
       <r>  -62.0350    1.0000 </r>
       <r>  -62.0312    1.0000 </r>
       <r>  -62.0264    1.0000 </r>
       <r>  -61.9950    1.0000 </r>
       <r>  -61.9425    1.0000 </r>
       <r>  -61.9317    1.0000 </r>
       <r>  -61.8415    1.0000 </r>
       <r>  -61.8271    1.0000 </r>
       <r>  -61.8197    1.0000 </r>
       <r>  -61.7478    1.0000 </r>
       <r>  -61.6925    1.0000 </r>
       <r>  -61.6296    1.0000 </r>
       <r>  -61.5649    1.0000 </r>
       <r>  -61.4416    1.0000 </r>
       <r>  -61.3675    1.0000 </r>
       <r>  -14.4127    1.0000 </r>
       <r>  -14.2471    1.0000 </r>
       <r>  -13.8202    1.0000 </r>
       <r>  -13.7153    1.0000 </r>
       <r>  -13.6311    1.0000 </r>
       <r>  -13.5879    1.0000 </r>
       <r>  -13.5592    1.0000 </r>
       <r>  -13.4163    1.0000 </r>
       <r>  -13.3633    1.0000 </r>
       <r>  -13.3314    1.0000 </r>
       <r>  -13.1922    1.0000 </r>
       <r>  -13.1464    1.0000 </r>
       <r>  -13.0711    1.0000 </r>
       <r>  -13.0319    1.0000 </r>
       <r>  -12.9690    1.0000 </r>
       <r>  -12.7662    1.0000 </r>
       <r>  -12.7180    1.0000 </r>
       <r>  -12.6964    1.0000 </r>
       <r>  -12.6039    1.0000 </r>
       <r>  -12.5703    1.0000 </r>
       <r>  -12.5295    1.0000 </r>
       <r>  -12.5053    1.0000 </r>
       <r>  -12.4537    1.0000 </r>
       <r>  -12.4495    1.0000 </r>
       <r>  -12.3946    1.0000 </r>
       <r>  -12.3602    1.0000 </r>
       <r>  -12.3222    1.0000 </r>
       <r>  -12.3007    1.0000 </r>
       <r>  -12.2669    1.0000 </r>
       <r>  -12.1936    1.0000 </r>
       <r>  -12.1819    1.0000 </r>
       <r>  -12.1315    1.0000 </r>
       <r>  -12.0971    1.0000 </r>
       <r>  -11.9733    1.0000 </r>
       <r>  -11.9464    1.0000 </r>
       <r>  -11.8747    1.0000 </r>
       <r>  -11.8667    1.0000 </r>
       <r>  -11.8302    1.0000 </r>
       <r>  -11.8013    1.0000 </r>
       <r>  -11.7613    1.0000 </r>
       <r>  -11.6695    1.0000 </r>
       <r>  -11.5839    1.0000 </r>
       <r>  -11.5353    1.0000 </r>
       <r>  -11.5086    1.0000 </r>
       <r>  -11.4872    1.0000 </r>
       <r>  -11.4435    1.0000 </r>
       <r>  -11.2689    1.0000 </r>
       <r>  -11.1698    1.0000 </r>
       <r>   -6.2665    1.0000 </r>
       <r>   -6.1650    1.0000 </r>
       <r>   -6.1567    1.0000 </r>
       <r>   -6.0581    1.0000 </r>
       <r>   -6.0322    1.0000 </r>
       <r>   -5.9812    1.0000 </r>
       <r>   -5.9053    1.0000 </r>
       <r>   -5.8533    1.0000 </r>
       <r>   -5.7667    1.0000 </r>
       <r>   -5.7114    1.0000 </r>
       <r>   -5.5571    1.0000 </r>
       <r>   -5.4658    1.0000 </r>
       <r>   -5.4546    1.0000 </r>
       <r>   -5.3909    1.0000 </r>
       <r>   -5.3198    1.0000 </r>
       <r>   -5.2927    1.0000 </r>
       <r>   -5.2582    1.0000 </r>
       <r>   -5.2362    1.0000 </r>
       <r>   -5.2194    1.0000 </r>
       <r>   -5.1745    1.0000 </r>
       <r>   -5.1422    1.0000 </r>
       <r>   -5.1281    1.0000 </r>
       <r>   -5.0545    1.0000 </r>
       <r>   -5.0435    1.0000 </r>
       <r>   -5.0269    1.0000 </r>
       <r>   -5.0107    1.0000 </r>
       <r>   -4.9854    1.0000 </r>
       <r>   -4.9683    1.0000 </r>
       <r>   -4.9287    1.0000 </r>
       <r>   -4.9110    1.0000 </r>
       <r>   -4.8516    1.0000 </r>
       <r>   -4.8343    1.0000 </r>
       <r>   -4.7851    1.0000 </r>
       <r>   -4.7688    1.0000 </r>
       <r>   -4.7142    1.0000 </r>
       <r>   -4.6946    1.0000 </r>
       <r>   -4.6591    1.0000 </r>
       <r>   -4.6240    1.0000 </r>
       <r>   -4.5663    1.0000 </r>
       <r>   -4.5370    1.0000 </r>
       <r>   -4.5057    1.0000 </r>
       <r>   -4.4379    1.0000 </r>
       <r>   -4.4013    1.0000 </r>
       <r>   -4.3676    1.0000 </r>
       <r>   -4.3384    1.0000 </r>
       <r>   -4.3269    1.0000 </r>
       <r>   -4.2860    1.0000 </r>
       <r>   -4.2445    1.0000 </r>
       <r>   -4.1933    1.0000 </r>
       <r>   -4.1789    1.0000 </r>
       <r>   -4.1505    1.0000 </r>
       <r>   -4.1386    1.0000 </r>
       <r>   -4.1183    1.0000 </r>
       <r>   -4.1081    1.0000 </r>
       <r>   -4.0483    1.0000 </r>
       <r>   -3.9865    1.0000 </r>
       <r>   -3.9704    1.0000 </r>
       <r>   -3.9406    1.0000 </r>
       <r>   -3.9292    1.0000 </r>
       <r>   -3.8636    1.0000 </r>
       <r>   -3.8485    1.0000 </r>
       <r>   -3.8270    1.0000 </r>
       <r>   -3.8043    1.0000 </r>
       <r>   -3.7575    1.0000 </r>
       <r>   -3.7323    1.0000 </r>
       <r>   -3.7084    1.0000 </r>
       <r>   -3.6694    1.0000 </r>
       <r>   -3.6538    1.0000 </r>
       <r>   -3.6196    1.0000 </r>
       <r>   -3.5911    1.0000 </r>
       <r>   -3.5654    1.0000 </r>
       <r>   -3.5405    1.0000 </r>
       <r>   -3.4988    1.0000 </r>
       <r>   -3.4847    1.0000 </r>
       <r>   -3.4720    1.0000 </r>
       <r>   -3.4183    1.0000 </r>
       <r>   -3.4049    1.0000 </r>
       <r>   -3.3814    1.0000 </r>
       <r>   -3.3639    1.0000 </r>
       <r>   -3.3453    1.0000 </r>
       <r>   -3.3347    1.0000 </r>
       <r>   -3.3114    1.0000 </r>
       <r>   -3.2790    1.0000 </r>
       <r>   -3.2695    1.0000 </r>
       <r>   -3.2386    1.0000 </r>
       <r>   -3.2228    1.0000 </r>
       <r>   -3.1991    1.0000 </r>
       <r>   -3.1733    1.0000 </r>
       <r>   -3.1657    1.0000 </r>
       <r>   -3.1276    1.0000 </r>
       <r>   -3.1157    1.0000 </r>
       <r>   -3.0986    1.0000 </r>
       <r>   -3.0737    1.0000 </r>
       <r>   -3.0516    1.0000 </r>
       <r>   -3.0016    1.0000 </r>
       <r>   -2.9828    1.0000 </r>
       <r>   -2.9788    1.0000 </r>
       <r>   -2.9555    1.0000 </r>
       <r>   -2.9283    1.0000 </r>
       <r>   -2.9254    1.0000 </r>
       <r>   -2.8490    1.0000 </r>
       <r>   -2.8070    1.0000 </r>
       <r>   -2.7961    1.0000 </r>
       <r>   -2.7731    1.0000 </r>
       <r>   -2.7623    1.0000 </r>
       <r>   -2.7348    1.0000 </r>
       <r>   -2.7022    1.0000 </r>
       <r>   -2.6797    1.0000 </r>
       <r>   -2.6550    1.0000 </r>
       <r>   -2.6278    1.0000 </r>
       <r>   -2.6064    1.0000 </r>
       <r>   -2.5632    1.0000 </r>
       <r>   -2.5440    1.0000 </r>
       <r>   -2.5258    1.0000 </r>
       <r>   -2.4983    1.0000 </r>
       <r>   -2.4854    1.0000 </r>
       <r>   -2.4544    1.0000 </r>
       <r>   -2.4363    1.0000 </r>
       <r>   -2.4235    1.0000 </r>
       <r>   -2.3981    1.0000 </r>
       <r>   -2.3728    1.0000 </r>
       <r>   -2.3667    1.0000 </r>
       <r>   -2.3446    1.0000 </r>
       <r>   -2.3267    1.0000 </r>
       <r>   -2.3120    1.0000 </r>
       <r>   -2.2696    1.0000 </r>
       <r>   -2.2611    1.0000 </r>
       <r>   -2.2383    1.0000 </r>
       <r>   -2.2207    1.0000 </r>
       <r>   -2.1881    1.0000 </r>
       <r>   -2.1155    1.0000 </r>
       <r>   -2.0853    1.0000 </r>
       <r>   -2.0590    1.0000 </r>
       <r>   -2.0175    1.0000 </r>
       <r>   -1.9559    1.0000 </r>
       <r>   -1.8548    1.0000 </r>
       <r>   -1.7972    1.0000 </r>
       <r>   -1.7698    1.0000 </r>
       <r>   -1.7416    1.0000 </r>
       <r>   -1.7160    1.0000 </r>
       <r>   -1.6978    1.0000 </r>
       <r>   -1.6561    1.0000 </r>
       <r>   -1.6346    1.0000 </r>
       <r>   -1.5983    1.0000 </r>
       <r>   -1.5649    1.0000 </r>
       <r>   -1.5546    1.0000 </r>
       <r>   -1.5489    1.0000 </r>
       <r>   -1.5330    1.0000 </r>
       <r>   -1.4944    1.0000 </r>
       <r>   -1.4796    1.0000 </r>
       <r>   -1.4695    1.0000 </r>
       <r>   -1.4180    1.0000 </r>
       <r>   -1.4057    1.0000 </r>
       <r>   -1.3920    1.0000 </r>
       <r>   -1.3707    1.0000 </r>
       <r>   -1.3497    1.0000 </r>
       <r>   -1.3422    1.0000 </r>
       <r>   -1.3162    1.0000 </r>
       <r>   -1.3056    1.0000 </r>
       <r>   -1.2642    1.0000 </r>
       <r>   -1.2425    1.0000 </r>
       <r>   -1.2259    1.0000 </r>
       <r>   -1.1938    1.0000 </r>
       <r>   -1.1807    1.0000 </r>
       <r>   -1.1508    1.0000 </r>
       <r>   -1.1378    1.0000 </r>
       <r>   -1.1023    1.0000 </r>
       <r>   -1.0917    1.0000 </r>
       <r>   -1.0663    1.0000 </r>
       <r>   -1.0389    1.0000 </r>
       <r>   -1.0295    1.0000 </r>
       <r>   -1.0187    1.0000 </r>
       <r>   -0.9984    1.0000 </r>
       <r>   -0.9950    1.0000 </r>
       <r>   -0.9889    1.0000 </r>
       <r>   -0.9467    1.0000 </r>
       <r>   -0.9408    1.0000 </r>
       <r>   -0.9135    1.0000 </r>
       <r>   -0.8980    1.0000 </r>
       <r>   -0.8913    1.0000 </r>
       <r>   -0.8600    1.0000 </r>
       <r>   -0.8466    1.0000 </r>
       <r>   -0.8326    1.0000 </r>
       <r>   -0.8175    1.0000 </r>
       <r>   -0.8043    1.0000 </r>
       <r>   -0.7899    1.0000 </r>
       <r>   -0.7788    1.0000 </r>
       <r>   -0.7735    1.0000 </r>
       <r>   -0.7602    1.0000 </r>
       <r>   -0.7250    1.0000 </r>
       <r>   -0.7030    1.0000 </r>
       <r>   -0.7020    1.0000 </r>
       <r>   -0.6910    1.0000 </r>
       <r>   -0.6827    1.0000 </r>
       <r>   -0.6611    1.0000 </r>
       <r>   -0.6600    1.0000 </r>
       <r>   -0.6364    1.0000 </r>
       <r>   -0.6305    1.0000 </r>
       <r>   -0.6235    1.0000 </r>
       <r>   -0.5871    1.0000 </r>
       <r>   -0.5776    1.0000 </r>
       <r>   -0.5762    1.0000 </r>
       <r>   -0.5628    1.0000 </r>
       <r>   -0.5527    1.0000 </r>
       <r>   -0.5414    1.0000 </r>
       <r>   -0.5402    1.0000 </r>
       <r>   -0.5355    1.0000 </r>
       <r>   -0.5135    1.0000 </r>
       <r>   -0.4938    1.0000 </r>
       <r>   -0.4844    1.0000 </r>
       <r>   -0.4599    1.0000 </r>
       <r>   -0.4552    1.0000 </r>
       <r>   -0.4497    1.0000 </r>
       <r>   -0.4203    1.0000 </r>
       <r>   -0.4139    1.0000 </r>
       <r>   -0.4111    1.0000 </r>
       <r>   -0.4045    1.0000 </r>
       <r>   -0.3921    1.0000 </r>
       <r>   -0.3789    1.0000 </r>
       <r>   -0.3752    1.0000 </r>
       <r>   -0.3496    1.0000 </r>
       <r>   -0.3409    1.0000 </r>
       <r>   -0.3384    1.0000 </r>
       <r>   -0.3122    1.0000 </r>
       <r>   -0.2967    1.0000 </r>
       <r>   -0.2851    1.0000 </r>
       <r>   -0.2768    1.0000 </r>
       <r>   -0.2665    1.0000 </r>
       <r>   -0.2541    1.0000 </r>
       <r>   -0.2440    1.0000 </r>
       <r>   -0.2332    1.0000 </r>
       <r>   -0.2168    1.0000 </r>
       <r>   -0.2004    1.0000 </r>
       <r>   -0.1956    1.0000 </r>
       <r>   -0.1920    1.0000 </r>
       <r>   -0.1751    1.0000 </r>
       <r>   -0.1678    1.0000 </r>
       <r>   -0.1554    1.0000 </r>
       <r>   -0.1418    1.0000 </r>
       <r>   -0.1382    1.0000 </r>
       <r>   -0.1279    1.0000 </r>
       <r>   -0.1140    1.0000 </r>
       <r>   -0.1007    1.0000 </r>
       <r>   -0.0801    1.0000 </r>
       <r>   -0.0759    1.0000 </r>
       <r>   -0.0608    1.0000 </r>
       <r>   -0.0554    1.0000 </r>
       <r>   -0.0477    1.0000 </r>
       <r>   -0.0387    1.0000 </r>
       <r>   -0.0322    1.0000 </r>
       <r>   -0.0291    1.0000 </r>
       <r>   -0.0195    1.0000 </r>
       <r>   -0.0102    1.0000 </r>
       <r>   -0.0053    1.0000 </r>
       <r>    0.0140    1.0000 </r>
       <r>    0.0243    1.0000 </r>
       <r>    0.0350    1.0000 </r>
       <r>    0.0441    1.0000 </r>
       <r>    0.0661    1.0000 </r>
       <r>    0.0706    1.0000 </r>
       <r>    0.0792    1.0000 </r>
       <r>    0.0878    1.0000 </r>
       <r>    0.1046    1.0000 </r>
       <r>    0.1148    1.0000 </r>
       <r>    0.1416    1.0000 </r>
       <r>    0.1539    1.0000 </r>
       <r>    0.1564    1.0000 </r>
       <r>    0.1799    1.0000 </r>
       <r>    0.1998    1.0000 </r>
       <r>    0.2034    1.0000 </r>
       <r>    0.2235    1.0000 </r>
       <r>    0.2289    1.0000 </r>
       <r>    0.2317    1.0000 </r>
       <r>    0.2445    1.0000 </r>
       <r>    0.2530    1.0000 </r>
       <r>    0.2719    1.0000 </r>
       <r>    0.3006    1.0000 </r>
       <r>    0.3108    1.0000 </r>
       <r>    0.3313    1.0000 </r>
       <r>    0.3389    1.0000 </r>
       <r>    0.3482    1.0000 </r>
       <r>    0.3725    1.0000 </r>
       <r>    0.3900    1.0000 </r>
       <r>    0.4107    1.0000 </r>
       <r>    0.4140    1.0000 </r>
       <r>    0.4238    1.0000 </r>
       <r>    0.4413    1.0000 </r>
       <r>    0.4712    1.0000 </r>
       <r>    0.4802    1.0000 </r>
       <r>    0.4982    1.0000 </r>
       <r>    0.5089    1.0000 </r>
       <r>    0.5328    1.0000 </r>
       <r>    0.5504    1.0000 </r>
       <r>    0.5788    1.0000 </r>
       <r>    0.5884    1.0000 </r>
       <r>    0.6178    1.0000 </r>
       <r>    0.6305    1.0000 </r>
       <r>    0.6441    1.0000 </r>
       <r>    0.6494    1.0000 </r>
       <r>    0.6611    1.0000 </r>
       <r>    0.6888    1.0000 </r>
       <r>    0.7343    1.0000 </r>
       <r>    0.7483    1.0000 </r>
       <r>    0.7638    1.0000 </r>
[...]
       <r>   -58.5991     0.0000   288.0000 </r>
       <r>   -58.3391     0.0000   288.0000 </r>
       <r>   -58.0791     0.0000   288.0000 </r>
       <r>   -57.8192     0.0000   288.0000 </r>
       <r>   -57.5592     0.0000   288.0000 </r>
       <r>   -57.2992     0.0000   288.0000 </r>
       <r>   -57.0392     0.0000   288.0000 </r>
       <r>   -56.7792     0.0000   288.0000 </r>
       <r>   -56.5192     0.0000   288.0000 </r>
       <r>   -56.2592     0.0000   288.0000 </r>
       <r>   -55.9992     0.0000   288.0000 </r>
       <r>   -55.7392     0.0000   288.0000 </r>
       <r>   -55.4792     0.0000   288.0000 </r>
       <r>   -55.2192     0.0000   288.0000 </r>
       <r>   -54.9593     0.0000   288.0000 </r>
       <r>   -54.6993     0.0000   288.0000 </r>
       <r>   -54.4393     0.0000   288.0000 </r>
       <r>   -54.1793     0.0000   288.0000 </r>
       <r>   -53.9193     0.0000   288.0000 </r>
       <r>   -53.6593     0.0000   288.0000 </r>
       <r>   -53.3993     0.0000   288.0000 </r>
       <r>   -53.1393     0.0000   288.0000 </r>
       <r>   -52.8793     0.0000   288.0000 </r>
       <r>   -52.6193     0.0000   288.0000 </r>
       <r>   -52.3593     0.0000   288.0000 </r>
       <r>   -52.0994     0.0000   288.0000 </r>
       <r>   -51.8394     0.0000   288.0000 </r>
       <r>   -51.5794     0.0000   288.0000 </r>
       <r>   -51.3194     0.0000   288.0000 </r>
       <r>   -51.0594     0.0000   288.0000 </r>
       <r>   -50.7994     0.0000   288.0000 </r>
       <r>   -50.5394     0.0000   288.0000 </r>
       <r>   -50.2794     0.0000   288.0000 </r>
       <r>   -50.0194     0.0000   288.0000 </r>
       <r>   -49.7594     0.0000   288.0000 </r>
       <r>   -49.4994     0.0000   288.0000 </r>
       <r>   -49.2395     0.0000   288.0000 </r>
       <r>   -48.9795     0.0000   288.0000 </r>
       <r>   -48.7195     0.0000   288.0000 </r>
       <r>   -48.4595     0.0000   288.0000 </r>
       <r>   -48.1995     0.0000   288.0000 </r>
       <r>   -47.9395     0.0000   288.0000 </r>
       <r>   -47.6795     0.0000   288.0000 </r>
       <r>   -47.4195     0.0000   288.0000 </r>
       <r>   -47.1595     0.0000   288.0000 </r>
       <r>   -46.8995     0.0000   288.0000 </r>
       <r>   -46.6395     0.0000   288.0000 </r>
       <r>   -46.3796     0.0000   288.0000 </r>
       <r>   -46.1196     0.0000   288.0000 </r>
       <r>   -45.8596     0.0000   288.0000 </r>
       <r>   -45.5996     0.0000   288.0000 </r>
       <r>   -45.3396     0.0000   288.0000 </r>
       <r>   -45.0796     0.0000   288.0000 </r>
       <r>   -44.8196     0.0000   288.0000 </r>
       <r>   -44.5596     0.0000   288.0000 </r>
       <r>   -44.2996     0.0000   288.0000 </r>
       <r>   -44.0396     0.0000   288.0000 </r>
       <r>   -43.7796     0.0000   288.0000 </r>
       <r>   -43.5197     0.0000   288.0000 </r>
       <r>   -43.2597     0.0000   288.0000 </r>
       <r>   -42.9997     0.0000   288.0000 </r>
       <r>   -42.7397     0.0000   288.0000 </r>
       <r>   -42.4797     0.0000   288.0000 </r>
       <r>   -42.2197     0.0000   288.0000 </r>
       <r>   -41.9597     0.0000   288.0000 </r>
       <r>   -41.6997     0.0000   288.0000 </r>
       <r>   -41.4397     0.0000   288.0000 </r>
       <r>   -41.1797     0.0000   288.0000 </r>
       <r>   -40.9197     0.0000   288.0000 </r>
       <r>   -40.6598     0.0000   288.0000 </r>
       <r>   -40.3998     0.0000   288.0000 </r>
       <r>   -40.1398     0.0000   288.0000 </r>
       <r>   -39.8798     0.0000   288.0000 </r>
       <r>   -39.6198     0.0000   288.0000 </r>
       <r>   -39.3598     0.0000   288.0000 </r>
       <r>   -39.0998     0.0000   288.0000 </r>
       <r>   -38.8398     0.0000   288.0000 </r>
       <r>   -38.5798     0.0000   288.0000 </r>
       <r>   -38.3198     0.0000   288.0000 </r>
       <r>   -38.0598     0.0000   288.0000 </r>
       <r>   -37.7999     0.0000   288.0000 </r>
       <r>   -37.5399     0.0000   288.0000 </r>
       <r>   -37.2799     0.0000   288.0000 </r>
       <r>   -37.0199     0.0000   288.0000 </r>
       <r>   -36.7599     0.0000   288.0000 </r>
       <r>   -36.4999     0.0000   288.0000 </r>
       <r>   -36.2399     0.0000   288.0000 </r>
       <r>   -35.9799     0.0000   288.0000 </r>
       <r>   -35.7199     0.0000   288.0000 </r>
       <r>   -35.4599     0.0000   288.0000 </r>
       <r>   -35.1999     0.0000   288.0000 </r>
       <r>   -34.9400     0.0000   288.0000 </r>
       <r>   -34.6800     0.0000   288.0000 </r>
       <r>   -34.4200     0.0000   288.0000 </r>
       <r>   -34.1600     0.0000   288.0000 </r>
       <r>   -33.9000     0.0000   288.0000 </r>
       <r>   -33.6400     0.0000   288.0000 </r>
       <r>   -33.3800     0.0000   288.0000 </r>
       <r>   -33.1200     0.0000   288.0000 </r>
       <r>   -32.8600     0.0000   288.0000 </r>
       <r>   -32.6000     0.0000   288.0000 </r>
       <r>   -32.3400     0.0000   288.0000 </r>
       <r>   -32.0801     0.0000   288.0000 </r>
       <r>   -31.8201     0.0000   288.0000 </r>
       <r>   -31.5601     0.0000   288.0000 </r>
       <r>   -31.3001     0.0000   288.0000 </r>
       <r>   -31.0401     0.0000   288.0000 </r>
       <r>   -30.7801     0.0000   288.0000 </r>
       <r>   -30.5201     0.0000   288.0000 </r>
       <r>   -30.2601     0.0000   288.0000 </r>
       <r>   -30.0001     0.0000   288.0000 </r>
       <r>   -29.7401     0.0000   288.0000 </r>
       <r>   -29.4802     0.0000   288.0000 </r>
       <r>   -29.2202     0.0000   288.0000 </r>
       <r>   -28.9602     0.0000   288.0000 </r>
       <r>   -28.7002     0.0000   288.0000 </r>
       <r>   -28.4402     0.0000   288.0000 </r>
       <r>   -28.1802     0.0000   288.0000 </r>
       <r>   -27.9202     0.0000   288.0000 </r>
       <r>   -27.6602     0.0000   288.0000 </r>
       <r>   -27.4002     0.0000   288.0000 </r>
       <r>   -27.1402     0.0000   288.0000 </r>
       <r>   -26.8802     0.0000   288.0000 </r>
       <r>   -26.6203     0.0000   288.0000 </r>
       <r>   -26.3603     0.0000   288.0000 </r>
       <r>   -26.1003     0.0000   288.0000 </r>
       <r>   -25.8403     0.0000   288.0000 </r>
       <r>   -25.5803     0.0000   288.0000 </r>
       <r>   -25.3203     0.0000   288.0000 </r>
       <r>   -25.0603     0.0000   288.0000 </r>
       <r>   -24.8003     0.0000   288.0000 </r>
       <r>   -24.5403     0.0000   288.0000 </r>
       <r>   -24.2803     0.0000   288.0000 </r>
       <r>   -24.0203     0.0000   288.0000 </r>
       <r>   -23.7604     0.0000   288.0000 </r>
       <r>   -23.5004     0.0000   288.0000 </r>
       <r>   -23.2404     0.0000   288.0000 </r>
       <r>   -22.9804     0.0000   288.0000 </r>
       <r>   -22.7204     0.0000   288.0000 </r>
       <r>   -22.4604     0.0000   288.0000 </r>
       <r>   -22.2004     0.0000   288.0000 </r>
       <r>   -21.9404     0.0000   288.0000 </r>
       <r>   -21.6804     0.0000   288.0000 </r>
       <r>   -21.4204     0.0000   288.0000 </r>
       <r>   -21.1604     0.0000   288.0000 </r>
       <r>   -20.9005     0.0000   288.0000 </r>
       <r>   -20.6405     0.0000   288.0000 </r>
       <r>   -20.3805     0.0000   288.0000 </r>
       <r>   -20.1205     0.0000   288.0000 </r>
       <r>   -19.8605     0.0000   288.0000 </r>
       <r>   -19.6005     0.0000   288.0000 </r>
       <r>   -19.3405     0.0000   288.0000 </r>
       <r>   -19.0805     0.0000   288.0000 </r>
       <r>   -18.8205     0.0000   288.0000 </r>
       <r>   -18.5605     0.0000   288.0000 </r>
       <r>   -18.3005     0.0000   288.0000 </r>
       <r>   -18.0406     0.0000   288.0000 </r>
       <r>   -17.7806     0.0000   288.0000 </r>
       <r>   -17.5206     0.0000   288.0000 </r>
       <r>   -17.2606     0.0000   288.0000 </r>
       <r>   -17.0006     0.0000   288.0000 </r>
       <r>   -16.7406     0.0000   288.0000 </r>
       <r>   -16.4806     0.0000   288.0000 </r>
       <r>   -16.2206     0.0000   288.0000 </r>
       <r>   -15.9606     0.0000   288.0000 </r>
       <r>   -15.7006     0.0000   288.0000 </r>
       <r>   -15.4406     0.0000   288.0000 </r>
       <r>   -15.1807     0.0000   288.0000 </r>
       <r>   -14.9207     0.0013   288.0003 </r>
       <r>   -14.6607     0.3180   288.0830 </r>
       <r>   -14.4007     4.8554   289.3454 </r>
       <r>   -14.1407     8.3652   291.5202 </r>
       <r>   -13.8807     5.8517   293.0416 </r>
       <r>   -13.6207    19.6026   298.1381 </r>
       <r>   -13.3607    27.3450   305.2476 </r>
       <r>   -13.1007    27.4475   312.3837 </r>
       <r>   -12.8407    24.7273   318.8125 </r>
       <r>   -12.5807    33.8910   327.6239 </r>
       <r>   -12.3208    51.6539   341.0534 </r>
       <r>   -12.0608    45.9662   353.0042 </r>
       <r>   -11.8008    41.2395   363.7261 </r>
       <r>   -11.5408    38.1852   373.6539 </r>
       <r>   -11.2808    27.3049   380.7529 </r>
       <r>   -11.0208    11.0428   383.6240 </r>
       <r>   -10.7608     1.4303   383.9958 </r>
       <r>   -10.5008     0.0160   384.0000 </r>
       <r>   -10.2408     0.0000   384.0000 </r>
       <r>    -9.9808     0.0000   384.0000 </r>
       <r>    -9.7208     0.0000   384.0000 </r>
       <r>    -9.4609     0.0000   384.0000 </r>
       <r>    -9.2009     0.0000   384.0000 </r>
       <r>    -8.9409     0.0000   384.0000 </r>
       <r>    -8.6809     0.0000   384.0000 </r>
       <r>    -8.4209     0.0000   384.0000 </r>
       <r>    -8.1609     0.0000   384.0000 </r>
       <r>    -7.9009     0.0000   384.0000 </r>
       <r>    -7.6409     0.0000   384.0000 </r>
       <r>    -7.3809     0.0000   384.0000 </r>
       <r>    -7.1209     0.0000   384.0000 </r>
       <r>    -6.8609     0.0001   384.0000 </r>
       <r>    -6.6010     0.0843   384.0220 </r>
       <r>    -6.3410     4.1177   385.0925 </r>
       <r>    -6.0810    23.1251   391.1048 </r>
       <r>    -5.8210    31.6576   399.3355 </r>
       <r>    -5.5610    25.2376   405.8971 </r>
       <r>    -5.3010    39.1287   416.0702 </r>
       <r>    -5.0410    62.8960   432.4226 </r>
       <r>    -4.7810    65.4253   449.4325 </r>
       <r>    -4.5210    54.7696   463.6721 </r>
       <r>    -4.2610    57.1840   478.5394 </r>
       <r>    -4.0010    65.1122   495.4680 </r>
       <r>    -3.7411    66.3800   512.7262 </r>
       <r>    -3.4811    74.0156   531.9696 </r>
       <r>    -3.2211    87.9584   554.8380 </r>
       <r>    -2.9611    86.1970   577.2484 </r>
       <r>    -2.7011    77.2228   597.3256 </r>
       <r>    -2.4411    84.7533   619.3607 </r>
       <r>    -2.1811    82.0485   640.6926 </r>
       <r>    -1.9211    50.1374   653.7278 </r>
       <r>    -1.6611    55.3073   668.1072 </r>
       <r>    -1.4011    85.5753   690.3560 </r>
       <r>    -1.1411    95.2198   715.1123 </r>
       <r>    -0.8812   112.5709   744.3797 </r>
       <r>    -0.6212   140.7679   780.9780 </r>
       <r>    -0.3612   163.7880   823.5614 </r>
       <r>    -0.1012   177.6627   869.7521 </r>
       <r>     0.1588   175.5388   915.3906 </r>
       <r>     0.4188   141.7917   952.2551 </r>
       <r>     0.6788   111.8225   981.3279 </r>
       <r>     0.9388    89.2755  1004.5387 </r>
       <r>     1.1988    83.2704  1026.1883 </r>
       <r>     1.4588    77.2196  1046.2647 </r>
       <r>     1.7188    66.9044  1063.6592 </r>
       <r>     1.9787    53.5297  1077.5764 </r>
       <r>     2.2387    62.0385  1093.7059 </r>
       <r>     2.4987    68.7659  1111.5844 </r>
       <r>     2.7587    63.7599  1128.1614 </r>
       <r>     3.0187    44.8062  1139.8106 </r>
       <r>     3.2787    31.9201  1148.1095 </r>
       <r>     3.5387    14.9292  1151.9910 </r>
       <r>     3.7987     6.5139  1153.6845 </r>
       <r>     4.0587     1.2036  1153.9975 </r>
       <r>     4.3187     0.8312  1154.2136 </r>
       <r>     4.5787     7.6256  1156.1961 </r>
       <r>     4.8386    17.8045  1160.8252 </r>
       <r>     5.0986    23.5799  1166.9557 </r>
       <r>     5.3586    19.0470  1171.9077 </r>
       <r>     5.6186    17.8302  1176.5434 </r>
       <r>     5.8786    24.6464  1182.9513 </r>
       <r>     6.1386    35.4485  1192.1676 </r>
       <r>     6.3986    28.7657  1199.6464 </r>
       <r>     6.6586    32.1607  1208.0079 </r>
       <r>     6.9186    45.1582  1219.7486 </r>
       <r>     7.1786    50.8330  1232.9647 </r>
       <r>     7.4386    53.5417  1246.8851 </r>
       <r>     7.6985    51.5717  1260.2933 </r>
       <r>     7.9585    26.9660  1267.3042 </r>
       <r>     8.2185     2.6556  1267.9946 </r>
       <r>     8.4785     0.0207  1268.0000 </r>
       <r>     8.7385     0.0000  1268.0000 </r>
       <r>     8.9985     0.0000  1268.0000 </r>
       <r>     9.2585     0.0000  1268.0000 </r>
       <r>     9.5185     0.0000  1268.0000 </r>
       <r>     9.7785     0.0000  1268.0000 </r>
       <r>    10.0385     0.0000  1268.0000 </r>
       <r>    10.2985     0.0000  1268.0000 </r>
       <r>    10.5584     0.0000  1268.0000 </r>
       <r>    10.8184     0.0000  1268.0000 </r>
       <r>    11.0784     0.0000  1268.0000 </r>
       <r>    11.3384     0.0000  1268.0000 </r>
      </set>
     </set>
    </array>
   </total>
  </dos>
 </calculation>
 <structure name="finalpos" >
  <crystal>
   <varray name="basis" >
    <v>      11.25646304       0.00000000       0.00000000 </v>
    <v>       5.04456212      10.06282034       0.00000000 </v>
    <v>       0.00000000       0.00000000      22.51995597 </v>
   </varray>
   <i name="volume">   2550.87516496 </i>
   <varray name="rec_basis" >
    <v>       0.08883785      -0.04453504       0.00000000 </v>
    <v>       0.00000000       0.09937572       0.00000000 </v>
    <v>       0.00000000       0.00000000       0.04440506 </v>
   </varray>
  </crystal>
  <varray name="positions" >
   <v>       0.26092069       0.47878037       0.29519774 </v>
   <v>       0.35488056       0.38482050       0.42557357 </v>
   <v>       0.16696082       0.07274025       0.16482191 </v>
   <v>       0.01676877       0.08223863       0.49382809 </v>
   <v>       0.27423906       0.33335901       0.13037583 </v>
   <v>       0.36819893       0.23939914       0.26075166 </v>
   <v>       0.46215879       0.14543927       0.39112749 </v>
   <v>       0.00030194       0.37150214       0.26075166 </v>
   <v>       0.09426180       0.27754227       0.39112749 </v>
   <v>       0.22208009       0.20795640       0.48008630 </v>
   <v>       0.40634206       0.46546200       0.13037583 </v>
   <v>       0.42140490       0.03925548       0.03544227 </v>
   <v>       0.76092069       0.47878037       0.29519774 </v>
   <v>       0.85488056       0.38482050       0.42557357 </v>
   <v>       0.51635462       0.20215625       0.08898902 </v>
   <v>       0.66696082       0.07274025       0.16482191 </v>
   <v>       0.77423906       0.33335901       0.13037583 </v>
   <v>       0.86819893       0.23939914       0.26075166 </v>
   <v>       0.96215879       0.14543927       0.39112749 </v>
   <v>       0.50030194       0.37150214       0.26075166 </v>
   <v>       0.59426180       0.27754227       0.39112749 </v>
   <v>       0.90634206       0.46546200       0.13037583 </v>
   <v>       0.81956669       0.03458624       0.02672651 </v>
   <v>       0.26092069       0.97878037       0.29519774 </v>
   <v>       0.35488056       0.88482051       0.42557357 </v>
   <v>       0.16696083       0.57274025       0.16482191 </v>
   <v>       0.02141044       0.50427084       0.47304952 </v>
   <v>       0.20790889       0.02650705       0.05763018 </v>
   <v>       0.27423906       0.83335901       0.13037583 </v>
   <v>       0.36819893       0.73939914       0.26075166 </v>
   <v>       0.46215879       0.64543927       0.39112749 </v>
   <v>       0.00030194       0.87150214       0.26075166 </v>
   <v>       0.09426180       0.77754227       0.39112749 </v>
   <v>       0.40634206       0.96546200       0.13037583 </v>
   <v>       0.76092069       0.97878037       0.29519774 </v>
   <v>       0.85488056       0.88482051       0.42557357 </v>
   <v>       0.03993948       0.71532610       0.48871313 </v>
   <v>       0.66696083       0.57274025       0.16482191 </v>
   <v>       0.53030584       0.54598668       0.49105453 </v>
   <v>       0.69971222       0.90475501       0.02510753 </v>
   <v>       0.77423906       0.83335901       0.13037583 </v>
   <v>       0.86819893       0.73939914       0.26075166 </v>
   <v>       0.96215879       0.64543927       0.39112749 </v>
   <v>       0.50030194       0.87150214       0.26075166 </v>
   <v>       0.59426180       0.77754227       0.39112749 </v>
   <v>       0.67977899       0.71098412       0.49463658 </v>
   <v>       0.90634206       0.96546200       0.13037583 </v>
   <v>       0.71637304       0.52506111       0.05919316 </v>
   <v>       0.07287763       0.16682345       0.31134757 </v>
   <v>       0.16683750       0.07286358       0.44172340 </v>
   <v>       0.36539590       0.37537346       0.05989607 </v>
   <v>       0.47891775       0.26078331       0.18097174 </v>
   <v>       0.01943605       0.32540229       0.48221355 </v>
   <v>       0.43627354       0.47164252       0.35520991 </v>
   <v>       0.26877811       0.15501660       0.09844473 </v>
   <v>       0.34231367       0.06560240       0.22483408 </v>
   <v>       0.08284155       0.48021807       0.11241406 </v>
   <v>       0.17409868       0.39738739       0.22483408 </v>
   <v>       0.26805854       0.30342752       0.35520991 </v>
   <v>       0.39667011       0.21532309       0.47470978 </v>
   <v>       0.57287763       0.16682345       0.31134757 </v>
   <v>       0.66640587       0.07366396       0.41694362 </v>
   <v>       0.88528783       0.35454374       0.06220727 </v>
   <v>       0.97891775       0.26078331       0.18097174 </v>
   <v>       0.52057950       0.37616301       0.46985909 </v>
   <v>       0.93627354       0.47164252       0.35520991 </v>
   <v>       0.74835381       0.15956227       0.09445824 </v>
   <v>       0.84231367       0.06560240       0.22483408 </v>
   <v>       0.58324175       0.48292315       0.10639065 </v>
   <v>       0.67409868       0.39738739       0.22483408 </v>
   <v>       0.76805854       0.30342752       0.35520991 </v>
   <v>       0.84009618       0.22233832       0.46513621 </v>
   <v>       0.07287763       0.66682345       0.31134757 </v>
   <v>       0.15592852       0.56516518       0.43100217 </v>
   <v>       0.38956865       0.86853128       0.05563958 </v>
   <v>       0.47891775       0.76078331       0.18097174 </v>
   <v>       0.01290187       0.90406878       0.46849739 </v>
   <v>       0.43627354       0.97164252       0.35520991 </v>
   <v>       0.26085993       0.65744033       0.11308310 </v>
   <v>       0.34231367       0.56560240       0.22483408 </v>
   <v>       0.08242049       0.98055085       0.10878331 </v>
   <v>       0.17409868       0.89738739       0.22483408 </v>
   <v>       0.26805854       0.80342752       0.35520991 </v>
   <v>       0.37182509       0.71983384       0.47193710 </v>
   <v>       0.57287763       0.66682345       0.31134757 </v>
   <v>       0.66683750       0.57286358       0.44172340 </v>
   <v>       0.88527976       0.85036874       0.05967444 </v>
   <v>       0.97891775       0.76078331       0.18097174 </v>
   <v>       0.51871867       0.87740767       0.47005362 </v>
   <v>       0.93627354       0.97164252       0.35520991 </v>
   <v>       0.75813644       0.65761618       0.10714556 </v>
   <v>       0.84231367       0.56560240       0.22483408 </v>
   <v>       0.58013881       0.99134726       0.09445824 </v>
   <v>       0.67409868       0.89738739       0.22483408 </v>
   <v>       0.76805854       0.80342752       0.35520991 </v>
   <v>       0.86201841       0.70946766       0.48558574 </v>
  </varray>
 </structure>
</modeling>
