       N       E                     dE             d eps       ncg     rms          rms(c)
DAV:   1     0.890283097341E+04    0.89028E+04   -0.50635E+05  1176   0.154E+03
DAV:   2     0.492643206073E+03   -0.84102E+04   -0.81063E+04  1020   0.490E+02
DAV:   3    -0.344924096556E+03   -0.83757E+03   -0.80465E+03  1112   0.163E+02
DAV:   4    -0.387550158925E+03   -0.42626E+02   -0.42165E+02  1080   0.356E+01
DAV:   5    -0.389268832324E+03   -0.17187E+01   -0.17167E+01  1216   0.746E+00    0.100E+02
DAV:   6    -0.456093887027E+03   -0.66825E+02   -0.96663E+02  1200   0.128E+02    0.157E+02
DAV:   7    -0.353031867908E+03    0.10306E+03   -0.19188E+02  1096   0.725E+01    0.660E+01
DAV:   8    -0.397186453648E+03   -0.44155E+02   -0.22155E+02  1328   0.872E+01    0.119E+02
DAV:   9    -0.360659825187E+03    0.36527E+02   -0.14246E+02  1232   0.642E+01    0.609E+01
DAV:  10    -0.369647705732E+03   -0.89879E+01   -0.10995E+02  1336   0.590E+01    0.825E+01
DAV:  11    -0.354886383249E+03    0.14761E+02   -0.64288E+01  1312   0.412E+01    0.508E+01
DAV:  12    -0.344004685091E+03    0.10882E+02   -0.36058E+01  1312   0.331E+01    0.271E+01
DAV:  13    -0.342510283232E+03    0.14944E+01   -0.17332E+01  1248   0.285E+01    0.301E+01
DAV:  14    -0.340932413848E+03    0.15779E+01   -0.16206E+01  1296   0.203E+01    0.203E+01
DAV:  15    -0.339692625640E+03    0.12398E+01   -0.38000E+00  1296   0.131E+01    0.136E+01
DAV:  16    -0.339349467914E+03    0.34316E+00   -0.14266E+00  1312   0.785E+00    0.123E+01
DAV:  17    -0.339038613679E+03    0.31085E+00   -0.11203E+00  1288   0.679E+00    0.101E+01
DAV:  18    -0.338849676073E+03    0.18894E+00   -0.69551E-01  1296   0.506E+00    0.835E+00
DAV:  19    -0.338669958576E+03    0.17972E+00   -0.43706E-01  1296   0.445E+00    0.639E+00
DAV:  20    -0.338597473198E+03    0.72485E-01   -0.29151E-01  1304   0.391E+00    0.529E+00
DAV:  21    -0.338479439998E+03    0.11803E+00   -0.24062E-01  1352   0.330E+00    0.284E+00
DAV:  22    -0.338468716909E+03    0.10723E-01   -0.14997E-01  1280   0.236E+00    0.247E+00
DAV:  23    -0.338458856273E+03    0.98606E-02   -0.84796E-02  1224   0.185E+00    0.204E+00
DAV:  24    -0.338462398880E+03   -0.35426E-02   -0.45887E-02  1304   0.137E+00    0.202E+00
DAV:  25    -0.338452721426E+03    0.96775E-02   -0.39087E-02  1184   0.141E+00    0.165E+00
DAV:  26    -0.338446066586E+03    0.66548E-02   -0.26925E-02  1296   0.102E+00    0.114E+00
DAV:  27    -0.338440910605E+03    0.51560E-02   -0.16738E-02  1304   0.892E-01    0.653E-01
DAV:  28    -0.338440631283E+03    0.27932E-03   -0.78863E-03  1232   0.560E-01    0.562E-01
DAV:  29    -0.338440061595E+03    0.56969E-03   -0.28011E-03  1296   0.365E-01    0.408E-01
DAV:  30    -0.338439867459E+03    0.19414E-03   -0.91870E-04  1008   0.187E-01    0.330E-01
DAV:  31    -0.338440147261E+03   -0.27980E-03   -0.12766E-03  1064   0.266E-01    0.324E-01
DAV:  32    -0.338440288884E+03   -0.14162E-03   -0.13067E-03  1056   0.236E-01    0.169E-01
DAV:  33    -0.338440562008E+03   -0.27312E-03   -0.60474E-04   920   0.169E-01    0.136E-01
DAV:  34    -0.338440908357E+03   -0.34635E-03   -0.27733E-04   608   0.110E-01    0.916E-02
DAV:  35    -0.338441089003E+03   -0.18065E-03   -0.14068E-04   592   0.878E-02    0.744E-02
DAV:  36    -0.338441671419E+03   -0.58242E-03   -0.11931E-04   624   0.587E-02    0.553E-02
DAV:  37    -0.338442037493E+03   -0.36607E-03   -0.11853E-04   584   0.761E-02    0.606E-02
DAV:  38    -0.338442732441E+03   -0.69495E-03   -0.16706E-04   680   0.624E-02    0.522E-02
DAV:  39    -0.338442971547E+03   -0.23911E-03   -0.73535E-05   592   0.508E-02    0.560E-02
DAV:  40    -0.338443435752E+03   -0.46421E-03   -0.70109E-05   616   0.427E-02    0.449E-02
DAV:  41    -0.338443628692E+03   -0.19294E-03   -0.38663E-05   584   0.366E-02    0.400E-02
DAV:  42    -0.338443908333E+03   -0.27964E-03   -0.41203E-05   592   0.308E-02    0.228E-02
DAV:  43    -0.338443986555E+03   -0.78221E-04   -0.24685E-05   592   0.175E-02
   1 F= -.33844399E+03 E0= -.33789546E+03  d E =-.109705E+01
