LAMMPS data file via write_data, version 5 Jun 2019, timestep = 74

72 atoms
2 atom types

0.0000000000000000e+00 1.6884694054200001e+01 xlo xhi
0.0000000000000000e+00 9.5784099999999999e+00 ylo yhi
0.0000000000000000e+00 1.6169087119699999e+01 zlo zhi
0.0000000000000000e+00 0.0000000000000000e+00 0.0000000000000000e+00 xy xz yz

Masses

1 58.71
2 32.06

Atoms # atomic

1 1 1.3170843241800000e+01 1.3917137972000000e+00 1.9497492409999999e+00 0 0 0
2 1 1.2381447144757498e+01 1.8210355995712515e+00 4.0497266562163450e+00 0 0 0
3 1 3.6402212960689146e+00 6.4372592069222474e+00 1.5470378111454761e+00 0 0 0
4 1 5.0203308952999999e+00 6.1809187972000021e+00 3.4920210102000002e+00 0 0 0
5 1 7.9317248034999999e+00 1.3917137972000000e+00 4.0061116054000001e+00 0 0 0
6 1 1.6082237150000001e+01 6.1809187972000021e+00 2.4638398361000022e+00 0 0 0
7 1 1.6429676891188642e+01 6.3492721442500279e+00 4.8959409649660381e+00 0 0 0
8 1 2.1089370039999999e+00 1.3917137972000000e+00 2.9779304312999999e+00 0 0 0
9 1 2.2686119699999678e+00 1.3929075360588350e+00 5.5148245865905228e+00 0 0 0
10 1 9.6179855565164782e+00 6.0419333644972451e+00 2.5706873672179302e+00 0 0 0
11 1 1.0843118711600001e+01 6.1809187972000021e+00 4.5202022005000000e+00 0 0 0
12 1 1.5224668297898534e+01 8.8678501813739317e+00 2.2378676845351775e+00 0 -1 0
13 1 7.8111274419559900e+00 4.2504454341818265e+00 8.1312283869099411e-01 0 0 0
14 1 7.1737451720000003e+00 4.9155821009000009e+00 3.0845435547000002e+00 0 0 0
15 1 7.5819686883432933e+00 4.7351384416987115e+00 5.5425347988590605e+00 0 0 0
16 1 8.8814277710185703e+00 1.3301982556158076e+00 1.6286725344984274e+00 0 0 0
17 1 1.0085139063300000e+01 1.2637710090000001e-01 3.5986341498000001e+00 0 0 0
18 1 1.3509573556000001e+00 4.9155821009000009e+00 2.0563623806000000e+00 0 0 0
19 1 1.8907736260146593e+00 4.8119398908631625e+00 4.6960309030357461e+00 0 0 0
20 1 4.2623512638000003e+00 1.2637710090000001e-01 2.5704529594999999e+00 0 0 0
21 1 4.8495945019523257e+00 9.5636512084870393e+00 5.1589578385048629e+00 0 -1 0
22 1 1.2697370876837871e+01 3.7633662006837949e+00 1.9634976044717194e+00 0 0 0
23 1 1.2996532971500001e+01 4.9155821009000009e+00 4.1127247450000004e+00 0 0 0
24 1 1.4979481572445662e+01 2.9387634628581925e+00 1.5710300881806563e+00 0 0 0
25 1 2.4954724292153310e-01 2.8869259388794721e+00 2.6938899443278945e+00 1 0 0
26 1 6.0349053396999368e+00 6.1686748595644074e+00 9.5716196689994282e-01 0 0 0
27 1 7.1737451720000003e+00 7.4462554934000007e+00 3.0845435547000002e+00 0 0 0
28 1 7.6510640359323681e+00 7.7006336492354439e+00 5.5049278604104908e+00 0 0 0
29 1 1.0172206472926833e+01 3.4324159545376745e+00 1.3846263263523300e+00 0 0 0
30 1 1.0085139063300000e+01 2.6570504934000008e+00 3.5986341498000001e+00 0 0 0
31 1 1.3509573556000001e+00 7.4462554934000007e+00 2.0563623806000000e+00 0 0 0
32 1 1.6917948988113169e+00 7.6440886854519432e+00 4.4742179987074371e+00 0 0 0
33 1 4.2623512638000003e+00 2.6570504934000008e+00 2.5704529594999999e+00 0 0 0
34 1 4.8340227047266806e+00 2.7601106445168870e+00 5.1913503452948904e+00 0 0 0
35 1 1.2890846380013082e+01 8.1375521073867709e+00 1.8891209317440760e+00 0 0 0
36 1 1.2996532971500001e+01 7.4462554934000007e+00 4.1127247450000004e+00 0 0 0
37 2 5.7750656175315918e-01 1.6302204505336224e+00 4.3673068872001073e+00 0 0 0
38 2 1.6068990931014518e+01 1.2178093585283845e+00 1.9370711373613729e+00 0 0 0
39 2 8.0063374054000001e+00 6.1809187972000021e+00 1.4071266099999999e+00 0 0 0
40 2 8.5900067833999998e+00 6.1809187972000021e+00 4.4916701808999999e+00 0 0 0
41 2 1.0917731313499999e+01 1.3917137972000000e+00 1.9212172052000012e+00 0 0 0
42 2 1.0772485975324829e+01 1.3706426697348983e+00 5.1255464126031596e+00 0 0 0
43 2 1.9219715986607164e+00 6.1774449683877135e+00 5.1085572477441066e-01 0 0 0
44 2 2.7672189669999998e+00 6.1809187972000021e+00 3.4634889906000002e+00 0 0 0
45 2 4.6567747221881532e+00 1.4001920623139956e+00 1.0802589012109620e+00 0 0 0
46 2 5.6786128752000007e+00 1.3917137972000000e+00 3.9775795857000000e+00 0 0 0
47 2 1.3829125221700000e+01 6.1809187972000021e+00 2.4353078002999999e+00 0 0 0
48 2 1.4380748214665521e+01 6.1900502685135299e+00 5.0782680927833743e+00 0 0 0
49 2 1.3357339341393649e+01 2.7111711468059410e+00 3.4360465715588140e-01 0 0 0
50 2 1.3998442265900000e+01 3.0029460353000008e+00 3.4682648862000023e+00 0 0 0
51 2 5.2642605413999997e+00 7.7921510352999999e+00 1.9259931169000000e+00 0 0 0
52 2 5.7720530017767944e+00 7.7437998753492749e+00 4.7234630163383642e+00 0 0 0
53 2 8.2625211536225116e+00 3.1119441454456078e+00 2.4640919368259744e+00 0 0 0
54 2 8.5846378979099800e+00 3.0069553646919989e+00 5.1556927624045077e+00 0 0 0
55 2 1.6705222672332511e+01 7.9403049525072271e+00 3.5971789671173999e+00 -1 0 0
56 2 1.6390124512780996e+01 7.6361733666999916e+00 1.0193174693966045e+00 0 0 0
57 2 2.2400077320225651e+00 3.0393003764935793e+00 1.7462828857983519e+00 0 0 0
58 2 2.9365360111999999e+00 3.0029460353000008e+00 4.4964460765000034e+00 0 0 0
59 2 1.1087048357700001e+01 7.7921510352999999e+00 2.9541742911000002e+00 0 0 0
60 2 1.1737752213482414e+01 7.5774423195189753e+00 5.6846682743467607e+00 0 0 0
61 2 5.2642605413999997e+00 4.5696865590000000e+00 1.9259931169000000e+00 0 0 0
62 2 5.7297960523685338e+00 4.5853360011124300e+00 4.7139038635290271e+00 0 0 0
63 2 1.3909593413497115e+01 9.4273321966179680e+00 7.1890765349142438e-01 0 0 0
64 2 1.3491940336232879e+01 9.4675333252903968e+00 3.4646033004230850e+00 0 0 0
65 2 2.5142103000000002e-02 4.5696865590000000e+00 3.9823554812999999e+00 0 0 0
66 2 1.6385581612907419e+01 4.4093068774499686e+00 1.2683816505758281e+00 0 0 0
67 2 8.1819990229539297e+00 9.2803768332819434e+00 2.6559908857510761e+00 0 0 0
68 2 8.6531644938103831e+00 9.4344128086889860e+00 5.2210572545207592e+00 0 0 0
69 2 1.1087048357700001e+01 4.5696865590000000e+00 2.9541742911000002e+00 0 0 0
70 2 1.1766237747541414e+01 4.8074531918259673e+00 5.7050055793416652e+00 0 0 0
71 2 2.3869404219226835e+00 9.2499052489861793e+00 1.7753118041486844e+00 0 0 0
72 2 2.9365360111999999e+00 9.3588915589999999e+00 4.4964460765000034e+00 0 0 0

Velocities

1 0.0000000000000000e+00 0.0000000000000000e+00 0.0000000000000000e+00
2 0.0000000000000000e+00 0.0000000000000000e+00 0.0000000000000000e+00
3 0.0000000000000000e+00 0.0000000000000000e+00 0.0000000000000000e+00
4 0.0000000000000000e+00 0.0000000000000000e+00 0.0000000000000000e+00
5 0.0000000000000000e+00 0.0000000000000000e+00 0.0000000000000000e+00
6 0.0000000000000000e+00 0.0000000000000000e+00 0.0000000000000000e+00
7 0.0000000000000000e+00 0.0000000000000000e+00 0.0000000000000000e+00
8 0.0000000000000000e+00 0.0000000000000000e+00 0.0000000000000000e+00
9 0.0000000000000000e+00 0.0000000000000000e+00 0.0000000000000000e+00
10 0.0000000000000000e+00 0.0000000000000000e+00 0.0000000000000000e+00
11 0.0000000000000000e+00 0.0000000000000000e+00 0.0000000000000000e+00
12 0.0000000000000000e+00 0.0000000000000000e+00 0.0000000000000000e+00
13 0.0000000000000000e+00 0.0000000000000000e+00 0.0000000000000000e+00
14 0.0000000000000000e+00 0.0000000000000000e+00 0.0000000000000000e+00
15 0.0000000000000000e+00 0.0000000000000000e+00 0.0000000000000000e+00
16 0.0000000000000000e+00 0.0000000000000000e+00 0.0000000000000000e+00
17 0.0000000000000000e+00 0.0000000000000000e+00 0.0000000000000000e+00
18 0.0000000000000000e+00 0.0000000000000000e+00 0.0000000000000000e+00
19 0.0000000000000000e+00 0.0000000000000000e+00 0.0000000000000000e+00
20 0.0000000000000000e+00 0.0000000000000000e+00 0.0000000000000000e+00
21 0.0000000000000000e+00 0.0000000000000000e+00 0.0000000000000000e+00
22 0.0000000000000000e+00 0.0000000000000000e+00 0.0000000000000000e+00
23 0.0000000000000000e+00 0.0000000000000000e+00 0.0000000000000000e+00
24 0.0000000000000000e+00 0.0000000000000000e+00 0.0000000000000000e+00
25 0.0000000000000000e+00 0.0000000000000000e+00 0.0000000000000000e+00
26 0.0000000000000000e+00 0.0000000000000000e+00 0.0000000000000000e+00
27 0.0000000000000000e+00 0.0000000000000000e+00 0.0000000000000000e+00
28 0.0000000000000000e+00 0.0000000000000000e+00 0.0000000000000000e+00
29 0.0000000000000000e+00 0.0000000000000000e+00 0.0000000000000000e+00
30 0.0000000000000000e+00 0.0000000000000000e+00 0.0000000000000000e+00
31 0.0000000000000000e+00 0.0000000000000000e+00 0.0000000000000000e+00
32 0.0000000000000000e+00 0.0000000000000000e+00 0.0000000000000000e+00
33 0.0000000000000000e+00 0.0000000000000000e+00 0.0000000000000000e+00
34 0.0000000000000000e+00 0.0000000000000000e+00 0.0000000000000000e+00
35 0.0000000000000000e+00 0.0000000000000000e+00 0.0000000000000000e+00
36 0.0000000000000000e+00 0.0000000000000000e+00 0.0000000000000000e+00
37 0.0000000000000000e+00 0.0000000000000000e+00 0.0000000000000000e+00
38 0.0000000000000000e+00 0.0000000000000000e+00 0.0000000000000000e+00
39 0.0000000000000000e+00 0.0000000000000000e+00 0.0000000000000000e+00
40 0.0000000000000000e+00 0.0000000000000000e+00 0.0000000000000000e+00
41 0.0000000000000000e+00 0.0000000000000000e+00 0.0000000000000000e+00
42 0.0000000000000000e+00 0.0000000000000000e+00 0.0000000000000000e+00
43 0.0000000000000000e+00 0.0000000000000000e+00 0.0000000000000000e+00
44 0.0000000000000000e+00 0.0000000000000000e+00 0.0000000000000000e+00
45 0.0000000000000000e+00 0.0000000000000000e+00 0.0000000000000000e+00
46 0.0000000000000000e+00 0.0000000000000000e+00 0.0000000000000000e+00
47 0.0000000000000000e+00 0.0000000000000000e+00 0.0000000000000000e+00
48 0.0000000000000000e+00 0.0000000000000000e+00 0.0000000000000000e+00
49 0.0000000000000000e+00 0.0000000000000000e+00 0.0000000000000000e+00
50 0.0000000000000000e+00 0.0000000000000000e+00 0.0000000000000000e+00
51 0.0000000000000000e+00 0.0000000000000000e+00 0.0000000000000000e+00
52 0.0000000000000000e+00 0.0000000000000000e+00 0.0000000000000000e+00
53 0.0000000000000000e+00 0.0000000000000000e+00 0.0000000000000000e+00
54 0.0000000000000000e+00 0.0000000000000000e+00 0.0000000000000000e+00
55 0.0000000000000000e+00 0.0000000000000000e+00 0.0000000000000000e+00
56 0.0000000000000000e+00 0.0000000000000000e+00 0.0000000000000000e+00
57 0.0000000000000000e+00 0.0000000000000000e+00 0.0000000000000000e+00
58 0.0000000000000000e+00 0.0000000000000000e+00 0.0000000000000000e+00
59 0.0000000000000000e+00 0.0000000000000000e+00 0.0000000000000000e+00
60 0.0000000000000000e+00 0.0000000000000000e+00 0.0000000000000000e+00
61 0.0000000000000000e+00 0.0000000000000000e+00 0.0000000000000000e+00
62 0.0000000000000000e+00 0.0000000000000000e+00 0.0000000000000000e+00
63 0.0000000000000000e+00 0.0000000000000000e+00 0.0000000000000000e+00
64 0.0000000000000000e+00 0.0000000000000000e+00 0.0000000000000000e+00
65 0.0000000000000000e+00 0.0000000000000000e+00 0.0000000000000000e+00
66 0.0000000000000000e+00 0.0000000000000000e+00 0.0000000000000000e+00
67 0.0000000000000000e+00 0.0000000000000000e+00 0.0000000000000000e+00
68 0.0000000000000000e+00 0.0000000000000000e+00 0.0000000000000000e+00
69 0.0000000000000000e+00 0.0000000000000000e+00 0.0000000000000000e+00
70 0.0000000000000000e+00 0.0000000000000000e+00 0.0000000000000000e+00
71 0.0000000000000000e+00 0.0000000000000000e+00 0.0000000000000000e+00
72 0.0000000000000000e+00 0.0000000000000000e+00 0.0000000000000000e+00
