
72 atoms
2 atom types
   0.0000000000   10.0797329849 xlo xhi
   0.0000000000    9.4251025535 ylo yhi
   0.0000000000   20.5020095760 zlo zhi
   3.5732980427    0.0000000000    0.0000000000 xy xz yz

Atoms # atomic

     1      1    6.4580091941    7.0816657522    1.9426372259
     2      1    7.4357214877    5.6653696066    4.5681396206
     3      1    8.4134337949    4.2490734704    7.1936420154
     4      1    9.3911460921    2.8327773342    9.8191444102
     5      1    6.7839132912    1.7424614708    0.1923022892
     6      1    7.7616255985    0.3261653346    2.8178046840
     7      1    3.2106152471    6.9186756064    8.0688094735
     8      1   12.3126359384    8.3349717520    5.4433070787
     9      1    2.5588070506    2.9957674706    3.6929721626
    10      1    3.5365193478    1.5794713344    6.3184745573
    11      1    4.5142316515    0.1631751888    8.9439769521
    12      1   11.6608277419    4.4120636162    1.0674697678
    13      1    0.5138173470    1.0909965632    8.4317974300
    14      1    7.6604134338    5.3398849811    0.5552902457
    15      1    8.6381257309    3.9235888450    3.1807926405
    16      1    9.6158380346    2.5072926994    5.8062950353
    17      1    3.4353071932    6.5931909810    4.0559601191
    18      1    4.4130194868    5.1768948354    6.6814625139
    19      1    5.3907317941    3.7605986992    9.3069649086
    20      1   12.5373278708    8.0094871171    1.4304577243
    21      1    3.7612112903    1.2539866996    2.3056251824
    22      1    8.3122216302    9.2627931169    4.9311275772
    23      1    9.2899339375    7.8464969808    7.5566299720
    24      1   10.2676462311    6.4302008352   10.1821323667
    25      1    1.7162215882    3.2069712666    9.1254709304
    26      1    8.8628176649    7.4558596846    1.2489637460
    27      1    9.8405299722    6.0395635484    3.8744661408
    28      1   10.8182422694    4.6232674122    6.4999685356
    29      1   10.1664340729    0.7003592764    2.1241312041
    30      1    4.6377114244    8.7091656844    4.7496335989
    31      1    5.6154237316    7.2928695482    7.3751359937
    32      1    6.5931360252    5.8765734026   10.0006383885
    33      1    3.9859032279    4.7862575486    0.3737962674
    34      1    4.9636155251    3.3699614124    2.9992986622
    35      1    5.9413278288    1.9536652668    5.6248010570
    36      1    6.9190401259    0.5373691307    8.2503034518
    37      2    1.5798114469    2.4701758255    6.9932094083
    38      2    2.5575237542    1.0538796894    9.6187118031
    39      2    9.7041198410    5.3027681073    1.7422046188
    40      2   10.6818321382    3.8864719711    4.3677070135
    41      2    4.5013012932    7.9723702433    2.6173720974
    42      2    5.4790136004    6.5560741071    5.2428744921
    43      2    6.4567258976    5.1397779710    7.8683768664
    44      2    4.8272053939    2.6331659713    0.8670371607
    45      2    5.8049177011    1.2168698352    3.4925395554
    46      2   10.3559280375    9.2256762431    6.1180419502
    47      2   11.3336403346    7.8093801069    8.7435443450
    48      2    7.1953111225    8.9369824772    0.8832977760
    49      2    8.1730234298    7.5206863411    3.5088001708
    50      2    9.1507357270    6.1043902049    6.1343025656
    51      2   10.1284480307    4.6880940593    8.7598049603
    52      2    8.4989275305    2.1814820691    1.7584652341
    53      2    9.4766398241    0.7651859235    4.3839676289
    54      2    3.9479171892    8.7739923409    7.0094700237
    55      2    4.9256294828    7.3576961953    9.6349724184
    56      2    3.2961089827    4.8510842051    2.6336326922
    57      2    4.2738212864    3.4347880595    5.2591350870
    58      2    5.2515335835    2.0184919233    7.8846374818
    59      2   12.3981296704    6.2673803413    0.0081302974
    60      2    5.6642147207    6.2425797390    0.0000000000
    61      2    6.6419270178    4.8262836029    2.6255023948
    62      2    7.6196393215    3.4099874573    5.2510047896
    63      2    8.5973516187    1.9936913211    7.8765071843
    64      2    9.5750639123    0.5773951755   10.5020095791
    65      2    2.4168207737    6.0795895932    6.1261722476
    66      2    3.3945330810    4.6632934571    8.7516746424
    67      2   10.5411291577    8.9121818750    0.8751674581
    68      2   11.5188414649    7.4958857388    3.5006698529
    69      2    1.7650125772    2.1566814574    1.7503349367
    70      2    2.7427248744    0.7403853213    4.3758373315
    71      2    7.2937352244    8.7491917387    7.0013397262
    72      2    8.2714475180    7.3328955931    9.6268421210
