
96 atoms
2 atom types
   0.0000000000   11.2564630382 xlo xhi
   0.0000000000   10.0628203371 ylo yhi
   0.0000000000   22.5199559732 zlo zhi
   5.0445621212    0.0000000000    0.0000000000 xy xz yz

Atoms # atomic

     1      1    5.3522814431    4.8178808643    6.6478400406
     2      1    5.9359508271    3.8723796038    9.5838980147
     3      1    2.2463310804    0.7319720972    3.7117820891
     4      1    4.1849426842    4.3000330456    0.0000000000
     5      1    4.7686120570    3.3545317851    2.9360579516
     6      1    5.3522814460    2.4090305347    5.8721159257
     7      1    5.9359508187    1.4635292742    8.8081738772
     8      1    1.8774643571    3.7383592494    5.8721159257
     9      1    2.4611337299    2.7928579889    8.8081738772
    10      1    6.9220263184    4.6838604999    2.9360579516
    11      1    3.8160759607    0.5979517428    0.0000000000
    12      1   10.9805129622    4.8178808643    6.6478400406
    13      1   11.5641823462    3.8723796038    9.5838980147
    14      1   12.1478517240    2.9268783534   12.5199559663
    15      1    7.8745625995    0.7319720972    3.7117820891
    16      1    6.5196203766    0.5180280237   11.7442318513
    17      1    9.8131742033    4.3000330456    0.0000000000
    18      1   10.3968435761    3.3545317851    2.9360579516
    19      1   10.9805129651    2.4090305347    5.8721159257
    20      1   11.5641823378    1.4635292742    8.8081738772
    21      1    7.5056958763    3.7383592494    5.8721159257
    22      1    8.0893652490    2.7928579889    8.8081738772
    23      1    8.6730346380    1.8473567384   11.7442318513
    24      1   12.5502578375    4.6838604999    2.9360579516
    25      1    9.4443074799    0.5979517428    0.0000000000
    26      1    7.8745625037    9.8492910329    6.6478400406
    27      1    8.4582318877    8.9037897724    9.5838980147
    28      1    9.0419012655    7.9582885219   12.5199559663
    29      1    4.7686121410    5.7633822657    3.7117820891
    30      1    6.7072237448    9.3314432142    0.0000000000
    31      1    7.2908931175    8.3859419536    2.9360579516
    32      1    7.8745625066    7.4404407032    5.8721159257
    33      1    8.4582318793    6.4949394427    8.8081738772
    34      1    4.3997454177    8.7697694179    5.8721159257
    35      1    4.9834147905    7.8242681574    8.8081738772
    36      1    9.4443073790    9.7152706684    2.9360579516
    37      1   13.5027940228    9.8492910329    6.6478400406
    38      1   14.0864634068    8.9037897724    9.5838980147
    39      1   14.6701327846    7.9582885219   12.5199559663
    40      1   10.3968436601    5.7633822657    3.7117820891
    41      1   12.3354552639    9.3314432142    0.0000000000
    42      1   12.9191246367    8.3859419536    2.9360579516
    43      1   13.5027940257    7.4404407032    5.8721159257
    44      1   14.0864633984    6.4949394427    8.8081738772
    45      1   10.0279769369    8.7697694179    5.8721159257
    46      1   10.6116463096    7.8242681574    8.8081738772
    47      1   15.0725388981    9.7152706684    2.9360579516
    48      1   11.9665885404    5.6293619113    0.0000000000
    49      2    1.6618956013    1.6787143752    7.0115334562
    50      2    2.2455649853    0.7332131147    9.9475914303
    51      2    6.1227881848    3.5697168761    1.1394175530
    52      2    6.7064575738    2.6242156256    4.0754755046
    53      2    2.2455649749    3.8005526715   10.9353693959
    54      2    7.2901269524    4.7460539320    7.9993114444
    55      2    3.6005072007    1.6056464153    2.1271955187
    56      2    4.1841765897    0.6601451649    5.0632534928
    57      2    3.3807113250    4.9443391703    2.1271955187
    58      2    3.9643807089    3.9988379098    5.0632534928
    59      2    4.5480500867    3.0533366593    7.9993114444
    60      2    5.1317194707    2.1078353988   10.9353693959
    61      2    7.2901271205    1.6787143752    7.0115334562
    62      2    7.8737965044    0.7332131147    9.9475914303
    63      2   11.7510197039    3.5697168761    1.1394175530
    64      2   12.3346890930    2.6242156256    4.0754755046
    65      2    7.8737964940    3.8005526715   10.9353693959
    66      2   12.9183584715    4.7460539320    7.9993114444
    67      2    9.2287387198    1.6056464153    2.1271955187
    68      2    9.8124081088    0.6601451649    5.0632534928
    69      2    9.0089428441    4.9443391703    2.1271955187
    70      2    9.5926122281    3.9988379098    5.0632534928
    71      2   10.1762816058    3.0533366593    7.9993114444
    72      2   10.7599509898    2.1078353988   10.9353693959
    73      2    4.1841766619    6.7101245437    7.0115334562
    74      2    4.7678460459    5.7646232832    9.9475914303
    75      2    8.6450692454    8.6011270446    1.1394175530
    76      2    9.2287386344    7.6556257942    4.0754755046
    77      2    4.7678460354    8.8319628400   10.9353693959
    78      2    9.8124080130    9.7774641005    7.9993114444
    79      2    6.1227882613    6.6370565839    2.1271955187
    80      2    6.7064576503    5.6915553334    5.0632534928
    81      2    5.9029923855    9.9757493388    2.1271955187
    82      2    6.4866617695    9.0302480783    5.0632534928
    83      2    7.0703311473    8.0847468279    7.9993114444
    84      2    7.6540005313    7.1392455673   10.9353693959
    85      2    9.8124081810    6.7101245437    7.0115334562
    86      2   10.3960775650    5.7646232832    9.9475914303
    87      2   14.2733007645    8.6011270446    1.1394175530
    88      2   14.8569701535    7.6556257942    4.0754755046
    89      2   10.3960775546    8.8319628400   10.9353693959
    90      2   15.4406395321    9.7774641005    7.9993114444
    91      2   11.7510197804    6.6370565839    2.1271955187
    92      2   12.3346891694    5.6915553334    5.0632534928
    93      2   11.5312239047    9.9757493388    2.1271955187
    94      2   12.1148932887    9.0302480783    5.0632534928
    95      2   12.6985626664    8.0847468279    7.9993114444
    96      2   13.2822320504    7.1392455673   10.9353693959
