       N       E                     dE             d eps       ncg     rms          rms(c)
DAV:   1     0.133958036269E+05    0.13396E+05   -0.68466E+05  1540   0.167E+03
DAV:   2     0.855014486104E+03   -0.12541E+05   -0.12116E+05  1334   0.538E+02
DAV:   3    -0.448252233099E+03   -0.13033E+04   -0.12365E+04  1440   0.189E+02
DAV:   4    -0.531123967235E+03   -0.82872E+02   -0.81819E+02  1456   0.426E+01
DAV:   5    -0.534437129807E+03   -0.33132E+01   -0.33082E+01  1672   0.896E+00    0.110E+02
DAV:   6    -0.635667162761E+03   -0.10123E+03   -0.12029E+03  1624   0.129E+02    0.191E+02
DAV:   7    -0.518670103354E+03    0.11700E+03   -0.26880E+02  1472   0.882E+01    0.102E+02
DAV:   8    -0.588441397862E+03   -0.69771E+02   -0.23828E+02  1680   0.106E+02    0.162E+02
DAV:   9    -0.579792140091E+03    0.86493E+01   -0.23589E+02  1624   0.105E+02    0.135E+02
DAV:  10    -0.545418237384E+03    0.34374E+02   -0.16914E+02  1744   0.603E+01    0.104E+02
DAV:  11    -0.537341895809E+03    0.80763E+01   -0.11715E+02  1752   0.514E+01    0.916E+01
DAV:  12    -0.528884264888E+03    0.84576E+01   -0.11438E+02  1752   0.652E+01    0.934E+01
DAV:  13    -0.530623995635E+03   -0.17397E+01   -0.89941E+01  1736   0.521E+01    0.117E+02
DAV:  14    -0.491590661281E+03    0.39033E+02   -0.57812E+01  1752   0.359E+01    0.506E+01
DAV:  15    -0.480702963181E+03    0.10888E+02   -0.30568E+01  1744   0.270E+01    0.362E+01
DAV:  16    -0.476855485357E+03    0.38475E+01   -0.13011E+01  1704   0.194E+01    0.354E+01
DAV:  17    -0.475348855480E+03    0.15066E+01   -0.70108E+00  1664   0.105E+01    0.283E+01
DAV:  18    -0.474537041806E+03    0.81181E+00   -0.95750E-01  1640   0.407E+00    0.268E+01
DAV:  19    -0.474161281722E+03    0.37576E+00   -0.15119E+00  1608   0.785E+00    0.260E+01
DAV:  20    -0.473026627286E+03    0.11347E+01   -0.12173E+00  1728   0.666E+00    0.227E+01
DAV:  21    -0.471050949707E+03    0.19757E+01   -0.15504E+00  1816   0.781E+00    0.176E+01
DAV:  22    -0.470017846159E+03    0.10331E+01   -0.23881E+00  1768   0.896E+00    0.122E+01
DAV:  23    -0.469766803598E+03    0.25104E+00   -0.11952E+00  1720   0.491E+00    0.955E+00
DAV:  24    -0.469681727239E+03    0.85076E-01   -0.42766E-01  1520   0.345E+00    0.857E+00
DAV:  25    -0.469561157957E+03    0.12057E+00   -0.26514E-01  1536   0.312E+00    0.656E+00
DAV:  26    -0.469520622191E+03    0.40536E-01   -0.37263E-01  1704   0.367E+00    0.600E+00
DAV:  27    -0.469439799203E+03    0.80823E-01   -0.28459E-01  1704   0.325E+00    0.404E+00
DAV:  28    -0.469436350434E+03    0.34488E-02   -0.16715E-01  1736   0.257E+00    0.365E+00
DAV:  29    -0.469395605763E+03    0.40745E-01   -0.10064E-01  1696   0.186E+00    0.257E+00
DAV:  30    -0.469388273176E+03    0.73326E-02   -0.60514E-02  1576   0.143E+00    0.211E+00
DAV:  31    -0.469374146329E+03    0.14127E-01   -0.44539E-02  1712   0.113E+00    0.146E+00
DAV:  32    -0.469369851004E+03    0.42953E-02   -0.16468E-02  1696   0.729E-01    0.108E+00
DAV:  33    -0.469369060812E+03    0.79019E-03   -0.64945E-03  1680   0.433E-01    0.930E-01
DAV:  34    -0.469367878171E+03    0.11826E-02   -0.34854E-03  1560   0.336E-01    0.769E-01
DAV:  35    -0.469367808782E+03    0.69389E-04   -0.42031E-03  1536   0.322E-01    0.625E-01
DAV:  36    -0.469366817505E+03    0.99128E-03   -0.24514E-03  1696   0.319E-01    0.460E-01
DAV:  37    -0.469366519616E+03    0.29789E-03   -0.16013E-03  1544   0.209E-01    0.311E-01
DAV:  38    -0.469366524828E+03   -0.52124E-05   -0.61892E-04  1192   0.146E-01
   1 F= -.46936652E+03 E0= -.46875818E+03  d E =-.121669E+01
