LAMMPS (5 Jun 2019)
OMP_NUM_THREADS environment is not set. Defaulting to 1 thread. (../comm.cpp:88)
  using 1 OpenMP thread(s) per MPI task
Reading data file ...
  triclinic box = (0 0 0) to (11.2565 10.0628 22.52) with tilt (5.04456 0 0)
  1 by 1 by 1 MPI processor grid
  reading atoms ...
  96 atoms
  read_data CPU = 0.000860967 secs
61 atoms in group bulk
WARNING: Using 'neigh_modify every 1 delay 0 check yes' setting during minimization (../min.cpp:168)
Neighbor list info ...
  update every 1 steps, delay 0 steps, check yes
  max neighbors/atom: 2000, page size: 100000
  master list distance cutoff = 8.5
  ghost atom cutoff = 8.5
  binsize = 4.25, bins = 4 3 6
  1 neighbor lists, perpetual/occasional/extra = 1 0 0
  (1) pair eam/alloy, perpetual
      attributes: half, newton on
      pair build: half/bin/newton/tri
      stencil: half/bin/3d/newton/tri
      bin: standard
Setting up cg style minimization ...
  Unit style    : metal
  Current step  : 0
Per MPI rank memory allocation (min/avg/max) = 4.123 | 4.123 | 4.123 Mbytes
Step Temp E_pair E_mol TotEng Press 
       0            0   -401.64718            0   -401.64718   -132763.65 
      61            0   -434.25493            0   -434.25493   -51815.952 
Loop time of 0.0520488 on 1 procs for 61 steps with 96 atoms

98.9% CPU use with 1 MPI tasks x 1 OpenMP threads

Minimization stats:
  Stopping criterion = energy tolerance
  Energy initial, next-to-last, final = 
        -401.647184722     -434.250863457     -434.254929897
  Force two-norm initial, final = 16.1814 0.216312
  Force max component initial, final = 4.30295 0.0793985
  Final line search alpha, max atom move = 0.561533 0.0445848
  Iterations, force evaluations = 61 92

MPI task timing breakdown:
Section |  min time  |  avg time  |  max time  |%varavg| %total
---------------------------------------------------------------
Pair    | 0.048156   | 0.048156   | 0.048156   |   0.0 | 92.52
Neigh   | 0.0021523  | 0.0021523  | 0.0021523  |   0.0 |  4.14
Comm    | 0.00095874 | 0.00095874 | 0.00095874 |   0.0 |  1.84
Output  | 0          | 0          | 0          |   0.0 |  0.00
Modify  | 7.4282e-05 | 7.4282e-05 | 7.4282e-05 |   0.0 |  0.14
Other   |            | 0.000707   |            |       |  1.36

Nlocal:    96 ave 96 max 96 min
Histogram: 1 0 0 0 0 0 0 0 0 0
Nghost:    1093 ave 1093 max 1093 min
Histogram: 1 0 0 0 0 0 0 0 0 0
Neighs:    6606 ave 6606 max 6606 min
Histogram: 1 0 0 0 0 0 0 0 0 0

Total # of neighbors = 6606
Ave neighs/atom = 68.8125
Neighbor list builds = 3
Dangerous builds = 0
System init for write_data ...
Total wall time: 0:00:00
