  72  72   0   0
  0.3631948E+02  0.1688469E-08  0.9578410E-09  0.1616909E-08  0.5000000E-15
  1.000000000000000E-004
  CAR 
 "Millerite NiS"                         
      9.29812764    -68.70604065  301     -0.09308166      1.00000000
    -68.706  0.0000E+00  0.0000E+00
    -68.446  0.0000E+00  0.0000E+00
    -68.186  0.0000E+00  0.0000E+00
    -67.926  0.0000E+00  0.0000E+00
    -67.666  0.0000E+00  0.0000E+00
    -67.406  0.0000E+00  0.0000E+00
    -67.146  0.0000E+00  0.0000E+00
    -66.886  0.0000E+00  0.0000E+00
    -66.626  0.0000E+00  0.0000E+00
    -66.366  0.0000E+00  0.0000E+00
    -66.106  0.8839E-10  0.2298E-10
    -65.846  0.4824E-05  0.1254E-05
    -65.586  0.1023E-01  0.2661E-02
    -65.326  0.1046E+01  0.2746E+00
    -65.066  0.1253E+02  0.3531E+01
    -64.806  0.6803E+02  0.2122E+02
    -64.546  0.1703E+03  0.6550E+02
    -64.286  0.2120E+03  0.1206E+03
    -64.026  0.1904E+03  0.1701E+03
    -63.766  0.9523E+02  0.1949E+03
    -63.506  0.5845E+02  0.2101E+03
    -63.246  0.2093E+02  0.2155E+03
    -62.986  0.1800E+01  0.2160E+03
    -62.726  0.1495E-01  0.2160E+03
    -62.466  0.6384E-05  0.2160E+03
    -62.206  0.1114E-09  0.2160E+03
    -61.946  0.0000E+00  0.2160E+03
    -61.686  0.0000E+00  0.2160E+03
    -61.426  0.0000E+00  0.2160E+03
    -61.166  0.0000E+00  0.2160E+03
    -60.906  0.0000E+00  0.2160E+03
    -60.646  0.0000E+00  0.2160E+03
    -60.386  0.0000E+00  0.2160E+03
    -60.126  0.0000E+00  0.2160E+03
    -59.866  0.0000E+00  0.2160E+03
    -59.606  0.0000E+00  0.2160E+03
    -59.346  0.0000E+00  0.2160E+03
    -59.086  0.0000E+00  0.2160E+03
    -58.826  0.0000E+00  0.2160E+03
    -58.565  0.0000E+00  0.2160E+03
    -58.305  0.0000E+00  0.2160E+03
    -58.045  0.0000E+00  0.2160E+03
    -57.785  0.0000E+00  0.2160E+03
    -57.525  0.0000E+00  0.2160E+03
    -57.265  0.0000E+00  0.2160E+03
    -57.005  0.0000E+00  0.2160E+03
    -56.745  0.0000E+00  0.2160E+03
    -56.485  0.0000E+00  0.2160E+03
    -56.225  0.0000E+00  0.2160E+03
    -55.965  0.0000E+00  0.2160E+03
    -55.705  0.0000E+00  0.2160E+03
    -55.445  0.0000E+00  0.2160E+03
    -55.185  0.0000E+00  0.2160E+03
    -54.925  0.0000E+00  0.2160E+03
    -54.665  0.0000E+00  0.2160E+03
    -54.405  0.0000E+00  0.2160E+03
    -54.145  0.0000E+00  0.2160E+03
    -53.885  0.0000E+00  0.2160E+03
    -53.625  0.0000E+00  0.2160E+03
    -53.365  0.0000E+00  0.2160E+03
    -53.105  0.0000E+00  0.2160E+03
    -52.845  0.0000E+00  0.2160E+03
    -52.585  0.0000E+00  0.2160E+03
    -52.325  0.0000E+00  0.2160E+03
    -52.065  0.0000E+00  0.2160E+03
    -51.805  0.0000E+00  0.2160E+03
    -51.545  0.0000E+00  0.2160E+03
    -51.285  0.0000E+00  0.2160E+03
    -51.025  0.0000E+00  0.2160E+03
    -50.765  0.0000E+00  0.2160E+03
    -50.505  0.0000E+00  0.2160E+03
    -50.245  0.0000E+00  0.2160E+03
    -49.985  0.0000E+00  0.2160E+03
    -49.725  0.0000E+00  0.2160E+03
    -49.465  0.0000E+00  0.2160E+03
    -49.205  0.0000E+00  0.2160E+03
    -48.945  0.0000E+00  0.2160E+03
    -48.685  0.0000E+00  0.2160E+03
    -48.425  0.0000E+00  0.2160E+03
    -48.165  0.0000E+00  0.2160E+03
    -47.905  0.0000E+00  0.2160E+03
    -47.645  0.0000E+00  0.2160E+03
    -47.385  0.0000E+00  0.2160E+03
    -47.125  0.0000E+00  0.2160E+03
    -46.865  0.0000E+00  0.2160E+03
    -46.605  0.0000E+00  0.2160E+03
    -46.345  0.0000E+00  0.2160E+03
    -46.085  0.0000E+00  0.2160E+03
    -45.825  0.0000E+00  0.2160E+03
    -45.565  0.0000E+00  0.2160E+03
    -45.305  0.0000E+00  0.2160E+03
    -45.045  0.0000E+00  0.2160E+03
    -44.785  0.0000E+00  0.2160E+03
    -44.525  0.0000E+00  0.2160E+03
    -44.265  0.0000E+00  0.2160E+03
    -44.005  0.0000E+00  0.2160E+03
    -43.745  0.0000E+00  0.2160E+03
    -43.485  0.0000E+00  0.2160E+03
    -43.225  0.0000E+00  0.2160E+03
    -42.965  0.0000E+00  0.2160E+03
    -42.705  0.0000E+00  0.2160E+03
    -42.445  0.0000E+00  0.2160E+03
    -42.185  0.0000E+00  0.2160E+03
    -41.925  0.0000E+00  0.2160E+03
    -41.665  0.0000E+00  0.2160E+03
    -41.405  0.0000E+00  0.2160E+03
    -41.145  0.0000E+00  0.2160E+03
    -40.885  0.0000E+00  0.2160E+03
    -40.625  0.0000E+00  0.2160E+03
    -40.365  0.0000E+00  0.2160E+03
    -40.105  0.0000E+00  0.2160E+03
    -39.844  0.0000E+00  0.2160E+03
    -39.584  0.0000E+00  0.2160E+03
    -39.324  0.0000E+00  0.2160E+03
    -39.064  0.0000E+00  0.2160E+03
    -38.804  0.0000E+00  0.2160E+03
    -38.544  0.0000E+00  0.2160E+03
    -38.284  0.0000E+00  0.2160E+03
    -38.024  0.0000E+00  0.2160E+03
    -37.764  0.0000E+00  0.2160E+03
    -37.504  0.0000E+00  0.2160E+03
    -37.244  0.0000E+00  0.2160E+03
    -36.984  0.0000E+00  0.2160E+03
    -36.724  0.0000E+00  0.2160E+03
    -36.464  0.0000E+00  0.2160E+03
    -36.204  0.0000E+00  0.2160E+03
    -35.944  0.0000E+00  0.2160E+03
    -35.684  0.0000E+00  0.2160E+03
    -35.424  0.0000E+00  0.2160E+03
    -35.164  0.0000E+00  0.2160E+03
    -34.904  0.0000E+00  0.2160E+03
    -34.644  0.0000E+00  0.2160E+03
    -34.384  0.0000E+00  0.2160E+03
    -34.124  0.0000E+00  0.2160E+03
    -33.864  0.0000E+00  0.2160E+03
    -33.604  0.0000E+00  0.2160E+03
    -33.344  0.0000E+00  0.2160E+03
    -33.084  0.0000E+00  0.2160E+03
    -32.824  0.0000E+00  0.2160E+03
    -32.564  0.0000E+00  0.2160E+03
    -32.304  0.0000E+00  0.2160E+03
    -32.044  0.0000E+00  0.2160E+03
    -31.784  0.0000E+00  0.2160E+03
    -31.524  0.0000E+00  0.2160E+03
    -31.264  0.0000E+00  0.2160E+03
    -31.004  0.0000E+00  0.2160E+03
    -30.744  0.0000E+00  0.2160E+03
    -30.484  0.0000E+00  0.2160E+03
    -30.224  0.0000E+00  0.2160E+03
    -29.964  0.0000E+00  0.2160E+03
    -29.704  0.0000E+00  0.2160E+03
    -29.444  0.0000E+00  0.2160E+03
    -29.184  0.0000E+00  0.2160E+03
    -28.924  0.0000E+00  0.2160E+03
    -28.664  0.0000E+00  0.2160E+03
    -28.404  0.0000E+00  0.2160E+03
    -28.144  0.0000E+00  0.2160E+03
    -27.884  0.0000E+00  0.2160E+03
    -27.624  0.0000E+00  0.2160E+03
    -27.364  0.0000E+00  0.2160E+03
    -27.104  0.0000E+00  0.2160E+03
    -26.844  0.0000E+00  0.2160E+03
    -26.584  0.0000E+00  0.2160E+03
    -26.324  0.0000E+00  0.2160E+03
    -26.064  0.0000E+00  0.2160E+03
    -25.804  0.0000E+00  0.2160E+03
    -25.544  0.0000E+00  0.2160E+03
    -25.284  0.0000E+00  0.2160E+03
    -25.024  0.0000E+00  0.2160E+03
    -24.764  0.0000E+00  0.2160E+03
    -24.504  0.0000E+00  0.2160E+03
    -24.244  0.0000E+00  0.2160E+03
    -23.984  0.0000E+00  0.2160E+03
    -23.724  0.0000E+00  0.2160E+03
    -23.464  0.0000E+00  0.2160E+03
    -23.204  0.0000E+00  0.2160E+03
    -22.944  0.0000E+00  0.2160E+03
    -22.684  0.0000E+00  0.2160E+03
    -22.424  0.0000E+00  0.2160E+03
    -22.164  0.0000E+00  0.2160E+03
    -21.904  0.0000E+00  0.2160E+03
    -21.644  0.0000E+00  0.2160E+03
    -21.384  0.0000E+00  0.2160E+03
    -21.123  0.0000E+00  0.2160E+03
    -20.863  0.0000E+00  0.2160E+03
    -20.603  0.0000E+00  0.2160E+03
    -20.343  0.0000E+00  0.2160E+03
    -20.083  0.0000E+00  0.2160E+03
    -19.823  0.0000E+00  0.2160E+03
    -19.563  0.0000E+00  0.2160E+03
    -19.303  0.0000E+00  0.2160E+03
    -19.043  0.0000E+00  0.2160E+03
    -18.783  0.0000E+00  0.2160E+03
    -18.523  0.0000E+00  0.2160E+03
    -18.263  0.0000E+00  0.2160E+03
    -18.003  0.0000E+00  0.2160E+03
    -17.743  0.0000E+00  0.2160E+03
    -17.483  0.3823E-11  0.2160E+03
    -17.223  0.4634E-06  0.2160E+03
    -16.963  0.2123E-02  0.2160E+03
    -16.703  0.4075E+00  0.2161E+03
    -16.443  0.4425E+01  0.2173E+03
    -16.183  0.7655E+01  0.2192E+03
    -15.923  0.9368E+01  0.2217E+03
    -15.663  0.1071E+02  0.2245E+03
    -15.403  0.1863E+02  0.2293E+03
    -15.143  0.2208E+02  0.2351E+03
    -14.883  0.1814E+02  0.2398E+03
    -14.623  0.2508E+02  0.2463E+03
    -14.363  0.3066E+02  0.2543E+03
    -14.103  0.2954E+02  0.2619E+03
    -13.843  0.2365E+02  0.2681E+03
    -13.583  0.1732E+02  0.2726E+03
    -13.323  0.2564E+02  0.2793E+03
    -13.063  0.1966E+02  0.2844E+03
    -12.803  0.9283E+01  0.2868E+03
    -12.543  0.4274E+01  0.2879E+03
    -12.283  0.3654E+00  0.2880E+03
    -12.023  0.1745E-02  0.2880E+03
    -11.763  0.3472E-06  0.2880E+03
    -11.503  0.2606E-11  0.2880E+03
    -11.243  0.0000E+00  0.2880E+03
    -10.983  0.0000E+00  0.2880E+03
    -10.723  0.0000E+00  0.2880E+03
    -10.463  0.0000E+00  0.2880E+03
    -10.203  0.0000E+00  0.2880E+03
     -9.943  0.0000E+00  0.2880E+03
     -9.683  0.0000E+00  0.2880E+03
     -9.423  0.3843E-14  0.2880E+03
     -9.163  0.2242E-08  0.2880E+03
     -8.903  0.5086E-04  0.2880E+03
     -8.643  0.4547E-01  0.2880E+03
     -8.383  0.1952E+01  0.2885E+03
     -8.123  0.8793E+01  0.2908E+03
     -7.863  0.1947E+02  0.2959E+03
     -7.603  0.3063E+02  0.3038E+03
     -7.343  0.3893E+02  0.3140E+03
     -7.083  0.3707E+02  0.3236E+03
     -6.823  0.3949E+02  0.3339E+03
     -6.563  0.4537E+02  0.3457E+03
     -6.303  0.4574E+02  0.3576E+03
     -6.043  0.4847E+02  0.3702E+03
     -5.783  0.5413E+02  0.3842E+03
     -5.523  0.5650E+02  0.3989E+03
     -5.263  0.6130E+02  0.4149E+03
     -5.003  0.6484E+02  0.4317E+03
     -4.743  0.5638E+02  0.4464E+03
     -4.483  0.5061E+02  0.4595E+03
     -4.223  0.3922E+02  0.4697E+03
     -3.963  0.3663E+02  0.4793E+03
     -3.703  0.4632E+02  0.4913E+03
     -3.443  0.5551E+02  0.5057E+03
     -3.183  0.6362E+02  0.5223E+03
     -2.923  0.7784E+02  0.5425E+03
     -2.663  0.9172E+02  0.5664E+03
     -2.402  0.1109E+03  0.5952E+03
     -2.142  0.1253E+03  0.6278E+03
     -1.882  0.1239E+03  0.6600E+03
     -1.622  0.1129E+03  0.6893E+03
     -1.362  0.9882E+02  0.7150E+03
     -1.102  0.8289E+02  0.7366E+03
     -0.842  0.6379E+02  0.7532E+03
     -0.582  0.5300E+02  0.7669E+03
     -0.322  0.4822E+02  0.7795E+03
     -0.062  0.5529E+02  0.7939E+03
      0.198  0.5799E+02  0.8089E+03
      0.458  0.4315E+02  0.8202E+03
      0.718  0.3355E+02  0.8289E+03
      0.978  0.3503E+02  0.8380E+03
      1.238  0.4195E+02  0.8489E+03
      1.498  0.3226E+02  0.8573E+03
      1.758  0.1812E+02  0.8620E+03
      2.018  0.7898E+01  0.8641E+03
      2.278  0.9553E+01  0.8665E+03
      2.538  0.1120E+02  0.8694E+03
      2.798  0.3578E+01  0.8704E+03
      3.058  0.9257E+01  0.8728E+03
      3.318  0.8301E+01  0.8749E+03
      3.578  0.1356E+02  0.8785E+03
      3.838  0.1412E+02  0.8821E+03
      4.098  0.2268E+02  0.8880E+03
      4.358  0.2641E+02  0.8949E+03
      4.618  0.3171E+02  0.9031E+03
      4.878  0.3394E+02  0.9120E+03
      5.138  0.3886E+02  0.9221E+03
      5.398  0.3986E+02  0.9324E+03
      5.658  0.4457E+02  0.9440E+03
      5.918  0.2804E+02  0.9513E+03
      6.178  0.2592E+01  0.9520E+03
      6.438  0.1839E-01  0.9520E+03
      6.698  0.6829E-05  0.9520E+03
      6.958  0.1084E-09  0.9520E+03
      7.218  0.0000E+00  0.9520E+03
      7.478  0.0000E+00  0.9520E+03
      7.738  0.0000E+00  0.9520E+03
      7.998  0.0000E+00  0.9520E+03
      8.258  0.0000E+00  0.9520E+03
      8.518  0.0000E+00  0.9520E+03
      8.778  0.0000E+00  0.9520E+03
      9.038  0.0000E+00  0.9520E+03
      9.298  0.0000E+00  0.9520E+03
