LAMMPS data file via write_data, version 5 Jun 2019, timestep = 70

72 atoms
2 atom types

0.0000000000000000e+00 1.0079732984900000e+01 xlo xhi
0.0000000000000000e+00 9.4251025535000004e+00 ylo yhi
0.0000000000000000e+00 2.0502009575999999e+01 zlo zhi
3.5732980426999998e+00 0.0000000000000000e+00 0.0000000000000000e+00 xy xz yz

Masses

1 58.71
2 32.06

Atoms # atomic

1 1 6.6893348943028217e+00 9.2487142673003628e+00 1.1648361700762084e+00 0 0 0
2 1 6.8428472952999968e+00 7.4925021176000000e+00 2.6255023947999989e+00 0 0 0
3 1 7.8205595924999969e+00 6.0762059814000002e+00 5.2510047895999978e+00 0 0 0
4 1 8.7982718961999975e+00 4.6599098357999997e+00 7.8765071842999976e+00 0 0 0
5 1 9.0929636639114921e+00 2.6554170648815312e+00 9.1520888675615630e+00 0 0 0
6 1 2.6177410563999994e+00 3.8787025575000000e+00 3.5006698528999993e+00 0 0 0
7 1 3.5954533500000001e+00 2.4624064119000000e+00 6.1261722475999978e+00 0 0 0
8 1 4.5731656471999997e+00 1.0461102757000000e+00 8.7516746423999994e+00 0 0 0
9 1 1.1937527557987835e+01 5.5933747174665749e+00 2.1917661629539964e+00 0 0 0
10 1 3.7575068723973954e+00 7.4115260024135470e+00 9.3004802929800512e+00 0 0 0
11 1 7.9321315168995472e+00 2.0227968439167490e+00 3.0219808996300892e+00 0 0 0
12 1 8.4723677886999980e+00 2.6490298800000001e-01 4.3758373314999996e+00 0 0 0
13 1 1.3023378138699993e+01 8.2737094054000000e+00 7.0013397261999994e+00 0 0 0
14 1 5.2413666591098265e+00 4.4883918541084435e+00 2.7959855512288936e+00 0 0 0
15 1 6.6181553577999974e+00 3.9602312685999999e+00 4.5573313097000003e+00 0 0 0
16 1 7.5958676550000002e+00 2.5439351324000001e+00 7.1828337045000001e+00 0 0 0
17 1 1.4153368116000000e+00 1.7627278447000001e+00 2.8069963729999992e+00 0 0 0
18 1 2.3930491088000001e+00 3.4643170849999999e-01 5.4324987678000003e+00 0 0 0
19 1 6.9440594551999961e+00 8.3552381164000007e+00 8.0580011626000001e+00 0 0 0
20 1 1.8722080913389656e+00 3.5241327467008219e+00 8.6625099097745584e-01 1 0 0
21 1 2.7188901319756624e+00 4.8088761465953800e+00 8.7097513585429667e+00 0 0 0
22 1 9.0655125598640360e+00 8.3048637248032140e+00 1.9573280407096980e+00 0 0 0
23 1 1.0843261600300000e+01 7.5740308380999997e+00 3.6821638310999996e+00 0 0 0
24 1 1.1820973893900000e+01 6.1577346925000001e+00 6.3076662259000003e+00 0 0 0
25 1 9.2767542959836946e-01 1.5108797801196363e+00 8.6818883214016314e+00 0 0 0
26 1 8.0408386618206649e+00 5.6163525631560445e+00 1.6843070277782937e+00 0 0 0
27 1 9.0229638322000003e+00 4.3344252104000001e+00 3.8636578093999998e+00 0 0 0
28 1 1.0000676129399999e+01 2.9181290742999999e+00 6.4891602041999983e+00 0 0 0
29 1 3.8201452859999994e+00 2.1369217864999999e+00 2.1133228931999999e+00 0 0 0
30 1 4.7978575897000013e+00 7.2062564090000003e-01 4.7388252880000001e+00 0 0 0
31 1 9.3488679296000008e+00 8.7294320583000005e+00 7.3643276827999999e+00 0 0 0
32 1 1.0132790166640529e+01 7.3521263718717274e+00 9.1995235863649256e+00 0 0 0
33 1 3.1683370862999967e+00 7.9482247705000004e+00 2.9884903512999994e+00 0 0 0
34 1 4.1460493935000002e+00 6.5319286342999998e+00 5.6139927461000001e+00 0 0 0
35 1 5.1237616907000003e+00 5.1156324982000001e+00 8.2394951409000008e+00 0 0 0
36 1 1.1323132725179123e+01 9.4167432408822265e+00 1.7240393429296232e+00 0 0 0
37 2 3.9940354025791676e+00 9.3536858320294112e+00 9.8349478694306658e+00 0 0 0
38 2 7.3554572877000002e+00 3.8265858496999998e+00 2.4250697876999996e+00 0 0 0
39 2 8.3331695913000008e+00 2.4102897041000002e+00 5.0505721824999990e+00 0 0 0
40 2 9.2293654020467404e+00 1.2255417091525531e+00 7.5707282085286574e+00 0 0 0
41 2 2.1045174296367777e+00 1.5398680883148070e+00 8.4070543236984407e-01 0 0 0
42 2 3.1303510451999998e+00 2.1278628019999998e-01 3.3002372457999996e+00 0 0 0
43 2 7.6813613950999962e+00 8.2215926976000002e+00 5.9257396404999998e+00 0 0 0
44 2 8.4745510429705124e+00 6.8411278375061251e+00 8.1530082563063733e+00 0 0 0
45 2 2.4785428489999983e+00 6.0240892736999996e+00 4.1754047243999999e+00 0 0 0
46 2 3.4562551425999990e+00 4.6077931281000000e+00 6.8009071190999979e+00 0 0 0
47 2 4.2410501634402262e+00 3.2035420074598822e+00 8.7889328916521396e+00 0 0 0
48 2 1.1580563536600000e+01 7.4403854098000002e+00 1.5499023296000001e+00 0 0 0
49 2 7.6430437818103281e+00 7.3966931984264095e+00 6.9991685055339758e-01 0 0 0
50 2 8.8865536996000003e+00 6.5209885878999998e+00 3.3083675636999996e+00 0 0 0
51 2 9.8642659968000004e+00 5.1046924517999992e+00 5.9338699584999999e+00 0 0 0
52 2 1.0841978300499999e+01 3.6883963062000000e+00 8.5593723532000006e+00 0 0 0
53 2 3.5783046582817337e+00 4.3228125308066518e+00 1.6304556473233953e+00 0 0 0
54 2 4.6614474570999995e+00 2.9071890183999995e+00 4.1835350218000000e+00 0 0 0
55 2 5.6391597542999987e+00 1.4908928822000000e+00 6.8090374165999989e+00 0 0 0
56 2 9.8190572168855077e+00 9.3549245968021069e+00 9.2614191926317595e+00 0 -1 0
57 2 4.0096392608999967e+00 8.7184920119000004e+00 5.0587025003999990e+00 0 0 0
58 2 4.9873515581000003e+00 7.3021958756999998e+00 7.6842048746999971e+00 0 0 0
59 2 4.1683330320951537e+00 5.5458526648437525e+00 9.9929108598230041e+00 0 0 0
60 2 9.5383618957999996e+00 7.0968559450000002e-01 2.4332001055999997e+00 0 0 0
61 2 4.9779923367992449e+00 8.0225847999595317e+00 1.8683594619506811e+00 0 0 0
62 2 5.8243608829999998e+00 6.0445040740999989e+00 4.1916653397000001e+00 0 0 0
63 2 6.8020731800999998e+00 4.6282079379000001e+00 6.8171677344999999e+00 0 0 0
64 2 7.3568280198977991e+00 3.6307642951191732e+00 9.0188228743794365e+00 0 0 0
65 2 1.5992546339999996e+00 2.4307045139999999e+00 5.0668327978000001e+00 0 0 0
66 2 2.5769669376999995e+00 1.0144083684000000e+00 7.6923351925999999e+00 0 0 0
67 2 7.1780669891471733e+00 9.1204279058945783e+00 9.8967985413235198e+00 0 0 0
68 2 1.0701275321600001e+01 3.8470006501000000e+00 2.4413304029999994e+00 0 0 0
69 2 4.9746256811035323e+00 7.3121849917112247e-01 1.0354927163430079e+00 0 0 0
70 2 6.4761690826999976e+00 2.3320108999999997e-01 3.3164978610999993e+00 0 0 0
71 2 1.1027179419099999e+01 8.2420074979999995e+00 5.9420002559000000e+00 0 0 0
72 2 1.2004891726300000e+01 6.8257113617999998e+00 8.5675026506999998e+00 0 0 0

Velocities

1 0.0000000000000000e+00 0.0000000000000000e+00 0.0000000000000000e+00
2 0.0000000000000000e+00 0.0000000000000000e+00 0.0000000000000000e+00
3 0.0000000000000000e+00 0.0000000000000000e+00 0.0000000000000000e+00
4 0.0000000000000000e+00 0.0000000000000000e+00 0.0000000000000000e+00
5 0.0000000000000000e+00 0.0000000000000000e+00 0.0000000000000000e+00
6 0.0000000000000000e+00 0.0000000000000000e+00 0.0000000000000000e+00
7 0.0000000000000000e+00 0.0000000000000000e+00 0.0000000000000000e+00
8 0.0000000000000000e+00 0.0000000000000000e+00 0.0000000000000000e+00
9 0.0000000000000000e+00 0.0000000000000000e+00 0.0000000000000000e+00
10 0.0000000000000000e+00 0.0000000000000000e+00 0.0000000000000000e+00
11 0.0000000000000000e+00 0.0000000000000000e+00 0.0000000000000000e+00
12 0.0000000000000000e+00 0.0000000000000000e+00 0.0000000000000000e+00
13 0.0000000000000000e+00 0.0000000000000000e+00 0.0000000000000000e+00
14 0.0000000000000000e+00 0.0000000000000000e+00 0.0000000000000000e+00
15 0.0000000000000000e+00 0.0000000000000000e+00 0.0000000000000000e+00
16 0.0000000000000000e+00 0.0000000000000000e+00 0.0000000000000000e+00
17 0.0000000000000000e+00 0.0000000000000000e+00 0.0000000000000000e+00
18 0.0000000000000000e+00 0.0000000000000000e+00 0.0000000000000000e+00
19 0.0000000000000000e+00 0.0000000000000000e+00 0.0000000000000000e+00
20 0.0000000000000000e+00 0.0000000000000000e+00 0.0000000000000000e+00
21 0.0000000000000000e+00 0.0000000000000000e+00 0.0000000000000000e+00
22 0.0000000000000000e+00 0.0000000000000000e+00 0.0000000000000000e+00
23 0.0000000000000000e+00 0.0000000000000000e+00 0.0000000000000000e+00
24 0.0000000000000000e+00 0.0000000000000000e+00 0.0000000000000000e+00
25 0.0000000000000000e+00 0.0000000000000000e+00 0.0000000000000000e+00
26 0.0000000000000000e+00 0.0000000000000000e+00 0.0000000000000000e+00
27 0.0000000000000000e+00 0.0000000000000000e+00 0.0000000000000000e+00
28 0.0000000000000000e+00 0.0000000000000000e+00 0.0000000000000000e+00
29 0.0000000000000000e+00 0.0000000000000000e+00 0.0000000000000000e+00
30 0.0000000000000000e+00 0.0000000000000000e+00 0.0000000000000000e+00
31 0.0000000000000000e+00 0.0000000000000000e+00 0.0000000000000000e+00
32 0.0000000000000000e+00 0.0000000000000000e+00 0.0000000000000000e+00
33 0.0000000000000000e+00 0.0000000000000000e+00 0.0000000000000000e+00
34 0.0000000000000000e+00 0.0000000000000000e+00 0.0000000000000000e+00
35 0.0000000000000000e+00 0.0000000000000000e+00 0.0000000000000000e+00
36 0.0000000000000000e+00 0.0000000000000000e+00 0.0000000000000000e+00
37 0.0000000000000000e+00 0.0000000000000000e+00 0.0000000000000000e+00
38 0.0000000000000000e+00 0.0000000000000000e+00 0.0000000000000000e+00
39 0.0000000000000000e+00 0.0000000000000000e+00 0.0000000000000000e+00
40 0.0000000000000000e+00 0.0000000000000000e+00 0.0000000000000000e+00
41 0.0000000000000000e+00 0.0000000000000000e+00 0.0000000000000000e+00
42 0.0000000000000000e+00 0.0000000000000000e+00 0.0000000000000000e+00
43 0.0000000000000000e+00 0.0000000000000000e+00 0.0000000000000000e+00
44 0.0000000000000000e+00 0.0000000000000000e+00 0.0000000000000000e+00
45 0.0000000000000000e+00 0.0000000000000000e+00 0.0000000000000000e+00
46 0.0000000000000000e+00 0.0000000000000000e+00 0.0000000000000000e+00
47 0.0000000000000000e+00 0.0000000000000000e+00 0.0000000000000000e+00
48 0.0000000000000000e+00 0.0000000000000000e+00 0.0000000000000000e+00
49 0.0000000000000000e+00 0.0000000000000000e+00 0.0000000000000000e+00
50 0.0000000000000000e+00 0.0000000000000000e+00 0.0000000000000000e+00
51 0.0000000000000000e+00 0.0000000000000000e+00 0.0000000000000000e+00
52 0.0000000000000000e+00 0.0000000000000000e+00 0.0000000000000000e+00
53 0.0000000000000000e+00 0.0000000000000000e+00 0.0000000000000000e+00
54 0.0000000000000000e+00 0.0000000000000000e+00 0.0000000000000000e+00
55 0.0000000000000000e+00 0.0000000000000000e+00 0.0000000000000000e+00
56 0.0000000000000000e+00 0.0000000000000000e+00 0.0000000000000000e+00
57 0.0000000000000000e+00 0.0000000000000000e+00 0.0000000000000000e+00
58 0.0000000000000000e+00 0.0000000000000000e+00 0.0000000000000000e+00
59 0.0000000000000000e+00 0.0000000000000000e+00 0.0000000000000000e+00
60 0.0000000000000000e+00 0.0000000000000000e+00 0.0000000000000000e+00
61 0.0000000000000000e+00 0.0000000000000000e+00 0.0000000000000000e+00
62 0.0000000000000000e+00 0.0000000000000000e+00 0.0000000000000000e+00
63 0.0000000000000000e+00 0.0000000000000000e+00 0.0000000000000000e+00
64 0.0000000000000000e+00 0.0000000000000000e+00 0.0000000000000000e+00
65 0.0000000000000000e+00 0.0000000000000000e+00 0.0000000000000000e+00
66 0.0000000000000000e+00 0.0000000000000000e+00 0.0000000000000000e+00
67 0.0000000000000000e+00 0.0000000000000000e+00 0.0000000000000000e+00
68 0.0000000000000000e+00 0.0000000000000000e+00 0.0000000000000000e+00
69 0.0000000000000000e+00 0.0000000000000000e+00 0.0000000000000000e+00
70 0.0000000000000000e+00 0.0000000000000000e+00 0.0000000000000000e+00
71 0.0000000000000000e+00 0.0000000000000000e+00 0.0000000000000000e+00
72 0.0000000000000000e+00 0.0000000000000000e+00 0.0000000000000000e+00
