<?xml version="1.0" encoding="ISO-8859-1"?>
<modeling>
 <generator>
  <i name="program" type="string">vasp </i>
  <i name="version" type="string">5.4.4.18Apr17-6-g9f103f2a35  </i>
  <i name="subversion" type="string">(build Aug 13 2019 17:33:20) gamma-only         parallel </i>
  <i name="platform" type="string">LinuxIFC </i>
  <i name="date" type="string">2020 05 12 </i>
  <i name="time" type="string">17:29:49 </i>
 </generator>
 <incar>
  <i type="string" name="SYSTEM">"Millerite NiS"</i>
  <i type="string" name="PREC">normal</i>
  <i type="int" name="NSIM">     4</i>
  <i type="int" name="NELM">   100</i>
  <i name="ENCUT">    450.00000000</i>
  <i type="string" name="LREAL">A</i>
  <i type="int" name="ISMEAR">     0</i>
  <i type="int" name="NWRITE">     2</i>
  <i type="logical" name="LWAVE"> F  </i>
  <i type="logical" name="LCHARG"> F  </i>
  <v type="int" name="KPOINT_BSE">    -1     0     0     0</v>
  <i type="int" name="NELM">   100</i>
 </incar>
 <structure name="primitive_cell" >
  <crystal>
   <varray name="basis" >
    <v>      10.07973298       0.00000000       0.00000000 </v>
    <v>       3.57329804       9.42510255       0.00000000 </v>
    <v>       0.00000000       0.00000000      20.50200958 </v>
   </varray>
   <i name="volume">   1947.74251522 </i>
   <varray name="rec_basis" >
    <v>       0.09920898      -0.03761267       0.00000000 </v>
    <v>       0.00000000       0.10609964       0.00000000 </v>
    <v>       0.00000000       0.00000000       0.04877571 </v>
   </varray>
  </crystal>
  <varray name="positions" >
   <v>       0.31577326      -0.01871473       0.05681571 </v>
   <v>       0.15086848       0.16337945       0.04100600 </v>
   <v>       0.46602445       0.07758202       0.05050689 </v>
   <v>       0.48004920      -0.21521350       0.03413894 </v>
   <v>       0.30255547       0.02257655       0.16097140 </v>
   <v>       0.19211072      -0.14880663       0.09113055 </v>
   <v>       0.39705889      -0.20504821       0.12806073 </v>
   <v>       0.29861738       0.22672664       0.10307882 </v>
   <v>      -0.41298785      -0.11885694       0.09547006 </v>
   <v>       0.07411322       0.18702479       0.13691323 </v>
   <v>      -0.41352262      -0.40410701       0.08215327 </v>
   <v>       0.05318782       0.37390922       0.04225200 </v>
   <v>      -0.08040204       0.07529739       0.11868105 </v>
   <v>      -0.36627720       0.02474255       0.16176453 </v>
   <v>       0.44888589       0.07645812       0.23113955 </v>
   <v>      -0.36364587      -0.30812545       0.16136797 </v>
   <v>       0.01537355      -0.15669620       0.14576573 </v>
   <v>       0.22438173       0.03675628       0.26497396 </v>
   <v>       0.35047897      -0.35868029       0.20445144 </v>
   <v>       0.19240744       0.45864886       0.07952663 </v>
   <v>       0.35311030       0.30845171       0.20405488 </v>
   <v>      -0.23083241      -0.00088692       0.08409124 </v>
   <v>       0.11381506       0.41152895       0.17074765 </v>
   <v>       0.06986647      -0.07497112       0.24674179 </v>
   <v>      -0.08303338       0.40816539       0.11907761 </v>
   <v>       0.06723514       0.25789688       0.24713835 </v>
   <v>       0.45282398      -0.12769196       0.28903214 </v>
   <v>      -0.20913061      -0.19639804       0.17960014 </v>
   <v>      -0.13095688      -0.21057778       0.07559758 </v>
   <v>       0.35117024       0.47621677       0.13637617 </v>
   <v>      -0.45267259      -0.35531673       0.25612147 </v>
   <v>      -0.41420070       0.40599939       0.11828449 </v>
   <v>      -0.28914413       0.21461802       0.14739925 </v>
   <v>       0.26408358       0.26126044       0.29880838 </v>
   <v>      -0.16942877       0.02810611       0.21343456 </v>
   <v>       0.16564206      -0.30696472       0.27382646 </v>
   <v>      -0.02607184      -0.40654495       0.10690494 </v>
   <v>      -0.26787028       0.45988096       0.18845264 </v>
   <v>       0.01931164      -0.36084629       0.20365832 </v>
   <v>      -0.49237444       0.42017912       0.22228705 </v>
   <v>      -0.49662119       0.15818320       0.33211561 </v>
   <v>      -0.21600869      -0.12552596       0.28982526 </v>
   <v>       0.21750365       0.10762836       0.37519908 </v>
   <v>      -0.26393219       0.25573087       0.24634523 </v>
   <v>      -0.40084560      -0.07381039       0.35920029 </v>
   <v>      -0.11760177       0.30961245       0.31651337 </v>
   <v>       0.37465025      -0.11351223       0.39303470 </v>
   <v>      -0.01916025      -0.12216240       0.34149529 </v>
   <v>       0.22013498      -0.22523964       0.37480252 </v>
   <v>      -0.21337736      -0.45839396       0.28942870 </v>
   <v>      -0.49925252       0.49105120       0.33251217 </v>
   <v>       0.16958015       0.48888520       0.33171905 </v>
   <v>      -0.41656152      -0.27415879       0.39766874 </v>
   <v>      -0.13045999       0.13002954       0.36926762 </v>
   <v>      -0.05886210      -0.34666656       0.30766088 </v>
   <v>       0.41435209       0.11099192       0.42686911 </v>
   <v>      -0.34210592       0.26991060       0.35034779 </v>
   <v>       0.03520551       0.16030380       0.42346524 </v>
   <v>       0.31591057      -0.45723323       0.40188720 </v>
   <v>      -0.30240408       0.49441476       0.38418220 </v>
   <v>       0.30025649       0.33989466       0.42868641 </v>
   <v>      -0.06310884       0.39133753       0.41748943 </v>
   <v>      -0.37772504      -0.00744586       0.45173226 </v>
   <v>       0.36908507      -0.03232587       0.48272334 </v>
   <v>       0.09401115      -0.21363975       0.45363750 </v>
   <v>      -0.27126933      -0.21994203       0.44871326 </v>
   <v>       0.08886365      -0.48977997       0.42482428 </v>
   <v>       0.04442710      -0.00757729       0.47970653 </v>
   <v>      -0.06574018      -0.27579447       0.41788599 </v>
   <v>      -0.19777369       0.28173880       0.44639960 </v>
   <v>      -0.40669935       0.38522279       0.43989946 </v>
   <v>       0.20494175      -0.41158702       0.48741129 </v>
  </varray>
 </structure>
 <varray name="primitive_index" >
  <v type="int" >        1 </v>
  <v type="int" >       41 </v>
  <v type="int" >       69 </v>
  <v type="int" >       49 </v>
  <v type="int" >       42 </v>
  <v type="int" >       61 </v>
  <v type="int" >        2 </v>
  <v type="int" >       29 </v>
  <v type="int" >       22 </v>
  <v type="int" >       17 </v>
  <v type="int" >       26 </v>
  <v type="int" >       20 </v>
  <v type="int" >       60 </v>
  <v type="int" >       70 </v>
  <v type="int" >       30 </v>
  <v type="int" >       50 </v>
  <v type="int" >       33 </v>
  <v type="int" >       18 </v>
  <v type="int" >       62 </v>
  <v type="int" >       53 </v>
  <v type="int" >       54 </v>
  <v type="int" >       36 </v>
  <v type="int" >        6 </v>
  <v type="int" >       57 </v>
  <v type="int" >       68 </v>
  <v type="int" >       65 </v>
  <v type="int" >       43 </v>
  <v type="int" >       23 </v>
  <v type="int" >       48 </v>
  <v type="int" >       14 </v>
  <v type="int" >        3 </v>
  <v type="int" >       38 </v>
  <v type="int" >       11 </v>
  <v type="int" >        7 </v>
  <v type="int" >       12 </v>
  <v type="int" >       34 </v>
  <v type="int" >        9 </v>
  <v type="int" >       27 </v>
  <v type="int" >       45 </v>
  <v type="int" >       15 </v>
  <v type="int" >       55 </v>
  <v type="int" >       71 </v>
  <v type="int" >       66 </v>
  <v type="int" >       39 </v>
  <v type="int" >       31 </v>
  <v type="int" >       28 </v>
  <v type="int" >       19 </v>
  <v type="int" >       13 </v>
  <v type="int" >       58 </v>
  <v type="int" >       51 </v>
  <v type="int" >       63 </v>
  <v type="int" >       46 </v>
  <v type="int" >       44 </v>
  <v type="int" >       40 </v>
  <v type="int" >       24 </v>
  <v type="int" >        8 </v>
  <v type="int" >       16 </v>
  <v type="int" >       25 </v>
  <v type="int" >       35 </v>
  <v type="int" >        4 </v>
  <v type="int" >       47 </v>
  <v type="int" >       52 </v>
  <v type="int" >       56 </v>
  <v type="int" >       67 </v>
  <v type="int" >       10 </v>
  <v type="int" >       32 </v>
  <v type="int" >       21 </v>
  <v type="int" >       37 </v>
  <v type="int" >       72 </v>
  <v type="int" >        5 </v>
  <v type="int" >       64 </v>
  <v type="int" >       59 </v>
 </varray>
 <kpoints>
  <generation param="Gamma">
   <v type="int" name="divisions">       1        1        1 </v>
   <v name="usershift">      0.00000000       0.00000000       0.00000000 </v>
   <v name="genvec1">      1.00000000       0.00000000       0.00000000 </v>
   <v name="genvec2">      0.00000000       1.00000000       0.00000000 </v>
   <v name="genvec3">      0.00000000       0.00000000       1.00000000 </v>
   <v name="shift">      0.00000000       0.00000000       0.00000000 </v>
  </generation>
  <varray name="kpointlist" >
   <v>       0.00000000       0.00000000       0.00000000 </v>
  </varray>
  <varray name="weights" >
   <v>       1.00000000 </v>
  </varray>
 </kpoints>
 <parameters>
  <separator name="general" >
   <i type="string" name="SYSTEM">"Millerite NiS"</i>
   <i type="logical" name="LCOMPAT"> F  </i>
  </separator>
  <separator name="electronic" >
   <i type="string" name="PREC">normal</i>
   <i name="ENMAX">    450.00000000</i>
   <i name="ENAUG">    703.44300000</i>
   <i name="EDIFF">      0.00010000</i>
   <i type="int" name="IALGO">    38</i>
   <i type="int" name="IWAVPR">    10</i>
   <i type="int" name="NBANDS">   476</i>
   <i name="NELECT">    792.00000000</i>
   <i type="int" name="TURBO">     0</i>
   <i type="int" name="IRESTART">     0</i>
   <i type="int" name="NREBOOT">     0</i>
   <i type="int" name="NMIN">     0</i>
   <i name="EREF">      0.00000000</i>
   <separator name="electronic smearing" >
    <i type="int" name="ISMEAR">     0</i>
    <i name="SIGMA">      0.20000000</i>
    <i name="KSPACING">      0.50000000</i>
    <i type="logical" name="KGAMMA"> T  </i>
   </separator>
   <separator name="electronic projectors" >
    <i type="logical" name="LREAL"> T  </i>
    <v name="ROPT">     -0.00050000     -0.00050000</v>
    <i type="int" name="LMAXPAW">  -100</i>
    <i type="int" name="LMAXMIX">     2</i>
    <i type="logical" name="NLSPLINE"> F  </i>
   </separator>
   <separator name="electronic startup" >
    <i type="int" name="ISTART">     0</i>
    <i type="int" name="ICHARG">     2</i>
    <i type="int" name="INIWAV">     1</i>
   </separator>
   <separator name="electronic spin" >
    <i type="int" name="ISPIN">     1</i>
    <i type="logical" name="LNONCOLLINEAR"> F  </i>
    <v name="MAGMOM">      1.00000000      1.00000000      1.00000000      1.00000000      1.00000000      1.00000000      1.00000000      1.00000000      1.00000000      1.00000000      1.00000000      1.00000000      1.00000000      1.00000000      1.00000000      1.00000000      1.00000000      1.00000000      1.00000000      1.00000000
      1.00000000      1.00000000      1.00000000      1.00000000      1.00000000      1.00000000      1.00000000      1.00000000      1.00000000      1.00000000      1.00000000      1.00000000      1.00000000      1.00000000      1.00000000      1.00000000      1.00000000      1.00000000      1.00000000      1.00000000
      1.00000000      1.00000000      1.00000000      1.00000000      1.00000000      1.00000000      1.00000000      1.00000000      1.00000000      1.00000000      1.00000000      1.00000000      1.00000000      1.00000000      1.00000000      1.00000000      1.00000000      1.00000000      1.00000000      1.00000000
      1.00000000      1.00000000      1.00000000      1.00000000      1.00000000      1.00000000      1.00000000      1.00000000      1.00000000      1.00000000      1.00000000      1.00000000</v>
    <i name="NUPDOWN">     -1.00000000</i>
    <i type="logical" name="LSORBIT"> F  </i>
    <v name="SAXIS">      0.00000000      0.00000000      1.00000000</v>
    <i type="logical" name="LSPIRAL"> F  </i>
    <v name="QSPIRAL">      0.00000000      0.00000000      0.00000000</v>
    <i type="logical" name="LZEROZ"> F  </i>
   </separator>
   <separator name="electronic exchange-correlation" >
    <i type="logical" name="LASPH"> F  </i>
    <i type="logical" name="LMETAGGA"> F  </i>
   </separator>
   <separator name="electronic convergence" >
    <i type="int" name="NELM">   100</i>
    <i type="int" name="NELMDL">    -5</i>
    <i type="int" name="NELMIN">     2</i>
    <i name="ENINI">    450.00000000</i>
    <separator name="electronic convergence detail" >
     <i type="logical" name="LDIAG"> T  </i>
     <i type="logical" name="LSUBROT"> F  </i>
     <i name="WEIMIN">      0.00000000</i>
     <i name="EBREAK">      0.00000005</i>
     <i name="DEPER">      0.30000000</i>
     <i type="int" name="NRMM">     4</i>
     <i name="TIME">      0.40000000</i>
    </separator>
   </separator>
   <separator name="electronic mixer" >
    <i name="AMIX">      0.40000000</i>
    <i name="BMIX">      1.00000000</i>
    <i name="AMIN">      0.10000000</i>
    <i name="AMIX_MAG">      1.60000000</i>
    <i name="BMIX_MAG">      1.00000000</i>
    <separator name="electronic mixer details" >
     <i type="int" name="IMIX">     4</i>
     <i type="logical" name="MIXFIRST"> F  </i>
     <i type="int" name="MAXMIX">   -45</i>
     <i name="WC">    100.00000000</i>
     <i type="int" name="INIMIX">     1</i>
     <i type="int" name="MIXPRE">     1</i>
     <i type="int" name="MREMOVE">     5</i>
    </separator>
   </separator>
   <separator name="electronic dipolcorrection" >
    <i type="logical" name="LDIPOL"> F  </i>
    <i type="logical" name="LMONO"> F  </i>
    <i type="int" name="IDIPOL">     0</i>
    <i name="EPSILON">      1.00000000</i>
    <v name="DIPOL">   -100.00000000   -100.00000000   -100.00000000</v>
    <i name="EFIELD">      0.00000000</i>
   </separator>
  </separator>
  <separator name="grids" >
   <i type="int" name="NGX">    54</i>
   <i type="int" name="NGY">    54</i>
   <i type="int" name="NGZ">   108</i>
   <i type="int" name="NGXF">   108</i>
   <i type="int" name="NGYF">   108</i>
   <i type="int" name="NGZF">   216</i>
   <i type="logical" name="ADDGRID"> F  </i>
  </separator>
  <separator name="ionic" >
   <i type="int" name="NSW">     0</i>
   <i type="int" name="IBRION">    -1</i>
   <i type="int" name="MDALGO">     0</i>
   <i type="int" name="ISIF">     2</i>
   <i name="PSTRESS">      0.00000000</i>
   <i name="EDIFFG">      0.00100000</i>
   <i type="int" name="NFREE">     0</i>
   <i name="POTIM">      0.50000000</i>
   <i name="SMASS">     -3.00000000</i>
   <i name="SCALEE">      1.00000000</i>
  </separator>
  <separator name="ionic md" >
   <i name="TEBEG">      0.00010000</i>
   <i name="TEEND">      0.00010000</i>
   <i type="int" name="NBLOCK">     1</i>
   <i type="int" name="KBLOCK">     1</i>
   <i type="int" name="NPACO">   256</i>
   <i name="APACO">     16.00000000</i>
  </separator>
  <separator name="symmetry" >
   <i type="int" name="ISYM">     2</i>
   <i name="SYMPREC">      0.00001000</i>
  </separator>
  <separator name="dos" >
   <i type="int" name="LORBIT">     0</i>
   <v name="RWIGS">     -1.00000000     -1.00000000</v>
   <i type="int" name="NEDOS">   301</i>
   <i name="EMIN">     10.00000000</i>
   <i name="EMAX">    -10.00000000</i>
   <i name="EFERMI">      0.00000000</i>
  </separator>
  <separator name="writing" >
   <i type="int" name="NWRITE">     2</i>
   <i type="logical" name="LWAVE"> F  </i>
   <i type="logical" name="LDOWNSAMPLE"> F  </i>
   <i type="logical" name="LCHARG"> F  </i>
   <i type="logical" name="LPARD"> F  </i>
   <i type="logical" name="LVTOT"> F  </i>
   <i type="logical" name="LVHAR"> F  </i>
   <i type="logical" name="LELF"> F  </i>
   <i type="logical" name="LOPTICS"> F  </i>
   <v name="STM">      0.00000000      0.00000000      0.00000000      0.00000000      0.00000000      0.00000000      0.00000000</v>
  </separator>
  <separator name="performance" >
   <i type="int" name="NPAR">     2</i>
   <i type="int" name="NSIM">     4</i>
   <i type="int" name="NBLK">    -1</i>
   <i type="logical" name="LPLANE"> T  </i>
   <i type="logical" name="LSCALAPACK"> T  </i>
   <i type="logical" name="LSCAAWARE"> F  </i>
   <i type="logical" name="LSCALU"> F  </i>
   <i type="logical" name="LASYNC"> F  </i>
   <i type="logical" name="LORBITALREAL"> F  </i>
  </separator>
  <separator name="miscellaneous" >
   <i type="int" name="IDIOT">     3</i>
   <i type="int" name="ISPECIAL">     0</i>
   <i type="logical" name="LMUSIC"> F  </i>
   <v name="POMASS">     58.69000000     32.06600000</v>
   <v name="DARWINR">      0.00000000      0.00000000</v>
   <v name="DARWINV">      1.00000000      1.00000000</v>
   <i type="logical" name="LCORR"> T  </i>
  </separator>
  <i type="logical" name="GGA_COMPAT"> T  </i>
  <i type="logical" name="LBERRY"> F  </i>
  <i type="int" name="ICORELEVEL">     0</i>
  <i type="logical" name="LDAU"> F  </i>
  <i type="int" name="I_CONSTRAINED_M">     0</i>
  <separator name="electronic exchange-correlation" >
   <i type="string" name="GGA">--</i>
   <i type="int" name="VOSKOWN">     0</i>
   <i type="logical" name="LHFCALC"> F  </i>
   <i type="string" name="PRECFOCK"></i>
   <i type="logical" name="LSYMGRAD"> F  </i>
   <i type="logical" name="LHFONE"> F  </i>
   <i type="logical" name="LRHFCALC"> F  </i>
   <i type="logical" name="LTHOMAS"> F  </i>
   <i type="logical" name="LMODELHF"> F  </i>
   <i name="ENCUT4O">     -1.00000000</i>
   <i type="int" name="EXXOEP">     0</i>
   <i type="int" name="FOURORBIT">     0</i>
   <i name="AEXX">      0.00000000</i>
   <i name="HFALPHA">      0.00000000</i>
   <i name="MCALPHA">      0.00000000</i>
   <i name="ALDAX">      1.00000000</i>
   <i name="AGGAX">      1.00000000</i>
   <i name="ALDAC">      1.00000000</i>
   <i name="AGGAC">      1.00000000</i>
   <i type="int" name="NKREDX">     1</i>
   <i type="int" name="NKREDY">     1</i>
   <i type="int" name="NKREDZ">     1</i>
   <i type="logical" name="SHIFTRED"> F  </i>
   <i type="logical" name="ODDONLY"> F  </i>
   <i type="logical" name="EVENONLY"> F  </i>
   <i type="int" name="LMAXFOCK">     0</i>
   <i type="int" name="NMAXFOCKAE">     0</i>
   <i type="logical" name="LFOCKAEDFT"> F  </i>
   <i name="HFSCREEN">      0.00000000</i>
   <i name="HFSCREENC">      0.00000000</i>
   <i type="int" name="NBANDSGWLOW">     0</i>
  </separator>
  <separator name="vdW DFT" >
   <i type="logical" name="LUSE_VDW"> F  </i>
   <i name="Zab_VDW">     -0.84910000</i>
   <i name="PARAM1">      0.12340000</i>
   <i name="PARAM2">      1.00000000</i>
   <i name="PARAM3">      0.00000000</i>
  </separator>
  <separator name="model GW" >
   <i type="int" name="MODEL_GW">     0</i>
   <i name="MODEL_EPS0">     16.23118763</i>
   <i name="MODEL_ALPHA">      1.00000000</i>
  </separator>
  <separator name="linear response parameters" >
   <i type="logical" name="LEPSILON"> F  </i>
   <i type="logical" name="LRPA"> F  </i>
   <i type="logical" name="LNABLA"> F  </i>
   <i type="logical" name="LVEL"> F  </i>
   <i type="int" name="KINTER">     0</i>
   <i name="CSHIFT">      0.10000000</i>
   <i name="OMEGAMAX">     -1.00000000</i>
   <i name="DEG_THRESHOLD">      0.00200000</i>
   <i name="RTIME">     -0.10000000</i>
   <i name="WPLASMAI">      0.00000000</i>
   <v name="DFIELD">      0.00000000      0.00000000      0.00000000</v>
   <v name="WPLASMA">      0.00000000      0.00000000      0.00000000      0.00000000      0.00000000      0.00000000      0.00000000      0.00000000      0.00000000</v>
  </separator>
  <separator name="orbital magnetization" >
   <i type="logical" name="NUCIND"> F  </i>
   <v name="MAGPOS">      0.00000000      0.00000000      0.00000000</v>
   <i type="logical" name="LNICSALL"> T  </i>
   <i type="logical" name="ORBITALMAG"> F  </i>
   <i type="logical" name="LMAGBLOCH"> F  </i>
   <i type="logical" name="LCHIMAG"> F  </i>
   <i type="logical" name="LGAUGE"> T  </i>
   <i type="int" name="MAGATOM">     0</i>
   <v name="MAGDIPOL">      0.00000000      0.00000000      0.00000000</v>
   <v name="AVECCONST">      0.00000000      0.00000000      0.00000000</v>
  </separator>
  <separator name="response functions" >
   <i type="logical" name="LADDER"> F  </i>
   <i type="logical" name="LRPAFORCE"> F  </i>
   <i type="logical" name="LFXC"> F  </i>
   <i type="logical" name="LHARTREE"> T  </i>
   <i type="int" name="IBSE">     0</i>
   <v type="int" name="KPOINT">    -1     0     0     0</v>
   <i type="logical" name="LTCTE"> F  </i>
   <i type="logical" name="LTETE"> F  </i>
   <i type="logical" name="LTRIPLET"> F  </i>
   <i type="logical" name="LFXCEPS"> F  </i>
   <i type="logical" name="LFXHEG"> F  </i>
   <i type="int" name="NATURALO">     2</i>
   <i type="logical" name="L2ORDER"> F  </i>
   <i type="logical" name="LMP2LT"> F  </i>
   <i type="logical" name="LUSEW"> F  </i>
   <i name="ENCUTGW">     -2.00000000</i>
   <i name="ENCUTGWSOFT">     -2.00000000</i>
   <i name="ENCUTLF">     -1.00000000</i>
   <i type="int" name="LMAXMP2">    -1</i>
   <i name="SCISSOR">      0.00000000</i>
   <i type="int" name="NOMEGA">     0</i>
   <i type="int" name="NOMEGAR">     0</i>
   <i type="int" name="NBANDSGW">    -1</i>
   <i type="int" name="NBANDSO">    -1</i>
   <i type="int" name="NBANDSV">    -1</i>
   <i type="int" name="NELM">   100</i>
   <i type="int" name="NELMHF">     1</i>
   <i type="int" name="DIM">     3</i>
   <i type="int" name="ANTIRES">     0</i>
   <i name="OMEGAMAX">    -30.00000000</i>
   <i name="OMEGAMIN">    -30.00000000</i>
   <i name="OMEGATL">   -200.00000000</i>
   <i type="int" name="OMEGAGRID">   140</i>
   <i name="CSHIFT">     -0.10000000</i>
   <i type="logical" name="SELFENERGY"> F  </i>
   <i type="logical" name="LSPECTRAL"> F  </i>
   <i type="logical" name="LSPECTRALGW"> F  </i>
   <i type="logical" name="LSINGLES"> F  </i>
   <i type="logical" name="LFERMIGW"> F  </i>
   <i type="logical" name="ODDONLYGW"> F  </i>
   <i type="logical" name="EVENONLYGW"> F  </i>
   <i type="int" name="NKREDLFX">     1</i>
   <i type="int" name="NKREDLFY">     1</i>
   <i type="int" name="NKREDLFZ">     1</i>
   <i type="int" name="MAXMEM">  2800</i>
   <i type="int" name="TELESCOPE">     0</i>
   <i type="int" name="TAUPAR">     1</i>
   <i type="int" name="OMEGAPAR">    -1</i>
   <i name="LAMBDA">      1.00000000</i>
  </separator>
  <separator name="External order field" >
   <i name="OFIELD_KAPPA">      0.00000000</i>
   <v name="OFIELD_K">      0.00000000      0.00000000      0.00000000</v>
   <i name="OFIELD_Q6_NEAR">      0.00000000</i>
   <i name="OFIELD_Q6_FAR">      0.00000000</i>
   <i name="OFIELD_A">      0.00000000</i>
  </separator>
 </parameters>
 <atominfo>
  <atoms>      72 </atoms>
  <types>       2 </types>
  <array name="atoms" >
   <dimension dim="1">ion</dimension>
   <field type="string">element</field>
   <field type="int">atomtype</field>
   <set>
    <rc><c>Ni</c><c>   1</c></rc>
    <rc><c>Ni</c><c>   1</c></rc>
    <rc><c>Ni</c><c>   1</c></rc>
    <rc><c>Ni</c><c>   1</c></rc>
    <rc><c>Ni</c><c>   1</c></rc>
    <rc><c>Ni</c><c>   1</c></rc>
    <rc><c>Ni</c><c>   1</c></rc>
    <rc><c>Ni</c><c>   1</c></rc>
    <rc><c>Ni</c><c>   1</c></rc>
    <rc><c>Ni</c><c>   1</c></rc>
    <rc><c>Ni</c><c>   1</c></rc>
    <rc><c>Ni</c><c>   1</c></rc>
    <rc><c>Ni</c><c>   1</c></rc>
    <rc><c>Ni</c><c>   1</c></rc>
    <rc><c>Ni</c><c>   1</c></rc>
    <rc><c>Ni</c><c>   1</c></rc>
    <rc><c>Ni</c><c>   1</c></rc>
    <rc><c>Ni</c><c>   1</c></rc>
    <rc><c>Ni</c><c>   1</c></rc>
    <rc><c>Ni</c><c>   1</c></rc>
    <rc><c>Ni</c><c>   1</c></rc>
    <rc><c>Ni</c><c>   1</c></rc>
    <rc><c>Ni</c><c>   1</c></rc>
    <rc><c>Ni</c><c>   1</c></rc>
    <rc><c>Ni</c><c>   1</c></rc>
    <rc><c>Ni</c><c>   1</c></rc>
    <rc><c>Ni</c><c>   1</c></rc>
    <rc><c>Ni</c><c>   1</c></rc>
    <rc><c>Ni</c><c>   1</c></rc>
    <rc><c>Ni</c><c>   1</c></rc>
    <rc><c>Ni</c><c>   1</c></rc>
    <rc><c>Ni</c><c>   1</c></rc>
    <rc><c>Ni</c><c>   1</c></rc>
    <rc><c>Ni</c><c>   1</c></rc>
    <rc><c>Ni</c><c>   1</c></rc>
    <rc><c>Ni</c><c>   1</c></rc>
    <rc><c>S </c><c>   2</c></rc>
    <rc><c>S </c><c>   2</c></rc>
    <rc><c>S </c><c>   2</c></rc>
    <rc><c>S </c><c>   2</c></rc>
    <rc><c>S </c><c>   2</c></rc>
    <rc><c>S </c><c>   2</c></rc>
    <rc><c>S </c><c>   2</c></rc>
    <rc><c>S </c><c>   2</c></rc>
    <rc><c>S </c><c>   2</c></rc>
    <rc><c>S </c><c>   2</c></rc>
    <rc><c>S </c><c>   2</c></rc>
    <rc><c>S </c><c>   2</c></rc>
    <rc><c>S </c><c>   2</c></rc>
    <rc><c>S </c><c>   2</c></rc>
    <rc><c>S </c><c>   2</c></rc>
    <rc><c>S </c><c>   2</c></rc>
    <rc><c>S </c><c>   2</c></rc>
    <rc><c>S </c><c>   2</c></rc>
    <rc><c>S </c><c>   2</c></rc>
    <rc><c>S </c><c>   2</c></rc>
    <rc><c>S </c><c>   2</c></rc>
    <rc><c>S </c><c>   2</c></rc>
    <rc><c>S </c><c>   2</c></rc>
    <rc><c>S </c><c>   2</c></rc>
    <rc><c>S </c><c>   2</c></rc>
    <rc><c>S </c><c>   2</c></rc>
    <rc><c>S </c><c>   2</c></rc>
    <rc><c>S </c><c>   2</c></rc>
    <rc><c>S </c><c>   2</c></rc>
    <rc><c>S </c><c>   2</c></rc>
    <rc><c>S </c><c>   2</c></rc>
    <rc><c>S </c><c>   2</c></rc>
    <rc><c>S </c><c>   2</c></rc>
    <rc><c>S </c><c>   2</c></rc>
    <rc><c>S </c><c>   2</c></rc>
    <rc><c>S </c><c>   2</c></rc>
   </set>
  </array>
  <array name="atomtypes" >
   <dimension dim="1">type</dimension>
   <field type="int">atomspertype</field>
   <field type="string">element</field>
   <field>mass</field>
   <field>valence</field>
   <field type="string">pseudopotential</field>
   <set>
    <rc><c>  36</c><c>Ni</c><c>     58.69000000</c><c>     16.00000000</c><c>  PAW_PBE Ni_pv 06Sep2000               </c></rc>
    <rc><c>  36</c><c>S </c><c>     32.06600000</c><c>      6.00000000</c><c>  PAW_PBE S 06Sep2000                   </c></rc>
   </set>
  </array>
 </atominfo>
 <structure name="initialpos" >
  <crystal>
   <varray name="basis" >
    <v>      10.07973298       0.00000000       0.00000000 </v>
    <v>       3.57329804       9.42510255       0.00000000 </v>
    <v>       0.00000000       0.00000000      20.50200958 </v>
   </varray>
   <i name="volume">   1947.74251522 </i>
   <varray name="rec_basis" >
    <v>       0.09920898      -0.03761267       0.00000000 </v>
    <v>       0.00000000       0.10609964       0.00000000 </v>
    <v>       0.00000000       0.00000000       0.04877571 </v>
   </varray>
  </crystal>
  <varray name="positions" >
   <v>       0.31577326       0.98128527       0.05681571 </v>
   <v>       0.39705889       0.79495179       0.12806073 </v>
   <v>       0.54732741       0.64468327       0.25612147 </v>
   <v>       0.69759592       0.49441476       0.38418220 </v>
   <v>       0.80222631       0.28173880       0.44639960 </v>
   <v>       0.11381506       0.41152895       0.17074765 </v>
   <v>       0.26408358       0.26126044       0.29880838 </v>
   <v>       0.41435209       0.11099192       0.42686911 </v>
   <v>       0.97392816       0.59345505       0.10690494 </v>
   <v>       0.09401115       0.78636025       0.45363750 </v>
   <v>       0.71085587       0.21461802       0.14739925 </v>
   <v>       0.83057123       0.02810611       0.21343456 </v>
   <v>       0.98083975       0.87783760       0.34149529 </v>
   <v>       0.35117024       0.47621677       0.13637617 </v>
   <v>       0.50762556       0.42017912       0.22228705 </v>
   <v>       0.65789408       0.26991060       0.35034779 </v>
   <v>       0.07411322       0.18702479       0.13691323 </v>
   <v>       0.22438173       0.03675628       0.26497396 </v>
   <v>       0.37465025       0.88648777       0.39303470 </v>
   <v>       0.05318782       0.37390922       0.04225200 </v>
   <v>       0.08886365       0.51022003       0.42482428 </v>
   <v>       0.58701215       0.88114306       0.09547006 </v>
   <v>       0.79086939       0.80360196       0.17960014 </v>
   <v>       0.94113790       0.65333344       0.30766088 </v>
   <v>       0.03520551       0.16030380       0.42346524 </v>
   <v>       0.58647738       0.59589299       0.08215327 </v>
   <v>       0.73212972       0.45988096       0.18845264 </v>
   <v>       0.88239823       0.30961245       0.31651337 </v>
   <v>       0.29861738       0.22672664       0.10307882 </v>
   <v>       0.44888589       0.07645812       0.23113955 </v>
   <v>       0.59915440       0.92618961       0.35920029 </v>
   <v>       0.72873067       0.78005797       0.44871326 </v>
   <v>       0.01537355       0.84330380       0.14576573 </v>
   <v>       0.16564206       0.69303528       0.27382646 </v>
   <v>       0.31591057       0.54276677       0.40188720 </v>
   <v>       0.76916759       0.99911308       0.08409124 </v>
   <v>       0.04442710       0.99242271       0.47970653 </v>
   <v>       0.58579930       0.40599939       0.11828449 </v>
   <v>       0.73606781       0.25573087       0.24634523 </v>
   <v>       0.86954001       0.13002954       0.36926762 </v>
   <v>       0.15086848       0.16337945       0.04100600 </v>
   <v>       0.30255547       0.02257655       0.16097140 </v>
   <v>       0.45282398       0.87230804       0.28903214 </v>
   <v>       0.58343848       0.72584121       0.39766874 </v>
   <v>       0.01931164       0.63915371       0.20365832 </v>
   <v>       0.16958015       0.48888520       0.33171905 </v>
   <v>       0.30025649       0.33989466       0.42868641 </v>
   <v>       0.86904312       0.78942222       0.07559758 </v>
   <v>       0.48004920       0.78478650       0.03413894 </v>
   <v>       0.63635413       0.69187455       0.16136797 </v>
   <v>       0.78662264       0.54160604       0.28942870 </v>
   <v>       0.93689116       0.39133753       0.41748943 </v>
   <v>       0.19240744       0.45864886       0.07952663 </v>
   <v>       0.35311030       0.30845171       0.20405488 </v>
   <v>       0.50337881       0.15818320       0.33211561 </v>
   <v>       0.62227496       0.99255414       0.45173226 </v>
   <v>       0.06986647       0.92502888       0.24674179 </v>
   <v>       0.22013498       0.77476036       0.37480252 </v>
   <v>       0.20494175       0.58841298       0.48741129 </v>
   <v>       0.91959796       0.07529739       0.11868105 </v>
   <v>       0.19211072       0.85119337       0.09113055 </v>
   <v>       0.35047897       0.64131971       0.20445144 </v>
   <v>       0.50074748       0.49105120       0.33251217 </v>
   <v>       0.59330065       0.38522279       0.43989946 </v>
   <v>       0.06723514       0.25789688       0.24713835 </v>
   <v>       0.21750365       0.10762836       0.37519908 </v>
   <v>       0.36908507       0.96767413       0.48272334 </v>
   <v>       0.91696662       0.40816539       0.11907761 </v>
   <v>       0.46602445       0.07758202       0.05050689 </v>
   <v>       0.63372280       0.02474255       0.16176453 </v>
   <v>       0.78399131       0.87447404       0.28982526 </v>
   <v>       0.93425982       0.72420553       0.41788599 </v>
  </varray>
 </structure>
 <calculation>
  <scstep>
   <time name="dav">    6.81    6.81</time>
   <time name="total">    7.09    7.09</time>
   <energy>
    <i name="alphaZ">   1909.85183886 </i>
    <i name="ewald"> 222471.02902034 </i>
    <i name="hartreedc">-344699.02781355 </i>
    <i name="XCdc">   3682.58741276 </i>
    <i name="pawpsdc"> 112729.53333415 </i>
    <i name="pawaedc">-117641.51188735 </i>
    <i name="eentropy">     -0.36752503 </i>
    <i name="bandstr">  -4461.65738346 </i>
    <i name="atom"> 136002.60505376 </i>
    <i name="e_fr_energy">   9993.04205049 </i>
    <i name="e_wo_entrp">   9993.40957552 </i>
    <i name="e_0_energy">   9993.22581301 </i>
   </energy>
  </scstep>
  <scstep>
   <time name="dav">    6.22    6.23</time>
   <time name="total">    6.22    6.23</time>
   <energy>
    <i name="e_fr_energy">    625.82356819 </i>
    <i name="e_wo_entrp">    626.51519318 </i>
    <i name="e_0_energy">    626.16938068 </i>
   </energy>
  </scstep>
  <scstep>
   <time name="dav">    6.44    6.44</time>
   <time name="total">    6.44    6.44</time>
   <energy>
    <i name="e_fr_energy">   -335.12231237 </i>
    <i name="e_wo_entrp">   -334.21747129 </i>
    <i name="e_0_energy">   -334.66989183 </i>
   </energy>
  </scstep>
  <scstep>
   <time name="dav">    6.47    6.47</time>
   <time name="total">    6.47    6.47</time>
   <energy>
    <i name="e_fr_energy">   -394.17742133 </i>
    <i name="e_wo_entrp">   -393.18887291 </i>
    <i name="e_0_energy">   -393.68314712 </i>
   </energy>
  </scstep>
  <scstep>
   <time name="dav">    7.40    7.40</time>
   <time name="total">    7.63    7.63</time>
   <energy>
    <i name="e_fr_energy">   -396.86658436 </i>
    <i name="e_wo_entrp">   -395.88368735 </i>
    <i name="e_0_energy">   -396.37513586 </i>
   </energy>
  </scstep>
  <scstep>
   <time name="dav">    7.00    7.00</time>
   <time name="total">    7.49    7.49</time>
   <energy>
    <i name="e_fr_energy">   -463.64738166 </i>
    <i name="e_wo_entrp">   -462.78254947 </i>
    <i name="e_0_energy">   -463.21496556 </i>
   </energy>
  </scstep>
  <scstep>
   <time name="dav">    6.57    6.57</time>
   <time name="total">    7.20    7.21</time>
   <energy>
    <i name="e_fr_energy">   -370.11626895 </i>
    <i name="e_wo_entrp">   -369.33154094 </i>
    <i name="e_0_energy">   -369.72390494 </i>
   </energy>
  </scstep>
  <scstep>
   <time name="dav">    7.35    7.35</time>
   <time name="total">    7.83    7.83</time>
   <energy>
    <i name="e_fr_energy">   -432.01549153 </i>
    <i name="e_wo_entrp">   -431.06773374 </i>
    <i name="e_0_energy">   -431.54161264 </i>
   </energy>
  </scstep>
  <scstep>
   <time name="dav">    7.24    7.25</time>
   <time name="total">    7.74    7.74</time>
   <energy>
    <i name="e_fr_energy">   -411.92305331 </i>
    <i name="e_wo_entrp">   -410.92201331 </i>
    <i name="e_0_energy">   -411.42253331 </i>
   </energy>
  </scstep>
  <scstep>
   <time name="dav">    7.90    7.90</time>
   <time name="total">    8.48    8.49</time>
   <energy>
    <i name="e_fr_energy">   -394.33212921 </i>
    <i name="e_wo_entrp">   -393.15812146 </i>
    <i name="e_0_energy">   -393.74512534 </i>
   </energy>
  </scstep>
  <scstep>
   <time name="dav">    7.51    7.52</time>
   <time name="total">    8.12    8.12</time>
   <energy>
    <i name="e_fr_energy">   -384.03047468 </i>
    <i name="e_wo_entrp">   -383.07591357 </i>
    <i name="e_0_energy">   -383.55319413 </i>
   </energy>
  </scstep>
  <scstep>
   <time name="dav">    7.44    7.44</time>
   <time name="total">    7.99    7.99</time>
   <energy>
    <i name="e_fr_energy">   -372.07734091 </i>
    <i name="e_wo_entrp">   -371.02691619 </i>
    <i name="e_0_energy">   -371.55212855 </i>
   </energy>
  </scstep>
  <scstep>
   <time name="dav">    7.37    7.37</time>
   <time name="total">    7.85    7.85</time>
   <energy>
    <i name="e_fr_energy">   -364.67483723 </i>
    <i name="e_wo_entrp">   -363.72959514 </i>
    <i name="e_0_energy">   -364.20221619 </i>
   </energy>
  </scstep>
  <scstep>
   <time name="dav">    7.68    7.68</time>
   <time name="total">    8.18    8.18</time>
   <energy>
    <i name="e_fr_energy">   -353.35111315 </i>
    <i name="e_wo_entrp">   -352.54722016 </i>
    <i name="e_0_energy">   -352.94916665 </i>
   </energy>
  </scstep>
  <scstep>
   <time name="dav">    7.43    7.44</time>
   <time name="total">    7.92    7.92</time>
   <energy>
    <i name="e_fr_energy">   -351.73015226 </i>
    <i name="e_wo_entrp">   -350.86183197 </i>
    <i name="e_0_energy">   -351.29599211 </i>
   </energy>
  </scstep>
  <scstep>
   <time name="dav">    7.28    7.28</time>
   <time name="total">    7.77    7.77</time>
   <energy>
    <i name="e_fr_energy">   -351.17580145 </i>
    <i name="e_wo_entrp">   -350.32682157 </i>
    <i name="e_0_energy">   -350.75131151 </i>
   </energy>
  </scstep>
  <scstep>
   <time name="dav">    7.22    7.22</time>
   <time name="total">    7.71    7.71</time>
   <energy>
    <i name="e_fr_energy">   -350.99491040 </i>
    <i name="e_wo_entrp">   -350.13473869 </i>
    <i name="e_0_energy">   -350.56482455 </i>
   </energy>
  </scstep>
  <scstep>
   <time name="dav">    7.68    7.68</time>
   <time name="total">    8.17    8.17</time>
   <energy>
    <i name="e_fr_energy">   -350.37195529 </i>
    <i name="e_wo_entrp">   -349.49280421 </i>
    <i name="e_0_energy">   -349.93237975 </i>
   </energy>
  </scstep>
  <scstep>
   <time name="dav">    7.42    7.42</time>
   <time name="total">    7.90    7.91</time>
   <energy>
    <i name="e_fr_energy">   -350.00830314 </i>
    <i name="e_wo_entrp">   -349.11713553 </i>
    <i name="e_0_energy">   -349.56271934 </i>
   </energy>
  </scstep>
  <scstep>
   <time name="dav">    7.92    7.92</time>
   <time name="total">    8.41    8.41</time>
   <energy>
    <i name="e_fr_energy">   -349.47746860 </i>
    <i name="e_wo_entrp">   -348.57615751 </i>
    <i name="e_0_energy">   -349.02681305 </i>
   </energy>
  </scstep>
  <scstep>
   <time name="dav">    7.32    7.32</time>
   <time name="total">    7.82    7.82</time>
   <energy>
    <i name="e_fr_energy">   -349.41964352 </i>
    <i name="e_wo_entrp">   -348.47095071 </i>
    <i name="e_0_energy">   -348.94529712 </i>
   </energy>
  </scstep>
  <scstep>
   <time name="dav">    6.21    6.21</time>
   <time name="total">    6.71    6.71</time>
   <energy>
    <i name="e_fr_energy">   -349.39717211 </i>
    <i name="e_wo_entrp">   -348.45411586 </i>
    <i name="e_0_energy">   -348.92564398 </i>
   </energy>
  </scstep>
  <scstep>
   <time name="dav">    6.58    6.58</time>
   <time name="total">    7.08    7.08</time>
   <energy>
    <i name="e_fr_energy">   -349.39594854 </i>
    <i name="e_wo_entrp">   -348.45806159 </i>
    <i name="e_0_energy">   -348.92700507 </i>
   </energy>
  </scstep>
  <scstep>
   <time name="dav">    7.44    7.44</time>
   <time name="total">    7.94    7.94</time>
   <energy>
    <i name="e_fr_energy">   -349.33881937 </i>
    <i name="e_wo_entrp">   -348.41195196 </i>
    <i name="e_0_energy">   -348.87538566 </i>
   </energy>
  </scstep>
  <scstep>
   <time name="dav">    7.10    7.10</time>
   <time name="total">    7.84    7.84</time>
   <energy>
    <i name="e_fr_energy">   -349.33958868 </i>
    <i name="e_wo_entrp">   -348.40606418 </i>
    <i name="e_0_energy">   -348.87282643 </i>
   </energy>
  </scstep>
  <scstep>
   <time name="dav">    7.50    7.50</time>
   <time name="total">    8.02    8.02</time>
   <energy>
    <i name="e_fr_energy">   -349.31461693 </i>
    <i name="e_wo_entrp">   -348.40135757 </i>
    <i name="e_0_energy">   -348.85798725 </i>
   </energy>
  </scstep>
  <scstep>
   <time name="dav">    6.47    6.47</time>
   <time name="total">    6.97    6.97</time>
   <energy>
    <i name="e_fr_energy">   -349.30308536 </i>
    <i name="e_wo_entrp">   -348.38321067 </i>
    <i name="e_0_energy">   -348.84314802 </i>
   </energy>
  </scstep>
  <scstep>
   <time name="dav">    7.54    7.55</time>
   <time name="total">    8.05    8.05</time>
   <energy>
    <i name="e_fr_energy">   -349.29868652 </i>
    <i name="e_wo_entrp">   -348.38089108 </i>
    <i name="e_0_energy">   -348.83978880 </i>
   </energy>
  </scstep>
  <scstep>
   <time name="dav">    6.90    6.90</time>
   <time name="total">    7.40    7.40</time>
   <energy>
    <i name="e_fr_energy">   -349.29705442 </i>
    <i name="e_wo_entrp">   -348.37938016 </i>
    <i name="e_0_energy">   -348.83821729 </i>
   </energy>
  </scstep>
  <scstep>
   <time name="dav">    7.15    7.15</time>
   <time name="total">    7.72    7.72</time>
   <energy>
    <i name="e_fr_energy">   -349.29595984 </i>
    <i name="e_wo_entrp">   -348.38140912 </i>
    <i name="e_0_energy">   -348.83868448 </i>
   </energy>
  </scstep>
  <scstep>
   <time name="dav">    6.52    6.52</time>
   <time name="total">    7.03    7.03</time>
   <energy>
    <i name="e_fr_energy">   -349.29593379 </i>
    <i name="e_wo_entrp">   -348.37957933 </i>
    <i name="e_0_energy">   -348.83775656 </i>
   </energy>
  </scstep>
  <scstep>
   <time name="dav">    6.84    6.84</time>
   <time name="total">    7.34    7.34</time>
   <energy>
    <i name="e_fr_energy">   -349.29541010 </i>
    <i name="e_wo_entrp">   -348.37978244 </i>
    <i name="e_0_energy">   -348.83759627 </i>
   </energy>
  </scstep>
  <scstep>
   <time name="dav">    6.12    6.12</time>
   <time name="total">    6.62    6.62</time>
   <energy>
    <i name="e_fr_energy">   -349.29554042 </i>
    <i name="e_wo_entrp">   -348.38024383 </i>
    <i name="e_0_energy">   -348.83789212 </i>
   </energy>
  </scstep>
  <scstep>
   <time name="dav">    5.10    5.10</time>
   <time name="total">    5.46    5.46</time>
   <energy>
    <i name="alphaZ">   1909.85183886 </i>
    <i name="ewald"> 222471.02902034 </i>
    <i name="hartreedc">-343977.43799731 </i>
    <i name="XCdc">   3652.87883876 </i>
    <i name="pawpsdc"> 139265.20598130 </i>
    <i name="pawaedc">-144250.60489332 </i>
    <i name="eentropy">     -0.91487739 </i>
    <i name="bandstr"> -15421.90857061 </i>
    <i name="atom"> 136002.60505376 </i>
    <i name="e_fr_energy">   -349.29560561 </i>
    <i name="e_wo_entrp">   -348.38072822 </i>
    <i name="e_0_energy">   -348.83816691 </i>
   </energy>
  </scstep>
  <structure>
   <crystal>
    <varray name="basis" >
     <v>      10.07973298       0.00000000       0.00000000 </v>
     <v>       3.57329804       9.42510255       0.00000000 </v>
     <v>       0.00000000       0.00000000      20.50200958 </v>
    </varray>
    <i name="volume">   1947.74251522 </i>
    <varray name="rec_basis" >
     <v>       0.09920898      -0.03761267       0.00000000 </v>
     <v>       0.00000000       0.10609964       0.00000000 </v>
     <v>       0.00000000       0.00000000       0.04877571 </v>
    </varray>
   </crystal>
   <varray name="positions" >
    <v>       0.31577326       0.98128527       0.05681571 </v>
    <v>       0.39705889       0.79495179       0.12806073 </v>
    <v>       0.54732741       0.64468327       0.25612147 </v>
    <v>       0.69759592       0.49441476       0.38418220 </v>
    <v>       0.80222631       0.28173880       0.44639960 </v>
    <v>       0.11381506       0.41152895       0.17074765 </v>
    <v>       0.26408358       0.26126044       0.29880838 </v>
    <v>       0.41435209       0.11099192       0.42686911 </v>
    <v>       0.97392816       0.59345505       0.10690494 </v>
    <v>       0.09401115       0.78636025       0.45363750 </v>
    <v>       0.71085587       0.21461802       0.14739925 </v>
    <v>       0.83057123       0.02810611       0.21343456 </v>
    <v>       0.98083975       0.87783760       0.34149529 </v>
    <v>       0.35117024       0.47621677       0.13637617 </v>
    <v>       0.50762556       0.42017912       0.22228705 </v>
    <v>       0.65789408       0.26991060       0.35034779 </v>
    <v>       0.07411322       0.18702479       0.13691323 </v>
    <v>       0.22438173       0.03675628       0.26497396 </v>
    <v>       0.37465025       0.88648777       0.39303470 </v>
    <v>       0.05318782       0.37390922       0.04225200 </v>
    <v>       0.08886365       0.51022003       0.42482428 </v>
    <v>       0.58701215       0.88114306       0.09547006 </v>
    <v>       0.79086939       0.80360196       0.17960014 </v>
    <v>       0.94113790       0.65333344       0.30766088 </v>
    <v>       0.03520551       0.16030380       0.42346524 </v>
    <v>       0.58647738       0.59589299       0.08215327 </v>
    <v>       0.73212972       0.45988096       0.18845264 </v>
    <v>       0.88239823       0.30961245       0.31651337 </v>
    <v>       0.29861738       0.22672664       0.10307882 </v>
    <v>       0.44888589       0.07645812       0.23113955 </v>
    <v>       0.59915440       0.92618961       0.35920029 </v>
    <v>       0.72873067       0.78005797       0.44871326 </v>
    <v>       0.01537355       0.84330380       0.14576573 </v>
    <v>       0.16564206       0.69303528       0.27382646 </v>
    <v>       0.31591057       0.54276677       0.40188720 </v>
    <v>       0.76916759       0.99911308       0.08409124 </v>
    <v>       0.04442710       0.99242271       0.47970653 </v>
    <v>       0.58579930       0.40599939       0.11828449 </v>
    <v>       0.73606781       0.25573087       0.24634523 </v>
    <v>       0.86954001       0.13002954       0.36926762 </v>
    <v>       0.15086848       0.16337945       0.04100600 </v>
    <v>       0.30255547       0.02257655       0.16097140 </v>
    <v>       0.45282398       0.87230804       0.28903214 </v>
    <v>       0.58343848       0.72584121       0.39766874 </v>
    <v>       0.01931164       0.63915371       0.20365832 </v>
    <v>       0.16958015       0.48888520       0.33171905 </v>
    <v>       0.30025649       0.33989466       0.42868641 </v>
    <v>       0.86904312       0.78942222       0.07559758 </v>
    <v>       0.48004920       0.78478650       0.03413894 </v>
    <v>       0.63635413       0.69187455       0.16136797 </v>
    <v>       0.78662264       0.54160604       0.28942870 </v>
    <v>       0.93689116       0.39133753       0.41748943 </v>
    <v>       0.19240744       0.45864886       0.07952663 </v>
    <v>       0.35311030       0.30845171       0.20405488 </v>
    <v>       0.50337881       0.15818320       0.33211561 </v>
    <v>       0.62227496       0.99255414       0.45173226 </v>
    <v>       0.06986647       0.92502888       0.24674179 </v>
    <v>       0.22013498       0.77476036       0.37480252 </v>
    <v>       0.20494175       0.58841298       0.48741129 </v>
    <v>       0.91959796       0.07529739       0.11868105 </v>
    <v>       0.19211072       0.85119337       0.09113055 </v>
    <v>       0.35047897       0.64131971       0.20445144 </v>
    <v>       0.50074748       0.49105120       0.33251217 </v>
    <v>       0.59330065       0.38522279       0.43989946 </v>
    <v>       0.06723514       0.25789688       0.24713835 </v>
    <v>       0.21750365       0.10762836       0.37519908 </v>
    <v>       0.36908507       0.96767413       0.48272334 </v>
    <v>       0.91696662       0.40816539       0.11907761 </v>
    <v>       0.46602445       0.07758202       0.05050689 </v>
    <v>       0.63372280       0.02474255       0.16176453 </v>
    <v>       0.78399131       0.87447404       0.28982526 </v>
    <v>       0.93425982       0.72420553       0.41788599 </v>
   </varray>
  </structure>
  <varray name="forces" >
   <v>      -1.18887559      -0.50541512      -1.59988672 </v>
   <v>      -0.77475351      -1.37366768       3.18318502 </v>
   <v>      -0.18061531      -0.23206176       0.11773325 </v>
   <v>       0.17152757       1.59111755      -1.02599617 </v>
   <v>       0.15084417      -1.08292959       1.33090023 </v>
   <v>       0.52679125      -1.04124426       1.78603566 </v>
   <v>      -0.01127864      -0.11433598      -0.15343774 </v>
   <v>      -0.27752207       1.63831570      -1.23950312 </v>
   <v>       0.17126256      -0.07601785      -0.63325242 </v>
   <v>      -0.21990615       1.26847037       0.95639296 </v>
   <v>      -0.30809748      -0.15984533      -0.66229203 </v>
   <v>       0.43352625      -1.11073779       1.54796909 </v>
   <v>      -0.06441389      -0.14931830      -0.18154689 </v>
   <v>       0.60679795      -0.10312946      -0.70609225 </v>
   <v>       0.65222850      -0.32493745       1.12552293 </v>
   <v>      -1.46661592       0.07425099      -0.93746854 </v>
   <v>      -0.43622092       0.01437369       1.57386320 </v>
   <v>       0.00466257      -0.04065616      -0.11210356 </v>
   <v>      -1.05970004      -0.58837616      -2.32027633 </v>
   <v>      -0.17801138       0.54461123      -1.43304838 </v>
   <v>      -2.44541998      -0.94958843       0.82239888 </v>
   <v>       1.50864026      -0.14363690      -0.28040010 </v>
   <v>       0.04893027      -0.39135619       0.39241777 </v>
   <v>      -0.16193292      -0.10446021      -0.13659361 </v>
   <v>       0.02513736       1.00741863       0.32977854 </v>
   <v>       0.17140609      -0.98908646      -0.75358167 </v>
   <v>       0.11958537      -0.07885291      -0.01862791 </v>
   <v>       0.51919879       0.70635773      -0.72287167 </v>
   <v>       0.29513301       0.81446767       0.68035451 </v>
   <v>      -0.05655465      -0.01908857       0.14945582 </v>
   <v>      -0.36805354       0.38973196      -2.77013565 </v>
   <v>       0.44913466      -0.90728162       0.95761991 </v>
   <v>       0.17766611       0.09371316       0.53174390 </v>
   <v>       0.41989892       0.08779908       0.00548698 </v>
   <v>       1.41694356       0.29720660      -1.72850845 </v>
   <v>      -0.26302425       0.57815423      -1.66540947 </v>
   <v>       0.14750200       0.31061391       2.06108306 </v>
   <v>      -1.47540755       0.55111460      -1.79749576 </v>
   <v>       0.27730353      -0.02418533       0.91141013 </v>
   <v>      -0.14684913      -2.29758564      -0.30463736 </v>
   <v>      -1.20966159      -0.04265980      -2.95140371 </v>
   <v>      -0.16984769       0.46928213       2.85630709 </v>
   <v>      -0.28904766       0.35757419      -0.85590836 </v>
   <v>       0.07427554      -1.11671937       1.20927626 </v>
   <v>       0.39094510       0.18431726       1.38970458 </v>
   <v>       0.03942304       0.40735407      -2.65514228 </v>
   <v>       0.22925410      -0.78048014       1.46801931 </v>
   <v>      -0.48470210      -0.09749529      -2.32546202 </v>
   <v>       0.45360515      -1.23547856      -3.76437011 </v>
   <v>       0.68586809       0.73223287       1.76696592 </v>
   <v>       0.42265766      -0.03604375      -0.02901010 </v>
   <v>       0.62522456       0.25552067       0.55319780 </v>
   <v>       1.41333372       1.53139845      -2.04433405 </v>
   <v>      -0.20836712      -0.48571979       0.37885134 </v>
   <v>       0.32874343      -0.13058436      -0.57475014 </v>
   <v>       1.89387076       0.89151623       2.79345985 </v>
   <v>      -0.03320089       0.05580025       0.48772210 </v>
   <v>       1.51001530      -0.05467716      -1.56944293 </v>
   <v>       0.66288570      -0.59199899       4.08115055 </v>
   <v>       1.56572417       0.97996825      -0.13452837 </v>
   <v>      -1.30777191      -1.33603065      -1.69435676 </v>
   <v>      -0.26878963       0.68439656       0.69870533 </v>
   <v>      -0.06430580       0.31266810      -1.60393886 </v>
   <v>      -1.74396158       0.54580841       2.79311983 </v>
   <v>      -0.00899997       0.01644106      -0.17713948 </v>
   <v>       1.38914898      -0.48809229      -1.54549882 </v>
   <v>      -0.96540409      -0.57739968       4.06014979 </v>
   <v>      -2.23444732       0.17911305       0.75057050 </v>
   <v>       2.07199035       1.22144871      -2.14126759 </v>
   <v>      -1.07621133       0.95521980       2.38378892 </v>
   <v>       0.41299232       0.25557672      -0.21781649 </v>
   <v>      -1.31610719      -0.22217893      -0.66680514 </v>
  </varray>
  <varray name="stress" >
   <v>      76.45965469      -9.19874252      -0.22160700 </v>
   <v>      -9.19874231      83.35696151      -3.38698562 </v>
   <v>      -0.22160715      -3.38698614      84.43927223 </v>
  </varray>
  <energy>
   <i name="e_fr_energy">   -349.29560561 </i>
   <i name="e_wo_entrp">   -348.83816691 </i>
   <i name="e_0_energy">     -0.91487739 </i>
  </energy>
  <time name="totalsc">  261.12  261.22</time>
  <eigenvalues>
   <array>
    <dimension dim="1">band</dimension>
    <dimension dim="2">kpoint</dimension>
    <dimension dim="3">spin</dimension>
    <field>eigene</field>
    <field>occ</field>
    <set>
     <set comment="spin 1">
      <set comment="kpoint 1">
       <r>  -63.3984    1.0000 </r>
       <r>  -63.2806    1.0000 </r>
       <r>  -63.2769    1.0000 </r>
       <r>  -63.2481    1.0000 </r>
       <r>  -63.1995    1.0000 </r>
       <r>  -63.1563    1.0000 </r>
       <r>  -63.1514    1.0000 </r>
       <r>  -63.1488    1.0000 </r>
       <r>  -63.1336    1.0000 </r>
       <r>  -63.1207    1.0000 </r>
       <r>  -63.1163    1.0000 </r>
       <r>  -63.1130    1.0000 </r>
       <r>  -63.1004    1.0000 </r>
       <r>  -63.0997    1.0000 </r>
       <r>  -63.0390    1.0000 </r>
       <r>  -63.0370    1.0000 </r>
       <r>  -63.0308    1.0000 </r>
       <r>  -62.9956    1.0000 </r>
       <r>  -62.9916    1.0000 </r>
       <r>  -62.9787    1.0000 </r>
       <r>  -62.9588    1.0000 </r>
       <r>  -62.9581    1.0000 </r>
       <r>  -62.9571    1.0000 </r>
       <r>  -62.9286    1.0000 </r>
       <r>  -62.9275    1.0000 </r>
       <r>  -62.9131    1.0000 </r>
       <r>  -62.8992    1.0000 </r>
       <r>  -62.8853    1.0000 </r>
       <r>  -62.8791    1.0000 </r>
       <r>  -62.8763    1.0000 </r>
       <r>  -62.8606    1.0000 </r>
       <r>  -62.8378    1.0000 </r>
       <r>  -62.8356    1.0000 </r>
       <r>  -62.8019    1.0000 </r>
       <r>  -62.8010    1.0000 </r>
       <r>  -62.7962    1.0000 </r>
       <r>  -62.7856    1.0000 </r>
       <r>  -62.7782    1.0000 </r>
       <r>  -62.7567    1.0000 </r>
       <r>  -62.7552    1.0000 </r>
       <r>  -62.7502    1.0000 </r>
       <r>  -62.7488    1.0000 </r>
       <r>  -62.7355    1.0000 </r>
       <r>  -62.7311    1.0000 </r>
       <r>  -62.7163    1.0000 </r>
       <r>  -62.7113    1.0000 </r>
       <r>  -62.7061    1.0000 </r>
       <r>  -62.7037    1.0000 </r>
       <r>  -62.7006    1.0000 </r>
       <r>  -62.6921    1.0000 </r>
       <r>  -62.6910    1.0000 </r>
       <r>  -62.6764    1.0000 </r>
       <r>  -62.6736    1.0000 </r>
       <r>  -62.6713    1.0000 </r>
       <r>  -62.6666    1.0000 </r>
       <r>  -62.6666    1.0000 </r>
       <r>  -62.6610    1.0000 </r>
       <r>  -62.6488    1.0000 </r>
       <r>  -62.6474    1.0000 </r>
       <r>  -62.6256    1.0000 </r>
       <r>  -62.6248    1.0000 </r>
       <r>  -62.6064    1.0000 </r>
       <r>  -62.5995    1.0000 </r>
       <r>  -62.5801    1.0000 </r>
       <r>  -62.5724    1.0000 </r>
       <r>  -62.5722    1.0000 </r>
       <r>  -62.5669    1.0000 </r>
       <r>  -62.5612    1.0000 </r>
       <r>  -62.5565    1.0000 </r>
       <r>  -62.5462    1.0000 </r>
       <r>  -62.5424    1.0000 </r>
       <r>  -62.5391    1.0000 </r>
       <r>  -62.5312    1.0000 </r>
       <r>  -62.5291    1.0000 </r>
       <r>  -62.5186    1.0000 </r>
       <r>  -62.5184    1.0000 </r>
       <r>  -62.5174    1.0000 </r>
       <r>  -62.5149    1.0000 </r>
       <r>  -62.5131    1.0000 </r>
       <r>  -62.5111    1.0000 </r>
       <r>  -62.4935    1.0000 </r>
       <r>  -62.4934    1.0000 </r>
       <r>  -62.4915    1.0000 </r>
       <r>  -62.4897    1.0000 </r>
       <r>  -62.4849    1.0000 </r>
       <r>  -62.4696    1.0000 </r>
       <r>  -62.4484    1.0000 </r>
       <r>  -62.4455    1.0000 </r>
       <r>  -62.4309    1.0000 </r>
       <r>  -62.4301    1.0000 </r>
       <r>  -62.4259    1.0000 </r>
       <r>  -62.4163    1.0000 </r>
       <r>  -62.4120    1.0000 </r>
       <r>  -62.4054    1.0000 </r>
       <r>  -62.4034    1.0000 </r>
       <r>  -62.3857    1.0000 </r>
       <r>  -62.3809    1.0000 </r>
       <r>  -62.3593    1.0000 </r>
       <r>  -62.3341    1.0000 </r>
       <r>  -62.3331    1.0000 </r>
       <r>  -62.3100    1.0000 </r>
       <r>  -62.3071    1.0000 </r>
       <r>  -62.2134    1.0000 </r>
       <r>  -62.1559    1.0000 </r>
       <r>  -62.1091    1.0000 </r>
       <r>  -62.0329    1.0000 </r>
       <r>  -61.9439    1.0000 </r>
       <r>  -61.8884    1.0000 </r>
       <r>  -14.8579    1.0000 </r>
       <r>  -14.5262    1.0000 </r>
       <r>  -14.1298    1.0000 </r>
       <r>  -14.0368    1.0000 </r>
       <r>  -13.9724    1.0000 </r>
       <r>  -13.8179    1.0000 </r>
       <r>  -13.7444    1.0000 </r>
       <r>  -13.6496    1.0000 </r>
       <r>  -13.6006    1.0000 </r>
       <r>  -13.4327    1.0000 </r>
       <r>  -13.3693    1.0000 </r>
       <r>  -13.3511    1.0000 </r>
       <r>  -13.1406    1.0000 </r>
       <r>  -13.0386    1.0000 </r>
       <r>  -12.9436    1.0000 </r>
       <r>  -12.9127    1.0000 </r>
       <r>  -12.8706    1.0000 </r>
       <r>  -12.8407    1.0000 </r>
       <r>  -12.7827    1.0000 </r>
       <r>  -12.7465    1.0000 </r>
       <r>  -12.7186    1.0000 </r>
       <r>  -12.5520    1.0000 </r>
       <r>  -12.5152    1.0000 </r>
       <r>  -12.4872    1.0000 </r>
       <r>  -12.3836    1.0000 </r>
       <r>  -12.3255    1.0000 </r>
       <r>  -12.1910    1.0000 </r>
       <r>  -12.1667    1.0000 </r>
       <r>  -12.0448    1.0000 </r>
       <r>  -11.9529    1.0000 </r>
       <r>  -11.7987    1.0000 </r>
       <r>  -11.7537    1.0000 </r>
       <r>  -11.5833    1.0000 </r>
       <r>  -11.4599    1.0000 </r>
       <r>  -11.3174    1.0000 </r>
       <r>  -11.2825    1.0000 </r>
       <r>   -6.6816    1.0000 </r>
       <r>   -6.5642    1.0000 </r>
       <r>   -6.4039    1.0000 </r>
       <r>   -6.2933    1.0000 </r>
       <r>   -6.2203    1.0000 </r>
       <r>   -6.1040    1.0000 </r>
       <r>   -6.0828    1.0000 </r>
       <r>   -6.0479    1.0000 </r>
       <r>   -5.9204    1.0000 </r>
       <r>   -5.9024    1.0000 </r>
       <r>   -5.8072    1.0000 </r>
       <r>   -5.7500    1.0000 </r>
       <r>   -5.7141    1.0000 </r>
       <r>   -5.6762    1.0000 </r>
       <r>   -5.6282    1.0000 </r>
       <r>   -5.5853    1.0000 </r>
       <r>   -5.5690    1.0000 </r>
       <r>   -5.5203    1.0000 </r>
       <r>   -5.4476    1.0000 </r>
       <r>   -5.4084    1.0000 </r>
       <r>   -5.3533    1.0000 </r>
       <r>   -5.3421    1.0000 </r>
       <r>   -5.3155    1.0000 </r>
       <r>   -5.2156    1.0000 </r>
       <r>   -5.2089    1.0000 </r>
       <r>   -5.1459    1.0000 </r>
       <r>   -5.0916    1.0000 </r>
       <r>   -5.0552    1.0000 </r>
       <r>   -4.9964    1.0000 </r>
       <r>   -4.9164    1.0000 </r>
       <r>   -4.8801    1.0000 </r>
       <r>   -4.8285    1.0000 </r>
       <r>   -4.7458    1.0000 </r>
       <r>   -4.7190    1.0000 </r>
       <r>   -4.6474    1.0000 </r>
       <r>   -4.6081    1.0000 </r>
       <r>   -4.4977    1.0000 </r>
       <r>   -4.4747    1.0000 </r>
       <r>   -4.4429    1.0000 </r>
       <r>   -4.4162    1.0000 </r>
       <r>   -4.3773    1.0000 </r>
       <r>   -4.3390    1.0000 </r>
       <r>   -4.2944    1.0000 </r>
       <r>   -4.2369    1.0000 </r>
       <r>   -4.2002    1.0000 </r>
       <r>   -4.1787    1.0000 </r>
       <r>   -4.1562    1.0000 </r>
       <r>   -4.0950    1.0000 </r>
       <r>   -4.0824    1.0000 </r>
       <r>   -4.0061    1.0000 </r>
       <r>   -3.9672    1.0000 </r>
       <r>   -3.9257    1.0000 </r>
       <r>   -3.8880    1.0000 </r>
       <r>   -3.8783    1.0000 </r>
       <r>   -3.8174    1.0000 </r>
       <r>   -3.7737    1.0000 </r>
       <r>   -3.7598    1.0000 </r>
       <r>   -3.7384    1.0000 </r>
       <r>   -3.7096    1.0000 </r>
       <r>   -3.6832    1.0000 </r>
       <r>   -3.6642    1.0000 </r>
       <r>   -3.6474    1.0000 </r>
       <r>   -3.5902    1.0000 </r>
       <r>   -3.5513    1.0000 </r>
       <r>   -3.5315    1.0000 </r>
       <r>   -3.5158    1.0000 </r>
       <r>   -3.4889    1.0000 </r>
       <r>   -3.4305    1.0000 </r>
       <r>   -3.4127    1.0000 </r>
       <r>   -3.4004    1.0000 </r>
       <r>   -3.3724    1.0000 </r>
       <r>   -3.3516    1.0000 </r>
       <r>   -3.3169    1.0000 </r>
       <r>   -3.2628    1.0000 </r>
       <r>   -3.2439    1.0000 </r>
       <r>   -3.2189    1.0000 </r>
       <r>   -3.2065    1.0000 </r>
       <r>   -3.1586    1.0000 </r>
       <r>   -3.1152    1.0000 </r>
       <r>   -3.0797    1.0000 </r>
       <r>   -3.0366    1.0000 </r>
       <r>   -3.0057    1.0000 </r>
       <r>   -2.9751    1.0000 </r>
       <r>   -2.9587    1.0000 </r>
       <r>   -2.9108    1.0000 </r>
       <r>   -2.8769    1.0000 </r>
       <r>   -2.8683    1.0000 </r>
       <r>   -2.8181    1.0000 </r>
       <r>   -2.7510    1.0000 </r>
       <r>   -2.7161    1.0000 </r>
       <r>   -2.6798    1.0000 </r>
       <r>   -2.6432    1.0000 </r>
       <r>   -2.6136    1.0000 </r>
       <r>   -2.5276    1.0000 </r>
       <r>   -2.4662    1.0000 </r>
       <r>   -2.3466    1.0000 </r>
       <r>   -2.3409    1.0000 </r>
       <r>   -2.3088    1.0000 </r>
       <r>   -2.2689    1.0000 </r>
       <r>   -2.1986    1.0000 </r>
       <r>   -2.1505    1.0000 </r>
       <r>   -2.1252    1.0000 </r>
       <r>   -2.0705    1.0000 </r>
       <r>   -2.0148    1.0000 </r>
       <r>   -1.9702    1.0000 </r>
       <r>   -1.9293    1.0000 </r>
       <r>   -1.9212    1.0000 </r>
       <r>   -1.8762    1.0000 </r>
       <r>   -1.8598    1.0000 </r>
       <r>   -1.7889    1.0000 </r>
       <r>   -1.7799    1.0000 </r>
       <r>   -1.7490    1.0000 </r>
       <r>   -1.6858    1.0000 </r>
       <r>   -1.6755    1.0000 </r>
       <r>   -1.6465    1.0000 </r>
       <r>   -1.6115    1.0000 </r>
       <r>   -1.5900    1.0000 </r>
       <r>   -1.5565    1.0000 </r>
       <r>   -1.5137    1.0000 </r>
       <r>   -1.4926    1.0000 </r>
       <r>   -1.4662    1.0000 </r>
       <r>   -1.4313    1.0000 </r>
       <r>   -1.4267    1.0000 </r>
       <r>   -1.3609    1.0000 </r>
       <r>   -1.3399    1.0000 </r>
       <r>   -1.3363    1.0000 </r>
       <r>   -1.3111    1.0000 </r>
       <r>   -1.2808    1.0000 </r>
       <r>   -1.2714    1.0000 </r>
       <r>   -1.2369    1.0000 </r>
       <r>   -1.2102    1.0000 </r>
       <r>   -1.1905    1.0000 </r>
       <r>   -1.1625    1.0000 </r>
       <r>   -1.1533    1.0000 </r>
       <r>   -1.1323    1.0000 </r>
       <r>   -1.1100    1.0000 </r>
       <r>   -1.0921    1.0000 </r>
       <r>   -1.0875    1.0000 </r>
       <r>   -1.0115    1.0000 </r>
       <r>   -1.0053    1.0000 </r>
       <r>   -0.9875    1.0000 </r>
       <r>   -0.9825    1.0000 </r>
       <r>   -0.9585    1.0000 </r>
       <r>   -0.9535    1.0000 </r>
       <r>   -0.9308    1.0000 </r>
       <r>   -0.9120    1.0000 </r>
       <r>   -0.9038    1.0000 </r>
       <r>   -0.8755    1.0000 </r>
       <r>   -0.8451    1.0000 </r>
       <r>   -0.8361    1.0000 </r>
       <r>   -0.8174    1.0000 </r>
       <r>   -0.7842    1.0000 </r>
       <r>   -0.7798    1.0000 </r>
       <r>   -0.7559    1.0000 </r>
       <r>   -0.7270    1.0000 </r>
       <r>   -0.7182    1.0000 </r>
       <r>   -0.7064    1.0000 </r>
       <r>   -0.6836    1.0000 </r>
       <r>   -0.6666    1.0000 </r>
       <r>   -0.6548    1.0000 </r>
       <r>   -0.6373    1.0000 </r>
       <r>   -0.6232    1.0000 </r>
       <r>   -0.6129    1.0000 </r>
       <r>   -0.5749    1.0000 </r>
       <r>   -0.5677    1.0000 </r>
       <r>   -0.5627    1.0000 </r>
       <r>   -0.5404    1.0000 </r>
       <r>   -0.5134    1.0000 </r>
       <r>   -0.5008    1.0000 </r>
       <r>   -0.4772    1.0000 </r>
       <r>   -0.4699    1.0000 </r>
       <r>   -0.4541    1.0000 </r>
       <r>   -0.4476    1.0000 </r>
       <r>   -0.4307    1.0000 </r>
       <r>   -0.4263    1.0000 </r>
       <r>   -0.3961    1.0000 </r>
       <r>   -0.3865    1.0000 </r>
       <r>   -0.3716    1.0000 </r>
       <r>   -0.3625    1.0000 </r>
       <r>   -0.3576    1.0000 </r>
       <r>   -0.3412    1.0000 </r>
       <r>   -0.3051    1.0000 </r>
       <r>   -0.3003    1.0000 </r>
       <r>   -0.2882    1.0000 </r>
       <r>   -0.2742    1.0000 </r>
       <r>   -0.2557    1.0000 </r>
       <r>   -0.2284    1.0000 </r>
       <r>   -0.2258    1.0000 </r>
       <r>   -0.2172    1.0000 </r>
       <r>   -0.2106    1.0000 </r>
       <r>   -0.2036    1.0000 </r>
       <r>   -0.1853    1.0000 </r>
       <r>   -0.1703    1.0000 </r>
       <r>   -0.1625    1.0000 </r>
       <r>   -0.1440    1.0000 </r>
       <r>   -0.1303    1.0000 </r>
       <r>   -0.1220    1.0000 </r>
       <r>   -0.1112    1.0000 </r>
       <r>   -0.0938    1.0000 </r>
       <r>   -0.0666    1.0000 </r>
       <r>   -0.0439    1.0000 </r>
       <r>   -0.0399    1.0000 </r>
       <r>   -0.0242    1.0000 </r>
       <r>   -0.0077    1.0000 </r>
       <r>    0.0080    1.0000 </r>
       <r>    0.0285    1.0000 </r>
       <r>    0.0295    1.0000 </r>
       <r>    0.0598    1.0000 </r>
       <r>    0.0769    1.0000 </r>
       <r>    0.0953    1.0000 </r>
       <r>    0.1011    1.0000 </r>
       <r>    0.1208    1.0000 </r>
       <r>    0.1426    1.0000 </r>
       <r>    0.1740    1.0000 </r>
       <r>    0.1748    1.0000 </r>
       <r>    0.2051    1.0000 </r>
       <r>    0.2713    1.0000 </r>
       <r>    0.2955    1.0000 </r>
       <r>    0.3141    1.0000 </r>
       <r>    0.3157    1.0000 </r>
       <r>    0.3515    1.0000 </r>
       <r>    0.3884    1.0000 </r>
       <r>    0.4001    1.0000 </r>
       <r>    0.4178    1.0000 </r>
       <r>    0.4334    1.0000 </r>
       <r>    0.4798    1.0000 </r>
       <r>    0.5118    1.0000 </r>
       <r>    0.5181    1.0000 </r>
       <r>    0.5647    1.0000 </r>
       <r>    0.5807    1.0000 </r>
       <r>    0.5959    1.0000 </r>
       <r>    0.6358    1.0000 </r>
       <r>    0.6882    1.0000 </r>
       <r>    0.7234    1.0000 </r>
       <r>    0.7723    1.0000 </r>
       <r>    0.8283    1.0000 </r>
       <r>    0.8386    1.0000 </r>
       <r>    0.8725    1.0000 </r>
       <r>    0.8906    1.0000 </r>
       <r>    0.9022    1.0000 </r>
       <r>    0.9428    0.9999 </r>
       <r>    1.0515    0.9989 </r>
       <r>    1.0637    0.9986 </r>
       <r>    1.0910    0.9974 </r>
       <r>    1.1584    0.9898 </r>
       <r>    1.1957    0.9800 </r>
       <r>    1.2495    0.9528 </r>
       <r>    1.2713    0.9356 </r>
       <r>    1.3387    0.8514 </r>
       <r>    1.3855    0.7616 </r>
       <r>    1.4123    0.6992 </r>
       <r>    1.4796    0.5183 </r>
       <r>    1.5067    0.4421 </r>
       <r>    1.5530    0.3182 </r>
       <r>    1.5880    0.2357 </r>
       <r>    1.6243    0.1642 </r>
       <r>    1.6738    0.0922 </r>
       <r>    1.7545    0.0288 </r>
       <r>    1.7769    0.0199 </r>
       <r>    1.8229    0.0086 </r>
       <r>    1.8592    0.0042 </r>
       <r>    1.8951    0.0019 </r>
       <r>    1.9614    0.0004 </r>
       <r>    2.0133    0.0001 </r>
       <r>    2.0412    0.0000 </r>
       <r>    2.0977    0.0000 </r>
       <r>    2.1196    0.0000 </r>
       <r>    2.1455    0.0000 </r>
       <r>    2.1732    0.0000 </r>
       <r>    2.2217    0.0000 </r>
       <r>    2.2440    0.0000 </r>
       <r>    2.2907    0.0000 </r>
       <r>    2.3377    0.0000 </r>
       <r>    2.3584    0.0000 </r>
       <r>    2.4038    0.0000 </r>
       <r>    2.4533    0.0000 </r>
       <r>    2.4632    0.0000 </r>
       <r>    2.4893    0.0000 </r>
       <r>    2.5524    0.0000 </r>
       <r>    2.6129    0.0000 </r>
       <r>    2.6643    0.0000 </r>
       <r>    2.7085    0.0000 </r>
       <r>    2.7892    0.0000 </r>
       <r>    2.8443    0.0000 </r>
       <r>    2.9240    0.0000 </r>
       <r>    3.0311    0.0000 </r>
       <r>    3.0437    0.0000 </r>
       <r>    3.1606    0.0000 </r>
       <r>    4.3675    0.0000 </r>
       <r>    4.5087    0.0000 </r>
       <r>    4.5876    0.0000 </r>
       <r>    4.7584    0.0000 </r>
       <r>    4.9698    0.0000 </r>
       <r>    5.0855    0.0000 </r>
       <r>    5.2310    0.0000 </r>
       <r>    5.3919    0.0000 </r>
       <r>    5.5417    0.0000 </r>
       <r>    5.6473    0.0000 </r>
       <r>    5.6962    0.0000 </r>
       <r>    5.7472    0.0000 </r>
       <r>    5.8179    0.0000 </r>
       <r>    5.8936    0.0000 </r>
       <r>    5.9428    0.0000 </r>
       <r>    5.9745    0.0000 </r>
       <r>    6.1836    0.0000 </r>
       <r>    6.2092    0.0000 </r>
       <r>    6.2532    0.0000 </r>
       <r>    6.3248    0.0000 </r>
       <r>    6.3946    0.0000 </r>
       <r>    6.4125    0.0000 </r>
       <r>    6.5263    0.0000 </r>
       <r>    6.5892    0.0000 </r>
       <r>    6.6089    0.0000 </r>
       <r>    6.6891    0.0000 </r>
       <r>    6.7598    0.0000 </r>
       <r>    6.8761    0.0000 </r>
       <r>    6.9003    0.0000 </r>
       <r>    6.9693    0.0000 </r>
       <r>    7.0228    0.0000 </r>
       <r>    7.0445    0.0000 </r>
       <r>    7.0677    0.0000 </r>
       <r>    7.1074    0.0000 </r>
       <r>    7.1683    0.0000 </r>
       <r>    7.2646    0.0000 </r>
       <r>    7.2998    0.0000 </r>
       <r>    7.3166    0.0000 </r>
       <r>    7.3427    0.0000 </r>
       <r>    7.3802    0.0000 </r>
       <r>    7.4236    0.0000 </r>
       <r>    7.4846    0.0000 </r>
       <r>    7.5388    0.0000 </r>
       <r>    7.5736    0.0000 </r>
      </set>
     </set>
    </set>
   </array>
  </eigenvalues>
  <separator name="orbital magnetization" >
   <v name="MAGDIPOLOUT">      0.00000000      0.00000000      0.00000000</v>
  </separator>
  <dos>
   <i name="efermi">      1.48610997 </i>
   <total>
    <array>
     <dimension dim="1">gridpoints</dimension>
     <dimension dim="2">spin</dimension>
     <field>energy</field>
     <field>total</field>
     <field>integrated</field>
     <set>
      <set comment="spin 1">
       <r>   -66.9470     0.0000     0.0000 </r>
       <r>   -66.6868     0.0000     0.0000 </r>
       <r>   -66.4266     0.0000     0.0000 </r>
       <r>   -66.1664     0.0000     0.0000 </r>
       <r>   -65.9061     0.0000     0.0000 </r>
       <r>   -65.6459     0.0000     0.0000 </r>
       <r>   -65.3857     0.0000     0.0000 </r>
       <r>   -65.1254     0.0000     0.0000 </r>
       <r>   -64.8652     0.0000     0.0000 </r>
       <r>   -64.6050     0.0000     0.0000 </r>
       <r>   -64.3447     0.0000     0.0000 </r>
       <r>   -64.0845     0.0000     0.0000 </r>
       <r>   -63.8243     0.0111     0.0029 </r>
       <r>   -63.5640     1.4686     0.3851 </r>
       <r>   -63.3038    24.0420     6.6416 </r>
       <r>   -63.0436    99.1007    32.4306 </r>
       <r>   -62.7833   181.6123    79.6918 </r>
       <r>   -62.5231   263.2087   148.1868 </r>
       <r>   -62.2629   189.8204   197.5840 </r>
       <r>   -62.0027    52.4796   211.2408 </r>
       <r>   -61.7424    16.3283   215.4899 </r>
       <r>   -61.4822     1.9399   215.9947 </r>
       <r>   -61.2220     0.0203   216.0000 </r>
       <r>   -60.9617     0.0000   216.0000 </r>
       <r>   -60.7015     0.0000   216.0000 </r>
       <r>   -60.4413     0.0000   216.0000 </r>
       <r>   -60.1810     0.0000   216.0000 </r>
       <r>   -59.9208     0.0000   216.0000 </r>
       <r>   -59.6606     0.0000   216.0000 </r>
       <r>   -59.4003     0.0000   216.0000 </r>
       <r>   -59.1401     0.0000   216.0000 </r>
       <r>   -58.8799     0.0000   216.0000 </r>
       <r>   -58.6197     0.0000   216.0000 </r>
       <r>   -58.3594     0.0000   216.0000 </r>
       <r>   -58.0992     0.0000   216.0000 </r>
       <r>   -57.8390     0.0000   216.0000 </r>
       <r>   -57.5787     0.0000   216.0000 </r>
       <r>   -57.3185     0.0000   216.0000 </r>
       <r>   -57.0583     0.0000   216.0000 </r>
       <r>   -56.7980     0.0000   216.0000 </r>
       <r>   -56.5378     0.0000   216.0000 </r>
       <r>   -56.2776     0.0000   216.0000 </r>
       <r>   -56.0173     0.0000   216.0000 </r>
       <r>   -55.7571     0.0000   216.0000 </r>
       <r>   -55.4969     0.0000   216.0000 </r>
       <r>   -55.2367     0.0000   216.0000 </r>
       <r>   -54.9764     0.0000   216.0000 </r>
       <r>   -54.7162     0.0000   216.0000 </r>
       <r>   -54.4560     0.0000   216.0000 </r>
       <r>   -54.1957     0.0000   216.0000 </r>
       <r>   -53.9355     0.0000   216.0000 </r>
       <r>   -53.6753     0.0000   216.0000 </r>
       <r>   -53.4150     0.0000   216.0000 </r>
       <r>   -53.1548     0.0000   216.0000 </r>
       <r>   -52.8946     0.0000   216.0000 </r>
       <r>   -52.6343     0.0000   216.0000 </r>
       <r>   -52.3741     0.0000   216.0000 </r>
       <r>   -52.1139     0.0000   216.0000 </r>
       <r>   -51.8536     0.0000   216.0000 </r>
       <r>   -51.5934     0.0000   216.0000 </r>
       <r>   -51.3332     0.0000   216.0000 </r>
       <r>   -51.0730     0.0000   216.0000 </r>
       <r>   -50.8127     0.0000   216.0000 </r>
       <r>   -50.5525     0.0000   216.0000 </r>
       <r>   -50.2923     0.0000   216.0000 </r>
       <r>   -50.0320     0.0000   216.0000 </r>
       <r>   -49.7718     0.0000   216.0000 </r>
       <r>   -49.5116     0.0000   216.0000 </r>
       <r>   -49.2513     0.0000   216.0000 </r>
       <r>   -48.9911     0.0000   216.0000 </r>
       <r>   -48.7309     0.0000   216.0000 </r>
       <r>   -48.4706     0.0000   216.0000 </r>
       <r>   -48.2104     0.0000   216.0000 </r>
       <r>   -47.9502     0.0000   216.0000 </r>
       <r>   -47.6900     0.0000   216.0000 </r>
       <r>   -47.4297     0.0000   216.0000 </r>
       <r>   -47.1695     0.0000   216.0000 </r>
       <r>   -46.9093     0.0000   216.0000 </r>
       <r>   -46.6490     0.0000   216.0000 </r>
       <r>   -46.3888     0.0000   216.0000 </r>
       <r>   -46.1286     0.0000   216.0000 </r>
       <r>   -45.8683     0.0000   216.0000 </r>
       <r>   -45.6081     0.0000   216.0000 </r>
       <r>   -45.3479     0.0000   216.0000 </r>
       <r>   -45.0876     0.0000   216.0000 </r>
       <r>   -44.8274     0.0000   216.0000 </r>
       <r>   -44.5672     0.0000   216.0000 </r>
       <r>   -44.3070     0.0000   216.0000 </r>
       <r>   -44.0467     0.0000   216.0000 </r>
       <r>   -43.7865     0.0000   216.0000 </r>
       <r>   -43.5263     0.0000   216.0000 </r>
       <r>   -43.2660     0.0000   216.0000 </r>
       <r>   -43.0058     0.0000   216.0000 </r>
       <r>   -42.7456     0.0000   216.0000 </r>
       <r>   -42.4853     0.0000   216.0000 </r>
       <r>   -42.2251     0.0000   216.0000 </r>
       <r>   -41.9649     0.0000   216.0000 </r>
       <r>   -41.7046     0.0000   216.0000 </r>
       <r>   -41.4444     0.0000   216.0000 </r>
       <r>   -41.1842     0.0000   216.0000 </r>
       <r>   -40.9239     0.0000   216.0000 </r>
       <r>   -40.6637     0.0000   216.0000 </r>
       <r>   -40.4035     0.0000   216.0000 </r>
       <r>   -40.1433     0.0000   216.0000 </r>
       <r>   -39.8830     0.0000   216.0000 </r>
       <r>   -39.6228     0.0000   216.0000 </r>
       <r>   -39.3626     0.0000   216.0000 </r>
       <r>   -39.1023     0.0000   216.0000 </r>
       <r>   -38.8421     0.0000   216.0000 </r>
       <r>   -38.5819     0.0000   216.0000 </r>
       <r>   -38.3216     0.0000   216.0000 </r>
       <r>   -38.0614     0.0000   216.0000 </r>
       <r>   -37.8012     0.0000   216.0000 </r>
       <r>   -37.5409     0.0000   216.0000 </r>
       <r>   -37.2807     0.0000   216.0000 </r>
       <r>   -37.0205     0.0000   216.0000 </r>
       <r>   -36.7603     0.0000   216.0000 </r>
       <r>   -36.5000     0.0000   216.0000 </r>
       <r>   -36.2398     0.0000   216.0000 </r>
       <r>   -35.9796     0.0000   216.0000 </r>
       <r>   -35.7193     0.0000   216.0000 </r>
       <r>   -35.4591     0.0000   216.0000 </r>
       <r>   -35.1989     0.0000   216.0000 </r>
       <r>   -34.9386     0.0000   216.0000 </r>
       <r>   -34.6784     0.0000   216.0000 </r>
       <r>   -34.4182     0.0000   216.0000 </r>
       <r>   -34.1579     0.0000   216.0000 </r>
       <r>   -33.8977     0.0000   216.0000 </r>
       <r>   -33.6375     0.0000   216.0000 </r>
       <r>   -33.3773     0.0000   216.0000 </r>
       <r>   -33.1170     0.0000   216.0000 </r>
       <r>   -32.8568     0.0000   216.0000 </r>
       <r>   -32.5966     0.0000   216.0000 </r>
       <r>   -32.3363     0.0000   216.0000 </r>
       <r>   -32.0761     0.0000   216.0000 </r>
       <r>   -31.8159     0.0000   216.0000 </r>
       <r>   -31.5556     0.0000   216.0000 </r>
       <r>   -31.2954     0.0000   216.0000 </r>
       <r>   -31.0352     0.0000   216.0000 </r>
       <r>   -30.7749     0.0000   216.0000 </r>
       <r>   -30.5147     0.0000   216.0000 </r>
       <r>   -30.2545     0.0000   216.0000 </r>
       <r>   -29.9942     0.0000   216.0000 </r>
       <r>   -29.7340     0.0000   216.0000 </r>
       <r>   -29.4738     0.0000   216.0000 </r>
       <r>   -29.2136     0.0000   216.0000 </r>
       <r>   -28.9533     0.0000   216.0000 </r>
       <r>   -28.6931     0.0000   216.0000 </r>
       <r>   -28.4329     0.0000   216.0000 </r>
       <r>   -28.1726     0.0000   216.0000 </r>
       <r>   -27.9124     0.0000   216.0000 </r>
       <r>   -27.6522     0.0000   216.0000 </r>
       <r>   -27.3919     0.0000   216.0000 </r>
       <r>   -27.1317     0.0000   216.0000 </r>
       <r>   -26.8715     0.0000   216.0000 </r>
       <r>   -26.6112     0.0000   216.0000 </r>
       <r>   -26.3510     0.0000   216.0000 </r>
       <r>   -26.0908     0.0000   216.0000 </r>
       <r>   -25.8306     0.0000   216.0000 </r>
       <r>   -25.5703     0.0000   216.0000 </r>
       <r>   -25.3101     0.0000   216.0000 </r>
       <r>   -25.0499     0.0000   216.0000 </r>
       <r>   -24.7896     0.0000   216.0000 </r>
       <r>   -24.5294     0.0000   216.0000 </r>
       <r>   -24.2692     0.0000   216.0000 </r>
       <r>   -24.0089     0.0000   216.0000 </r>
       <r>   -23.7487     0.0000   216.0000 </r>
       <r>   -23.4885     0.0000   216.0000 </r>
       <r>   -23.2282     0.0000   216.0000 </r>
       <r>   -22.9680     0.0000   216.0000 </r>
       <r>   -22.7078     0.0000   216.0000 </r>
       <r>   -22.4476     0.0000   216.0000 </r>
       <r>   -22.1873     0.0000   216.0000 </r>
       <r>   -21.9271     0.0000   216.0000 </r>
       <r>   -21.6669     0.0000   216.0000 </r>
       <r>   -21.4066     0.0000   216.0000 </r>
       <r>   -21.1464     0.0000   216.0000 </r>
       <r>   -20.8862     0.0000   216.0000 </r>
       <r>   -20.6259     0.0000   216.0000 </r>
       <r>   -20.3657     0.0000   216.0000 </r>
       <r>   -20.1055     0.0000   216.0000 </r>
       <r>   -19.8452     0.0000   216.0000 </r>
       <r>   -19.5850     0.0000   216.0000 </r>
       <r>   -19.3248     0.0000   216.0000 </r>
       <r>   -19.0645     0.0000   216.0000 </r>
       <r>   -18.8043     0.0000   216.0000 </r>
       <r>   -18.5441     0.0000   216.0000 </r>
       <r>   -18.2839     0.0000   216.0000 </r>
       <r>   -18.0236     0.0000   216.0000 </r>
       <r>   -17.7634     0.0000   216.0000 </r>
       <r>   -17.5032     0.0000   216.0000 </r>
       <r>   -17.2429     0.0000   216.0000 </r>
       <r>   -16.9827     0.0000   216.0000 </r>
       <r>   -16.7225     0.0000   216.0000 </r>
       <r>   -16.4622     0.0000   216.0000 </r>
       <r>   -16.2020     0.0000   216.0000 </r>
       <r>   -15.9418     0.0000   216.0000 </r>
       <r>   -15.6815     0.0000   216.0000 </r>
       <r>   -15.4213     0.0003   216.0001 </r>
       <r>   -15.1611     0.1229   216.0320 </r>
       <r>   -14.9009     2.8334   216.7694 </r>
       <r>   -14.6406     5.8606   218.2945 </r>
       <r>   -14.3804     5.7560   219.7924 </r>
       <r>   -14.1202     8.2656   221.9433 </r>
       <r>   -13.8599    18.2524   226.6932 </r>
       <r>   -13.5997    21.4004   232.2622 </r>
       <r>   -13.3395    21.3848   237.8272 </r>
       <r>   -13.0792    19.4030   242.8765 </r>
       <r>   -12.8190    32.6480   251.3725 </r>
       <r>   -12.5588    33.2034   260.0130 </r>
       <r>   -12.2985    27.2469   267.1035 </r>
       <r>   -12.0383    22.7144   273.0145 </r>
       <r>   -11.7781    18.7286   277.8883 </r>
       <r>   -11.5179    16.3611   282.1459 </r>
       <r>   -11.2576    15.9334   286.2923 </r>
       <r>   -10.9974     6.2986   287.9314 </r>
       <r>   -10.7372     0.2630   287.9998 </r>
       <r>   -10.4769     0.0006   288.0000 </r>
       <r>   -10.2167     0.0000   288.0000 </r>
       <r>    -9.9565     0.0000   288.0000 </r>
       <r>    -9.6962     0.0000   288.0000 </r>
       <r>    -9.4360     0.0000   288.0000 </r>
       <r>    -9.1758     0.0000   288.0000 </r>
       <r>    -8.9155     0.0000   288.0000 </r>
       <r>    -8.6553     0.0000   288.0000 </r>
       <r>    -8.3951     0.0000   288.0000 </r>
       <r>    -8.1348     0.0000   288.0000 </r>
       <r>    -7.8746     0.0000   288.0000 </r>
       <r>    -7.6144     0.0000   288.0000 </r>
       <r>    -7.3542     0.0000   288.0000 </r>
       <r>    -7.0939     0.0143   288.0037 </r>
       <r>    -6.8337     1.2972   288.3413 </r>
       <r>    -6.5735     9.4306   290.7954 </r>
       <r>    -6.3132    16.5616   295.1053 </r>
       <r>    -6.0530    25.9543   301.8594 </r>
       <r>    -5.7928    33.0651   310.4639 </r>
       <r>    -5.5325    43.2463   321.7180 </r>
       <r>    -5.2723    45.0810   333.4494 </r>
       <r>    -5.0121    40.5434   344.0001 </r>
       <r>    -4.7518    36.1118   353.3975 </r>
       <r>    -4.4916    38.4547   363.4046 </r>
       <r>    -4.2314    48.9309   376.1379 </r>
       <r>    -3.9712    51.2925   389.4858 </r>
       <r>    -3.7109    60.1323   405.1341 </r>
       <r>    -3.4507    68.7227   423.0179 </r>
       <r>    -3.1905    66.5415   440.3340 </r>
       <r>    -2.9302    59.4189   455.7967 </r>
       <r>    -2.6700    50.7866   469.0129 </r>
       <r>    -2.4098    37.9775   478.8958 </r>
       <r>    -2.1495    41.0420   489.5762 </r>
       <r>    -1.8893    49.8315   502.5439 </r>
       <r>    -1.6291    60.3535   518.2498 </r>
       <r>    -1.3688    70.8579   536.6892 </r>
       <r>    -1.1086    86.6265   559.2321 </r>
       <r>    -0.8484   101.2363   585.5769 </r>
       <r>    -0.5881   114.4549   615.3616 </r>
       <r>    -0.3279   132.4711   649.8347 </r>
       <r>    -0.0677   139.6416   686.1738 </r>
       <r>     0.1925   111.9161   715.2978 </r>
       <r>     0.4528    82.3996   736.7407 </r>
       <r>     0.7130    66.7844   754.1201 </r>
       <r>     0.9732    55.1617   768.4749 </r>
       <r>     1.2335    46.5976   780.6011 </r>
       <r>     1.4937    45.1372   792.3471 </r>
       <r>     1.7539    45.0335   804.0663 </r>
       <r>     2.0142    46.1583   816.0781 </r>
       <r>     2.2744    53.5024   830.0011 </r>
       <r>     2.5346    51.2247   843.3313 </r>
       <r>     2.7949    37.3267   853.0449 </r>
       <r>     3.0551    27.0412   860.0818 </r>
       <r>     3.3153    13.5969   863.6202 </r>
       <r>     3.5755     1.4457   863.9964 </r>
       <r>     3.8358     0.0146   864.0002 </r>
       <r>     4.0960     0.2259   864.0590 </r>
       <r>     4.3562     4.8611   865.3240 </r>
       <r>     4.6165    13.9962   868.9662 </r>
       <r>     4.8767    12.4628   872.2094 </r>
       <r>     5.1369    13.1098   875.6210 </r>
       <r>     5.3972    13.7333   879.1948 </r>
       <r>     5.6574    19.6561   884.3099 </r>
       <r>     5.9176    29.2165   891.9130 </r>
       <r>     6.1779    25.7804   898.6218 </r>
       <r>     6.4381    31.1937   906.7394 </r>
       <r>     6.6983    31.3835   914.9064 </r>
       <r>     6.9585    33.3694   923.5901 </r>
       <r>     7.2188    42.8467   934.7402 </r>
       <r>     7.4790    43.2681   945.9999 </r>
       <r>     7.7392    21.0699   951.4829 </r>
       <r>     7.9995     1.9715   951.9959 </r>
       <r>     8.2597     0.0156   952.0000 </r>
       <r>     8.5199     0.0000   952.0000 </r>
       <r>     8.7802     0.0000   952.0000 </r>
       <r>     9.0404     0.0000   952.0000 </r>
       <r>     9.3006     0.0000   952.0000 </r>
       <r>     9.5609     0.0000   952.0000 </r>
       <r>     9.8211     0.0000   952.0000 </r>
       <r>    10.0813     0.0000   952.0000 </r>
       <r>    10.3416     0.0000   952.0000 </r>
       <r>    10.6018     0.0000   952.0000 </r>
       <r>    10.8620     0.0000   952.0000 </r>
       <r>    11.1222     0.0000   952.0000 </r>
      </set>
     </set>
    </array>
   </total>
  </dos>
 </calculation>
 <structure name="finalpos" >
  <crystal>
   <varray name="basis" >
    <v>      10.07973298       0.00000000       0.00000000 </v>
    <v>       3.57329804       9.42510255       0.00000000 </v>
    <v>       0.00000000       0.00000000      20.50200958 </v>
   </varray>
   <i name="volume">   1947.74251522 </i>
   <varray name="rec_basis" >
    <v>       0.09920898      -0.03761267       0.00000000 </v>
    <v>       0.00000000       0.10609964       0.00000000 </v>
    <v>       0.00000000       0.00000000       0.04877571 </v>
   </varray>
  </crystal>
  <varray name="positions" >
   <v>       0.31577326       0.98128527       0.05681571 </v>
   <v>       0.39705889       0.79495179       0.12806073 </v>
   <v>       0.54732741       0.64468327       0.25612147 </v>
   <v>       0.69759592       0.49441476       0.38418220 </v>
   <v>       0.80222631       0.28173880       0.44639960 </v>
   <v>       0.11381506       0.41152895       0.17074765 </v>
   <v>       0.26408358       0.26126044       0.29880838 </v>
   <v>       0.41435209       0.11099192       0.42686911 </v>
   <v>       0.97392816       0.59345505       0.10690494 </v>
   <v>       0.09401115       0.78636025       0.45363750 </v>
   <v>       0.71085587       0.21461802       0.14739925 </v>
   <v>       0.83057123       0.02810611       0.21343456 </v>
   <v>       0.98083975       0.87783760       0.34149529 </v>
   <v>       0.35117024       0.47621677       0.13637617 </v>
   <v>       0.50762556       0.42017912       0.22228705 </v>
   <v>       0.65789408       0.26991060       0.35034779 </v>
   <v>       0.07411322       0.18702479       0.13691323 </v>
   <v>       0.22438173       0.03675628       0.26497396 </v>
   <v>       0.37465025       0.88648777       0.39303470 </v>
   <v>       0.05318782       0.37390922       0.04225200 </v>
   <v>       0.08886365       0.51022003       0.42482428 </v>
   <v>       0.58701215       0.88114306       0.09547006 </v>
   <v>       0.79086939       0.80360196       0.17960014 </v>
   <v>       0.94113790       0.65333344       0.30766088 </v>
   <v>       0.03520551       0.16030380       0.42346524 </v>
   <v>       0.58647738       0.59589299       0.08215327 </v>
   <v>       0.73212972       0.45988096       0.18845264 </v>
   <v>       0.88239823       0.30961245       0.31651337 </v>
   <v>       0.29861738       0.22672664       0.10307882 </v>
   <v>       0.44888589       0.07645812       0.23113955 </v>
   <v>       0.59915440       0.92618961       0.35920029 </v>
   <v>       0.72873067       0.78005797       0.44871326 </v>
   <v>       0.01537355       0.84330380       0.14576573 </v>
   <v>       0.16564206       0.69303528       0.27382646 </v>
   <v>       0.31591057       0.54276677       0.40188720 </v>
   <v>       0.76916759       0.99911308       0.08409124 </v>
   <v>       0.04442710       0.99242271       0.47970653 </v>
   <v>       0.58579930       0.40599939       0.11828449 </v>
   <v>       0.73606781       0.25573087       0.24634523 </v>
   <v>       0.86954001       0.13002954       0.36926762 </v>
   <v>       0.15086848       0.16337945       0.04100600 </v>
   <v>       0.30255547       0.02257655       0.16097140 </v>
   <v>       0.45282398       0.87230804       0.28903214 </v>
   <v>       0.58343848       0.72584121       0.39766874 </v>
   <v>       0.01931164       0.63915371       0.20365832 </v>
   <v>       0.16958015       0.48888520       0.33171905 </v>
   <v>       0.30025649       0.33989466       0.42868641 </v>
   <v>       0.86904312       0.78942222       0.07559758 </v>
   <v>       0.48004920       0.78478650       0.03413894 </v>
   <v>       0.63635413       0.69187455       0.16136797 </v>
   <v>       0.78662264       0.54160604       0.28942870 </v>
   <v>       0.93689116       0.39133753       0.41748943 </v>
   <v>       0.19240744       0.45864886       0.07952663 </v>
   <v>       0.35311030       0.30845171       0.20405488 </v>
   <v>       0.50337881       0.15818320       0.33211561 </v>
   <v>       0.62227496       0.99255414       0.45173226 </v>
   <v>       0.06986647       0.92502888       0.24674179 </v>
   <v>       0.22013498       0.77476036       0.37480252 </v>
   <v>       0.20494175       0.58841298       0.48741129 </v>
   <v>       0.91959796       0.07529739       0.11868105 </v>
   <v>       0.19211072       0.85119337       0.09113055 </v>
   <v>       0.35047897       0.64131971       0.20445144 </v>
   <v>       0.50074748       0.49105120       0.33251217 </v>
   <v>       0.59330065       0.38522279       0.43989946 </v>
   <v>       0.06723514       0.25789688       0.24713835 </v>
   <v>       0.21750365       0.10762836       0.37519908 </v>
   <v>       0.36908507       0.96767413       0.48272334 </v>
   <v>       0.91696662       0.40816539       0.11907761 </v>
   <v>       0.46602445       0.07758202       0.05050689 </v>
   <v>       0.63372280       0.02474255       0.16176453 </v>
   <v>       0.78399131       0.87447404       0.28982526 </v>
   <v>       0.93425982       0.72420553       0.41788599 </v>
  </varray>
 </structure>
</modeling>
