<?xml version="1.0" encoding="ISO-8859-1"?>
<modeling>
 <generator>
  <i name="program" type="string">vasp </i>
  <i name="version" type="string">6.1.0  </i>
  <i name="subversion" type="string">28Jan20 (build Mar 31 2020 17:42:31) gamma-only                       parallel </i>
  <i name="platform" type="string">LinuxIFC </i>
  <i name="date" type="string">2020 04 12 </i>
  <i name="time" type="string">10:44:41 </i>
 </generator>
 <incar>
  <i type="string" name="SYSTEM">"Millerite NiS"</i>
  <i type="int" name="NSIM">     4</i>
  <i type="int" name="NELM">   100</i>
  <i name="ENCUT">    450.00000000</i>
  <i type="string" name="LREAL">A</i>
  <i type="int" name="ISMEAR">     0</i>
  <i type="int" name="NWRITE">     2</i>
  <i type="logical" name="LWAVE"> F  </i>
  <i type="logical" name="LCHARG"> F  </i>
  <i type="int" name="NCORE">     6</i>
  <i type="int" name="NELM">   100</i>
 </incar>
 <structure name="primitive_cell" >
  <crystal>
   <varray name="basis" >
    <v>      16.88469405       0.00000000       0.00000000 </v>
    <v>       0.00000000       9.57841000       0.00000000 </v>
    <v>       0.00000000       0.00000000      16.54803255 </v>
   </varray>
   <i name="volume">   2676.28885249 </i>
   <varray name="rec_basis" >
    <v>       0.05922524       0.00000000       0.00000000 </v>
    <v>       0.00000000       0.10440146       0.00000000 </v>
    <v>       0.00000000       0.00000000       0.06043014 </v>
   </varray>
  </crystal>
  <varray name="positions" >
   <v>       0.78004630       0.14529696       0.11782363 </v>
   <v>       0.81461426       0.14529696       0.30422304 </v>
   <v>       0.26276233       0.64529696       0.02462392 </v>
   <v>       0.29733028       0.64529696       0.21102334 </v>
   <v>       0.43519032       0.14529696       0.05569049 </v>
   <v>       0.46975828       0.14529696       0.24208990 </v>
   <v>       0.95247430       0.64529696       0.14889020 </v>
   <v>       0.98704225       0.64529696       0.33528961 </v>
   <v>       0.12490229       0.14529696       0.17995677 </v>
   <v>       0.15947025       0.14529696       0.36635618 </v>
   <v>       0.60761831       0.64529696       0.08675706 </v>
   <v>       0.64218627       0.64529696       0.27315647 </v>
   <v>       0.90758277       0.01319396       0.09319971 </v>
   <v>       0.94215073       0.01319396       0.27959912 </v>
   <v>       0.39029880       0.51319396       0.00000000 </v>
   <v>       0.42486675       0.51319396       0.18639941 </v>
   <v>       0.45943471       0.51319396       0.37279883 </v>
   <v>       0.56272679       0.01319396       0.03106657 </v>
   <v>       0.59729475       0.01319396       0.21746598 </v>
   <v>       0.08001077       0.51319396       0.12426628 </v>
   <v>       0.11457872       0.51319396       0.31066569 </v>
   <v>       0.25243876       0.01319396       0.15533284 </v>
   <v>       0.28700672       0.01319396       0.34173226 </v>
   <v>       0.73515478       0.51319396       0.06213314 </v>
   <v>       0.76972274       0.51319396       0.24853255 </v>
   <v>       0.90758277       0.27739996       0.09319971 </v>
   <v>       0.94215073       0.27739996       0.27959912 </v>
   <v>       0.39029880       0.77739996       0.00000000 </v>
   <v>       0.42486675       0.77739996       0.18639941 </v>
   <v>       0.56272679       0.27739996       0.03106657 </v>
   <v>       0.59729475       0.27739996       0.21746598 </v>
   <v>       0.08001077       0.77739996       0.12426628 </v>
   <v>       0.11457872       0.77739996       0.31066569 </v>
   <v>       0.25243876       0.27739996       0.15533284 </v>
   <v>       0.28700672       0.27739996       0.34173226 </v>
   <v>       0.73515478       0.77739996       0.06213314 </v>
   <v>       0.76972274       0.77739996       0.24853255 </v>
   <v>       0.02602916       0.14529696       0.36463199 </v>
   <v>       0.99146120       0.14529696       0.17823257 </v>
   <v>       0.47417722       0.64529696       0.08503287 </v>
   <v>       0.50874518       0.64529696       0.27143228 </v>
   <v>       0.64660522       0.14529696       0.11609943 </v>
   <v>       0.68117317       0.14529696       0.30249885 </v>
   <v>       0.12932124       0.64529696       0.02289973 </v>
   <v>       0.16388920       0.64529696       0.20929914 </v>
   <v>       0.19845715       0.64529696       0.39569855 </v>
   <v>       0.30174923       0.14529696       0.05396630 </v>
   <v>       0.33631719       0.14529696       0.24036571 </v>
   <v>       0.81903321       0.64529696       0.14716600 </v>
   <v>       0.85360117       0.64529696       0.33356542 </v>
   <v>       0.79449310       0.31351196       0.02318834 </v>
   <v>       0.82906105       0.31351196       0.20958775 </v>
   <v>       0.31177707       0.81351196       0.11638804 </v>
   <v>       0.34634503       0.81351196       0.30278746 </v>
   <v>       0.48420507       0.31351196       0.14745461 </v>
   <v>       0.51877302       0.31351196       0.33385403 </v>
   <v>       0.00148905       0.81351196       0.24065432 </v>
   <v>       0.96692109       0.81351196       0.05425490 </v>
   <v>       0.13934908       0.31351196       0.08532147 </v>
   <v>       0.17391704       0.31351196       0.27172089 </v>
   <v>       0.65663306       0.81351196       0.17852118 </v>
   <v>       0.69120102       0.81351196       0.36492059 </v>
   <v>       0.31177707       0.47708196       0.11638804 </v>
   <v>       0.34634503       0.47708196       0.30278746 </v>
   <v>       0.79449310       0.97708196       0.02318834 </v>
   <v>       0.82906105       0.97708196       0.20958775 </v>
   <v>       0.00148905       0.47708196       0.24065432 </v>
   <v>       0.96692109       0.47708196       0.05425490 </v>
   <v>       0.48420507       0.97708196       0.14745461 </v>
   <v>       0.51877302       0.97708196       0.33385403 </v>
   <v>       0.65663306       0.47708196       0.17852118 </v>
   <v>       0.69120102       0.47708196       0.36492059 </v>
   <v>       0.13934908       0.97708196       0.08532147 </v>
   <v>       0.17391704       0.97708196       0.27172089 </v>
  </varray>
 </structure>
 <varray name="primitive_index" >
  <v type="int" >        1 </v>
  <v type="int" >        2 </v>
  <v type="int" >        3 </v>
  <v type="int" >        4 </v>
  <v type="int" >        5 </v>
  <v type="int" >        6 </v>
  <v type="int" >        7 </v>
  <v type="int" >        8 </v>
  <v type="int" >        9 </v>
  <v type="int" >       10 </v>
  <v type="int" >       11 </v>
  <v type="int" >       12 </v>
  <v type="int" >       13 </v>
  <v type="int" >       14 </v>
  <v type="int" >       15 </v>
  <v type="int" >       16 </v>
  <v type="int" >       17 </v>
  <v type="int" >       18 </v>
  <v type="int" >       19 </v>
  <v type="int" >       20 </v>
  <v type="int" >       21 </v>
  <v type="int" >       22 </v>
  <v type="int" >       23 </v>
  <v type="int" >       24 </v>
  <v type="int" >       25 </v>
  <v type="int" >       26 </v>
  <v type="int" >       27 </v>
  <v type="int" >       28 </v>
  <v type="int" >       29 </v>
  <v type="int" >       30 </v>
  <v type="int" >       31 </v>
  <v type="int" >       32 </v>
  <v type="int" >       33 </v>
  <v type="int" >       34 </v>
  <v type="int" >       35 </v>
  <v type="int" >       36 </v>
  <v type="int" >       37 </v>
  <v type="int" >       38 </v>
  <v type="int" >       39 </v>
  <v type="int" >       40 </v>
  <v type="int" >       41 </v>
  <v type="int" >       42 </v>
  <v type="int" >       43 </v>
  <v type="int" >       44 </v>
  <v type="int" >       45 </v>
  <v type="int" >       46 </v>
  <v type="int" >       47 </v>
  <v type="int" >       48 </v>
  <v type="int" >       49 </v>
  <v type="int" >       50 </v>
  <v type="int" >       51 </v>
  <v type="int" >       52 </v>
  <v type="int" >       53 </v>
  <v type="int" >       54 </v>
  <v type="int" >       55 </v>
  <v type="int" >       56 </v>
  <v type="int" >       57 </v>
  <v type="int" >       58 </v>
  <v type="int" >       59 </v>
  <v type="int" >       60 </v>
  <v type="int" >       61 </v>
  <v type="int" >       62 </v>
  <v type="int" >       63 </v>
  <v type="int" >       64 </v>
  <v type="int" >       65 </v>
  <v type="int" >       66 </v>
  <v type="int" >       67 </v>
  <v type="int" >       68 </v>
  <v type="int" >       69 </v>
  <v type="int" >       70 </v>
  <v type="int" >       71 </v>
  <v type="int" >       72 </v>
  <v type="int" >       73 </v>
  <v type="int" >       74 </v>
 </varray>
 <kpoints>
  <generation param="Gamma">
   <v type="int" name="divisions">       1        1        1 </v>
   <v name="usershift">      0.00000000       0.00000000       0.00000000 </v>
   <v name="genvec1">      1.00000000       0.00000000       0.00000000 </v>
   <v name="genvec2">      0.00000000       1.00000000       0.00000000 </v>
   <v name="genvec3">      0.00000000       0.00000000       1.00000000 </v>
   <v name="shift">      0.00000000       0.00000000       0.00000000 </v>
  </generation>
  <varray name="kpointlist" >
   <v>       0.00000000       0.00000000       0.00000000 </v>
  </varray>
  <varray name="weights" >
   <v>       1.00000000 </v>
  </varray>
 </kpoints>
 <parameters>
  <separator name="general" >
   <i type="string" name="SYSTEM">"Millerite NiS"</i>
   <i type="logical" name="LCOMPAT"> F  </i>
  </separator>
  <separator name="electronic" >
   <i type="string" name="PREC">normal</i>
   <i name="ENMAX">    450.00000000</i>
   <i name="ENAUG">    703.44300000</i>
   <i name="EDIFF">      0.00010000</i>
   <i type="int" name="IALGO">    38</i>
   <i type="int" name="IWAVPR">    10</i>
   <i type="int" name="NBANDS">   488</i>
   <i type="int" name="NBANDSLOW">    -1</i>
   <i type="int" name="NBANDSHIGH">    -1</i>
   <i name="NELECT">    814.00000000</i>
   <i type="int" name="TURBO">     0</i>
   <i type="int" name="IRESTART">     0</i>
   <i type="int" name="NREBOOT">     0</i>
   <i type="int" name="NMIN">     0</i>
   <i name="EREF">      0.00000000</i>
   <separator name="electronic smearing" >
    <i type="int" name="ISMEAR">     0</i>
    <i name="SIGMA">      0.20000000</i>
    <i name="KSPACING">      0.50000000</i>
    <i type="logical" name="KGAMMA"> T  </i>
    <i type="logical" name="KBLOWUP"> T  </i>
   </separator>
   <separator name="electronic projectors" >
    <i type="logical" name="LREAL"> T  </i>
    <v name="ROPT">     -0.00050000     -0.00050000</v>
    <i type="int" name="LMAXPAW">  -100</i>
    <i type="int" name="LMAXMIX">     2</i>
    <i type="logical" name="NLSPLINE"> F  </i>
   </separator>
   <separator name="electronic startup" >
    <i type="int" name="ISTART">     0</i>
    <i type="int" name="ICHARG">     2</i>
    <i type="int" name="INIWAV">     1</i>
   </separator>
   <separator name="electronic spin" >
    <i type="int" name="ISPIN">     1</i>
    <i type="logical" name="LNONCOLLINEAR"> F  </i>
    <v name="MAGMOM">      1.00000000      1.00000000      1.00000000      1.00000000      1.00000000      1.00000000      1.00000000      1.00000000      1.00000000      1.00000000      1.00000000      1.00000000      1.00000000      1.00000000      1.00000000      1.00000000      1.00000000      1.00000000      1.00000000      1.00000000
      1.00000000      1.00000000      1.00000000      1.00000000      1.00000000      1.00000000      1.00000000      1.00000000      1.00000000      1.00000000      1.00000000      1.00000000      1.00000000      1.00000000      1.00000000      1.00000000      1.00000000      1.00000000      1.00000000      1.00000000
      1.00000000      1.00000000      1.00000000      1.00000000      1.00000000      1.00000000      1.00000000      1.00000000      1.00000000      1.00000000      1.00000000      1.00000000      1.00000000      1.00000000      1.00000000      1.00000000      1.00000000      1.00000000      1.00000000      1.00000000
      1.00000000      1.00000000      1.00000000      1.00000000      1.00000000      1.00000000      1.00000000      1.00000000      1.00000000      1.00000000      1.00000000      1.00000000      1.00000000      1.00000000</v>
    <i name="NUPDOWN">     -1.00000000</i>
    <i type="logical" name="LSORBIT"> F  </i>
    <v name="SAXIS">      0.00000000      0.00000000      1.00000000</v>
    <i type="logical" name="LSPIRAL"> F  </i>
    <v name="QSPIRAL">      0.00000000      0.00000000      0.00000000</v>
    <i type="logical" name="LZEROZ"> F  </i>
   </separator>
   <separator name="electronic exchange-correlation" >
    <i type="logical" name="LASPH"> F  </i>
    <i type="logical" name="LMETAGGA"> F  </i>
   </separator>
   <separator name="electronic convergence" >
    <i type="int" name="NELM">   100</i>
    <i type="int" name="NELMDL">    -5</i>
    <i type="int" name="NELMIN">     2</i>
    <i name="ENINI">    450.00000000</i>
    <separator name="electronic convergence detail" >
     <i type="logical" name="LDIAG"> T  </i>
     <i type="logical" name="LSUBROT"> F  </i>
     <i name="WEIMIN">      0.00000000</i>
     <i name="EBREAK">      0.00000005</i>
     <i name="DEPER">      0.30000000</i>
     <i type="int" name="NRMM">     4</i>
     <i name="TIME">      0.40000000</i>
    </separator>
   </separator>
   <separator name="electronic mixer" >
    <i name="AMIX">      0.40000000</i>
    <i name="BMIX">      1.00000000</i>
    <i name="AMIN">      0.10000000</i>
    <i name="AMIX_MAG">      1.60000000</i>
    <i name="BMIX_MAG">      1.00000000</i>
    <separator name="electronic mixer details" >
     <i type="int" name="IMIX">     4</i>
     <i type="logical" name="MIXFIRST"> F  </i>
     <i type="int" name="MAXMIX">   -45</i>
     <i name="WC">    100.00000000</i>
     <i type="int" name="INIMIX">     1</i>
     <i type="int" name="MIXPRE">     1</i>
     <i type="int" name="MREMOVE">     5</i>
    </separator>
   </separator>
   <separator name="electronic dipolcorrection" >
    <i type="logical" name="LDIPOL"> F  </i>
    <i type="logical" name="LMONO"> F  </i>
    <i type="int" name="IDIPOL">     0</i>
    <i name="EPSILON">      1.00000000</i>
    <v name="DIPOL">   -100.00000000   -100.00000000   -100.00000000</v>
    <i name="EFIELD">      0.00000000</i>
   </separator>
  </separator>
  <separator name="grids" >
   <i type="int" name="NGX">    90</i>
   <i type="int" name="NGY">    50</i>
   <i type="int" name="NGZ">    90</i>
   <i type="int" name="NGXF">   180</i>
   <i type="int" name="NGYF">   100</i>
   <i type="int" name="NGZF">   180</i>
   <i type="logical" name="ADDGRID"> F  </i>
  </separator>
  <separator name="ionic" >
   <i type="int" name="NSW">     0</i>
   <i type="int" name="IBRION">    -1</i>
   <i type="int" name="MDALGO">     0</i>
   <i type="int" name="ISIF">     2</i>
   <i name="PSTRESS">      0.00000000</i>
   <i name="EDIFFG">      0.00100000</i>
   <i type="int" name="NFREE">     0</i>
   <i name="POTIM">      0.50000000</i>
   <i name="SMASS">     -3.00000000</i>
   <i name="SCALEE">      1.00000000</i>
  </separator>
  <separator name="ionic md" >
   <i name="TEBEG">      0.00010000</i>
   <i name="TEEND">      0.00010000</i>
   <i type="int" name="NBLOCK">     1</i>
   <i type="int" name="KBLOCK">     1</i>
   <i type="int" name="NPACO">   256</i>
   <i name="APACO">     16.00000000</i>
  </separator>
  <separator name="symmetry" >
   <i type="int" name="ISYM">     2</i>
   <i name="SYMPREC">      0.00001000</i>
  </separator>
  <separator name="dos" >
   <i type="int" name="LORBIT">     0</i>
   <v name="RWIGS">     -1.00000000     -1.00000000</v>
   <i type="int" name="NEDOS">   301</i>
   <i name="EMIN">     10.00000000</i>
   <i name="EMAX">    -10.00000000</i>
   <i name="EFERMI">      0.00000000</i>
  </separator>
  <separator name="writing" >
   <i type="int" name="NWRITE">     2</i>
   <i type="logical" name="LWAVE"> F  </i>
   <i type="logical" name="LDOWNSAMPLE"> F  </i>
   <i type="logical" name="LCHARG"> F  </i>
   <i type="logical" name="LPARD"> F  </i>
   <i type="logical" name="LVTOT"> F  </i>
   <i type="logical" name="LVHAR"> F  </i>
   <i type="logical" name="LELF"> F  </i>
   <i type="logical" name="LOPTICS"> F  </i>
   <v name="STM">      0.00000000      0.00000000      0.00000000      0.00000000      0.00000000      0.00000000      0.00000000</v>
  </separator>
  <separator name="performance" >
   <i type="int" name="NPAR">     8</i>
   <i type="int" name="NSIM">     4</i>
   <i type="int" name="NBLK">    -1</i>
   <i type="logical" name="LPLANE"> T  </i>
   <i type="logical" name="LSCALAPACK"> T  </i>
   <i type="logical" name="LSCAAWARE"> F  </i>
   <i type="logical" name="LSCALU"> F  </i>
   <i type="logical" name="LASYNC"> F  </i>
   <i type="logical" name="LORBITALREAL"> F  </i>
  </separator>
  <separator name="miscellaneous" >
   <i type="int" name="IDIOT">     3</i>
   <i type="int" name="PHON_NSTRUCT">    -1</i>
   <i type="logical" name="LMUSIC"> F  </i>
   <v name="POMASS">     58.69000000     32.06600000</v>
   <v name="DARWINR">      0.00000000      0.00000000</v>
   <v name="DARWINV">      1.00000000      1.00000000</v>
   <i type="logical" name="LCORR"> T  </i>
  </separator>
  <i type="logical" name="GGA_COMPAT"> T  </i>
  <i type="logical" name="LBERRY"> F  </i>
  <i type="int" name="ICORELEVEL">     0</i>
  <i type="logical" name="LDAU"> F  </i>
  <i type="int" name="I_CONSTRAINED_M">     0</i>
  <separator name="electronic exchange-correlation" >
   <i type="string" name="GGA">--</i>
   <i type="int" name="VOSKOWN">     0</i>
   <i type="logical" name="LHFCALC"> F  </i>
   <i type="string" name="PRECFOCK"></i>
   <i type="logical" name="LSYMGRAD"> F  </i>
   <i type="logical" name="LHFONE"> F  </i>
   <i type="logical" name="LRHFCALC"> F  </i>
   <i type="logical" name="LTHOMAS"> F  </i>
   <i type="logical" name="LMODELHF"> F  </i>
   <i type="logical" name="LFOCKACE"> F  </i>
   <i name="ENCUT4O">     -1.00000000</i>
   <i type="int" name="EXXOEP">     0</i>
   <i type="int" name="FOURORBIT">     0</i>
   <i name="AEXX">      0.00000000</i>
   <i name="HFALPHA">      0.00000000</i>
   <i name="MCALPHA">      0.00000000</i>
   <i name="ALDAX">      1.00000000</i>
   <i name="AGGAX">      1.00000000</i>
   <i name="ALDAC">      1.00000000</i>
   <i name="AGGAC">      1.00000000</i>
   <i type="int" name="NKREDX">     1</i>
   <i type="int" name="NKREDY">     1</i>
   <i type="int" name="NKREDZ">     1</i>
   <i type="logical" name="SHIFTRED"> F  </i>
   <i type="logical" name="ODDONLY"> F  </i>
   <i type="logical" name="EVENONLY"> F  </i>
   <i type="int" name="LMAXFOCK">     0</i>
   <i type="int" name="NMAXFOCKAE">     0</i>
   <i type="logical" name="LFOCKAEDFT"> F  </i>
   <i name="HFSCREEN">      0.00000000</i>
   <i name="HFSCREENC">      0.00000000</i>
   <i type="int" name="NBANDSGWLOW">     0</i>
  </separator>
  <separator name="vdW DFT" >
   <i type="logical" name="LUSE_VDW"> F  </i>
   <i name="Zab_VDW">     -0.84910000</i>
   <i name="PARAM1">      0.12340000</i>
   <i name="PARAM2">      1.00000000</i>
   <i name="PARAM3">      0.00000000</i>
  </separator>
  <separator name="model GW" >
   <i type="int" name="MODEL_GW">     0</i>
   <i name="MODEL_EPS0">     21.69963934</i>
   <i name="MODEL_ALPHA">      1.00000000</i>
  </separator>
  <separator name="linear response parameters" >
   <i type="logical" name="LEPSILON"> F  </i>
   <i type="logical" name="LRPA"> F  </i>
   <i type="logical" name="LNABLA"> F  </i>
   <i type="logical" name="LVEL"> F  </i>
   <i type="int" name="KINTER">     0</i>
   <i name="CSHIFT">      0.10000000</i>
   <i name="OMEGAMAX">     -1.00000000</i>
   <i name="DEG_THRESHOLD">      0.00200000</i>
   <i name="RTIME">     -0.10000000</i>
   <i name="WPLASMAI">      0.00000000</i>
   <v name="DFIELD">      0.00000000      0.00000000      0.00000000</v>
   <v name="WPLASMA">      0.00000000      0.00000000      0.00000000      0.00000000      0.00000000      0.00000000      0.00000000      0.00000000      0.00000000</v>
  </separator>
  <separator name="orbital magnetization" >
   <i type="logical" name="NUCIND"> F  </i>
   <v name="MAGPOS">      0.00000000      0.00000000      0.00000000</v>
   <i type="logical" name="LNICSALL"> T  </i>
   <i type="logical" name="ORBITALMAG"> F  </i>
   <i type="logical" name="LMAGBLOCH"> F  </i>
   <i type="logical" name="LCHIMAG"> F  </i>
   <i type="logical" name="LGAUGE"> T  </i>
   <i type="int" name="MAGATOM">     0</i>
   <v name="MAGDIPOL">      0.00000000      0.00000000      0.00000000</v>
   <v name="AVECCONST">      0.00000000      0.00000000      0.00000000</v>
  </separator>
  <separator name="response functions" >
   <i type="logical" name="LFINITE_TEMPERATURE"> F  </i>
   <i type="logical" name="LADDER"> F  </i>
   <i type="logical" name="LRPAFORCE"> F  </i>
   <i type="logical" name="LFXC"> F  </i>
   <i type="logical" name="LHARTREE"> T  </i>
   <i type="int" name="IBSE">     0</i>
   <v type="int" name="KPOINT">    -1     0     0     0</v>
   <i type="logical" name="LTCTC"> F  </i>
   <i type="logical" name="LTCTE"> F  </i>
   <i type="logical" name="LTETE"> F  </i>
   <i type="logical" name="LTRIPLET"> F  </i>
   <i type="logical" name="LFXCEPS"> F  </i>
   <i type="logical" name="LFXHEG"> F  </i>
   <i type="int" name="NATURALO">     2</i>
   <i type="logical" name="LHOLEGF"> F  </i>
   <i type="logical" name="L2ORDER"> F  </i>
   <i type="logical" name="LDMP1"> F  </i>
   <i type="logical" name="LMP2LT"> F  </i>
   <i type="logical" name="LSMP2LT"> F  </i>
   <i type="logical" name="LGWLF"> F  </i>
   <i name="ENCUTGW">     -2.00000000</i>
   <i name="ENCUTGWSOFT">     -2.00000000</i>
   <i name="ENCUTLF">     -1.00000000</i>
   <i type="logical" name="LESF_SPLINES"> F  </i>
   <i type="int" name="LMAXMP2">    -1</i>
   <i name="SCISSOR">      0.00000000</i>
   <i type="int" name="NOMEGA">     0</i>
   <i type="int" name="NOMEGAR">     0</i>
   <i type="int" name="NBANDSGW">    -1</i>
   <i type="int" name="NBANDSO">    -1</i>
   <i type="int" name="NBANDSV">    -1</i>
   <i type="int" name="NELM">   100</i>
   <i type="int" name="NELMHF">     1</i>
   <i type="int" name="DIM">     3</i>
   <i type="int" name="IESPILON">     4</i>
   <i type="int" name="ANTIRES">     0</i>
   <i name="OMEGAMAX">    -30.00000000</i>
   <i name="OMEGAMIN">    -30.00000000</i>
   <i name="OMEGATL">   -200.00000000</i>
   <i type="int" name="OMEGAGRID">     0</i>
   <i name="CSHIFT">     -0.10000000</i>
   <i type="logical" name="LSELFENERGY"> F  </i>
   <i type="logical" name="LSPECTRAL"> F  </i>
   <i type="logical" name="LSPECTRALGW"> F  </i>
   <i type="logical" name="LSINGLES"> F  </i>
   <i type="logical" name="LFERMIGW"> F  </i>
   <i type="logical" name="ODDONLYGW"> F  </i>
   <i type="logical" name="EVENONLYGW"> F  </i>
   <i type="int" name="NKREDLFX">     1</i>
   <i type="int" name="NKREDLFY">     1</i>
   <i type="int" name="NKREDLFZ">     1</i>
   <i type="int" name="MAXMEM">  2800</i>
   <i type="int" name="TELESCOPE">     0</i>
   <i type="int" name="NTAUPAR">    -1</i>
   <i type="int" name="NOMEGAPAR">    -1</i>
   <i name="LAMBDA">      1.00000000</i>
  </separator>
  <separator name="External order field" >
   <i name="OFIELD_KAPPA">      0.00000000</i>
   <v name="OFIELD_K">      0.00000000      0.00000000      0.00000000</v>
   <i name="OFIELD_Q6_NEAR">      0.00000000</i>
   <i name="OFIELD_Q6_FAR">      0.00000000</i>
   <i name="OFIELD_A">      0.00000000</i>
  </separator>
 </parameters>
 <atominfo>
  <atoms>      74 </atoms>
  <types>       2 </types>
  <array name="atoms" >
   <dimension dim="1">ion</dimension>
   <field type="string">element</field>
   <field type="int">atomtype</field>
   <set>
    <rc><c>Ni</c><c>   1</c></rc>
    <rc><c>Ni</c><c>   1</c></rc>
    <rc><c>Ni</c><c>   1</c></rc>
    <rc><c>Ni</c><c>   1</c></rc>
    <rc><c>Ni</c><c>   1</c></rc>
    <rc><c>Ni</c><c>   1</c></rc>
    <rc><c>Ni</c><c>   1</c></rc>
    <rc><c>Ni</c><c>   1</c></rc>
    <rc><c>Ni</c><c>   1</c></rc>
    <rc><c>Ni</c><c>   1</c></rc>
    <rc><c>Ni</c><c>   1</c></rc>
    <rc><c>Ni</c><c>   1</c></rc>
    <rc><c>Ni</c><c>   1</c></rc>
    <rc><c>Ni</c><c>   1</c></rc>
    <rc><c>Ni</c><c>   1</c></rc>
    <rc><c>Ni</c><c>   1</c></rc>
    <rc><c>Ni</c><c>   1</c></rc>
    <rc><c>Ni</c><c>   1</c></rc>
    <rc><c>Ni</c><c>   1</c></rc>
    <rc><c>Ni</c><c>   1</c></rc>
    <rc><c>Ni</c><c>   1</c></rc>
    <rc><c>Ni</c><c>   1</c></rc>
    <rc><c>Ni</c><c>   1</c></rc>
    <rc><c>Ni</c><c>   1</c></rc>
    <rc><c>Ni</c><c>   1</c></rc>
    <rc><c>Ni</c><c>   1</c></rc>
    <rc><c>Ni</c><c>   1</c></rc>
    <rc><c>Ni</c><c>   1</c></rc>
    <rc><c>Ni</c><c>   1</c></rc>
    <rc><c>Ni</c><c>   1</c></rc>
    <rc><c>Ni</c><c>   1</c></rc>
    <rc><c>Ni</c><c>   1</c></rc>
    <rc><c>Ni</c><c>   1</c></rc>
    <rc><c>Ni</c><c>   1</c></rc>
    <rc><c>Ni</c><c>   1</c></rc>
    <rc><c>Ni</c><c>   1</c></rc>
    <rc><c>Ni</c><c>   1</c></rc>
    <rc><c>S </c><c>   2</c></rc>
    <rc><c>S </c><c>   2</c></rc>
    <rc><c>S </c><c>   2</c></rc>
    <rc><c>S </c><c>   2</c></rc>
    <rc><c>S </c><c>   2</c></rc>
    <rc><c>S </c><c>   2</c></rc>
    <rc><c>S </c><c>   2</c></rc>
    <rc><c>S </c><c>   2</c></rc>
    <rc><c>S </c><c>   2</c></rc>
    <rc><c>S </c><c>   2</c></rc>
    <rc><c>S </c><c>   2</c></rc>
    <rc><c>S </c><c>   2</c></rc>
    <rc><c>S </c><c>   2</c></rc>
    <rc><c>S </c><c>   2</c></rc>
    <rc><c>S </c><c>   2</c></rc>
    <rc><c>S </c><c>   2</c></rc>
    <rc><c>S </c><c>   2</c></rc>
    <rc><c>S </c><c>   2</c></rc>
    <rc><c>S </c><c>   2</c></rc>
    <rc><c>S </c><c>   2</c></rc>
    <rc><c>S </c><c>   2</c></rc>
    <rc><c>S </c><c>   2</c></rc>
    <rc><c>S </c><c>   2</c></rc>
    <rc><c>S </c><c>   2</c></rc>
    <rc><c>S </c><c>   2</c></rc>
    <rc><c>S </c><c>   2</c></rc>
    <rc><c>S </c><c>   2</c></rc>
    <rc><c>S </c><c>   2</c></rc>
    <rc><c>S </c><c>   2</c></rc>
    <rc><c>S </c><c>   2</c></rc>
    <rc><c>S </c><c>   2</c></rc>
    <rc><c>S </c><c>   2</c></rc>
    <rc><c>S </c><c>   2</c></rc>
    <rc><c>S </c><c>   2</c></rc>
    <rc><c>S </c><c>   2</c></rc>
    <rc><c>S </c><c>   2</c></rc>
    <rc><c>S </c><c>   2</c></rc>
   </set>
  </array>
  <array name="atomtypes" >
   <dimension dim="1">type</dimension>
   <field type="int">atomspertype</field>
   <field type="string">element</field>
   <field>mass</field>
   <field>valence</field>
   <field type="string">pseudopotential</field>
   <set>
    <rc><c>  37</c><c>Ni</c><c>     58.69000000</c><c>     16.00000000</c><c>  PAW_PBE Ni_pv 06Sep2000               </c></rc>
    <rc><c>  37</c><c>S </c><c>     32.06600000</c><c>      6.00000000</c><c>  PAW_PBE S 06Sep2000                   </c></rc>
   </set>
  </array>
 </atominfo>
 <structure name="initialpos" >
  <crystal>
   <varray name="basis" >
    <v>      16.88469405       0.00000000       0.00000000 </v>
    <v>       0.00000000       9.57841000       0.00000000 </v>
    <v>       0.00000000       0.00000000      16.54803255 </v>
   </varray>
   <i name="volume">   2676.28885249 </i>
   <varray name="rec_basis" >
    <v>       0.05922524       0.00000000       0.00000000 </v>
    <v>       0.00000000       0.10440146       0.00000000 </v>
    <v>       0.00000000       0.00000000       0.06043014 </v>
   </varray>
  </crystal>
  <varray name="positions" >
   <v>       0.78004630       0.14529696       0.11782363 </v>
   <v>       0.81461426       0.14529696       0.30422304 </v>
   <v>       0.26276233       0.64529696       0.02462392 </v>
   <v>       0.29733028       0.64529696       0.21102334 </v>
   <v>       0.43519032       0.14529696       0.05569049 </v>
   <v>       0.46975828       0.14529696       0.24208990 </v>
   <v>       0.95247430       0.64529696       0.14889020 </v>
   <v>       0.98704225       0.64529696       0.33528961 </v>
   <v>       0.12490229       0.14529696       0.17995677 </v>
   <v>       0.15947025       0.14529696       0.36635618 </v>
   <v>       0.60761831       0.64529696       0.08675706 </v>
   <v>       0.64218627       0.64529696       0.27315647 </v>
   <v>       0.90758277       0.01319396       0.09319971 </v>
   <v>       0.94215073       0.01319396       0.27959912 </v>
   <v>       0.39029880       0.51319396       0.00000000 </v>
   <v>       0.42486675       0.51319396       0.18639941 </v>
   <v>       0.45943471       0.51319396       0.37279883 </v>
   <v>       0.56272679       0.01319396       0.03106657 </v>
   <v>       0.59729475       0.01319396       0.21746598 </v>
   <v>       0.08001077       0.51319396       0.12426628 </v>
   <v>       0.11457872       0.51319396       0.31066569 </v>
   <v>       0.25243876       0.01319396       0.15533284 </v>
   <v>       0.28700672       0.01319396       0.34173226 </v>
   <v>       0.73515478       0.51319396       0.06213314 </v>
   <v>       0.76972274       0.51319396       0.24853255 </v>
   <v>       0.90758277       0.27739996       0.09319971 </v>
   <v>       0.94215073       0.27739996       0.27959912 </v>
   <v>       0.39029880       0.77739996       0.00000000 </v>
   <v>       0.42486675       0.77739996       0.18639941 </v>
   <v>       0.56272679       0.27739996       0.03106657 </v>
   <v>       0.59729475       0.27739996       0.21746598 </v>
   <v>       0.08001077       0.77739996       0.12426628 </v>
   <v>       0.11457872       0.77739996       0.31066569 </v>
   <v>       0.25243876       0.27739996       0.15533284 </v>
   <v>       0.28700672       0.27739996       0.34173226 </v>
   <v>       0.73515478       0.77739996       0.06213314 </v>
   <v>       0.76972274       0.77739996       0.24853255 </v>
   <v>       0.02602916       0.14529696       0.36463199 </v>
   <v>       0.99146120       0.14529696       0.17823257 </v>
   <v>       0.47417722       0.64529696       0.08503287 </v>
   <v>       0.50874518       0.64529696       0.27143228 </v>
   <v>       0.64660522       0.14529696       0.11609943 </v>
   <v>       0.68117317       0.14529696       0.30249885 </v>
   <v>       0.12932124       0.64529696       0.02289973 </v>
   <v>       0.16388920       0.64529696       0.20929914 </v>
   <v>       0.19845715       0.64529696       0.39569855 </v>
   <v>       0.30174923       0.14529696       0.05396630 </v>
   <v>       0.33631719       0.14529696       0.24036571 </v>
   <v>       0.81903321       0.64529696       0.14716600 </v>
   <v>       0.85360117       0.64529696       0.33356542 </v>
   <v>       0.79449310       0.31351196       0.02318834 </v>
   <v>       0.82906105       0.31351196       0.20958775 </v>
   <v>       0.31177707       0.81351196       0.11638804 </v>
   <v>       0.34634503       0.81351196       0.30278746 </v>
   <v>       0.48420507       0.31351196       0.14745461 </v>
   <v>       0.51877302       0.31351196       0.33385403 </v>
   <v>       0.00148905       0.81351196       0.24065432 </v>
   <v>       0.96692109       0.81351196       0.05425490 </v>
   <v>       0.13934908       0.31351196       0.08532147 </v>
   <v>       0.17391704       0.31351196       0.27172089 </v>
   <v>       0.65663306       0.81351196       0.17852118 </v>
   <v>       0.69120102       0.81351196       0.36492059 </v>
   <v>       0.31177707       0.47708196       0.11638804 </v>
   <v>       0.34634503       0.47708196       0.30278746 </v>
   <v>       0.79449310       0.97708196       0.02318834 </v>
   <v>       0.82906105       0.97708196       0.20958775 </v>
   <v>       0.00148905       0.47708196       0.24065432 </v>
   <v>       0.96692109       0.47708196       0.05425490 </v>
   <v>       0.48420507       0.97708196       0.14745461 </v>
   <v>       0.51877302       0.97708196       0.33385403 </v>
   <v>       0.65663306       0.47708196       0.17852118 </v>
   <v>       0.69120102       0.47708196       0.36492059 </v>
   <v>       0.13934908       0.97708196       0.08532147 </v>
   <v>       0.17391704       0.97708196       0.27172089 </v>
  </varray>
 </structure>
 <calculation>
  <scstep>
   <time name="dav">    2.80    2.81</time>
   <time name="total">    2.87    2.88</time>
   <energy>
    <i name="alphaZ">   1468.23875301 </i>
    <i name="ewald"> 117982.40075640 </i>
    <i name="hartreedc">-242218.16195616 </i>
    <i name="XCdc">   3741.11330028 </i>
    <i name="pawpsdc"> 115860.90926010 </i>
    <i name="pawaedc">-120909.33166199 </i>
    <i name="eentropy">     -0.51409335 </i>
    <i name="bandstr">  -6793.44784007 </i>
    <i name="atom"> 139780.45519414 </i>
    <i name="e_fr_energy">   8911.66171236 </i>
    <i name="e_wo_entrp">   8912.17580571 </i>
    <i name="e_0_energy">   8911.91875904 </i>
   </energy>
  </scstep>
  <scstep>
   <time name="dav">    2.49    2.50</time>
   <time name="total">    2.49    2.50</time>
   <energy>
    <i name="e_fr_energy">    502.10088890 </i>
    <i name="e_wo_entrp">    502.96436197 </i>
    <i name="e_0_energy">    502.53262544 </i>
   </energy>
  </scstep>
  <scstep>
   <time name="dav">    2.72    2.73</time>
   <time name="total">    2.72    2.73</time>
   <energy>
    <i name="e_fr_energy">   -356.15392917 </i>
    <i name="e_wo_entrp">   -354.59445035 </i>
    <i name="e_0_energy">   -355.37418976 </i>
   </energy>
  </scstep>
  <scstep>
   <time name="dav">    2.77    2.77</time>
   <time name="total">    2.77    2.78</time>
   <energy>
    <i name="e_fr_energy">   -408.38430901 </i>
    <i name="e_wo_entrp">   -406.75661219 </i>
    <i name="e_0_energy">   -407.57046060 </i>
   </energy>
  </scstep>
  <scstep>
   <time name="dav">    2.82    2.83</time>
   <time name="total">    2.89    2.90</time>
   <energy>
    <i name="e_fr_energy">   -409.94894252 </i>
    <i name="e_wo_entrp">   -408.32889717 </i>
    <i name="e_0_energy">   -409.13891985 </i>
   </energy>
  </scstep>
  <scstep>
   <time name="dav">    2.79    2.80</time>
   <time name="total">    2.92    2.93</time>
   <energy>
    <i name="e_fr_energy">   -532.19939731 </i>
    <i name="e_wo_entrp">   -531.17963089 </i>
    <i name="e_0_energy">   -531.68951410 </i>
   </energy>
  </scstep>
  <scstep>
   <time name="dav">    2.84    2.84</time>
   <time name="total">    2.96    2.98</time>
   <energy>
    <i name="e_fr_energy">   -387.13716511 </i>
    <i name="e_wo_entrp">   -385.97183088 </i>
    <i name="e_0_energy">   -386.55449799 </i>
   </energy>
  </scstep>
  <scstep>
   <time name="dav">    3.27    3.28</time>
   <time name="total">    3.40    3.41</time>
   <energy>
    <i name="e_fr_energy">   -384.05178368 </i>
    <i name="e_wo_entrp">   -382.94776832 </i>
    <i name="e_0_energy">   -383.49977600 </i>
   </energy>
  </scstep>
  <scstep>
   <time name="dav">    3.18    3.19</time>
   <time name="total">    3.31    3.32</time>
   <energy>
    <i name="e_fr_energy">   -367.00602844 </i>
    <i name="e_wo_entrp">   -365.81302247 </i>
    <i name="e_0_energy">   -366.40952546 </i>
   </energy>
  </scstep>
  <scstep>
   <time name="dav">    3.28    3.29</time>
   <time name="total">    3.41    3.42</time>
   <energy>
    <i name="e_fr_energy">   -377.76503461 </i>
    <i name="e_wo_entrp">   -376.20737074 </i>
    <i name="e_0_energy">   -376.98620268 </i>
   </energy>
  </scstep>
  <scstep>
   <time name="dav">    3.17    3.18</time>
   <time name="total">    3.29    3.30</time>
   <energy>
    <i name="e_fr_energy">   -379.18793334 </i>
    <i name="e_wo_entrp">   -377.92081477 </i>
    <i name="e_0_energy">   -378.55437405 </i>
   </energy>
  </scstep>
  <scstep>
   <time name="dav">    3.21    3.22</time>
   <time name="total">    3.34    3.35</time>
   <energy>
    <i name="e_fr_energy">   -363.21517014 </i>
    <i name="e_wo_entrp">   -361.98280843 </i>
    <i name="e_0_energy">   -362.59898928 </i>
   </energy>
  </scstep>
  <scstep>
   <time name="dav">    3.15    3.16</time>
   <time name="total">    3.27    3.28</time>
   <energy>
    <i name="e_fr_energy">   -361.73478813 </i>
    <i name="e_wo_entrp">   -360.54984941 </i>
    <i name="e_0_energy">   -361.14231877 </i>
   </energy>
  </scstep>
  <scstep>
   <time name="dav">    3.13    3.14</time>
   <time name="total">    3.26    3.26</time>
   <energy>
    <i name="e_fr_energy">   -360.58051315 </i>
    <i name="e_wo_entrp">   -359.50375927 </i>
    <i name="e_0_energy">   -360.04213621 </i>
   </energy>
  </scstep>
  <scstep>
   <time name="dav">    2.97    2.98</time>
   <time name="total">    3.09    3.10</time>
   <energy>
    <i name="e_fr_energy">   -357.27009004 </i>
    <i name="e_wo_entrp">   -356.05270180 </i>
    <i name="e_0_energy">   -356.66139592 </i>
   </energy>
  </scstep>
  <scstep>
   <time name="dav">    3.09    3.09</time>
   <time name="total">    3.21    3.22</time>
   <energy>
    <i name="e_fr_energy">   -356.70605594 </i>
    <i name="e_wo_entrp">   -355.55035861 </i>
    <i name="e_0_energy">   -356.12820728 </i>
   </energy>
  </scstep>
  <scstep>
   <time name="dav">    3.06    3.07</time>
   <time name="total">    3.18    3.19</time>
   <energy>
    <i name="e_fr_energy">   -354.88753751 </i>
    <i name="e_wo_entrp">   -353.67356254 </i>
    <i name="e_0_energy">   -354.28055002 </i>
   </energy>
  </scstep>
  <scstep>
   <time name="dav">    3.06    3.07</time>
   <time name="total">    3.19    3.20</time>
   <energy>
    <i name="e_fr_energy">   -354.70514188 </i>
    <i name="e_wo_entrp">   -353.49245343 </i>
    <i name="e_0_energy">   -354.09879765 </i>
   </energy>
  </scstep>
  <scstep>
   <time name="dav">    3.08    3.09</time>
   <time name="total">    3.21    3.21</time>
   <energy>
    <i name="e_fr_energy">   -354.42888519 </i>
    <i name="e_wo_entrp">   -353.12220588 </i>
    <i name="e_0_energy">   -353.77554554 </i>
   </energy>
  </scstep>
  <scstep>
   <time name="dav">    2.98    2.99</time>
   <time name="total">    3.10    3.11</time>
   <energy>
    <i name="e_fr_energy">   -354.16623554 </i>
    <i name="e_wo_entrp">   -352.85667644 </i>
    <i name="e_0_energy">   -353.51145599 </i>
   </energy>
  </scstep>
  <scstep>
   <time name="dav">    3.02    3.03</time>
   <time name="total">    3.15    3.16</time>
   <energy>
    <i name="e_fr_energy">   -354.09630878 </i>
    <i name="e_wo_entrp">   -352.76690694 </i>
    <i name="e_0_energy">   -353.43160786 </i>
   </energy>
  </scstep>
  <scstep>
   <time name="dav">    2.95    2.96</time>
   <time name="total">    3.08    3.08</time>
   <energy>
    <i name="e_fr_energy">   -353.99358026 </i>
    <i name="e_wo_entrp">   -352.67287459 </i>
    <i name="e_0_energy">   -353.33322743 </i>
   </energy>
  </scstep>
  <scstep>
   <time name="dav">    3.05    3.06</time>
   <time name="total">    3.18    3.19</time>
   <energy>
    <i name="e_fr_energy">   -353.96542429 </i>
    <i name="e_wo_entrp">   -352.59772116 </i>
    <i name="e_0_energy">   -353.28157273 </i>
   </energy>
  </scstep>
  <scstep>
   <time name="dav">    3.07    3.08</time>
   <time name="total">    3.20    3.21</time>
   <energy>
    <i name="e_fr_energy">   -353.96981557 </i>
    <i name="e_wo_entrp">   -352.58213386 </i>
    <i name="e_0_energy">   -353.27597472 </i>
   </energy>
  </scstep>
  <scstep>
   <time name="dav">    3.01    3.02</time>
   <time name="total">    3.14    3.14</time>
   <energy>
    <i name="e_fr_energy">   -353.92214886 </i>
    <i name="e_wo_entrp">   -352.52850288 </i>
    <i name="e_0_energy">   -353.22532587 </i>
   </energy>
  </scstep>
  <scstep>
   <time name="dav">    2.95    2.96</time>
   <time name="total">    3.08    3.09</time>
   <energy>
    <i name="e_fr_energy">   -353.90461084 </i>
    <i name="e_wo_entrp">   -352.50655682 </i>
    <i name="e_0_energy">   -353.20558383 </i>
   </energy>
  </scstep>
  <scstep>
   <time name="dav">    3.01    3.02</time>
   <time name="total">    3.14    3.15</time>
   <energy>
    <i name="e_fr_energy">   -353.89670027 </i>
    <i name="e_wo_entrp">   -352.51319094 </i>
    <i name="e_0_energy">   -353.20494561 </i>
   </energy>
  </scstep>
  <scstep>
   <time name="dav">    3.07    3.08</time>
   <time name="total">    3.20    3.21</time>
   <energy>
    <i name="e_fr_energy">   -353.88236396 </i>
    <i name="e_wo_entrp">   -352.50638382 </i>
    <i name="e_0_energy">   -353.19437389 </i>
   </energy>
  </scstep>
  <scstep>
   <time name="dav">    2.96    2.97</time>
   <time name="total">    3.09    3.09</time>
   <energy>
    <i name="e_fr_energy">   -353.88290923 </i>
    <i name="e_wo_entrp">   -352.50876205 </i>
    <i name="e_0_energy">   -353.19583564 </i>
   </energy>
  </scstep>
  <scstep>
   <time name="dav">    3.02    3.03</time>
   <time name="total">    3.15    3.16</time>
   <energy>
    <i name="e_fr_energy">   -353.87281363 </i>
    <i name="e_wo_entrp">   -352.49092886 </i>
    <i name="e_0_energy">   -353.18187125 </i>
   </energy>
  </scstep>
  <scstep>
   <time name="dav">    2.94    2.95</time>
   <time name="total">    3.07    3.08</time>
   <energy>
    <i name="e_fr_energy">   -353.86984332 </i>
    <i name="e_wo_entrp">   -352.49860219 </i>
    <i name="e_0_energy">   -353.18422276 </i>
   </energy>
  </scstep>
  <scstep>
   <time name="dav">    2.96    2.97</time>
   <time name="total">    3.09    3.10</time>
   <energy>
    <i name="e_fr_energy">   -353.86847144 </i>
    <i name="e_wo_entrp">   -352.50021683 </i>
    <i name="e_0_energy">   -353.18434414 </i>
   </energy>
  </scstep>
  <scstep>
   <time name="dav">    2.96    2.97</time>
   <time name="total">    3.09    3.10</time>
   <energy>
    <i name="e_fr_energy">   -353.86565515 </i>
    <i name="e_wo_entrp">   -352.50119285 </i>
    <i name="e_0_energy">   -353.18342400 </i>
   </energy>
  </scstep>
  <scstep>
   <time name="dav">    2.74    2.75</time>
   <time name="total">    2.87    2.88</time>
   <energy>
    <i name="e_fr_energy">   -353.86535093 </i>
    <i name="e_wo_entrp">   -352.50275928 </i>
    <i name="e_0_energy">   -353.18405511 </i>
   </energy>
  </scstep>
  <scstep>
   <time name="dav">    2.53    2.53</time>
   <time name="total">    2.66    2.66</time>
   <energy>
    <i name="e_fr_energy">   -353.86516753 </i>
    <i name="e_wo_entrp">   -352.50325642 </i>
    <i name="e_0_energy">   -353.18421198 </i>
   </energy>
  </scstep>
  <scstep>
   <time name="dav">    2.29    2.30</time>
   <time name="total">    2.35    2.36</time>
   <energy>
    <i name="alphaZ">   1468.23875301 </i>
    <i name="ewald"> 117982.40075640 </i>
    <i name="hartreedc">-241476.30581426 </i>
    <i name="XCdc">   3711.63548823 </i>
    <i name="pawpsdc"> 132257.19795249 </i>
    <i name="pawaedc">-137363.51462546 </i>
    <i name="eentropy">     -1.36185752 </i>
    <i name="bandstr"> -16712.61099157 </i>
    <i name="atom"> 139780.45519414 </i>
    <i name="e_fr_energy">   -353.86514454 </i>
    <i name="e_wo_entrp">   -352.50328702 </i>
    <i name="e_0_energy">   -353.18421578 </i>
   </energy>
  </scstep>
  <structure>
   <crystal>
    <varray name="basis" >
     <v>      16.88469405       0.00000000       0.00000000 </v>
     <v>       0.00000000       9.57841000       0.00000000 </v>
     <v>       0.00000000       0.00000000      16.54803255 </v>
    </varray>
    <i name="volume">   2676.28885249 </i>
    <varray name="rec_basis" >
     <v>       0.05922524       0.00000000       0.00000000 </v>
     <v>       0.00000000       0.10440146       0.00000000 </v>
     <v>       0.00000000       0.00000000       0.06043014 </v>
    </varray>
   </crystal>
   <varray name="positions" >
    <v>       0.78004630       0.14529696       0.11782363 </v>
    <v>       0.81461426       0.14529696       0.30422304 </v>
    <v>       0.26276233       0.64529696       0.02462392 </v>
    <v>       0.29733028       0.64529696       0.21102334 </v>
    <v>       0.43519032       0.14529696       0.05569049 </v>
    <v>       0.46975828       0.14529696       0.24208990 </v>
    <v>       0.95247430       0.64529696       0.14889020 </v>
    <v>       0.98704225       0.64529696       0.33528961 </v>
    <v>       0.12490229       0.14529696       0.17995677 </v>
    <v>       0.15947025       0.14529696       0.36635618 </v>
    <v>       0.60761831       0.64529696       0.08675706 </v>
    <v>       0.64218627       0.64529696       0.27315647 </v>
    <v>       0.90758277       0.01319396       0.09319971 </v>
    <v>       0.94215073       0.01319396       0.27959912 </v>
    <v>       0.39029880       0.51319396       0.00000000 </v>
    <v>       0.42486675       0.51319396       0.18639941 </v>
    <v>       0.45943471       0.51319396       0.37279883 </v>
    <v>       0.56272679       0.01319396       0.03106657 </v>
    <v>       0.59729475       0.01319396       0.21746598 </v>
    <v>       0.08001077       0.51319396       0.12426628 </v>
    <v>       0.11457872       0.51319396       0.31066569 </v>
    <v>       0.25243876       0.01319396       0.15533284 </v>
    <v>       0.28700672       0.01319396       0.34173226 </v>
    <v>       0.73515478       0.51319396       0.06213314 </v>
    <v>       0.76972274       0.51319396       0.24853255 </v>
    <v>       0.90758277       0.27739996       0.09319971 </v>
    <v>       0.94215073       0.27739996       0.27959912 </v>
    <v>       0.39029880       0.77739996       0.00000000 </v>
    <v>       0.42486675       0.77739996       0.18639941 </v>
    <v>       0.56272679       0.27739996       0.03106657 </v>
    <v>       0.59729475       0.27739996       0.21746598 </v>
    <v>       0.08001077       0.77739996       0.12426628 </v>
    <v>       0.11457872       0.77739996       0.31066569 </v>
    <v>       0.25243876       0.27739996       0.15533284 </v>
    <v>       0.28700672       0.27739996       0.34173226 </v>
    <v>       0.73515478       0.77739996       0.06213314 </v>
    <v>       0.76972274       0.77739996       0.24853255 </v>
    <v>       0.02602916       0.14529696       0.36463199 </v>
    <v>       0.99146120       0.14529696       0.17823257 </v>
    <v>       0.47417722       0.64529696       0.08503287 </v>
    <v>       0.50874518       0.64529696       0.27143228 </v>
    <v>       0.64660522       0.14529696       0.11609943 </v>
    <v>       0.68117317       0.14529696       0.30249885 </v>
    <v>       0.12932124       0.64529696       0.02289973 </v>
    <v>       0.16388920       0.64529696       0.20929914 </v>
    <v>       0.19845715       0.64529696       0.39569855 </v>
    <v>       0.30174923       0.14529696       0.05396630 </v>
    <v>       0.33631719       0.14529696       0.24036571 </v>
    <v>       0.81903321       0.64529696       0.14716600 </v>
    <v>       0.85360117       0.64529696       0.33356542 </v>
    <v>       0.79449310       0.31351196       0.02318834 </v>
    <v>       0.82906105       0.31351196       0.20958775 </v>
    <v>       0.31177707       0.81351196       0.11638804 </v>
    <v>       0.34634503       0.81351196       0.30278746 </v>
    <v>       0.48420507       0.31351196       0.14745461 </v>
    <v>       0.51877302       0.31351196       0.33385403 </v>
    <v>       0.00148905       0.81351196       0.24065432 </v>
    <v>       0.96692109       0.81351196       0.05425490 </v>
    <v>       0.13934908       0.31351196       0.08532147 </v>
    <v>       0.17391704       0.31351196       0.27172089 </v>
    <v>       0.65663306       0.81351196       0.17852118 </v>
    <v>       0.69120102       0.81351196       0.36492059 </v>
    <v>       0.31177707       0.47708196       0.11638804 </v>
    <v>       0.34634503       0.47708196       0.30278746 </v>
    <v>       0.79449310       0.97708196       0.02318834 </v>
    <v>       0.82906105       0.97708196       0.20958775 </v>
    <v>       0.00148905       0.47708196       0.24065432 </v>
    <v>       0.96692109       0.47708196       0.05425490 </v>
    <v>       0.48420507       0.97708196       0.14745461 </v>
    <v>       0.51877302       0.97708196       0.33385403 </v>
    <v>       0.65663306       0.47708196       0.17852118 </v>
    <v>       0.69120102       0.47708196       0.36492059 </v>
    <v>       0.13934908       0.97708196       0.08532147 </v>
    <v>       0.17391704       0.97708196       0.27172089 </v>
   </varray>
  </structure>
  <varray name="forces" >
   <v>       0.40186475      -0.00259582      -0.38361282 </v>
   <v>      -1.00916456       0.01439366      -1.52107820 </v>
   <v>      -0.33985635       0.03824813       1.10139757 </v>
   <v>       0.02780657       0.28151910       0.16555917 </v>
   <v>      -0.35459023       0.00752357       0.90551300 </v>
   <v>      -0.03313417      -0.08276208       0.39697174 </v>
   <v>      -0.05751305       0.00279100      -0.11159158 </v>
   <v>      -1.13316190      -0.00396415      -1.50048806 </v>
   <v>      -0.21179959       0.01388939      -0.23142023 </v>
   <v>      -0.68322273       0.01161280      -1.53604881 </v>
   <v>       0.08932052       0.00884334       0.86180873 </v>
   <v>      -0.01248970      -0.01257868       0.60952431 </v>
   <v>      -0.23681160      -0.77195147       0.38963067 </v>
   <v>       0.58243863       0.44689994      -0.47867641 </v>
   <v>       0.00158941       0.66321665       1.74533543 </v>
   <v>       0.03083438      -0.17222286      -0.00386800 </v>
   <v>      -0.01264103      -0.77506429      -2.30646118 </v>
   <v>      -0.25904817       0.50414888       1.62699633 </v>
   <v>       0.00193192       0.14976775       0.36445857 </v>
   <v>       0.20457260      -0.41838930      -0.33872642 </v>
   <v>       0.92221411       0.66151794      -0.13663634 </v>
   <v>       0.08431816      -0.16424970      -0.21992650 </v>
   <v>      -0.06004567      -0.34160432      -1.63671750 </v>
   <v>       0.24376210      -0.39603704       0.90907318 </v>
   <v>       0.24525103      -0.09762331       0.38360166 </v>
   <v>      -0.23106731       0.77995738       0.38960072 </v>
   <v>       0.59471578      -0.43731191      -0.48726254 </v>
   <v>       0.00486040      -0.65619124       1.75003821 </v>
   <v>      -0.23446607       0.21119216       0.29999855 </v>
   <v>      -0.25948441      -0.55094663       1.63431394 </v>
   <v>       0.14175514      -0.05441164       0.14474636 </v>
   <v>       0.18459240       0.41136648      -0.34759538 </v>
   <v>       0.88671970      -0.65825360      -0.11039052 </v>
   <v>       0.10950249       0.19099510      -0.23343813 </v>
   <v>      -0.09595976       0.19496308      -1.49830649 </v>
   <v>       0.23630730       0.38842112       0.91333127 </v>
   <v>       0.19752653       0.08550356       0.39202225 </v>
   <v>      -1.03001587      -0.00805373       0.02212558 </v>
   <v>      -0.23955701      -0.00567926      -1.00220208 </v>
   <v>       0.31019478       0.09184098      -1.60728617 </v>
   <v>      -0.34294233      -0.32639906       0.94286501 </v>
   <v>      -0.49873023       0.03956208      -0.91200993 </v>
   <v>       0.12563168      -0.04667300       0.39089738 </v>
   <v>       1.29468786      -0.00229606       0.31104443 </v>
   <v>      -0.14301802       0.01115690       0.10906611 </v>
   <v>      -1.99163742       0.04145857      -1.32168424 </v>
   <v>       1.30516511      -0.00632149      -0.04475286 </v>
   <v>      -0.01874292      -0.01270561       0.99875513 </v>
   <v>      -0.57257853      -0.00485882      -0.73900925 </v>
   <v>      -0.00053772       0.01601296       0.09272951 </v>
   <v>       0.05163321       0.60013973       0.38043791 </v>
   <v>       0.18911340      -0.45184243       1.21205985 </v>
   <v>      -0.02280580      -0.17235033      -1.06317254 </v>
   <v>       0.01249279      -0.09242247       0.09721135 </v>
   <v>       0.04921170      -0.26432652      -0.92382360 </v>
   <v>      -0.12896238       0.00630293       0.11707683 </v>
   <v>       0.04891516      -0.21793860       0.97747325 </v>
   <v>      -0.04497591       0.56407017       0.45649674 </v>
   <v>      -0.07269403       0.08427381       0.48519648 </v>
   <v>       0.06494575      -0.17947531       0.94569405 </v>
   <v>       0.09497764      -0.45768494      -0.65694342 </v>
   <v>       0.21857451      -0.90265759      -1.34371122 </v>
   <v>      -0.03388888       0.11617511      -0.94531608 </v>
   <v>       0.50970927       0.08487157       0.78253842 </v>
   <v>       0.03499525      -0.62089579       0.38663376 </v>
   <v>       0.20326545       0.43630507       1.20982633 </v>
   <v>       0.03868014       0.21953655       1.00297008 </v>
   <v>      -0.04618610      -0.54772057       0.46242563 </v>
   <v>       0.04507238       0.25395081      -0.81873907 </v>
   <v>       0.25050920       0.81406648      -1.37374149 </v>
   <v>       0.05739726       0.48462104      -0.63851515 </v>
   <v>       0.26407020       0.93016674      -1.31638065 </v>
   <v>      -0.06285310      -0.09460430       0.50810787 </v>
   <v>       0.11345591       0.14978141       0.91397949 </v>
  </varray>
  <varray name="stress" >
   <v>     -27.78998912       0.03525577      -8.03760272 </v>
   <v>       0.03525584     -26.57001134      -0.72144759 </v>
   <v>      -8.03760259      -0.72144744     -37.43810543 </v>
  </varray>
  <energy>
   <i name="e_fr_energy">   -353.86514454 </i>
   <i name="e_wo_entrp">   -352.50328702 </i>
   <i name="e_0_energy">   -353.18421578 </i>
  </energy>
  <time name="totalsc">  112.74  113.11</time>
  <eigenvalues>
   <array>
    <dimension dim="1">band</dimension>
    <dimension dim="2">kpoint</dimension>
    <dimension dim="3">spin</dimension>
    <field>eigene</field>
    <field>occ</field>
    <set>
     <set comment="spin 1">
      <set comment="kpoint 1">
       <r>  -64.5122    1.0000 </r>
       <r>  -64.5025    1.0000 </r>
       <r>  -64.4940    1.0000 </r>
       <r>  -64.4916    1.0000 </r>
       <r>  -64.4826    1.0000 </r>
       <r>  -64.4731    1.0000 </r>
       <r>  -64.4697    1.0000 </r>
       <r>  -64.4620    1.0000 </r>
       <r>  -64.4498    1.0000 </r>
       <r>  -64.4488    1.0000 </r>
       <r>  -64.4396    1.0000 </r>
       <r>  -64.4293    1.0000 </r>
       <r>  -64.4230    1.0000 </r>
       <r>  -64.4204    1.0000 </r>
       <r>  -64.4162    1.0000 </r>
       <r>  -64.4119    1.0000 </r>
       <r>  -64.4115    1.0000 </r>
       <r>  -64.3947    1.0000 </r>
       <r>  -64.3913    1.0000 </r>
       <r>  -64.3864    1.0000 </r>
       <r>  -64.3739    1.0000 </r>
       <r>  -64.3734    1.0000 </r>
       <r>  -64.3550    1.0000 </r>
       <r>  -64.3522    1.0000 </r>
       <r>  -64.3519    1.0000 </r>
       <r>  -64.3450    1.0000 </r>
       <r>  -64.3390    1.0000 </r>
       <r>  -64.3378    1.0000 </r>
       <r>  -64.3313    1.0000 </r>
       <r>  -64.3290    1.0000 </r>
       <r>  -64.3259    1.0000 </r>
       <r>  -64.3221    1.0000 </r>
       <r>  -64.3130    1.0000 </r>
       <r>  -64.3011    1.0000 </r>
       <r>  -64.2978    1.0000 </r>
       <r>  -64.2742    1.0000 </r>
       <r>  -64.2740    1.0000 </r>
       <r>  -64.2553    1.0000 </r>
       <r>  -64.2519    1.0000 </r>
       <r>  -64.2213    1.0000 </r>
       <r>  -64.2144    1.0000 </r>
       <r>  -64.2039    1.0000 </r>
       <r>  -64.1993    1.0000 </r>
       <r>  -64.1980    1.0000 </r>
       <r>  -64.1970    1.0000 </r>
       <r>  -64.1925    1.0000 </r>
       <r>  -64.1921    1.0000 </r>
       <r>  -64.1902    1.0000 </r>
       <r>  -64.1766    1.0000 </r>
       <r>  -64.1733    1.0000 </r>
       <r>  -64.1472    1.0000 </r>
       <r>  -64.1339    1.0000 </r>
       <r>  -64.1295    1.0000 </r>
       <r>  -64.1273    1.0000 </r>
       <r>  -64.1251    1.0000 </r>
       <r>  -64.1025    1.0000 </r>
       <r>  -64.0989    1.0000 </r>
       <r>  -64.0699    1.0000 </r>
       <r>  -64.0682    1.0000 </r>
       <r>  -64.0326    1.0000 </r>
       <r>  -63.9844    1.0000 </r>
       <r>  -63.9659    1.0000 </r>
       <r>  -63.9652    1.0000 </r>
       <r>  -63.9641    1.0000 </r>
       <r>  -63.9570    1.0000 </r>
       <r>  -63.9467    1.0000 </r>
       <r>  -63.9230    1.0000 </r>
       <r>  -63.9168    1.0000 </r>
       <r>  -63.8915    1.0000 </r>
       <r>  -63.8901    1.0000 </r>
       <r>  -63.8609    1.0000 </r>
       <r>  -63.8382    1.0000 </r>
       <r>  -63.7947    1.0000 </r>
       <r>  -63.7834    1.0000 </r>
       <r>  -63.7389    1.0000 </r>
       <r>  -63.7288    1.0000 </r>
       <r>  -63.7252    1.0000 </r>
       <r>  -63.7240    1.0000 </r>
       <r>  -63.7176    1.0000 </r>
       <r>  -63.7067    1.0000 </r>
       <r>  -63.6905    1.0000 </r>
       <r>  -63.6900    1.0000 </r>
       <r>  -63.6787    1.0000 </r>
       <r>  -63.6370    1.0000 </r>
       <r>  -63.6266    1.0000 </r>
       <r>  -63.6154    1.0000 </r>
       <r>  -63.6145    1.0000 </r>
       <r>  -63.5983    1.0000 </r>
       <r>  -63.5547    1.0000 </r>
       <r>  -63.5135    1.0000 </r>
       <r>  -63.5036    1.0000 </r>
       <r>  -63.4844    1.0000 </r>
       <r>  -63.4652    1.0000 </r>
       <r>  -63.4295    1.0000 </r>
       <r>  -63.3795    1.0000 </r>
       <r>  -63.3717    1.0000 </r>
       <r>  -63.3662    1.0000 </r>
       <r>  -63.3565    1.0000 </r>
       <r>  -63.3094    1.0000 </r>
       <r>  -63.2570    1.0000 </r>
       <r>  -63.2487    1.0000 </r>
       <r>  -63.2241    1.0000 </r>
       <r>  -63.2071    1.0000 </r>
       <r>  -63.1643    1.0000 </r>
       <r>  -63.1345    1.0000 </r>
       <r>  -63.1249    1.0000 </r>
       <r>  -63.1075    1.0000 </r>
       <r>  -63.1050    1.0000 </r>
       <r>  -63.0750    1.0000 </r>
       <r>  -63.0706    1.0000 </r>
       <r>  -63.0412    1.0000 </r>
       <r>  -15.3492    1.0000 </r>
       <r>  -15.0730    1.0000 </r>
       <r>  -15.0521    1.0000 </r>
       <r>  -14.6522    1.0000 </r>
       <r>  -14.5674    1.0000 </r>
       <r>  -14.5250    1.0000 </r>
       <r>  -14.3678    1.0000 </r>
       <r>  -14.2081    1.0000 </r>
       <r>  -14.2021    1.0000 </r>
       <r>  -14.1674    1.0000 </r>
       <r>  -14.1379    1.0000 </r>
       <r>  -13.9612    1.0000 </r>
       <r>  -13.9294    1.0000 </r>
       <r>  -13.8719    1.0000 </r>
       <r>  -13.8540    1.0000 </r>
       <r>  -13.8041    1.0000 </r>
       <r>  -13.7114    1.0000 </r>
       <r>  -13.6994    1.0000 </r>
       <r>  -13.6509    1.0000 </r>
       <r>  -13.5394    1.0000 </r>
       <r>  -13.2736    1.0000 </r>
       <r>  -13.1505    1.0000 </r>
       <r>  -13.1109    1.0000 </r>
       <r>  -13.0116    1.0000 </r>
       <r>  -12.9964    1.0000 </r>
       <r>  -12.8736    1.0000 </r>
       <r>  -12.7806    1.0000 </r>
       <r>  -12.7702    1.0000 </r>
       <r>  -12.7076    1.0000 </r>
       <r>  -12.6543    1.0000 </r>
       <r>  -12.5582    1.0000 </r>
       <r>  -12.5288    1.0000 </r>
       <r>  -12.4601    1.0000 </r>
       <r>  -12.1902    1.0000 </r>
       <r>  -12.1173    1.0000 </r>
       <r>  -11.8720    1.0000 </r>
       <r>  -11.8499    1.0000 </r>
       <r>   -7.1070    1.0000 </r>
       <r>   -7.0304    1.0000 </r>
       <r>   -7.0156    1.0000 </r>
       <r>   -6.9956    1.0000 </r>
       <r>   -6.9544    1.0000 </r>
       <r>   -6.7272    1.0000 </r>
       <r>   -6.5583    1.0000 </r>
       <r>   -6.5464    1.0000 </r>
       <r>   -6.5053    1.0000 </r>
       <r>   -6.4812    1.0000 </r>
       <r>   -6.4584    1.0000 </r>
       <r>   -6.4179    1.0000 </r>
       <r>   -6.3674    1.0000 </r>
       <r>   -6.3454    1.0000 </r>
       <r>   -6.1982    1.0000 </r>
       <r>   -6.1706    1.0000 </r>
       <r>   -6.1225    1.0000 </r>
       <r>   -6.1083    1.0000 </r>
       <r>   -6.0631    1.0000 </r>
       <r>   -6.0447    1.0000 </r>
       <r>   -6.0058    1.0000 </r>
       <r>   -5.9396    1.0000 </r>
       <r>   -5.8786    1.0000 </r>
       <r>   -5.8286    1.0000 </r>
       <r>   -5.7552    1.0000 </r>
       <r>   -5.7490    1.0000 </r>
       <r>   -5.7016    1.0000 </r>
       <r>   -5.6858    1.0000 </r>
       <r>   -5.6760    1.0000 </r>
       <r>   -5.6016    1.0000 </r>
       <r>   -5.5911    1.0000 </r>
       <r>   -5.5569    1.0000 </r>
       <r>   -5.5522    1.0000 </r>
       <r>   -5.4352    1.0000 </r>
       <r>   -5.4038    1.0000 </r>
       <r>   -5.3944    1.0000 </r>
       <r>   -5.3685    1.0000 </r>
       <r>   -5.3150    1.0000 </r>
       <r>   -5.2468    1.0000 </r>
       <r>   -5.2169    1.0000 </r>
       <r>   -5.1442    1.0000 </r>
       <r>   -5.0578    1.0000 </r>
       <r>   -4.9952    1.0000 </r>
       <r>   -4.9354    1.0000 </r>
       <r>   -4.8971    1.0000 </r>
       <r>   -4.8630    1.0000 </r>
       <r>   -4.8355    1.0000 </r>
       <r>   -4.7621    1.0000 </r>
       <r>   -4.7444    1.0000 </r>
       <r>   -4.7182    1.0000 </r>
       <r>   -4.6912    1.0000 </r>
       <r>   -4.6554    1.0000 </r>
       <r>   -4.6225    1.0000 </r>
       <r>   -4.6013    1.0000 </r>
       <r>   -4.5756    1.0000 </r>
       <r>   -4.5719    1.0000 </r>
       <r>   -4.5014    1.0000 </r>
       <r>   -4.4879    1.0000 </r>
       <r>   -4.4442    1.0000 </r>
       <r>   -4.4237    1.0000 </r>
       <r>   -4.3222    1.0000 </r>
       <r>   -4.3022    1.0000 </r>
       <r>   -4.2402    1.0000 </r>
       <r>   -4.2069    1.0000 </r>
       <r>   -4.1708    1.0000 </r>
       <r>   -4.1555    1.0000 </r>
       <r>   -4.1137    1.0000 </r>
       <r>   -4.0976    1.0000 </r>
       <r>   -4.0653    1.0000 </r>
       <r>   -4.0277    1.0000 </r>
       <r>   -4.0223    1.0000 </r>
       <r>   -3.9927    1.0000 </r>
       <r>   -3.9823    1.0000 </r>
       <r>   -3.9480    1.0000 </r>
       <r>   -3.9300    1.0000 </r>
       <r>   -3.8741    1.0000 </r>
       <r>   -3.8521    1.0000 </r>
       <r>   -3.8257    1.0000 </r>
       <r>   -3.7604    1.0000 </r>
       <r>   -3.7544    1.0000 </r>
       <r>   -3.7343    1.0000 </r>
       <r>   -3.6930    1.0000 </r>
       <r>   -3.6644    1.0000 </r>
       <r>   -3.6398    1.0000 </r>
       <r>   -3.5890    1.0000 </r>
       <r>   -3.5550    1.0000 </r>
       <r>   -3.4998    1.0000 </r>
       <r>   -3.4877    1.0000 </r>
       <r>   -3.4483    1.0000 </r>
       <r>   -3.4163    1.0000 </r>
       <r>   -3.3836    1.0000 </r>
       <r>   -3.3621    1.0000 </r>
       <r>   -3.3252    1.0000 </r>
       <r>   -3.2794    1.0000 </r>
       <r>   -3.2568    1.0000 </r>
       <r>   -3.2260    1.0000 </r>
       <r>   -3.2030    1.0000 </r>
       <r>   -3.1739    1.0000 </r>
       <r>   -3.1499    1.0000 </r>
       <r>   -3.1285    1.0000 </r>
       <r>   -3.1130    1.0000 </r>
       <r>   -3.0271    1.0000 </r>
       <r>   -3.0078    1.0000 </r>
       <r>   -2.9711    1.0000 </r>
       <r>   -2.9476    1.0000 </r>
       <r>   -2.9411    1.0000 </r>
       <r>   -2.9303    1.0000 </r>
       <r>   -2.8768    1.0000 </r>
       <r>   -2.8405    1.0000 </r>
       <r>   -2.8239    1.0000 </r>
       <r>   -2.7865    1.0000 </r>
       <r>   -2.7837    1.0000 </r>
       <r>   -2.6963    1.0000 </r>
       <r>   -2.6634    1.0000 </r>
       <r>   -2.6459    1.0000 </r>
       <r>   -2.6160    1.0000 </r>
       <r>   -2.5994    1.0000 </r>
       <r>   -2.5973    1.0000 </r>
       <r>   -2.5788    1.0000 </r>
       <r>   -2.5535    1.0000 </r>
       <r>   -2.5039    1.0000 </r>
       <r>   -2.4825    1.0000 </r>
       <r>   -2.4804    1.0000 </r>
       <r>   -2.4725    1.0000 </r>
       <r>   -2.4462    1.0000 </r>
       <r>   -2.4259    1.0000 </r>
       <r>   -2.4251    1.0000 </r>
       <r>   -2.4030    1.0000 </r>
       <r>   -2.3756    1.0000 </r>
       <r>   -2.3500    1.0000 </r>
       <r>   -2.3407    1.0000 </r>
       <r>   -2.3303    1.0000 </r>
       <r>   -2.3267    1.0000 </r>
       <r>   -2.3064    1.0000 </r>
       <r>   -2.2902    1.0000 </r>
       <r>   -2.2740    1.0000 </r>
       <r>   -2.2594    1.0000 </r>
       <r>   -2.2485    1.0000 </r>
       <r>   -2.2199    1.0000 </r>
       <r>   -2.2094    1.0000 </r>
       <r>   -2.2011    1.0000 </r>
       <r>   -2.1973    1.0000 </r>
       <r>   -2.1893    1.0000 </r>
       <r>   -2.1669    1.0000 </r>
       <r>   -2.1600    1.0000 </r>
       <r>   -2.1395    1.0000 </r>
       <r>   -2.1244    1.0000 </r>
       <r>   -2.1011    1.0000 </r>
       <r>   -2.0840    1.0000 </r>
       <r>   -2.0788    1.0000 </r>
       <r>   -2.0673    1.0000 </r>
       <r>   -2.0509    1.0000 </r>
       <r>   -2.0365    1.0000 </r>
       <r>   -2.0311    1.0000 </r>
       <r>   -2.0064    1.0000 </r>
       <r>   -2.0015    1.0000 </r>
       <r>   -1.9915    1.0000 </r>
       <r>   -1.9688    1.0000 </r>
       <r>   -1.9557    1.0000 </r>
       <r>   -1.9526    1.0000 </r>
       <r>   -1.9467    1.0000 </r>
       <r>   -1.9431    1.0000 </r>
       <r>   -1.9352    1.0000 </r>
       <r>   -1.9248    1.0000 </r>
       <r>   -1.9242    1.0000 </r>
       <r>   -1.9085    1.0000 </r>
       <r>   -1.8915    1.0000 </r>
       <r>   -1.8817    1.0000 </r>
       <r>   -1.8792    1.0000 </r>
       <r>   -1.8695    1.0000 </r>
       <r>   -1.8575    1.0000 </r>
       <r>   -1.8443    1.0000 </r>
       <r>   -1.8338    1.0000 </r>
       <r>   -1.8232    1.0000 </r>
       <r>   -1.8015    1.0000 </r>
       <r>   -1.7736    1.0000 </r>
       <r>   -1.7700    1.0000 </r>
       <r>   -1.7565    1.0000 </r>
       <r>   -1.7464    1.0000 </r>
       <r>   -1.7361    1.0000 </r>
       <r>   -1.7238    1.0000 </r>
       <r>   -1.7096    1.0000 </r>
       <r>   -1.7005    1.0000 </r>
       <r>   -1.6924    1.0000 </r>
       <r>   -1.6793    1.0000 </r>
       <r>   -1.6534    1.0000 </r>
       <r>   -1.6458    1.0000 </r>
       <r>   -1.6352    1.0000 </r>
       <r>   -1.6267    1.0000 </r>
       <r>   -1.6106    1.0000 </r>
       <r>   -1.5996    1.0000 </r>
       <r>   -1.5943    1.0000 </r>
       <r>   -1.5756    1.0000 </r>
       <r>   -1.5677    1.0000 </r>
       <r>   -1.5539    1.0000 </r>
       <r>   -1.5417    1.0000 </r>
       <r>   -1.5264    1.0000 </r>
       <r>   -1.5144    1.0000 </r>
       <r>   -1.5054    1.0000 </r>
       <r>   -1.4953    1.0000 </r>
       <r>   -1.4879    1.0000 </r>
       <r>   -1.4757    1.0000 </r>
       <r>   -1.4653    1.0000 </r>
       <r>   -1.4320    1.0000 </r>
       <r>   -1.4311    1.0000 </r>
       <r>   -1.4212    1.0000 </r>
       <r>   -1.4003    1.0000 </r>
       <r>   -1.3826    1.0000 </r>
       <r>   -1.3745    1.0000 </r>
       <r>   -1.3490    1.0000 </r>
       <r>   -1.3408    1.0000 </r>
       <r>   -1.3017    1.0000 </r>
       <r>   -1.2876    1.0000 </r>
       <r>   -1.2728    1.0000 </r>
       <r>   -1.2395    1.0000 </r>
       <r>   -1.2311    1.0000 </r>
       <r>   -1.2198    1.0000 </r>
       <r>   -1.1957    1.0000 </r>
       <r>   -1.1932    1.0000 </r>
       <r>   -1.1575    1.0000 </r>
       <r>   -1.1414    1.0000 </r>
       <r>   -1.1362    1.0000 </r>
       <r>   -1.1150    1.0000 </r>
       <r>   -1.0950    1.0000 </r>
       <r>   -1.0569    1.0000 </r>
       <r>   -1.0484    1.0000 </r>
       <r>   -1.0307    1.0000 </r>
       <r>   -1.0272    1.0000 </r>
       <r>   -1.0183    1.0000 </r>
       <r>   -1.0055    1.0000 </r>
       <r>   -0.9903    1.0000 </r>
       <r>   -0.9877    1.0000 </r>
       <r>   -0.9611    1.0000 </r>
       <r>   -0.9527    1.0000 </r>
       <r>   -0.9476    1.0000 </r>
       <r>   -0.9407    1.0000 </r>
       <r>   -0.8732    0.9999 </r>
       <r>   -0.8628    0.9998 </r>
       <r>   -0.8406    0.9996 </r>
       <r>   -0.8216    0.9994 </r>
       <r>   -0.8068    0.9992 </r>
       <r>   -0.7765    0.9983 </r>
       <r>   -0.7690    0.9980 </r>
       <r>   -0.7425    0.9965 </r>
       <r>   -0.7217    0.9946 </r>
       <r>   -0.7017    0.9920 </r>
       <r>   -0.6967    0.9911 </r>
       <r>   -0.6811    0.9881 </r>
       <r>   -0.6565    0.9816 </r>
       <r>   -0.6508    0.9796 </r>
       <r>   -0.6060    0.9582 </r>
       <r>   -0.5781    0.9373 </r>
       <r>   -0.5497    0.9086 </r>
       <r>   -0.5326    0.8870 </r>
       <r>   -0.4911    0.8205 </r>
       <r>   -0.4521    0.7395 </r>
       <r>   -0.4436    0.7196 </r>
       <r>   -0.4044    0.6197 </r>
       <r>   -0.3759    0.5409 </r>
       <r>   -0.3572    0.4883 </r>
       <r>   -0.3204    0.3862 </r>
       <r>   -0.2802    0.2832 </r>
       <r>   -0.2732    0.2667 </r>
       <r>   -0.2479    0.2112 </r>
       <r>   -0.2082    0.1395 </r>
       <r>   -0.1743    0.0930 </r>
       <r>   -0.1131    0.0396 </r>
       <r>   -0.0587    0.0162 </r>
       <r>   -0.0309    0.0097 </r>
       <r>   -0.0265    0.0090 </r>
       <r>    0.0097    0.0043 </r>
       <r>    0.0406    0.0022 </r>
       <r>    0.0745    0.0010 </r>
       <r>    0.0834    0.0008 </r>
       <r>    0.1936    0.0000 </r>
       <r>    0.2077    0.0000 </r>
       <r>    0.2424    0.0000 </r>
       <r>    0.2673    0.0000 </r>
       <r>    0.3273    0.0000 </r>
       <r>    0.3437    0.0000 </r>
       <r>    0.4011    0.0000 </r>
       <r>    0.4226    0.0000 </r>
       <r>    0.4584    0.0000 </r>
       <r>    0.4774    0.0000 </r>
       <r>    0.5346    0.0000 </r>
       <r>    0.5605    0.0000 </r>
       <r>    0.6146    0.0000 </r>
       <r>    0.6507    0.0000 </r>
       <r>    0.6663    0.0000 </r>
       <r>    0.6978    0.0000 </r>
       <r>    0.7493    0.0000 </r>
       <r>    0.7622    0.0000 </r>
       <r>    0.7865    0.0000 </r>
       <r>    0.8234    0.0000 </r>
       <r>    0.8379    0.0000 </r>
       <r>    0.8400    0.0000 </r>
       <r>    0.8578    0.0000 </r>
       <r>    0.9588    0.0000 </r>
       <r>    0.9812    0.0000 </r>
       <r>    1.1026    0.0000 </r>
       <r>    1.6191    0.0000 </r>
       <r>    2.0400    0.0000 </r>
       <r>    2.2865    0.0000 </r>
       <r>    2.3807    0.0000 </r>
       <r>    2.4168    0.0000 </r>
       <r>    2.5981    0.0000 </r>
       <r>    2.7138    0.0000 </r>
       <r>    3.0579    0.0000 </r>
       <r>    3.4666    0.0000 </r>
       <r>    3.5734    0.0000 </r>
       <r>    3.7438    0.0000 </r>
       <r>    3.8543    0.0000 </r>
       <r>    3.9363    0.0000 </r>
       <r>    4.0096    0.0000 </r>
       <r>    4.0820    0.0000 </r>
       <r>    4.1185    0.0000 </r>
       <r>    4.1448    0.0000 </r>
       <r>    4.2645    0.0000 </r>
       <r>    4.2749    0.0000 </r>
       <r>    4.3214    0.0000 </r>
       <r>    4.4351    0.0000 </r>
       <r>    4.4977    0.0000 </r>
       <r>    4.5582    0.0000 </r>
       <r>    4.6188    0.0000 </r>
       <r>    4.6947    0.0000 </r>
       <r>    4.7606    0.0000 </r>
       <r>    4.7662    0.0000 </r>
       <r>    4.8280    0.0000 </r>
       <r>    4.9338    0.0000 </r>
       <r>    4.9946    0.0000 </r>
       <r>    5.0523    0.0000 </r>
       <r>    5.1451    0.0000 </r>
       <r>    5.1687    0.0000 </r>
       <r>    5.2558    0.0000 </r>
       <r>    5.2842    0.0000 </r>
       <r>    5.3185    0.0000 </r>
       <r>    5.3315    0.0000 </r>
       <r>    5.3699    0.0000 </r>
       <r>    5.4058    0.0000 </r>
       <r>    5.4504    0.0000 </r>
      </set>
     </set>
    </set>
   </array>
  </eigenvalues>
  <separator name="orbital magnetization" >
   <v name="MAGDIPOLOUT">      0.00000000      0.00000000      0.00000000</v>
  </separator>
  <dos>
   <i name="efermi">     -0.36133762 </i>
   <total>
    <array>
     <dimension dim="1">gridpoints</dimension>
     <dimension dim="2">spin</dimension>
     <field>energy</field>
     <field>total</field>
     <field>integrated</field>
     <set>
      <set comment="spin 1">
       <r>   -68.0103     0.0000     0.0000 </r>
       <r>   -67.7538     0.0000     0.0000 </r>
       <r>   -67.4973     0.0000     0.0000 </r>
       <r>   -67.2407     0.0000     0.0000 </r>
       <r>   -66.9842     0.0000     0.0000 </r>
       <r>   -66.7277     0.0000     0.0000 </r>
       <r>   -66.4711     0.0000     0.0000 </r>
       <r>   -66.2146     0.0000     0.0000 </r>
       <r>   -65.9581     0.0000     0.0000 </r>
       <r>   -65.7016     0.0000     0.0000 </r>
       <r>   -65.4450     0.0000     0.0000 </r>
       <r>   -65.1885     0.0000     0.0000 </r>
       <r>   -64.9320     0.0710     0.0182 </r>
       <r>   -64.6754    10.1558     2.6235 </r>
       <r>   -64.4189   122.4880    34.0453 </r>
       <r>   -64.1624   229.7001    92.9702 </r>
       <r>   -63.9058   158.3886   133.6015 </r>
       <r>   -63.6493   121.0184   164.6463 </r>
       <r>   -63.3928    97.4646   189.6489 </r>
       <r>   -63.1363    78.8020   209.8640 </r>
       <r>   -62.8797    43.1290   220.9278 </r>
       <r>   -62.6232     4.1474   221.9918 </r>
       <r>   -62.3667     0.0321   222.0000 </r>
       <r>   -62.1101     0.0000   222.0000 </r>
       <r>   -61.8536     0.0000   222.0000 </r>
       <r>   -61.5971     0.0000   222.0000 </r>
       <r>   -61.3405     0.0000   222.0000 </r>
       <r>   -61.0840     0.0000   222.0000 </r>
       <r>   -60.8275     0.0000   222.0000 </r>
       <r>   -60.5710     0.0000   222.0000 </r>
       <r>   -60.3144     0.0000   222.0000 </r>
       <r>   -60.0579     0.0000   222.0000 </r>
       <r>   -59.8014     0.0000   222.0000 </r>
       <r>   -59.5448     0.0000   222.0000 </r>
       <r>   -59.2883     0.0000   222.0000 </r>
       <r>   -59.0318     0.0000   222.0000 </r>
       <r>   -58.7753     0.0000   222.0000 </r>
       <r>   -58.5187     0.0000   222.0000 </r>
       <r>   -58.2622     0.0000   222.0000 </r>
       <r>   -58.0057     0.0000   222.0000 </r>
       <r>   -57.7491     0.0000   222.0000 </r>
       <r>   -57.4926     0.0000   222.0000 </r>
       <r>   -57.2361     0.0000   222.0000 </r>
       <r>   -56.9795     0.0000   222.0000 </r>
       <r>   -56.7230     0.0000   222.0000 </r>
       <r>   -56.4665     0.0000   222.0000 </r>
       <r>   -56.2100     0.0000   222.0000 </r>
       <r>   -55.9534     0.0000   222.0000 </r>
       <r>   -55.6969     0.0000   222.0000 </r>
       <r>   -55.4404     0.0000   222.0000 </r>
       <r>   -55.1838     0.0000   222.0000 </r>
       <r>   -54.9273     0.0000   222.0000 </r>
       <r>   -54.6708     0.0000   222.0000 </r>
       <r>   -54.4142     0.0000   222.0000 </r>
       <r>   -54.1577     0.0000   222.0000 </r>
       <r>   -53.9012     0.0000   222.0000 </r>
       <r>   -53.6447     0.0000   222.0000 </r>
       <r>   -53.3881     0.0000   222.0000 </r>
       <r>   -53.1316     0.0000   222.0000 </r>
       <r>   -52.8751     0.0000   222.0000 </r>
       <r>   -52.6185     0.0000   222.0000 </r>
       <r>   -52.3620     0.0000   222.0000 </r>
       <r>   -52.1055     0.0000   222.0000 </r>
       <r>   -51.8489     0.0000   222.0000 </r>
       <r>   -51.5924     0.0000   222.0000 </r>
       <r>   -51.3359     0.0000   222.0000 </r>
       <r>   -51.0794     0.0000   222.0000 </r>
       <r>   -50.8228     0.0000   222.0000 </r>
       <r>   -50.5663     0.0000   222.0000 </r>
       <r>   -50.3098     0.0000   222.0000 </r>
       <r>   -50.0532     0.0000   222.0000 </r>
       <r>   -49.7967     0.0000   222.0000 </r>
       <r>   -49.5402     0.0000   222.0000 </r>
       <r>   -49.2837     0.0000   222.0000 </r>
       <r>   -49.0271     0.0000   222.0000 </r>
       <r>   -48.7706     0.0000   222.0000 </r>
       <r>   -48.5141     0.0000   222.0000 </r>
       <r>   -48.2575     0.0000   222.0000 </r>
       <r>   -48.0010     0.0000   222.0000 </r>
       <r>   -47.7445     0.0000   222.0000 </r>
       <r>   -47.4879     0.0000   222.0000 </r>
       <r>   -47.2314     0.0000   222.0000 </r>
       <r>   -46.9749     0.0000   222.0000 </r>
       <r>   -46.7184     0.0000   222.0000 </r>
       <r>   -46.4618     0.0000   222.0000 </r>
       <r>   -46.2053     0.0000   222.0000 </r>
       <r>   -45.9488     0.0000   222.0000 </r>
       <r>   -45.6922     0.0000   222.0000 </r>
       <r>   -45.4357     0.0000   222.0000 </r>
       <r>   -45.1792     0.0000   222.0000 </r>
       <r>   -44.9226     0.0000   222.0000 </r>
       <r>   -44.6661     0.0000   222.0000 </r>
       <r>   -44.4096     0.0000   222.0000 </r>
       <r>   -44.1531     0.0000   222.0000 </r>
       <r>   -43.8965     0.0000   222.0000 </r>
       <r>   -43.6400     0.0000   222.0000 </r>
       <r>   -43.3835     0.0000   222.0000 </r>
       <r>   -43.1269     0.0000   222.0000 </r>
       <r>   -42.8704     0.0000   222.0000 </r>
       <r>   -42.6139     0.0000   222.0000 </r>
       <r>   -42.3574     0.0000   222.0000 </r>
       <r>   -42.1008     0.0000   222.0000 </r>
       <r>   -41.8443     0.0000   222.0000 </r>
       <r>   -41.5878     0.0000   222.0000 </r>
       <r>   -41.3312     0.0000   222.0000 </r>
       <r>   -41.0747     0.0000   222.0000 </r>
       <r>   -40.8182     0.0000   222.0000 </r>
       <r>   -40.5616     0.0000   222.0000 </r>
       <r>   -40.3051     0.0000   222.0000 </r>
       <r>   -40.0486     0.0000   222.0000 </r>
       <r>   -39.7921     0.0000   222.0000 </r>
       <r>   -39.5355     0.0000   222.0000 </r>
       <r>   -39.2790     0.0000   222.0000 </r>
       <r>   -39.0225     0.0000   222.0000 </r>
       <r>   -38.7659     0.0000   222.0000 </r>
       <r>   -38.5094     0.0000   222.0000 </r>
       <r>   -38.2529     0.0000   222.0000 </r>
       <r>   -37.9963     0.0000   222.0000 </r>
       <r>   -37.7398     0.0000   222.0000 </r>
       <r>   -37.4833     0.0000   222.0000 </r>
       <r>   -37.2268     0.0000   222.0000 </r>
       <r>   -36.9702     0.0000   222.0000 </r>
       <r>   -36.7137     0.0000   222.0000 </r>
       <r>   -36.4572     0.0000   222.0000 </r>
       <r>   -36.2006     0.0000   222.0000 </r>
       <r>   -35.9441     0.0000   222.0000 </r>
       <r>   -35.6876     0.0000   222.0000 </r>
       <r>   -35.4311     0.0000   222.0000 </r>
       <r>   -35.1745     0.0000   222.0000 </r>
       <r>   -34.9180     0.0000   222.0000 </r>
       <r>   -34.6615     0.0000   222.0000 </r>
       <r>   -34.4049     0.0000   222.0000 </r>
       <r>   -34.1484     0.0000   222.0000 </r>
       <r>   -33.8919     0.0000   222.0000 </r>
       <r>   -33.6353     0.0000   222.0000 </r>
       <r>   -33.3788     0.0000   222.0000 </r>
       <r>   -33.1223     0.0000   222.0000 </r>
       <r>   -32.8658     0.0000   222.0000 </r>
       <r>   -32.6092     0.0000   222.0000 </r>
       <r>   -32.3527     0.0000   222.0000 </r>
       <r>   -32.0962     0.0000   222.0000 </r>
       <r>   -31.8396     0.0000   222.0000 </r>
       <r>   -31.5831     0.0000   222.0000 </r>
       <r>   -31.3266     0.0000   222.0000 </r>
       <r>   -31.0700     0.0000   222.0000 </r>
       <r>   -30.8135     0.0000   222.0000 </r>
       <r>   -30.5570     0.0000   222.0000 </r>
       <r>   -30.3005     0.0000   222.0000 </r>
       <r>   -30.0439     0.0000   222.0000 </r>
       <r>   -29.7874     0.0000   222.0000 </r>
       <r>   -29.5309     0.0000   222.0000 </r>
       <r>   -29.2743     0.0000   222.0000 </r>
       <r>   -29.0178     0.0000   222.0000 </r>
       <r>   -28.7613     0.0000   222.0000 </r>
       <r>   -28.5048     0.0000   222.0000 </r>
       <r>   -28.2482     0.0000   222.0000 </r>
       <r>   -27.9917     0.0000   222.0000 </r>
       <r>   -27.7352     0.0000   222.0000 </r>
       <r>   -27.4786     0.0000   222.0000 </r>
       <r>   -27.2221     0.0000   222.0000 </r>
       <r>   -26.9656     0.0000   222.0000 </r>
       <r>   -26.7090     0.0000   222.0000 </r>
       <r>   -26.4525     0.0000   222.0000 </r>
       <r>   -26.1960     0.0000   222.0000 </r>
       <r>   -25.9395     0.0000   222.0000 </r>
       <r>   -25.6829     0.0000   222.0000 </r>
       <r>   -25.4264     0.0000   222.0000 </r>
       <r>   -25.1699     0.0000   222.0000 </r>
       <r>   -24.9133     0.0000   222.0000 </r>
       <r>   -24.6568     0.0000   222.0000 </r>
       <r>   -24.4003     0.0000   222.0000 </r>
       <r>   -24.1437     0.0000   222.0000 </r>
       <r>   -23.8872     0.0000   222.0000 </r>
       <r>   -23.6307     0.0000   222.0000 </r>
       <r>   -23.3742     0.0000   222.0000 </r>
       <r>   -23.1176     0.0000   222.0000 </r>
       <r>   -22.8611     0.0000   222.0000 </r>
       <r>   -22.6046     0.0000   222.0000 </r>
       <r>   -22.3480     0.0000   222.0000 </r>
       <r>   -22.0915     0.0000   222.0000 </r>
       <r>   -21.8350     0.0000   222.0000 </r>
       <r>   -21.5785     0.0000   222.0000 </r>
       <r>   -21.3219     0.0000   222.0000 </r>
       <r>   -21.0654     0.0000   222.0000 </r>
       <r>   -20.8089     0.0000   222.0000 </r>
       <r>   -20.5523     0.0000   222.0000 </r>
       <r>   -20.2958     0.0000   222.0000 </r>
       <r>   -20.0393     0.0000   222.0000 </r>
       <r>   -19.7827     0.0000   222.0000 </r>
       <r>   -19.5262     0.0000   222.0000 </r>
       <r>   -19.2697     0.0000   222.0000 </r>
       <r>   -19.0132     0.0000   222.0000 </r>
       <r>   -18.7566     0.0000   222.0000 </r>
       <r>   -18.5001     0.0000   222.0000 </r>
       <r>   -18.2436     0.0000   222.0000 </r>
       <r>   -17.9870     0.0000   222.0000 </r>
       <r>   -17.7305     0.0000   222.0000 </r>
       <r>   -17.4740     0.0000   222.0000 </r>
       <r>   -17.2174     0.0000   222.0000 </r>
       <r>   -16.9609     0.0000   222.0000 </r>
       <r>   -16.7044     0.0000   222.0000 </r>
       <r>   -16.4479     0.0000   222.0000 </r>
       <r>   -16.1913     0.0000   222.0000 </r>
       <r>   -15.9348     0.0001   222.0000 </r>
       <r>   -15.6783     0.0779   222.0200 </r>
       <r>   -15.4217     2.3809   222.6308 </r>
       <r>   -15.1652     8.2436   224.7455 </r>
       <r>   -14.9087    10.8736   227.5349 </r>
       <r>   -14.6522     9.4500   229.9591 </r>
       <r>   -14.3956    18.5752   234.7242 </r>
       <r>   -14.1391    25.3511   241.2275 </r>
       <r>   -13.8826    31.9255   249.4173 </r>
       <r>   -13.6260    33.8327   258.0965 </r>
       <r>   -13.3695    16.7458   262.3922 </r>
       <r>   -13.1130    17.7749   266.9520 </r>
       <r>   -12.8564    27.5866   274.0288 </r>
       <r>   -12.5999    31.3541   282.0721 </r>
       <r>   -12.3434    21.6254   287.6196 </r>
       <r>   -12.0869    12.8528   290.9167 </r>
       <r>   -11.8303    13.1436   294.2885 </r>
       <r>   -11.5738     6.3366   295.9140 </r>
       <r>   -11.3173     0.3343   295.9997 </r>
       <r>   -11.0607     0.0010   296.0000 </r>
       <r>   -10.8042     0.0000   296.0000 </r>
       <r>   -10.5477     0.0000   296.0000 </r>
       <r>   -10.2911     0.0000   296.0000 </r>
       <r>   -10.0346     0.0000   296.0000 </r>
       <r>    -9.7781     0.0000   296.0000 </r>
       <r>    -9.5216     0.0000   296.0000 </r>
       <r>    -9.2650     0.0000   296.0000 </r>
       <r>    -9.0085     0.0000   296.0000 </r>
       <r>    -8.7520     0.0000   296.0000 </r>
       <r>    -8.4954     0.0000   296.0000 </r>
       <r>    -8.2389     0.0000   296.0000 </r>
       <r>    -7.9824     0.0000   296.0000 </r>
       <r>    -7.7259     0.0001   296.0000 </r>
       <r>    -7.4693     0.0574   296.0147 </r>
       <r>    -7.2128     3.8707   297.0077 </r>
       <r>    -6.9563    22.4383   302.7638 </r>
       <r>    -6.6997    20.6053   308.0497 </r>
       <r>    -6.4432    34.2744   316.8421 </r>
       <r>    -6.1867    41.6577   327.5285 </r>
       <r>    -5.9301    45.0347   339.0812 </r>
       <r>    -5.6736    49.4850   351.7756 </r>
       <r>    -5.4171    52.6147   365.2728 </r>
       <r>    -5.1606    41.6618   375.9603 </r>
       <r>    -4.9040    37.9864   385.7050 </r>
       <r>    -4.6475    55.6747   399.9872 </r>
       <r>    -4.3910    57.6274   414.7703 </r>
       <r>    -4.1344    55.5483   429.0201 </r>
       <r>    -3.8779    69.3410   446.8081 </r>
       <r>    -3.6214    63.1925   463.0189 </r>
       <r>    -3.3648    60.5020   478.5394 </r>
       <r>    -3.1083    65.4188   495.3213 </r>
       <r>    -2.8518    66.9119   512.4861 </r>
       <r>    -2.5953    74.4194   531.5769 </r>
       <r>    -2.3387   108.9127   559.5163 </r>
       <r>    -2.0822   142.9398   596.1845 </r>
       <r>    -1.8257   169.4885   639.6634 </r>
       <r>    -1.5691   164.5363   681.8718 </r>
       <r>    -1.3126   139.9337   717.7690 </r>
       <r>    -1.0561   118.8267   748.2515 </r>
       <r>    -0.7995   113.2393   777.3008 </r>
       <r>    -0.5430    91.4769   800.7673 </r>
       <r>    -0.2865    70.9387   818.9652 </r>
       <r>    -0.0300    59.7739   834.2990 </r>
       <r>     0.2266    54.8138   848.3603 </r>
       <r>     0.4831    54.8333   862.4267 </r>
       <r>     0.7396    60.3470   877.9075 </r>
       <r>     0.9962    52.0720   891.2655 </r>
       <r>     1.2527    16.9434   895.6120 </r>
       <r>     1.5092     3.2009   896.4331 </r>
       <r>     1.7657     5.1454   897.7531 </r>
       <r>     2.0223     4.7607   898.9744 </r>
       <r>     2.2788    10.5922   901.6916 </r>
       <r>     2.5353    17.2200   906.1090 </r>
       <r>     2.7919    12.4242   909.2962 </r>
       <r>     3.0484     6.3696   910.9302 </r>
       <r>     3.3049     5.0746   912.2320 </r>
       <r>     3.5615     9.5255   914.6755 </r>
       <r>     3.8180    16.0718   918.7984 </r>
       <r>     4.0745    26.7072   925.6496 </r>
       <r>     4.3310    33.1855   934.1627 </r>
       <r>     4.5876    30.7719   942.0566 </r>
       <r>     4.8441    32.9407   950.5068 </r>
       <r>     5.1006    31.7851   958.6606 </r>
       <r>     5.3572    40.6484   969.0882 </r>
       <r>     5.6137    24.6385   975.4087 </r>
       <r>     5.8702     2.2868   975.9953 </r>
       <r>     6.1268     0.0183   976.0000 </r>
       <r>     6.3833     0.0000   976.0000 </r>
       <r>     6.6398     0.0000   976.0000 </r>
       <r>     6.8963     0.0000   976.0000 </r>
       <r>     7.1529     0.0000   976.0000 </r>
       <r>     7.4094     0.0000   976.0000 </r>
       <r>     7.6659     0.0000   976.0000 </r>
       <r>     7.9225     0.0000   976.0000 </r>
       <r>     8.1790     0.0000   976.0000 </r>
       <r>     8.4355     0.0000   976.0000 </r>
       <r>     8.6920     0.0000   976.0000 </r>
       <r>     8.9486     0.0000   976.0000 </r>
      </set>
     </set>
    </array>
   </total>
  </dos>
 </calculation>
 <structure name="finalpos" >
  <crystal>
   <varray name="basis" >
    <v>      16.88469405       0.00000000       0.00000000 </v>
    <v>       0.00000000       9.57841000       0.00000000 </v>
    <v>       0.00000000       0.00000000      16.54803255 </v>
   </varray>
   <i name="volume">   2676.28885249 </i>
   <varray name="rec_basis" >
    <v>       0.05922524       0.00000000       0.00000000 </v>
    <v>       0.00000000       0.10440146       0.00000000 </v>
    <v>       0.00000000       0.00000000       0.06043014 </v>
   </varray>
  </crystal>
  <varray name="positions" >
   <v>       0.78004630       0.14529696       0.11782363 </v>
   <v>       0.81461426       0.14529696       0.30422304 </v>
   <v>       0.26276233       0.64529696       0.02462392 </v>
   <v>       0.29733028       0.64529696       0.21102334 </v>
   <v>       0.43519032       0.14529696       0.05569049 </v>
   <v>       0.46975828       0.14529696       0.24208990 </v>
   <v>       0.95247430       0.64529696       0.14889020 </v>
   <v>       0.98704225       0.64529696       0.33528961 </v>
   <v>       0.12490229       0.14529696       0.17995677 </v>
   <v>       0.15947025       0.14529696       0.36635618 </v>
   <v>       0.60761831       0.64529696       0.08675706 </v>
   <v>       0.64218627       0.64529696       0.27315647 </v>
   <v>       0.90758277       0.01319396       0.09319971 </v>
   <v>       0.94215073       0.01319396       0.27959912 </v>
   <v>       0.39029880       0.51319396       0.00000000 </v>
   <v>       0.42486675       0.51319396       0.18639941 </v>
   <v>       0.45943471       0.51319396       0.37279883 </v>
   <v>       0.56272679       0.01319396       0.03106657 </v>
   <v>       0.59729475       0.01319396       0.21746598 </v>
   <v>       0.08001077       0.51319396       0.12426628 </v>
   <v>       0.11457872       0.51319396       0.31066569 </v>
   <v>       0.25243876       0.01319396       0.15533284 </v>
   <v>       0.28700672       0.01319396       0.34173226 </v>
   <v>       0.73515478       0.51319396       0.06213314 </v>
   <v>       0.76972274       0.51319396       0.24853255 </v>
   <v>       0.90758277       0.27739996       0.09319971 </v>
   <v>       0.94215073       0.27739996       0.27959912 </v>
   <v>       0.39029880       0.77739996       0.00000000 </v>
   <v>       0.42486675       0.77739996       0.18639941 </v>
   <v>       0.56272679       0.27739996       0.03106657 </v>
   <v>       0.59729475       0.27739996       0.21746598 </v>
   <v>       0.08001077       0.77739996       0.12426628 </v>
   <v>       0.11457872       0.77739996       0.31066569 </v>
   <v>       0.25243876       0.27739996       0.15533284 </v>
   <v>       0.28700672       0.27739996       0.34173226 </v>
   <v>       0.73515478       0.77739996       0.06213314 </v>
   <v>       0.76972274       0.77739996       0.24853255 </v>
   <v>       0.02602916       0.14529696       0.36463199 </v>
   <v>       0.99146120       0.14529696       0.17823257 </v>
   <v>       0.47417722       0.64529696       0.08503287 </v>
   <v>       0.50874518       0.64529696       0.27143228 </v>
   <v>       0.64660522       0.14529696       0.11609943 </v>
   <v>       0.68117317       0.14529696       0.30249885 </v>
   <v>       0.12932124       0.64529696       0.02289973 </v>
   <v>       0.16388920       0.64529696       0.20929914 </v>
   <v>       0.19845715       0.64529696       0.39569855 </v>
   <v>       0.30174923       0.14529696       0.05396630 </v>
   <v>       0.33631719       0.14529696       0.24036571 </v>
   <v>       0.81903321       0.64529696       0.14716600 </v>
   <v>       0.85360117       0.64529696       0.33356542 </v>
   <v>       0.79449310       0.31351196       0.02318834 </v>
   <v>       0.82906105       0.31351196       0.20958775 </v>
   <v>       0.31177707       0.81351196       0.11638804 </v>
   <v>       0.34634503       0.81351196       0.30278746 </v>
   <v>       0.48420507       0.31351196       0.14745461 </v>
   <v>       0.51877302       0.31351196       0.33385403 </v>
   <v>       0.00148905       0.81351196       0.24065432 </v>
   <v>       0.96692109       0.81351196       0.05425490 </v>
   <v>       0.13934908       0.31351196       0.08532147 </v>
   <v>       0.17391704       0.31351196       0.27172089 </v>
   <v>       0.65663306       0.81351196       0.17852118 </v>
   <v>       0.69120102       0.81351196       0.36492059 </v>
   <v>       0.31177707       0.47708196       0.11638804 </v>
   <v>       0.34634503       0.47708196       0.30278746 </v>
   <v>       0.79449310       0.97708196       0.02318834 </v>
   <v>       0.82906105       0.97708196       0.20958775 </v>
   <v>       0.00148905       0.47708196       0.24065432 </v>
   <v>       0.96692109       0.47708196       0.05425490 </v>
   <v>       0.48420507       0.97708196       0.14745461 </v>
   <v>       0.51877302       0.97708196       0.33385403 </v>
   <v>       0.65663306       0.47708196       0.17852118 </v>
   <v>       0.69120102       0.47708196       0.36492059 </v>
   <v>       0.13934908       0.97708196       0.08532147 </v>
   <v>       0.17391704       0.97708196       0.27172089 </v>
  </varray>
 </structure>
</modeling>
