LAMMPS (5 Jun 2019)
OMP_NUM_THREADS environment is not set. Defaulting to 1 thread. (../comm.cpp:88)
  using 1 OpenMP thread(s) per MPI task
Reading data file ...
  triclinic box = (0 0 0) to (16.8847 9.57841 16.1739) with tilt (0 0 0)
  1 by 1 by 1 MPI processor grid
  reading atoms ...
  72 atoms
  read_data CPU = 0.000807382 secs
29 atoms in group bulk
WARNING: Using 'neigh_modify every 1 delay 0 check yes' setting during minimization (../min.cpp:168)
Neighbor list info ...
  update every 1 steps, delay 0 steps, check yes
  max neighbors/atom: 2000, page size: 100000
  master list distance cutoff = 8.5
  ghost atom cutoff = 8.5
  binsize = 4.25, bins = 4 3 4
  1 neighbor lists, perpetual/occasional/extra = 1 0 0
  (1) pair eam/alloy, perpetual
      attributes: half, newton on
      pair build: half/bin/newton/tri
      stencil: half/bin/3d/newton/tri
      bin: standard
Setting up cg style minimization ...
  Unit style    : metal
  Current step  : 0
Per MPI rank memory allocation (min/avg/max) = 4.105 | 4.105 | 4.105 Mbytes
Step Temp E_pair E_mol TotEng Press 
       0            0   -295.36037            0   -295.36037   -102881.78 
     109            0   -329.30583            0   -329.30583    -9297.528 
Loop time of 0.0529865 on 1 procs for 109 steps with 72 atoms

99.8% CPU use with 1 MPI tasks x 1 OpenMP threads

Minimization stats:
  Stopping criterion = energy tolerance
  Energy initial, next-to-last, final = 
        -295.360373326     -329.303342243     -329.305829667
  Force two-norm initial, final = 14.9594 0.202252
  Force max component initial, final = 3.04042 0.066961
  Final line search alpha, max atom move = 0.407479 0.0272852
  Iterations, force evaluations = 109 163

MPI task timing breakdown:
Section |  min time  |  avg time  |  max time  |%varavg| %total
---------------------------------------------------------------
Pair    | 0.048299   | 0.048299   | 0.048299   |   0.0 | 91.15
Neigh   | 0.002464   | 0.002464   | 0.002464   |   0.0 |  4.65
Comm    | 0.0010911  | 0.0010911  | 0.0010911  |   0.0 |  2.06
Output  | 0          | 0          | 0          |   0.0 |  0.00
Modify  | 8.5574e-05 | 8.5574e-05 | 8.5574e-05 |   0.0 |  0.16
Other   |            | 0.001047   |            |       |  1.98

Nlocal:    72 ave 72 max 72 min
Histogram: 1 0 0 0 0 0 0 0 0 0
Nghost:    716 ave 716 max 716 min
Histogram: 1 0 0 0 0 0 0 0 0 0
Neighs:    3376 ave 3376 max 3376 min
Histogram: 1 0 0 0 0 0 0 0 0 0

Total # of neighbors = 3376
Ave neighs/atom = 46.8889
Neighbor list builds = 6
Dangerous builds = 0
System init for write_data ...
Total wall time: 0:00:00
