       N       E                     dE             d eps       ncg     rms          rms(c)
DAV:   1     0.147296362322E+05    0.14730E+05   -0.68096E+05  1508   0.177E+03
DAV:   2     0.118162638496E+04   -0.13548E+05   -0.13072E+05  1300   0.578E+02
DAV:   3    -0.407522843249E+03   -0.15891E+04   -0.14798E+04  1438   0.212E+02
DAV:   4    -0.534426215901E+03   -0.12690E+03   -0.12428E+03  1496   0.518E+01
DAV:   5    -0.539061503508E+03   -0.46353E+01   -0.46208E+01  1640   0.107E+01    0.104E+02
DAV:   6    -0.736714934962E+03   -0.19765E+03   -0.11659E+03  1632   0.140E+02    0.220E+02
DAV:   7    -0.576036636088E+03    0.16068E+03   -0.36969E+02  1560   0.887E+01    0.125E+02
DAV:   8    -0.654707314309E+03   -0.78671E+02   -0.20185E+02  1792   0.101E+02    0.190E+02
DAV:   9    -0.563223000571E+03    0.91484E+02   -0.19422E+02  1728   0.729E+01    0.140E+02
DAV:  10    -0.612082779081E+03   -0.48860E+02   -0.25713E+02  1600   0.103E+02    0.169E+02
DAV:  11    -0.601446267697E+03    0.10637E+02   -0.13174E+02  1776   0.464E+01    0.170E+02
DAV:  12    -0.562253251572E+03    0.39193E+02   -0.85885E+01  1728   0.465E+01    0.135E+02
DAV:  13    -0.630444545235E+03   -0.68191E+02   -0.15796E+02  1800   0.596E+01    0.174E+02
DAV:  14    -0.650170590675E+03   -0.19726E+02   -0.15988E+02  1792   0.510E+01    0.164E+02
DAV:  15    -0.514344149928E+03    0.13583E+03   -0.64761E+01  1688   0.406E+01    0.780E+01
DAV:  16    -0.511547477451E+03    0.27967E+01   -0.75712E+01  1736   0.479E+01    0.986E+01
DAV:  17    -0.493995628612E+03    0.17552E+02   -0.44220E+01  1712   0.260E+01    0.599E+01
DAV:  18    -0.489500724767E+03    0.44949E+01   -0.27254E+01  1704   0.261E+01    0.639E+01
DAV:  19    -0.483594102237E+03    0.59066E+01   -0.11912E+01  1712   0.114E+01    0.348E+01
DAV:  20    -0.480182393329E+03    0.34117E+01   -0.57855E+00  1728   0.118E+01    0.289E+01
DAV:  21    -0.479208517563E+03    0.97388E+00   -0.23270E+00  1736   0.753E+00    0.261E+01
DAV:  22    -0.478627030177E+03    0.58149E+00   -0.15388E+00  1632   0.682E+00    0.237E+01
DAV:  23    -0.477596871083E+03    0.10302E+01   -0.25807E+00  1744   0.988E+00    0.197E+01
DAV:  24    -0.476571739007E+03    0.10251E+01   -0.24938E+00  1728   0.896E+00    0.152E+01
DAV:  25    -0.475804001510E+03    0.76774E+00   -0.16478E+00  1784   0.628E+00    0.107E+01
DAV:  26    -0.475614291969E+03    0.18971E+00   -0.94910E-01  1736   0.480E+00    0.946E+00
DAV:  27    -0.475483682149E+03    0.13061E+00   -0.72141E-01  1720   0.381E+00    0.798E+00
DAV:  28    -0.475418168891E+03    0.65513E-01   -0.52402E-01  1648   0.367E+00    0.736E+00
DAV:  29    -0.475311296754E+03    0.10687E+00   -0.27221E-01  1664   0.252E+00    0.573E+00
DAV:  30    -0.475318569408E+03   -0.72727E-02   -0.26693E-01  1704   0.296E+00    0.575E+00
DAV:  31    -0.475272804543E+03    0.45765E-01   -0.26145E-01  1824   0.298E+00    0.473E+00
DAV:  32    -0.475249291416E+03    0.23513E-01   -0.16205E-01  1632   0.238E+00    0.417E+00
DAV:  33    -0.475203486647E+03    0.45805E-01   -0.13555E-01  1632   0.200E+00    0.278E+00
DAV:  34    -0.475171744217E+03    0.31742E-01   -0.98273E-02  1728   0.132E+00    0.199E+00
DAV:  35    -0.475166236541E+03    0.55077E-02   -0.34702E-02  1720   0.113E+00    0.177E+00
DAV:  36    -0.475167022158E+03   -0.78562E-03   -0.21045E-02  1688   0.700E-01    0.176E+00
DAV:  37    -0.475160968781E+03    0.60534E-02   -0.28080E-02  1832   0.880E-01    0.160E+00
DAV:  38    -0.475155962501E+03    0.50063E-02   -0.26410E-02  1784   0.835E-01    0.119E+00
DAV:  39    -0.475152903775E+03    0.30587E-02   -0.12295E-02  1696   0.485E-01    0.892E-01
DAV:  40    -0.475152188061E+03    0.71571E-03   -0.57065E-03  1608   0.460E-01    0.803E-01
DAV:  41    -0.475151136298E+03    0.10518E-02   -0.35817E-03  1696   0.353E-01    0.626E-01
DAV:  42    -0.475150612599E+03    0.52370E-03   -0.20637E-03  1616   0.294E-01    0.574E-01
DAV:  43    -0.475149266797E+03    0.13458E-02   -0.26731E-03  1688   0.251E-01    0.426E-01
DAV:  44    -0.475149238610E+03    0.28186E-04   -0.11539E-03  1464   0.178E-01    0.390E-01
DAV:  45    -0.475149043472E+03    0.19514E-03   -0.59572E-04  1160   0.143E-01    0.306E-01
DAV:  46    -0.475149026763E+03    0.16709E-04   -0.20283E-04   848   0.985E-02
   1 F= -.47514903E+03 E0= -.47448197E+03  d E =-.133412E+01
