       N       E                     dE             d eps       ncg     rms          rms(c)
DAV:   1     0.131540894314E+05    0.13154E+05   -0.67804E+05  1552   0.164E+03
DAV:   2     0.856232207779E+03   -0.12298E+05   -0.11873E+05  1336   0.530E+02
DAV:   3    -0.447342887427E+03   -0.13036E+04   -0.12220E+04  1464   0.183E+02
DAV:   4    -0.535311201383E+03   -0.87968E+02   -0.86717E+02  1488   0.419E+01
DAV:   5    -0.538740462881E+03   -0.34293E+01   -0.34233E+01  1648   0.885E+00    0.951E+01
DAV:   6    -0.640554229021E+03   -0.10181E+03   -0.12600E+03  1552   0.115E+02    0.178E+02
DAV:   7    -0.503377040529E+03    0.13718E+03   -0.25027E+02  1504   0.660E+01    0.744E+01
DAV:   8    -0.689999758531E+03   -0.18662E+03   -0.19110E+02  1672   0.100E+02    0.203E+02
DAV:   9    -0.550926703251E+03    0.13907E+03   -0.16534E+02  1632   0.548E+01    0.151E+02
DAV:  10    -0.515864057638E+03    0.35063E+02   -0.13034E+02  1728   0.455E+01    0.724E+01
DAV:  11    -0.504351818961E+03    0.11512E+02   -0.66693E+01  1704   0.514E+01    0.770E+01
DAV:  12    -0.493302070407E+03    0.11050E+02   -0.68173E+01  1784   0.450E+01    0.481E+01
DAV:  13    -0.487900318431E+03    0.54018E+01   -0.29107E+01  1720   0.293E+01    0.417E+01
DAV:  14    -0.480667575871E+03    0.72327E+01   -0.13773E+01  1712   0.217E+01    0.308E+01
DAV:  15    -0.477738903480E+03    0.29287E+01   -0.54182E+00  1752   0.117E+01    0.259E+01
DAV:  16    -0.476593840320E+03    0.11451E+01   -0.22920E+00  1696   0.722E+00    0.233E+01
DAV:  17    -0.475632935540E+03    0.96090E+00   -0.81686E-01  1704   0.440E+00    0.210E+01
DAV:  18    -0.474819180207E+03    0.81376E+00   -0.47910E-01  1736   0.406E+00    0.193E+01
DAV:  19    -0.473511301718E+03    0.13079E+01   -0.95836E-01  1880   0.587E+00    0.154E+01
DAV:  20    -0.472794524941E+03    0.71678E+00   -0.87782E-01  1736   0.494E+00    0.110E+01
DAV:  21    -0.472532844803E+03    0.26168E+00   -0.31869E-01  1712   0.246E+00    0.862E+00
DAV:  22    -0.472581016185E+03   -0.48171E-01   -0.48500E-01  1560   0.355E+00    0.922E+00
DAV:  23    -0.472476232314E+03    0.10478E+00   -0.21095E-01  1576   0.215E+00    0.787E+00
DAV:  24    -0.472432128040E+03    0.44104E-01   -0.20185E-01  1720   0.247E+00    0.766E+00
DAV:  25    -0.472317055232E+03    0.11507E+00   -0.39590E-01  1792   0.287E+00    0.491E+00
DAV:  26    -0.472333018074E+03   -0.15963E-01   -0.26586E-01  1736   0.298E+00    0.485E+00
DAV:  27    -0.472263473137E+03    0.69545E-01   -0.16146E-01  1696   0.224E+00    0.267E+00
DAV:  28    -0.472249491730E+03    0.13981E-01   -0.58268E-02  1640   0.109E+00    0.169E+00
DAV:  29    -0.472258921739E+03   -0.94300E-02   -0.38248E-02  1664   0.109E+00    0.202E+00
DAV:  30    -0.472246786677E+03    0.12135E-01   -0.27451E-02  1584   0.950E-01    0.114E+00
DAV:  31    -0.472250455694E+03   -0.36690E-02   -0.14382E-02  1720   0.698E-01    0.135E+00
DAV:  32    -0.472245589370E+03    0.48663E-02   -0.68109E-03  1632   0.520E-01    0.869E-01
DAV:  33    -0.472244959171E+03    0.63020E-03   -0.26596E-03  1616   0.257E-01    0.652E-01
DAV:  34    -0.472245050129E+03   -0.90959E-04   -0.16035E-03  1304   0.199E-01    0.536E-01
DAV:  35    -0.472245689662E+03   -0.63953E-03   -0.14876E-03  1368   0.194E-01    0.653E-01
DAV:  36    -0.472245551195E+03    0.13847E-03   -0.77393E-04  1168   0.151E-01    0.438E-01
DAV:  37    -0.472246241757E+03   -0.69056E-03   -0.83359E-04  1256   0.191E-01    0.481E-01
DAV:  38    -0.472246257226E+03   -0.15469E-04   -0.12769E-03  1224   0.154E-01    0.193E-01
DAV:  39    -0.472246499468E+03   -0.24224E-03   -0.35119E-04   952   0.981E-02    0.129E-01
DAV:  40    -0.472246899479E+03   -0.40001E-03   -0.16244E-04   800   0.608E-02    0.101E-01
DAV:  41    -0.472247262014E+03   -0.36253E-03   -0.12172E-04   800   0.651E-02    0.958E-02
DAV:  42    -0.472248390385E+03   -0.11284E-02   -0.17197E-04   952   0.516E-02    0.805E-02
DAV:  43    -0.472248935668E+03   -0.54528E-03   -0.10774E-04   800   0.598E-02    0.104E-01
DAV:  44    -0.472249849587E+03   -0.91392E-03   -0.11272E-04   888   0.416E-02    0.599E-02
DAV:  45    -0.472250134365E+03   -0.28478E-03   -0.50163E-05   816   0.360E-02    0.723E-02
DAV:  46    -0.472250585214E+03   -0.45085E-03   -0.58121E-05   840   0.281E-02    0.517E-02
DAV:  47    -0.472250879223E+03   -0.29401E-03   -0.37251E-05   800   0.211E-02    0.623E-02
DAV:  48    -0.472250997993E+03   -0.11877E-03   -0.27895E-05   800   0.234E-02    0.351E-02
DAV:  49    -0.472251141489E+03   -0.14350E-03   -0.21907E-05   792   0.118E-02    0.289E-02
DAV:  50    -0.472251163367E+03   -0.21878E-04   -0.11150E-05   800   0.111E-02
   1 F= -.47225116E+03 E0= -.47157831E+03  d E =-.134572E+01
