  96  96   0   0
  0.2109074E+02  0.6278560E-09  0.1125646E-08  0.2915682E-08  0.5000000E-15
  1.000000000000000E-004
  CAR 
 "Millerite NiS"                         
     13.03552851    -65.37289203  301      3.51951576      1.00000000
    -65.373  0.0000E+00  0.0000E+00
    -65.112  0.0000E+00  0.0000E+00
    -64.850  0.0000E+00  0.0000E+00
    -64.589  0.0000E+00  0.0000E+00
    -64.327  0.0000E+00  0.0000E+00
    -64.066  0.0000E+00  0.0000E+00
    -63.805  0.0000E+00  0.0000E+00
    -63.543  0.0000E+00  0.0000E+00
    -63.282  0.0000E+00  0.0000E+00
    -63.021  0.0000E+00  0.0000E+00
    -62.759  0.1021E-09  0.2668E-10
    -62.498  0.6644E-05  0.1736E-05
    -62.237  0.1616E-01  0.4225E-02
    -61.975  0.1662E+01  0.4385E+00
    -61.714  0.9619E+01  0.2953E+01
    -61.452  0.9036E+01  0.5314E+01
    -61.191  0.3822E+02  0.1530E+02
    -60.930  0.2359E+03  0.7697E+02
    -60.668  0.3838E+03  0.1773E+03
    -60.407  0.2677E+03  0.2473E+03
    -60.146  0.1055E+03  0.2748E+03
    -59.884  0.3150E+02  0.2831E+03
    -59.623  0.1529E+02  0.2871E+03
    -59.362  0.3457E+01  0.2880E+03
    -59.100  0.7106E-01  0.2880E+03
    -58.839  0.7029E-04  0.2880E+03
    -58.577  0.2750E-08  0.2880E+03
    -58.316  0.3398E-14  0.2880E+03
    -58.055  0.0000E+00  0.2880E+03
    -57.793  0.0000E+00  0.2880E+03
    -57.532  0.0000E+00  0.2880E+03
    -57.271  0.0000E+00  0.2880E+03
    -57.009  0.0000E+00  0.2880E+03
    -56.748  0.0000E+00  0.2880E+03
    -56.487  0.0000E+00  0.2880E+03
    -56.225  0.0000E+00  0.2880E+03
    -55.964  0.0000E+00  0.2880E+03
    -55.703  0.0000E+00  0.2880E+03
    -55.441  0.0000E+00  0.2880E+03
    -55.180  0.0000E+00  0.2880E+03
    -54.918  0.0000E+00  0.2880E+03
    -54.657  0.0000E+00  0.2880E+03
    -54.396  0.0000E+00  0.2880E+03
    -54.134  0.0000E+00  0.2880E+03
    -53.873  0.0000E+00  0.2880E+03
    -53.612  0.0000E+00  0.2880E+03
    -53.350  0.0000E+00  0.2880E+03
    -53.089  0.0000E+00  0.2880E+03
    -52.828  0.0000E+00  0.2880E+03
    -52.566  0.0000E+00  0.2880E+03
    -52.305  0.0000E+00  0.2880E+03
    -52.043  0.0000E+00  0.2880E+03
    -51.782  0.0000E+00  0.2880E+03
    -51.521  0.0000E+00  0.2880E+03
    -51.259  0.0000E+00  0.2880E+03
    -50.998  0.0000E+00  0.2880E+03
    -50.737  0.0000E+00  0.2880E+03
    -50.475  0.0000E+00  0.2880E+03
    -50.214  0.0000E+00  0.2880E+03
    -49.953  0.0000E+00  0.2880E+03
    -49.691  0.0000E+00  0.2880E+03
    -49.430  0.0000E+00  0.2880E+03
    -49.168  0.0000E+00  0.2880E+03
    -48.907  0.0000E+00  0.2880E+03
    -48.646  0.0000E+00  0.2880E+03
    -48.384  0.0000E+00  0.2880E+03
    -48.123  0.0000E+00  0.2880E+03
    -47.862  0.0000E+00  0.2880E+03
    -47.600  0.0000E+00  0.2880E+03
    -47.339  0.0000E+00  0.2880E+03
    -47.078  0.0000E+00  0.2880E+03
    -46.816  0.0000E+00  0.2880E+03
    -46.555  0.0000E+00  0.2880E+03
    -46.294  0.0000E+00  0.2880E+03
    -46.032  0.0000E+00  0.2880E+03
    -45.771  0.0000E+00  0.2880E+03
    -45.509  0.0000E+00  0.2880E+03
    -45.248  0.0000E+00  0.2880E+03
    -44.987  0.0000E+00  0.2880E+03
    -44.725  0.0000E+00  0.2880E+03
    -44.464  0.0000E+00  0.2880E+03
    -44.203  0.0000E+00  0.2880E+03
    -43.941  0.0000E+00  0.2880E+03
    -43.680  0.0000E+00  0.2880E+03
    -43.419  0.0000E+00  0.2880E+03
    -43.157  0.0000E+00  0.2880E+03
    -42.896  0.0000E+00  0.2880E+03
    -42.634  0.0000E+00  0.2880E+03
    -42.373  0.0000E+00  0.2880E+03
    -42.112  0.0000E+00  0.2880E+03
    -41.850  0.0000E+00  0.2880E+03
    -41.589  0.0000E+00  0.2880E+03
    -41.328  0.0000E+00  0.2880E+03
    -41.066  0.0000E+00  0.2880E+03
    -40.805  0.0000E+00  0.2880E+03
    -40.544  0.0000E+00  0.2880E+03
    -40.282  0.0000E+00  0.2880E+03
    -40.021  0.0000E+00  0.2880E+03
    -39.759  0.0000E+00  0.2880E+03
    -39.498  0.0000E+00  0.2880E+03
    -39.237  0.0000E+00  0.2880E+03
    -38.975  0.0000E+00  0.2880E+03
    -38.714  0.0000E+00  0.2880E+03
    -38.453  0.0000E+00  0.2880E+03
    -38.191  0.0000E+00  0.2880E+03
    -37.930  0.0000E+00  0.2880E+03
    -37.669  0.0000E+00  0.2880E+03
    -37.407  0.0000E+00  0.2880E+03
    -37.146  0.0000E+00  0.2880E+03
    -36.884  0.0000E+00  0.2880E+03
    -36.623  0.0000E+00  0.2880E+03
    -36.362  0.0000E+00  0.2880E+03
    -36.100  0.0000E+00  0.2880E+03
    -35.839  0.0000E+00  0.2880E+03
    -35.578  0.0000E+00  0.2880E+03
    -35.316  0.0000E+00  0.2880E+03
    -35.055  0.0000E+00  0.2880E+03
    -34.794  0.0000E+00  0.2880E+03
    -34.532  0.0000E+00  0.2880E+03
    -34.271  0.0000E+00  0.2880E+03
    -34.010  0.0000E+00  0.2880E+03
    -33.748  0.0000E+00  0.2880E+03
    -33.487  0.0000E+00  0.2880E+03
    -33.225  0.0000E+00  0.2880E+03
    -32.964  0.0000E+00  0.2880E+03
    -32.703  0.0000E+00  0.2880E+03
    -32.441  0.0000E+00  0.2880E+03
    -32.180  0.0000E+00  0.2880E+03
    -31.919  0.0000E+00  0.2880E+03
    -31.657  0.0000E+00  0.2880E+03
    -31.396  0.0000E+00  0.2880E+03
    -31.135  0.0000E+00  0.2880E+03
    -30.873  0.0000E+00  0.2880E+03
    -30.612  0.0000E+00  0.2880E+03
    -30.350  0.0000E+00  0.2880E+03
    -30.089  0.0000E+00  0.2880E+03
    -29.828  0.0000E+00  0.2880E+03
    -29.566  0.0000E+00  0.2880E+03
    -29.305  0.0000E+00  0.2880E+03
    -29.044  0.0000E+00  0.2880E+03
    -28.782  0.0000E+00  0.2880E+03
    -28.521  0.0000E+00  0.2880E+03
    -28.260  0.0000E+00  0.2880E+03
    -27.998  0.0000E+00  0.2880E+03
    -27.737  0.0000E+00  0.2880E+03
    -27.475  0.0000E+00  0.2880E+03
    -27.214  0.0000E+00  0.2880E+03
    -26.953  0.0000E+00  0.2880E+03
    -26.691  0.0000E+00  0.2880E+03
    -26.430  0.0000E+00  0.2880E+03
    -26.169  0.0000E+00  0.2880E+03
    -25.907  0.0000E+00  0.2880E+03
    -25.646  0.0000E+00  0.2880E+03
    -25.385  0.0000E+00  0.2880E+03
    -25.123  0.0000E+00  0.2880E+03
    -24.862  0.0000E+00  0.2880E+03
    -24.601  0.0000E+00  0.2880E+03
    -24.339  0.0000E+00  0.2880E+03
    -24.078  0.0000E+00  0.2880E+03
    -23.816  0.0000E+00  0.2880E+03
    -23.555  0.0000E+00  0.2880E+03
    -23.294  0.0000E+00  0.2880E+03
    -23.032  0.0000E+00  0.2880E+03
    -22.771  0.0000E+00  0.2880E+03
    -22.510  0.0000E+00  0.2880E+03
    -22.248  0.0000E+00  0.2880E+03
    -21.987  0.0000E+00  0.2880E+03
    -21.726  0.0000E+00  0.2880E+03
    -21.464  0.0000E+00  0.2880E+03
    -21.203  0.0000E+00  0.2880E+03
    -20.941  0.0000E+00  0.2880E+03
    -20.680  0.0000E+00  0.2880E+03
    -20.419  0.0000E+00  0.2880E+03
    -20.157  0.0000E+00  0.2880E+03
    -19.896  0.0000E+00  0.2880E+03
    -19.635  0.0000E+00  0.2880E+03
    -19.373  0.0000E+00  0.2880E+03
    -19.112  0.0000E+00  0.2880E+03
    -18.851  0.0000E+00  0.2880E+03
    -18.589  0.0000E+00  0.2880E+03
    -18.328  0.0000E+00  0.2880E+03
    -18.066  0.0000E+00  0.2880E+03
    -17.805  0.0000E+00  0.2880E+03
    -17.544  0.0000E+00  0.2880E+03
    -17.282  0.0000E+00  0.2880E+03
    -17.021  0.0000E+00  0.2880E+03
    -16.760  0.0000E+00  0.2880E+03
    -16.498  0.0000E+00  0.2880E+03
    -16.237  0.0000E+00  0.2880E+03
    -15.976  0.0000E+00  0.2880E+03
    -15.714  0.0000E+00  0.2880E+03
    -15.453  0.0000E+00  0.2880E+03
    -15.192  0.0000E+00  0.2880E+03
    -14.930  0.0000E+00  0.2880E+03
    -14.669  0.0000E+00  0.2880E+03
    -14.407  0.0000E+00  0.2880E+03
    -14.146  0.2397E-09  0.2880E+03
    -13.885  0.1050E-04  0.2880E+03
    -13.623  0.1719E-01  0.2880E+03
    -13.362  0.1211E+01  0.2883E+03
    -13.101  0.5144E+01  0.2897E+03
    -12.839  0.5089E+01  0.2910E+03
    -12.578  0.7558E+01  0.2930E+03
    -12.317  0.1362E+02  0.2965E+03
    -12.055  0.1456E+02  0.3003E+03
    -11.794  0.1691E+02  0.3048E+03
    -11.532  0.2071E+02  0.3102E+03
    -11.271  0.2557E+02  0.3169E+03
    -11.010  0.3161E+02  0.3251E+03
    -10.748  0.4690E+02  0.3374E+03
    -10.487  0.4495E+02  0.3491E+03
    -10.226  0.4362E+02  0.3605E+03
     -9.964  0.4462E+02  0.3722E+03
     -9.703  0.2410E+02  0.3785E+03
     -9.442  0.6707E+01  0.3802E+03
     -9.180  0.7290E+01  0.3821E+03
     -8.919  0.6323E+01  0.3838E+03
     -8.657  0.7839E+00  0.3840E+03
     -8.396  0.6599E-02  0.3840E+03
     -8.135  0.2393E-05  0.3840E+03
     -7.873  0.3219E-10  0.3840E+03
     -7.612  0.0000E+00  0.3840E+03
     -7.351  0.0000E+00  0.3840E+03
     -7.089  0.0000E+00  0.3840E+03
     -6.828  0.0000E+00  0.3840E+03
     -6.567  0.0000E+00  0.3840E+03
     -6.305  0.5225E-13  0.3840E+03
     -6.044  0.1868E-07  0.3840E+03
     -5.782  0.2420E-03  0.3840E+03
     -5.521  0.1268E+00  0.3840E+03
     -5.260  0.3618E+01  0.3850E+03
     -4.998  0.1031E+02  0.3877E+03
     -4.737  0.1801E+02  0.3924E+03
     -4.476  0.3228E+02  0.4008E+03
     -4.214  0.2908E+02  0.4084E+03
     -3.953  0.3089E+02  0.4165E+03
     -3.692  0.4924E+02  0.4294E+03
     -3.430  0.6341E+02  0.4459E+03
     -3.169  0.4768E+02  0.4584E+03
     -2.908  0.3269E+02  0.4669E+03
     -2.646  0.4458E+02  0.4786E+03
     -2.385  0.4312E+02  0.4899E+03
     -2.123  0.5345E+02  0.5038E+03
     -1.862  0.6063E+02  0.5197E+03
     -1.601  0.7203E+02  0.5385E+03
     -1.339  0.8046E+02  0.5595E+03
     -1.078  0.9440E+02  0.5842E+03
     -0.817  0.1089E+03  0.6127E+03
     -0.555  0.7378E+02  0.6320E+03
     -0.294  0.4713E+02  0.6443E+03
     -0.033  0.6310E+02  0.6608E+03
      0.229  0.8165E+02  0.6821E+03
      0.490  0.8433E+02  0.7042E+03
      0.752  0.1154E+03  0.7343E+03
      1.013  0.1509E+03  0.7737E+03
      1.274  0.1350E+03  0.8090E+03
      1.536  0.1918E+03  0.8591E+03
      1.797  0.2357E+03  0.9208E+03
      2.058  0.1585E+03  0.9622E+03
      2.320  0.1293E+03  0.9960E+03
      2.581  0.8987E+02  0.1019E+04
      2.842  0.4363E+02  0.1031E+04
      3.104  0.2831E+02  0.1038E+04
      3.365  0.3651E+02  0.1048E+04
      3.627  0.6266E+02  0.1064E+04
      3.888  0.9956E+02  0.1090E+04
      4.149  0.8584E+02  0.1113E+04
      4.411  0.6686E+02  0.1130E+04
      4.672  0.3809E+02  0.1140E+04
      4.933  0.1747E+02  0.1145E+04
      5.195  0.1447E+02  0.1148E+04
      5.456  0.1035E+02  0.1151E+04
      5.717  0.5187E+01  0.1152E+04
      5.979  0.1260E+02  0.1156E+04
      6.240  0.1908E+02  0.1161E+04
      6.501  0.1857E+02  0.1166E+04
      6.763  0.1733E+02  0.1170E+04
      7.024  0.2085E+02  0.1176E+04
      7.286  0.2841E+02  0.1183E+04
      7.547  0.3322E+02  0.1192E+04
      7.808  0.3631E+02  0.1201E+04
      8.070  0.3728E+02  0.1211E+04
      8.331  0.4420E+02  0.1222E+04
      8.592  0.4249E+02  0.1234E+04
      8.854  0.4254E+02  0.1245E+04
      9.115  0.3652E+02  0.1254E+04
      9.376  0.3488E+02  0.1263E+04
      9.638  0.1625E+02  0.1268E+04
      9.899  0.1399E+01  0.1268E+04
     10.161  0.1087E-01  0.1268E+04
     10.422  0.4377E-05  0.1268E+04
     10.683  0.7002E-10  0.1268E+04
     10.945  0.0000E+00  0.1268E+04
     11.206  0.0000E+00  0.1268E+04
     11.467  0.0000E+00  0.1268E+04
     11.729  0.0000E+00  0.1268E+04
     11.990  0.0000E+00  0.1268E+04
     12.251  0.0000E+00  0.1268E+04
     12.513  0.0000E+00  0.1268E+04
     12.774  0.0000E+00  0.1268E+04
     13.036  0.0000E+00  0.1268E+04
