LAMMPS data file via write_data, version 5 Jun 2019, timestep = 60

72 atoms
2 atom types

0.0000000000000000e+00 1.0079732984900000e+01 xlo xhi
0.0000000000000000e+00 9.4251025535000004e+00 ylo yhi
0.0000000000000000e+00 2.0502009575999999e+01 zlo zhi
3.5732980426999998e+00 0.0000000000000000e+00 0.0000000000000000e+00 xy xz yz

Masses

1 58.71
2 32.06

Atoms # atomic

1 1 6.4580091940999953e+00 7.0816657522000002e+00 1.9426372258999995e+00 0 0 0
2 1 7.4357214876999995e+00 5.6653696065999997e+00 4.5681396205999993e+00 0 0 0
3 1 8.4134337948999995e+00 4.2490734703999999e+00 7.1936420153999991e+00 0 0 0
4 1 8.7130328993328412e+00 3.3352039609079220e+00 9.4647811081558846e+00 0 0 0
5 1 5.8674167596841382e+00 6.2206832772962217e-01 1.4593319069024531e+00 0 0 0
6 1 7.6926334116651072e+00 9.0241068974993496e-02 3.1719240299182401e+00 0 0 0
7 1 3.2106152470999962e+00 6.9186756063999999e+00 8.0688094735000000e+00 0 0 0
8 1 1.2312635938400000e+01 8.3349717519999995e+00 5.4433070786999993e+00 0 0 0
9 1 2.5588070506000000e+00 2.9957674706000001e+00 3.6929721625999994e+00 0 0 0
10 1 3.5365193478000001e+00 1.5794713344000000e+00 6.3184745573000001e+00 0 0 0
11 1 4.3396361228194795e+00 3.1205633986396697e-01 8.6660035537886184e+00 0 0 0
12 1 1.1624891491487981e+01 4.5000494581751997e+00 1.6730637012380536e+00 0 0 0
13 1 5.1381734699999948e-01 1.0909965632000000e+00 8.4317974299999996e+00 0 0 0
14 1 7.8075580963905180e+00 5.3680062286256627e+00 1.0417756181976181e+00 0 0 0
15 1 8.7219530442948212e+00 3.9743343820204373e+00 3.4682782130822445e+00 0 0 0
16 1 9.6158380345999994e+00 2.5072926994000002e+00 5.8062950352999998e+00 0 0 0
17 1 3.4353071931999977e+00 6.5931909810000002e+00 4.0559601190999999e+00 0 0 0
18 1 4.4130194867999988e+00 5.1768948353999997e+00 6.6814625138999997e+00 0 0 0
19 1 5.2173455899080183e+00 3.9387760958383589e+00 8.9231256955902953e+00 0 0 0
20 1 1.2631942488511473e+01 7.6242246515382490e+00 1.7833608785829025e+00 0 0 0
21 1 3.7612112902999990e+00 1.2539866996000000e+00 2.3056251823999996e+00 0 0 0
22 1 8.3122216301999998e+00 9.2627931168999993e+00 4.9311275771999998e+00 0 0 0
23 1 9.2899339374999990e+00 7.8464969807999978e+00 7.5566299719999996e+00 0 0 0
24 1 9.8977603630497413e+00 6.5956019715236689e+00 9.4795183574137436e+00 0 0 0
25 1 1.6319936418429428e+00 3.2558404052321355e+00 8.8878794853404077e+00 0 0 0
26 1 9.3931147588417669e+00 7.5038602366451608e+00 1.8291246872873876e+00 0 0 0
27 1 9.8405299722000006e+00 6.0395635483999994e+00 3.8744661407999996e+00 0 0 0
28 1 1.0818242269399994e+01 4.6232674121999997e+00 6.4999685355999990e+00 0 0 0
29 1 1.0956466572096784e+00 1.0164777408974592e+00 3.0942804964452448e+00 1 0 0
30 1 4.6377114243999955e+00 8.7091656844000003e+00 4.7496335989000000e+00 0 0 0
31 1 5.6154237316000000e+00 7.2928695481999997e+00 7.3751359936999998e+00 0 0 0
32 1 6.7916593641218554e+00 6.1363627922406625e+00 9.5950116896498407e+00 0 0 0
33 1 4.3730411692651208e+00 6.0773881950812525e+00 1.3827292643751012e+00 0 0 0
34 1 4.9636155250999998e+00 3.3699614123999999e+00 2.9992986622000002e+00 0 0 0
35 1 5.9413278288000004e+00 1.9536652668000001e+00 5.6248010570000000e+00 0 0 0
36 1 6.8772193452384558e+00 6.5343515679188602e-01 7.9774418749921265e+00 0 0 0
37 2 1.5798114468999982e+00 2.4701758255000001e+00 6.9932094083000003e+00 0 0 0
38 2 2.5189897115951654e+00 1.2888222690947893e+00 9.0800692282328779e+00 0 0 0
39 2 9.7041198409999989e+00 5.3027681073000004e+00 1.7422046187999998e+00 0 0 0
40 2 1.0681832138200001e+01 3.8864719711000002e+00 4.3677070134999996e+00 0 0 0
41 2 4.5013012931999992e+00 7.9723702433000003e+00 2.6173720973999992e+00 0 0 0
42 2 5.4790136004000001e+00 6.5560741070999988e+00 5.2428744921000003e+00 0 0 0
43 2 6.4567258976000002e+00 5.1397779710000000e+00 7.8683768663999993e+00 0 0 0
44 2 6.9047314938946807e+00 4.1290405173190798e+00 1.0168329198957828e+01 0 0 0
45 2 4.9655544234376094e+00 2.4643308591238182e+00 1.1577307888035369e+00 0 0 0
46 2 5.8049177010999999e+00 1.2168698352000000e+00 3.4925395553999996e+00 0 0 0
47 2 1.0355928037500000e+01 9.2256762431000006e+00 6.1180419501999985e+00 0 0 0
48 2 1.1043386720163772e+01 8.1022520428854712e+00 8.6487158489620217e+00 0 0 0
49 2 7.7480580494730633e+00 8.8016179177398630e+00 1.2639714461969915e+00 0 0 0
50 2 8.1730234298000006e+00 7.5206863411000002e+00 3.5088001707999994e+00 0 0 0
51 2 9.1507357270000007e+00 6.1043902048999996e+00 6.1343025655999988e+00 0 0 0
52 2 1.0128448030699991e+01 4.6880940593000000e+00 8.7598049603000003e+00 0 0 0
53 2 9.4766398240999976e+00 7.6518592350000003e-01 4.3839676288999998e+00 0 0 0
54 2 3.9479171891999978e+00 8.7739923408999996e+00 7.0094700236999996e+00 0 0 0
55 2 4.8950038001790412e+00 6.9814155949195875e+00 9.2627829510914399e+00 0 0 0
56 2 3.2961089826999976e+00 4.8510842051000003e+00 2.6336326922000000e+00 0 0 0
57 2 4.2738212863999996e+00 3.4347880595000002e+00 5.2591350869999998e+00 0 0 0
58 2 5.2515335834999997e+00 2.0184919233000000e+00 7.8846374817999996e+00 0 0 0
59 2 2.4775482866035405e+00 6.0012232772138230e+00 4.9918547255330070e-01 1 0 0
60 2 6.0754408051487134e+00 6.1008701026045307e+00 2.1175977063003495e-01 0 0 0
61 2 6.6419270177999996e+00 4.8262836029000002e+00 2.6255023947999989e+00 0 0 0
62 2 7.6196393214999985e+00 3.4099874572999997e+00 5.2510047895999978e+00 0 0 0
63 2 8.5973516186999994e+00 1.9936913211000000e+00 7.8765071842999976e+00 0 0 0
64 2 1.0339614898986230e+01 2.2558763244691611e+00 1.0099027634083324e+01 0 0 0
65 2 2.4168207736999978e+00 6.0795895931999997e+00 6.1261722475999978e+00 0 0 0
66 2 3.3277072403300880e+00 4.7458879602570478e+00 8.4388643356988560e+00 0 0 0
67 2 1.0995519190696790e+01 8.7708003794550891e+00 1.1757566372966757e+00 0 0 0
68 2 1.1518841464899999e+01 7.4958857388000002e+00 3.5006698528999993e+00 0 0 0
69 2 1.9757665599026819e+00 2.3843008932938270e+00 1.8056548714257181e+00 0 0 0
70 2 2.7427248743999999e+00 7.4038532130000001e-01 4.3758373314999996e+00 0 0 0
71 2 7.2937352243999953e+00 8.7491917387000004e+00 7.0013397261999994e+00 0 0 0
72 2 8.1920647300606859e+00 7.7245945180272102e+00 9.4050458569823601e+00 0 0 0

Velocities

1 0.0000000000000000e+00 0.0000000000000000e+00 0.0000000000000000e+00
2 0.0000000000000000e+00 0.0000000000000000e+00 0.0000000000000000e+00
3 0.0000000000000000e+00 0.0000000000000000e+00 0.0000000000000000e+00
4 0.0000000000000000e+00 0.0000000000000000e+00 0.0000000000000000e+00
5 0.0000000000000000e+00 0.0000000000000000e+00 0.0000000000000000e+00
6 0.0000000000000000e+00 0.0000000000000000e+00 0.0000000000000000e+00
7 0.0000000000000000e+00 0.0000000000000000e+00 0.0000000000000000e+00
8 0.0000000000000000e+00 0.0000000000000000e+00 0.0000000000000000e+00
9 0.0000000000000000e+00 0.0000000000000000e+00 0.0000000000000000e+00
10 0.0000000000000000e+00 0.0000000000000000e+00 0.0000000000000000e+00
11 0.0000000000000000e+00 0.0000000000000000e+00 0.0000000000000000e+00
12 0.0000000000000000e+00 0.0000000000000000e+00 0.0000000000000000e+00
13 0.0000000000000000e+00 0.0000000000000000e+00 0.0000000000000000e+00
14 0.0000000000000000e+00 0.0000000000000000e+00 0.0000000000000000e+00
15 0.0000000000000000e+00 0.0000000000000000e+00 0.0000000000000000e+00
16 0.0000000000000000e+00 0.0000000000000000e+00 0.0000000000000000e+00
17 0.0000000000000000e+00 0.0000000000000000e+00 0.0000000000000000e+00
18 0.0000000000000000e+00 0.0000000000000000e+00 0.0000000000000000e+00
19 0.0000000000000000e+00 0.0000000000000000e+00 0.0000000000000000e+00
20 0.0000000000000000e+00 0.0000000000000000e+00 0.0000000000000000e+00
21 0.0000000000000000e+00 0.0000000000000000e+00 0.0000000000000000e+00
22 0.0000000000000000e+00 0.0000000000000000e+00 0.0000000000000000e+00
23 0.0000000000000000e+00 0.0000000000000000e+00 0.0000000000000000e+00
24 0.0000000000000000e+00 0.0000000000000000e+00 0.0000000000000000e+00
25 0.0000000000000000e+00 0.0000000000000000e+00 0.0000000000000000e+00
26 0.0000000000000000e+00 0.0000000000000000e+00 0.0000000000000000e+00
27 0.0000000000000000e+00 0.0000000000000000e+00 0.0000000000000000e+00
28 0.0000000000000000e+00 0.0000000000000000e+00 0.0000000000000000e+00
29 0.0000000000000000e+00 0.0000000000000000e+00 0.0000000000000000e+00
30 0.0000000000000000e+00 0.0000000000000000e+00 0.0000000000000000e+00
31 0.0000000000000000e+00 0.0000000000000000e+00 0.0000000000000000e+00
32 0.0000000000000000e+00 0.0000000000000000e+00 0.0000000000000000e+00
33 0.0000000000000000e+00 0.0000000000000000e+00 0.0000000000000000e+00
34 0.0000000000000000e+00 0.0000000000000000e+00 0.0000000000000000e+00
35 0.0000000000000000e+00 0.0000000000000000e+00 0.0000000000000000e+00
36 0.0000000000000000e+00 0.0000000000000000e+00 0.0000000000000000e+00
37 0.0000000000000000e+00 0.0000000000000000e+00 0.0000000000000000e+00
38 0.0000000000000000e+00 0.0000000000000000e+00 0.0000000000000000e+00
39 0.0000000000000000e+00 0.0000000000000000e+00 0.0000000000000000e+00
40 0.0000000000000000e+00 0.0000000000000000e+00 0.0000000000000000e+00
41 0.0000000000000000e+00 0.0000000000000000e+00 0.0000000000000000e+00
42 0.0000000000000000e+00 0.0000000000000000e+00 0.0000000000000000e+00
43 0.0000000000000000e+00 0.0000000000000000e+00 0.0000000000000000e+00
44 0.0000000000000000e+00 0.0000000000000000e+00 0.0000000000000000e+00
45 0.0000000000000000e+00 0.0000000000000000e+00 0.0000000000000000e+00
46 0.0000000000000000e+00 0.0000000000000000e+00 0.0000000000000000e+00
47 0.0000000000000000e+00 0.0000000000000000e+00 0.0000000000000000e+00
48 0.0000000000000000e+00 0.0000000000000000e+00 0.0000000000000000e+00
49 0.0000000000000000e+00 0.0000000000000000e+00 0.0000000000000000e+00
50 0.0000000000000000e+00 0.0000000000000000e+00 0.0000000000000000e+00
51 0.0000000000000000e+00 0.0000000000000000e+00 0.0000000000000000e+00
52 0.0000000000000000e+00 0.0000000000000000e+00 0.0000000000000000e+00
53 0.0000000000000000e+00 0.0000000000000000e+00 0.0000000000000000e+00
54 0.0000000000000000e+00 0.0000000000000000e+00 0.0000000000000000e+00
55 0.0000000000000000e+00 0.0000000000000000e+00 0.0000000000000000e+00
56 0.0000000000000000e+00 0.0000000000000000e+00 0.0000000000000000e+00
57 0.0000000000000000e+00 0.0000000000000000e+00 0.0000000000000000e+00
58 0.0000000000000000e+00 0.0000000000000000e+00 0.0000000000000000e+00
59 0.0000000000000000e+00 0.0000000000000000e+00 0.0000000000000000e+00
60 0.0000000000000000e+00 0.0000000000000000e+00 0.0000000000000000e+00
61 0.0000000000000000e+00 0.0000000000000000e+00 0.0000000000000000e+00
62 0.0000000000000000e+00 0.0000000000000000e+00 0.0000000000000000e+00
63 0.0000000000000000e+00 0.0000000000000000e+00 0.0000000000000000e+00
64 0.0000000000000000e+00 0.0000000000000000e+00 0.0000000000000000e+00
65 0.0000000000000000e+00 0.0000000000000000e+00 0.0000000000000000e+00
66 0.0000000000000000e+00 0.0000000000000000e+00 0.0000000000000000e+00
67 0.0000000000000000e+00 0.0000000000000000e+00 0.0000000000000000e+00
68 0.0000000000000000e+00 0.0000000000000000e+00 0.0000000000000000e+00
69 0.0000000000000000e+00 0.0000000000000000e+00 0.0000000000000000e+00
70 0.0000000000000000e+00 0.0000000000000000e+00 0.0000000000000000e+00
71 0.0000000000000000e+00 0.0000000000000000e+00 0.0000000000000000e+00
72 0.0000000000000000e+00 0.0000000000000000e+00 0.0000000000000000e+00
