  96  96   0   0
  0.2657162E+02  0.1125646E-08  0.1125646E-08  0.2251996E-08  0.5000000E-15
  1.000000000000000E-004
  CAR 
 "Millerite NiS"                         
     11.33225303    -66.57354698  301      1.59159559      1.00000000
    -66.574  0.0000E+00  0.0000E+00
    -66.314  0.0000E+00  0.0000E+00
    -66.054  0.0000E+00  0.0000E+00
    -65.794  0.0000E+00  0.0000E+00
    -65.535  0.0000E+00  0.0000E+00
    -65.275  0.0000E+00  0.0000E+00
    -65.015  0.0000E+00  0.0000E+00
    -64.756  0.0000E+00  0.0000E+00
    -64.496  0.0000E+00  0.0000E+00
    -64.236  0.0000E+00  0.0000E+00
    -63.977  0.3015E-09  0.7830E-10
    -63.717  0.1820E-04  0.4727E-05
    -63.457  0.4764E-01  0.1238E-01
    -63.198  0.6757E+01  0.1767E+01
    -62.938  0.8262E+02  0.2322E+02
    -62.678  0.2032E+03  0.7599E+02
    -62.419  0.3540E+03  0.1679E+03
    -62.159  0.3069E+03  0.2476E+03
    -61.899  0.1042E+03  0.2747E+03
    -61.640  0.4428E+02  0.2862E+03
    -61.380  0.6928E+01  0.2880E+03
    -61.120  0.1361E+00  0.2880E+03
    -60.860  0.2003E-03  0.2880E+03
    -60.601  0.1408E-07  0.2880E+03
    -60.341  0.3848E-13  0.2880E+03
    -60.081  0.0000E+00  0.2880E+03
    -59.822  0.0000E+00  0.2880E+03
    -59.562  0.0000E+00  0.2880E+03
    -59.302  0.0000E+00  0.2880E+03
    -59.043  0.0000E+00  0.2880E+03
    -58.783  0.0000E+00  0.2880E+03
    -58.523  0.0000E+00  0.2880E+03
    -58.264  0.0000E+00  0.2880E+03
    -58.004  0.0000E+00  0.2880E+03
    -57.744  0.0000E+00  0.2880E+03
    -57.485  0.0000E+00  0.2880E+03
    -57.225  0.0000E+00  0.2880E+03
    -56.965  0.0000E+00  0.2880E+03
    -56.705  0.0000E+00  0.2880E+03
    -56.446  0.0000E+00  0.2880E+03
    -56.186  0.0000E+00  0.2880E+03
    -55.926  0.0000E+00  0.2880E+03
    -55.667  0.0000E+00  0.2880E+03
    -55.407  0.0000E+00  0.2880E+03
    -55.147  0.0000E+00  0.2880E+03
    -54.888  0.0000E+00  0.2880E+03
    -54.628  0.0000E+00  0.2880E+03
    -54.368  0.0000E+00  0.2880E+03
    -54.109  0.0000E+00  0.2880E+03
    -53.849  0.0000E+00  0.2880E+03
    -53.589  0.0000E+00  0.2880E+03
    -53.330  0.0000E+00  0.2880E+03
    -53.070  0.0000E+00  0.2880E+03
    -52.810  0.0000E+00  0.2880E+03
    -52.551  0.0000E+00  0.2880E+03
    -52.291  0.0000E+00  0.2880E+03
    -52.031  0.0000E+00  0.2880E+03
    -51.771  0.0000E+00  0.2880E+03
    -51.512  0.0000E+00  0.2880E+03
    -51.252  0.0000E+00  0.2880E+03
    -50.992  0.0000E+00  0.2880E+03
    -50.733  0.0000E+00  0.2880E+03
    -50.473  0.0000E+00  0.2880E+03
    -50.213  0.0000E+00  0.2880E+03
    -49.954  0.0000E+00  0.2880E+03
    -49.694  0.0000E+00  0.2880E+03
    -49.434  0.0000E+00  0.2880E+03
    -49.175  0.0000E+00  0.2880E+03
    -48.915  0.0000E+00  0.2880E+03
    -48.655  0.0000E+00  0.2880E+03
    -48.396  0.0000E+00  0.2880E+03
    -48.136  0.0000E+00  0.2880E+03
    -47.876  0.0000E+00  0.2880E+03
    -47.616  0.0000E+00  0.2880E+03
    -47.357  0.0000E+00  0.2880E+03
    -47.097  0.0000E+00  0.2880E+03
    -46.837  0.0000E+00  0.2880E+03
    -46.578  0.0000E+00  0.2880E+03
    -46.318  0.0000E+00  0.2880E+03
    -46.058  0.0000E+00  0.2880E+03
    -45.799  0.0000E+00  0.2880E+03
    -45.539  0.0000E+00  0.2880E+03
    -45.279  0.0000E+00  0.2880E+03
    -45.020  0.0000E+00  0.2880E+03
    -44.760  0.0000E+00  0.2880E+03
    -44.500  0.0000E+00  0.2880E+03
    -44.241  0.0000E+00  0.2880E+03
    -43.981  0.0000E+00  0.2880E+03
    -43.721  0.0000E+00  0.2880E+03
    -43.461  0.0000E+00  0.2880E+03
    -43.202  0.0000E+00  0.2880E+03
    -42.942  0.0000E+00  0.2880E+03
    -42.682  0.0000E+00  0.2880E+03
    -42.423  0.0000E+00  0.2880E+03
    -42.163  0.0000E+00  0.2880E+03
    -41.903  0.0000E+00  0.2880E+03
    -41.644  0.0000E+00  0.2880E+03
    -41.384  0.0000E+00  0.2880E+03
    -41.124  0.0000E+00  0.2880E+03
    -40.865  0.0000E+00  0.2880E+03
    -40.605  0.0000E+00  0.2880E+03
    -40.345  0.0000E+00  0.2880E+03
    -40.086  0.0000E+00  0.2880E+03
    -39.826  0.0000E+00  0.2880E+03
    -39.566  0.0000E+00  0.2880E+03
    -39.307  0.0000E+00  0.2880E+03
    -39.047  0.0000E+00  0.2880E+03
    -38.787  0.0000E+00  0.2880E+03
    -38.527  0.0000E+00  0.2880E+03
    -38.268  0.0000E+00  0.2880E+03
    -38.008  0.0000E+00  0.2880E+03
    -37.748  0.0000E+00  0.2880E+03
    -37.489  0.0000E+00  0.2880E+03
    -37.229  0.0000E+00  0.2880E+03
    -36.969  0.0000E+00  0.2880E+03
    -36.710  0.0000E+00  0.2880E+03
    -36.450  0.0000E+00  0.2880E+03
    -36.190  0.0000E+00  0.2880E+03
    -35.931  0.0000E+00  0.2880E+03
    -35.671  0.0000E+00  0.2880E+03
    -35.411  0.0000E+00  0.2880E+03
    -35.152  0.0000E+00  0.2880E+03
    -34.892  0.0000E+00  0.2880E+03
    -34.632  0.0000E+00  0.2880E+03
    -34.372  0.0000E+00  0.2880E+03
    -34.113  0.0000E+00  0.2880E+03
    -33.853  0.0000E+00  0.2880E+03
    -33.593  0.0000E+00  0.2880E+03
    -33.334  0.0000E+00  0.2880E+03
    -33.074  0.0000E+00  0.2880E+03
    -32.814  0.0000E+00  0.2880E+03
    -32.555  0.0000E+00  0.2880E+03
    -32.295  0.0000E+00  0.2880E+03
    -32.035  0.0000E+00  0.2880E+03
    -31.776  0.0000E+00  0.2880E+03
    -31.516  0.0000E+00  0.2880E+03
    -31.256  0.0000E+00  0.2880E+03
    -30.997  0.0000E+00  0.2880E+03
    -30.737  0.0000E+00  0.2880E+03
    -30.477  0.0000E+00  0.2880E+03
    -30.218  0.0000E+00  0.2880E+03
    -29.958  0.0000E+00  0.2880E+03
    -29.698  0.0000E+00  0.2880E+03
    -29.438  0.0000E+00  0.2880E+03
    -29.179  0.0000E+00  0.2880E+03
    -28.919  0.0000E+00  0.2880E+03
    -28.659  0.0000E+00  0.2880E+03
    -28.400  0.0000E+00  0.2880E+03
    -28.140  0.0000E+00  0.2880E+03
    -27.880  0.0000E+00  0.2880E+03
    -27.621  0.0000E+00  0.2880E+03
    -27.361  0.0000E+00  0.2880E+03
    -27.101  0.0000E+00  0.2880E+03
    -26.842  0.0000E+00  0.2880E+03
    -26.582  0.0000E+00  0.2880E+03
    -26.322  0.0000E+00  0.2880E+03
    -26.063  0.0000E+00  0.2880E+03
    -25.803  0.0000E+00  0.2880E+03
    -25.543  0.0000E+00  0.2880E+03
    -25.283  0.0000E+00  0.2880E+03
    -25.024  0.0000E+00  0.2880E+03
    -24.764  0.0000E+00  0.2880E+03
    -24.504  0.0000E+00  0.2880E+03
    -24.245  0.0000E+00  0.2880E+03
    -23.985  0.0000E+00  0.2880E+03
    -23.725  0.0000E+00  0.2880E+03
    -23.466  0.0000E+00  0.2880E+03
    -23.206  0.0000E+00  0.2880E+03
    -22.946  0.0000E+00  0.2880E+03
    -22.687  0.0000E+00  0.2880E+03
    -22.427  0.0000E+00  0.2880E+03
    -22.167  0.0000E+00  0.2880E+03
    -21.908  0.0000E+00  0.2880E+03
    -21.648  0.0000E+00  0.2880E+03
    -21.388  0.0000E+00  0.2880E+03
    -21.128  0.0000E+00  0.2880E+03
    -20.869  0.0000E+00  0.2880E+03
    -20.609  0.0000E+00  0.2880E+03
    -20.349  0.0000E+00  0.2880E+03
    -20.090  0.0000E+00  0.2880E+03
    -19.830  0.0000E+00  0.2880E+03
    -19.570  0.0000E+00  0.2880E+03
    -19.311  0.0000E+00  0.2880E+03
    -19.051  0.0000E+00  0.2880E+03
    -18.791  0.0000E+00  0.2880E+03
    -18.532  0.0000E+00  0.2880E+03
    -18.272  0.0000E+00  0.2880E+03
    -18.012  0.0000E+00  0.2880E+03
    -17.753  0.0000E+00  0.2880E+03
    -17.493  0.0000E+00  0.2880E+03
    -17.233  0.0000E+00  0.2880E+03
    -16.974  0.0000E+00  0.2880E+03
    -16.714  0.0000E+00  0.2880E+03
    -16.454  0.0000E+00  0.2880E+03
    -16.194  0.0000E+00  0.2880E+03
    -15.935  0.0000E+00  0.2880E+03
    -15.675  0.1710E-14  0.2880E+03
    -15.415  0.1232E-08  0.2880E+03
    -15.156  0.3267E-04  0.2880E+03
    -14.896  0.3420E-01  0.2880E+03
    -14.636  0.1649E+01  0.2884E+03
    -14.377  0.5639E+01  0.2899E+03
    -14.117  0.6327E+01  0.2915E+03
    -13.857  0.1061E+02  0.2943E+03
    -13.598  0.2284E+02  0.3002E+03
    -13.338  0.2866E+02  0.3077E+03
    -13.078  0.2753E+02  0.3148E+03
    -12.819  0.3139E+02  0.3230E+03
    -12.559  0.3649E+02  0.3324E+03
    -12.299  0.4485E+02  0.3441E+03
    -12.039  0.4254E+02  0.3551E+03
    -11.780  0.3711E+02  0.3648E+03
    -11.520  0.3457E+02  0.3738E+03
    -11.260  0.2333E+02  0.3798E+03
    -11.001  0.1292E+02  0.3832E+03
    -10.741  0.3107E+01  0.3840E+03
    -10.481  0.7952E-01  0.3840E+03
    -10.222  0.1122E-03  0.3840E+03
     -9.962  0.6660E-08  0.3840E+03
     -9.702  0.1539E-13  0.3840E+03
     -9.443  0.0000E+00  0.3840E+03
     -9.183  0.0000E+00  0.3840E+03
     -8.923  0.0000E+00  0.3840E+03
     -8.664  0.0000E+00  0.3840E+03
     -8.404  0.0000E+00  0.3840E+03
     -8.144  0.0000E+00  0.3840E+03
     -7.885  0.0000E+00  0.3840E+03
     -7.625  0.2886E-12  0.3840E+03
     -7.365  0.6554E-07  0.3840E+03
     -7.105  0.5777E-03  0.3840E+03
     -6.846  0.2263E+00  0.3841E+03
     -6.586  0.5419E+01  0.3855E+03
     -6.326  0.1456E+02  0.3892E+03
     -6.067  0.1765E+02  0.3938E+03
     -5.807  0.2922E+02  0.4014E+03
     -5.547  0.3048E+02  0.4093E+03
     -5.288  0.4401E+02  0.4208E+03
     -5.028  0.6154E+02  0.4367E+03
     -4.768  0.6298E+02  0.4531E+03
     -4.509  0.5729E+02  0.4680E+03
     -4.249  0.5915E+02  0.4833E+03
     -3.989  0.6231E+02  0.4995E+03
     -3.730  0.6923E+02  0.5175E+03
     -3.470  0.8236E+02  0.5389E+03
     -3.210  0.8919E+02  0.5620E+03
     -2.950  0.7823E+02  0.5824E+03
     -2.691  0.7189E+02  0.6010E+03
     -2.431  0.8192E+02  0.6223E+03
     -2.171  0.7292E+02  0.6412E+03
     -1.912  0.4997E+02  0.6542E+03
     -1.652  0.6669E+02  0.6715E+03
     -1.392  0.9012E+02  0.6949E+03
     -1.133  0.1004E+03  0.7210E+03
     -0.873  0.1098E+03  0.7495E+03
     -0.613  0.1338E+03  0.7843E+03
     -0.354  0.1639E+03  0.8268E+03
     -0.094  0.1816E+03  0.8740E+03
      0.166  0.1795E+03  0.9206E+03
      0.425  0.1499E+03  0.9595E+03
      0.685  0.1070E+03  0.9873E+03
      0.945  0.7682E+02  0.1007E+04
      1.204  0.7495E+02  0.1027E+04
      1.464  0.7876E+02  0.1047E+04
      1.724  0.6554E+02  0.1064E+04
      1.984  0.5474E+02  0.1078E+04
      2.243  0.5930E+02  0.1094E+04
      2.503  0.6963E+02  0.1112E+04
      2.763  0.6058E+02  0.1128E+04
      3.022  0.4575E+02  0.1139E+04
      3.282  0.3171E+02  0.1148E+04
      3.542  0.1434E+02  0.1151E+04
      3.801  0.3093E+01  0.1152E+04
      4.061  0.6602E+01  0.1154E+04
      4.321  0.6914E+01  0.1156E+04
      4.580  0.6986E+01  0.1158E+04
      4.840  0.1415E+02  0.1161E+04
      5.100  0.1127E+02  0.1164E+04
      5.359  0.1851E+02  0.1169E+04
      5.619  0.2384E+02  0.1175E+04
      5.879  0.2703E+02  0.1182E+04
      6.139  0.3588E+02  0.1192E+04
      6.398  0.3194E+02  0.1200E+04
      6.658  0.3277E+02  0.1208E+04
      6.918  0.4072E+02  0.1219E+04
      7.177  0.4464E+02  0.1230E+04
      7.437  0.5804E+02  0.1246E+04
      7.697  0.5763E+02  0.1261E+04
      7.956  0.2655E+02  0.1267E+04
      8.216  0.2226E+01  0.1268E+04
      8.476  0.1625E-01  0.1268E+04
      8.735  0.6419E-05  0.1268E+04
      8.995  0.1084E-09  0.1268E+04
      9.255  0.0000E+00  0.1268E+04
      9.514  0.0000E+00  0.1268E+04
      9.774  0.0000E+00  0.1268E+04
     10.034  0.0000E+00  0.1268E+04
     10.294  0.0000E+00  0.1268E+04
     10.553  0.0000E+00  0.1268E+04
     10.813  0.0000E+00  0.1268E+04
     11.073  0.0000E+00  0.1268E+04
     11.332  0.0000E+00  0.1268E+04
