 vasp.5.4.4.18Apr17-6-g9f103f2a35 (build Aug 13 2019 17:33:20) gamma-only       
  
 executed on             LinuxIFC date 2020.05.11  14:46:44
 running on   12 total cores
 distrk:  each k-point on   12 cores,    1 groups
 distr:  one band on NCORES_PER_BAND=   6 cores,    2 groups


--------------------------------------------------------------------------------------------------------


 INCAR:
 POTCAR:    PAW_PBE Ni_pv 06Sep2000               
 POTCAR:    PAW_PBE S 06Sep2000                   
 POTCAR:    PAW_PBE Ni_pv 06Sep2000               
   VRHFIN =Ni:                                                                  
   LEXCH  = PE                                                                  
   EATOM  =  3501.1230 eV,  257.3253 Ry                                         
                                                                                
   TITEL  = PAW_PBE Ni_pv 06Sep2000                                             
   LULTRA =        F    use ultrasoft PP ?                                      
   IUNSCR =        1    unscreen: 0-lin 1-nonlin 2-no                           
   RPACOR =    1.500    partial core radius                                     
   POMASS =   58.690; ZVAL   =   16.000    mass and valenz                      
   RCORE  =    2.000    outmost cutoff radius                                   
   RWIGS  =    2.000; RWIGS  =    1.058    wigner-seitz radius (au A)           
   ENMAX  =  367.986; ENMIN  =  275.989 eV                                      
   RCLOC  =    1.301    cutoff for local pot                                    
   LCOR   =        T    correct aug charges                                     
   LPAW   =        T    paw PP                                                  
   EAUG   =  703.443                                                            
   DEXC   =    0.000                                                            
   RMAX   =    2.041    core radius for proj-oper                               
   RAUG   =    1.300    factor for augmentation sphere                          
   RDEP   =    2.103    radius for radial grids                                 
   RDEPT  =    1.618    core radius for aug-charge                              
                                                                                
   Atomic configuration                                                         
    8 entries                                                                   
     n  l   j            E        occ.                                          
     1  0  0.50     -8206.4253   2.0000                                         
     2  0  0.50      -976.1748   2.0000                                         
     2  1  1.50      -839.0571   6.0000                                         
     3  0  0.50      -105.9991   2.0000                                         
     3  1  1.50       -66.4603   6.0000                                         
     3  2  2.50        -4.6458   9.0000                                         
     4  0  0.50        -4.4926   1.0000                                         
     4  3  2.50        -1.3606   0.0000                                         
   Description                                                                  
     l       E           TYP  RCUT    TYP  RCUT                                 
     1    -66.4602962     23  1.700                                             
     1     -1.3605826     23  1.700                                             
     2     -4.6457867     23  2.000                                             
     2     -6.0063693     23  2.000                                             
     0     -4.4925576     23  1.900                                             
     0     16.3626226     23  1.900                                             
  local pseudopotential read in
  partial core-charges read in
  partial kinetic energy density read in
  atomic valenz-charges read in
  non local Contribution for L=           1  read in
    real space projection operators read in
  non local Contribution for L=           1  read in
    real space projection operators read in
  non local Contribution for L=           2  read in
    real space projection operators read in
  non local Contribution for L=           2  read in
    real space projection operators read in
  non local Contribution for L=           0  read in
    real space projection operators read in
  non local Contribution for L=           0  read in
    real space projection operators read in
    PAW grid and wavefunctions read in
 
   number of l-projection  operators is LMAX  =           6
   number of lm-projection operators is LMMAX =          18
 
 POTCAR:    PAW_PBE S 06Sep2000                   
   VRHFIN =S : s2p4                                                             
   LEXCH  = PE                                                                  
   EATOM  =   276.8230 eV,   20.3459 Ry                                         
                                                                                
   TITEL  = PAW_PBE S 06Sep2000                                                 
   LULTRA =        F    use ultrasoft PP ?                                      
   IUNSCR =        1    unscreen: 0-lin 1-nonlin 2-no                           
   RPACOR =    1.500    partial core radius                                     
   POMASS =   32.066; ZVAL   =    6.000    mass and valenz                      
   RCORE  =    1.900    outmost cutoff radius                                   
   RWIGS  =    2.200; RWIGS  =    1.164    wigner-seitz radius (au A)           
   ENMAX  =  258.689; ENMIN  =  194.016 eV                                      
   ICORE  =        2    local potential                                         
   LCOR   =        T    correct aug charges                                     
   LPAW   =        T    paw PP                                                  
   EAUG   =  335.092                                                            
   DEXC   =    0.000                                                            
   RMAX   =    1.942    core radius for proj-oper                               
   RAUG   =    1.300    factor for augmentation sphere                          
   RDEP   =    1.954    radius for radial grids                                 
   RDEPT  =    1.744    core radius for aug-charge                              
                                                                                
   Atomic configuration                                                         
    6 entries                                                                   
     n  l   j            E        occ.                                          
     1  0  0.50     -2405.8406   2.0000                                         
     2  0  0.50      -211.7007   2.0000                                         
     2  1  1.50      -156.4958   6.0000                                         
     3  0  0.50       -17.2562   2.0000                                         
     3  1  0.50        -7.0085   4.0000                                         
     3  2  1.50        -6.8029   0.0000                                         
   Description                                                                  
     l       E           TYP  RCUT    TYP  RCUT                                 
     0    -17.2561641     23  1.900                                             
     0    -15.8743224     23  1.900                                             
     1     -7.0085400     23  1.900                                             
     1     -2.7779785     23  1.900                                             
     2     -6.8029130     23  1.900                                             
  local pseudopotential read in
  partial core-charges read in
  partial kinetic energy density read in
  atomic valenz-charges read in
  non local Contribution for L=           0  read in
    real space projection operators read in
  non local Contribution for L=           0  read in
    real space projection operators read in
  non local Contribution for L=           1  read in
    real space projection operators read in
  non local Contribution for L=           1  read in
    real space projection operators read in
    PAW grid and wavefunctions read in
 
   number of l-projection  operators is LMAX  =           4
   number of lm-projection operators is LMMAX =           8
 
 Optimization of the real space projectors (new method)

 maximal supplied QI-value         = 18.90
 optimisation between [QCUT,QGAM] = [ 10.77, 21.73] = [ 32.49,132.25] Ry 
 Optimized for a Real-space Cutoff    1.38 Angstroem

   l    n(q)    QCUT    max X(q) W(low)/X(q) W(high)/X(q)  e(spline) 
   1      8    10.771     2.836    0.40E-04    0.29E-04    0.12E-06
   1      8    10.771     4.023    0.10E-03    0.48E-04    0.29E-06
   2      8    10.771    73.368    0.42E-03    0.97E-04    0.44E-06
   2      8    10.771    69.010    0.42E-03    0.99E-04    0.45E-06
   0      9    10.771    54.797    0.10E-03    0.56E-04    0.74E-07
   0      9    10.771    24.266    0.89E-04    0.49E-04    0.67E-07
 Optimization of the real space projectors (new method)

 maximal supplied QI-value         = 19.84
 optimisation between [QCUT,QGAM] = [ 10.71, 21.63] = [ 32.15,130.99] Ry 
 Optimized for a Real-space Cutoff    1.19 Angstroem

   l    n(q)    QCUT    max X(q) W(low)/X(q) W(high)/X(q)  e(spline) 
   0      8    10.715   187.594    0.41E-03    0.53E-04    0.66E-07
   0      8    10.715   164.243    0.41E-03    0.53E-04    0.65E-07
   1      7    10.715    67.533    0.19E-03    0.59E-03    0.68E-07
   1      7    10.715    50.729    0.19E-03    0.58E-03    0.67E-07
  PAW_PBE Ni_pv 06Sep2000               :
 energy of atom  1       EATOM=-3501.1230
 kinetic energy error for atom=    0.0925 (will be added to EATOM!!)
  PAW_PBE S 06Sep2000                   :
 energy of atom  2       EATOM= -276.8230
 kinetic energy error for atom=    0.0033 (will be added to EATOM!!)
 
 
 POSCAR: Type_048 Type_148                       
  positions in cartesian coordinates
  No initial velocities read in
 exchange correlation table for  LEXCH =        8
   RHO(1)=    0.500       N(1)  =     2000
   RHO(2)=  100.500       N(2)  =     4000
 


--------------------------------------------------------------------------------------------------------


 ion  position               nearest neighbor table
   1  0.261  0.479  0.295-  73 2.25  58 2.26  80 2.26  59 2.36  54 2.36   8 2.53  23 2.53
   2  0.355  0.385  0.426-  60 2.07  65 2.08  74 2.23  54 2.26  59 2.26   9 2.53  24 2.53
   3  0.042  0.213  0.091-  63 1.99  55 2.13  64 2.14   4 2.30  81 2.31  14 2.47
   4  0.167  0.073  0.165-  81 2.11  64 2.25  55 2.26   3 2.30  56 2.36  82 2.36  36 2.53  31 2.53

   5  0.026  0.050  0.490-  77 2.02  72 2.02  50 2.03  22 2.44
   6  0.199  0.323  0.037-  55 2.11  57 2.13   7 2.30  51 2.30  37 2.47
   7  0.274  0.333  0.130-  57 2.12  55 2.25  51 2.26   6 2.30  52 2.36  58 2.36  13 2.53  29 2.53

   8  0.368  0.239  0.261-  56 2.25  58 2.26  52 2.26  59 2.36  61 2.36   1 2.53  23 2.53
   9  0.462  0.145  0.391-  60 2.05  62 2.14  78 2.25  59 2.26  61 2.26   2 2.53  24 2.53
  10  0.000  0.372  0.261-  58 2.25  64 2.26  92 2.26  49 2.36  66 2.36  21 2.53  15 2.53
  11  0.094  0.278  0.391-  53 2.13  59 2.25  49 2.26  66 2.26  50 2.36  12 2.39  16 2.53  22 2.53

  12  0.211  0.212  0.484-  60 2.01  53 2.05  50 2.07  11 2.39
  13  0.406  0.465  0.130-  79 2.12  69 2.17  51 2.26  52 2.36  80 2.36  29 2.53   7 2.53  37 2.53

  14  0.225  0.007  0.053-  75 2.01  81 2.07  55 2.08   3 2.47  31 2.49
  15  0.761  0.479  0.295-  85 2.25  70 2.26  92 2.26  71 2.36  66 2.36  21 2.53  10 2.53
  16  0.855  0.385  0.426-  72 2.08  53 2.09  86 2.23  66 2.26  71 2.26  22 2.53  11 2.53
  17  0.542  0.213  0.091-  51 1.99  67 2.13  52 2.14  18 2.30  93 2.31  26 2.47
  18  0.667  0.073  0.165-  93 2.11  52 2.25  67 2.26  17 2.30  68 2.36  94 2.36  47 2.53  42 2.53

  19  0.699  0.323  0.037-  67 2.11  69 2.13  20 2.30  63 2.30  48 2.47
  20  0.774  0.333  0.130-  69 2.12  67 2.25  63 2.26  19 2.30  64 2.36  70 2.36  25 2.53  40 2.53

  21  0.868  0.239  0.261-  68 2.25  70 2.26  64 2.26  71 2.36  49 2.36  15 2.53  10 2.53
  22  0.962  0.145  0.391-  72 2.07  90 2.25  71 2.26  49 2.26  50 2.36   5 2.44  16 2.53  11 2.53

  23  0.500  0.372  0.261-  70 2.25  52 2.26  80 2.26  61 2.36  54 2.36   8 2.53   1 2.53
  24  0.594  0.278  0.391-  65 2.05  62 2.14  71 2.25  61 2.26  54 2.26   2 2.53   9 2.53
  25  0.906  0.465  0.130-  91 2.12  57 2.17  63 2.26  64 2.36  92 2.36  40 2.53  20 2.53  48 2.53

  26  0.725  0.007  0.053-  87 2.01  93 2.07  67 2.08  17 2.47  42 2.49
  27  0.261  0.979  0.295-  49 2.25  82 2.26  56 2.26  83 2.36  78 2.36  32 2.53  45 2.53
  28  0.355  0.885  0.426-  89 2.02  84 2.09  50 2.25  78 2.26  83 2.26  33 2.53  46 2.53
  29  0.167  0.573  0.165-  79 2.11  88 2.25  57 2.28  80 2.36  58 2.36  37 2.47  13 2.53   7 2.53

  30  0.063  0.519  0.478-  53 2.03  74 2.03  96 2.08  44 2.39
  31  0.274  0.833  0.130-  75 2.06  79 2.12  81 2.23  76 2.36  82 2.36  14 2.49  36 2.53   4 2.53

  32  0.368  0.739  0.261-  80 2.25  82 2.26  76 2.26  83 2.36  85 2.36  27 2.53  45 2.53
  33  0.462  0.645  0.391-  84 2.04  86 2.21  54 2.25  83 2.26  85 2.26  41 2.39  28 2.53  46 2.53

  34  0.000  0.872  0.261-  82 2.25  88 2.26  68 2.26  73 2.36  90 2.36  43 2.53  38 2.53
  35  0.094  0.778  0.391-  77 2.06  74 2.15  83 2.25  73 2.26  90 2.26  39 2.53  44 2.53
  36  0.406  0.965  0.130-  75 2.06  93 2.18  55 2.26  76 2.36  56 2.36   4 2.53  31 2.53
  37  0.216  0.531  0.058-  51 2.05  79 2.06  57 2.07   6 2.47  29 2.47  13 2.53
  38  0.761  0.979  0.295-  61 2.25  94 2.26  68 2.26  95 2.36  90 2.36  43 2.53  34 2.53
  39  0.855  0.885  0.426-  77 2.07  96 2.12  62 2.24  90 2.26  95 2.26  44 2.53  35 2.53
  40  0.667  0.573  0.165-  91 2.11  76 2.25  69 2.28  92 2.36  70 2.36  48 2.47  25 2.53  20 2.53

  41  0.556  0.528  0.481-  65 2.01  86 2.03  84 2.04  33 2.39
  42  0.774  0.833  0.130-  87 2.06  91 2.12  93 2.23  88 2.36  94 2.36  26 2.49  47 2.53  18 2.53

  43  0.868  0.739  0.261-  92 2.25  94 2.26  88 2.26  95 2.36  73 2.36  38 2.53  34 2.53
  44  0.962  0.645  0.391-  96 2.02  74 2.23  66 2.25  95 2.26  73 2.26  30 2.39  39 2.53  35 2.53

  45  0.500  0.872  0.261-  94 2.25  76 2.26  56 2.26  85 2.36  78 2.36  32 2.53  27 2.53
  46  0.594  0.778  0.391-  89 2.01  86 2.17  95 2.25  85 2.26  78 2.26  28 2.53  33 2.53
  47  0.906  0.965  0.130-  87 2.06  81 2.18  67 2.26  88 2.36  68 2.36  18 2.53  42 2.53
  48  0.716  0.531  0.058-  63 2.05  91 2.06  69 2.07  19 2.47  40 2.47  25 2.53
  49  0.073  0.167  0.311-  27 2.25  11 2.26  22 2.26  10 2.36  21 2.36
  50  0.167  0.073  0.442-   5 2.03  12 2.07  28 2.25  11 2.36  22 2.36
  51  0.385  0.355  0.051-  17 1.99  37 2.05   7 2.26  13 2.26   6 2.30
  52  0.479  0.261  0.181-  17 2.14  18 2.25   8 2.26  23 2.26  13 2.36   7 2.36
  53  0.020  0.361  0.476-  30 2.03  12 2.05  16 2.09  11 2.13
  54  0.436  0.472  0.355-  33 2.25   2 2.26  24 2.26   1 2.36  23 2.36
  55  0.248  0.160  0.094-  14 2.08   6 2.11   3 2.13   7 2.25   4 2.26  36 2.26
  56  0.342  0.066  0.225-   8 2.25  27 2.26  45 2.26   4 2.36  36 2.36
  57  0.085  0.473  0.099-  37 2.07   7 2.12   6 2.13  25 2.17  29 2.28
  58  0.174  0.397  0.225-  10 2.25   1 2.26   8 2.26   7 2.36  29 2.36
  59  0.268  0.303  0.355-  11 2.25   9 2.26   2 2.26   8 2.36   1 2.36
  60  0.386  0.216  0.473-  12 2.01   9 2.05   2 2.07  65 2.76
  61  0.573  0.167  0.311-  38 2.25  24 2.26   9 2.26  23 2.36   8 2.36  62 2.63
  62  0.666  0.074  0.417-   9 2.14  24 2.14  39 2.24  61 2.63
  63  0.885  0.355  0.051-   3 1.99  48 2.05  20 2.26  25 2.26  19 2.30
  64  0.979  0.261  0.181-   3 2.14   4 2.25  21 2.26  10 2.26  25 2.36  20 2.36
  65  0.522  0.369  0.471-  41 2.01  24 2.05   2 2.08  60 2.76
  66  0.936  0.472  0.355-  44 2.25  16 2.26  11 2.26  15 2.36  10 2.36
  67  0.748  0.160  0.094-  26 2.08  19 2.11  17 2.13  20 2.25  18 2.26  47 2.26
  68  0.842  0.066  0.225-  21 2.25  38 2.26  34 2.26  18 2.36  47 2.36
  69  0.585  0.473  0.099-  48 2.07  20 2.12  19 2.13  13 2.17  40 2.28
  70  0.674  0.397  0.225-  23 2.25  15 2.26  21 2.26  20 2.36  40 2.36
  71  0.768  0.303  0.355-  24 2.25  22 2.26  16 2.26  21 2.36  15 2.36
  72  0.863  0.219  0.470-   5 2.02  22 2.07  16 2.08
  73  0.073  0.667  0.311-   1 2.25  35 2.26  44 2.26  34 2.36  43 2.36  74 2.74
  74  0.170  0.576  0.423-  30 2.03  35 2.15   2 2.23  44 2.23  73 2.74
  75  0.398  0.842  0.065-  14 2.01  36 2.06  31 2.06  76 2.79
  76  0.479  0.761  0.181-  40 2.25  32 2.26  45 2.26  36 2.36  31 2.36  75 2.79
  77  0.019  0.879  0.469-   5 2.02  35 2.06  39 2.07  96 2.74  90 2.77
  78  0.436  0.972  0.355-   9 2.25  28 2.26  46 2.26  27 2.36  45 2.36  89 2.71
  79  0.258  0.658  0.109-  37 2.06  29 2.11  31 2.12  13 2.12
  80  0.342  0.566  0.225-  32 2.25   1 2.26  23 2.26  29 2.36  13 2.36
  81  0.077  0.996  0.104-  14 2.07   4 2.11  47 2.18  31 2.23   3 2.31
  82  0.174  0.897  0.225-  34 2.25  27 2.26  32 2.26  31 2.36   4 2.36
  83  0.268  0.803  0.355-  35 2.25  33 2.26  28 2.26  32 2.36  27 2.36
  84  0.399  0.713  0.475-  33 2.04  41 2.04  28 2.09  89 2.75
  85  0.573  0.667  0.311-  15 2.25  46 2.26  33 2.26  45 2.36  32 2.36  86 2.76
  86  0.668  0.576  0.424-  41 2.03  46 2.17  33 2.21  16 2.23  85 2.76
  87  0.898  0.842  0.065-  26 2.01  47 2.06  42 2.06  88 2.79
  88  0.979  0.761  0.181-  29 2.25  43 2.26  34 2.26  47 2.36  42 2.36  87 2.79
  89  0.518  0.879  0.466-  46 2.01  28 2.02  78 2.71  84 2.75
  90  0.936  0.972  0.355-  22 2.25  39 2.26  35 2.26  38 2.36  34 2.36  77 2.77
  91  0.758  0.658  0.109-  48 2.06  40 2.11  42 2.12  25 2.12
  92  0.842  0.566  0.225-  43 2.25  15 2.26  10 2.26  40 2.36  25 2.36
  93  0.577  0.996  0.104-  26 2.07  18 2.11  36 2.18  42 2.23  17 2.31
  94  0.674  0.897  0.225-  45 2.25  38 2.26  43 2.26  42 2.36  18 2.36
  95  0.768  0.803  0.355-  46 2.25  44 2.26  39 2.26  43 2.36  38 2.36
  96  0.905  0.709  0.475-  44 2.02  30 2.08  39 2.12  77 2.74
 
  LATTYP: Found a base centered orthorhombic cell.
 ALAT       =    11.8257374459
 B/A-ratio  =     1.6199260857
 C/A-ratio  =     1.9043172636
  
  Lattice vectors:
  
 A1 = (  11.2564630382,   0.0000000000,   0.0000000000)
 A2 = (  -5.0445621212, -10.0628203371,   0.0000000000)
 A3 = (   0.0000000000,   0.0000000000, -22.5199559732)


Analysis of symmetry for initial positions (statically):
=====================================================================
 Subroutine PRICEL returns:
 Original cell was already a primitive cell.
 

 Routine SETGRP: Setting up the symmetry group for a 
 base centered orthorhombic supercell.


 Subroutine GETGRP returns: Found  1 space group operations
 (whereof  1 operations were pure point group operations)
 out of a pool of  8 trial point group operations.


The static configuration has the point symmetry C_1 .


Analysis of symmetry for dynamics (positions and initial velocities):
=====================================================================
 Subroutine PRICEL returns:
 Original cell was already a primitive cell.
 

 Routine SETGRP: Setting up the symmetry group for a 
 base centered orthorhombic supercell.


 Subroutine GETGRP returns: Found  1 space group operations
 (whereof  1 operations were pure point group operations)
 out of a pool of  8 trial point group operations.


The dynamic configuration has the point symmetry C_1 .


 Subroutine INISYM returns: Found  1 space group operations
 (whereof  1 operations are pure point group operations),
 and found     1 'primitive' translations

 
 
 KPOINTS: gamma-point-only calculation. no periodi

Automatic generation of k-mesh.
Space group operators:
 irot       det(A)        alpha          n_x          n_y          n_z        tau_x        tau_y        tau_z
    1     1.000000     0.000000     1.000000     0.000000     0.000000     0.000000     0.000000     0.000000
 
 Subroutine IBZKPT returns following result:
 ===========================================
 
 Found      1 irreducible k-points:
 
 Following reciprocal coordinates:
            Coordinates               Weight
  0.000000  0.000000  0.000000      1.000000
 
 Following cartesian coordinates:
            Coordinates               Weight
  0.000000  0.000000  0.000000      1.000000
 


--------------------------------------------------------------------------------------------------------




 Dimension of arrays:
   k-points           NKPTS =      1   k-points in BZ     NKDIM =      1   number of bands    NBANDS=    634
   number of dos      NEDOS =    301   number of ions     NIONS =     96
   non local maximal  LDIM  =      6   non local SUM 2l+1 LMDIM =     18
   total plane-waves  NPLWV = 432000
   max r-space proj   IRMAX =   1917   max aug-charges    IRDMAX=   5534
   dimension x,y,z NGX =    60 NGY =   60 NGZ =  120
   dimension x,y,z NGXF=   120 NGYF=  120 NGZF=  240
   support grid    NGXF=   120 NGYF=  120 NGZF=  240
   ions per type =              48  48
   NGX,Y,Z   is equivalent  to a cutoff of   8.86,  8.86,  8.86 a.u.
   NGXF,Y,Z  is equivalent  to a cutoff of  17.72, 17.72, 17.72 a.u.

 SYSTEM =  "Millerite NiS"                         
 POSCAR =  Type_048 Type_148                       

 Startparameter for this run:
   NWRITE =      2    write-flag & timer
   PREC   = normal    normal or accurate (medium, high low for compatibility)
   ISTART =      0    job   : 0-new  1-cont  2-samecut
   ICHARG =      2    charge: 1-file 2-atom 10-const
   ISPIN  =      1    spin polarized calculation?
   LNONCOLLINEAR =      F non collinear calculations
   LSORBIT =      F    spin-orbit coupling
   INIWAV =      1    electr: 0-lowe 1-rand  2-diag
   LASPH  =      F    aspherical Exc in radial PAW
   METAGGA=      F    non-selfconsistent MetaGGA calc.

 Electronic Relaxation 1
   ENCUT  =  450.0 eV  33.07 Ry    5.75 a.u.  19.47 19.47 38.95*2*pi/ulx,y,z
   ENINI  =  450.0     initial cutoff
   ENAUG  =  703.4 eV  augmentation charge cutoff
   NELM   =    100;   NELMIN=  2; NELMDL= -5     # of ELM steps 
   EDIFF  = 0.1E-03   stopping-criterion for ELM
   LREAL  =      T    real-space projection
   NLSPLINE    = F    spline interpolate recip. space projectors
   LCOMPAT=      F    compatible to vasp.4.4
   GGA_COMPAT  = T    GGA compatible to vasp.4.4-vasp.4.6
   LMAXPAW     = -100 max onsite density
   LMAXMIX     =    2 max onsite mixed and CHGCAR
   VOSKOWN=      0    Vosko Wilk Nusair interpolation
   ROPT   =   -0.00050  -0.00050
 Ionic relaxation
   EDIFFG = 0.1E-02   stopping-criterion for IOM
   NSW    =      0    number of steps for IOM
   NBLOCK =      1;   KBLOCK =      1    inner block; outer block 
   IBRION =     -1    ionic relax: 0-MD 1-quasi-New 2-CG
   NFREE  =      0    steps in history (QN), initial steepest desc. (CG)
   ISIF   =      2    stress and relaxation
   IWAVPR =     10    prediction:  0-non 1-charg 2-wave 3-comb
   ISYM   =      2    0-nonsym 1-usesym 2-fastsym
   LCORR  =      T    Harris-Foulkes like correction to forces

   POTIM  = 0.5000    time-step for ionic-motion
   TEIN   =    0.0    initial temperature
   TEBEG  =    0.0;   TEEND  =   0.0 temperature during run
   SMASS  =  -3.00    Nose mass-parameter (am)
   estimated Nose-frequenzy (Omega)   =  0.10E-29 period in steps =****** mass=  -0.290E-26a.u.
   SCALEE = 1.0000    scale energy and forces
   NPACO  =    256;   APACO  = 16.0  distance and # of slots for P.C.
   PSTRESS=    0.0 pullay stress

  Mass of Ions in am
   POMASS =  58.69 32.07
  Ionic Valenz
   ZVAL   =  16.00  6.00
  Atomic Wigner-Seitz radii
   RWIGS  =  -1.00 -1.00
  virtual crystal weights 
   VCA    =   1.00  1.00
   NELECT =    1056.0000    total number of electrons
   NUPDOWN=      -1.0000    fix difference up-down

 DOS related values:
   EMIN   =  10.00;   EMAX   =-10.00  energy-range for DOS
   EFERMI =   0.00
   ISMEAR =     0;   SIGMA  =   0.20  broadening in eV -4-tet -1-fermi 0-gaus

 Electronic relaxation 2 (details)
   IALGO  =     38    algorithm
   LDIAG  =      T    sub-space diagonalisation (order eigenvalues)
   LSUBROT=      F    optimize rotation matrix (better conditioning)
   TURBO    =      0    0=normal 1=particle mesh
   IRESTART =      0    0=no restart 2=restart with 2 vectors
   NREBOOT  =      0    no. of reboots
   NMIN     =      0    reboot dimension
   EREF     =   0.00    reference energy to select bands
   IMIX   =      4    mixing-type and parameters
     AMIX     =   0.40;   BMIX     =  1.00
     AMIX_MAG =   1.60;   BMIX_MAG =  1.00
     AMIN     =   0.10
     WC   =   100.;   INIMIX=   1;  MIXPRE=   1;  MAXMIX= -45

 Intra band minimization:
   WEIMIN = 0.0000     energy-eigenvalue tresh-hold
   EBREAK =  0.39E-07  absolut break condition
   DEPER  =   0.30     relativ break condition  

   TIME   =   0.40     timestep for ELM

  volume/ion in A,a.u.               =      26.57       179.31
  Fermi-wavevector in a.u.,A,eV,Ry     =   1.220112  2.305678 20.254633  1.488674
  Thomas-Fermi vector in A             =   2.355341
 
 Write flags
   LWAVE        =      F    write WAVECAR
   LDOWNSAMPLE  =      F    k-point downsampling of WAVECAR
   LCHARG       =      F    write CHGCAR
   LVTOT        =      F    write LOCPOT, total local potential
   LVHAR        =      F    write LOCPOT, Hartree potential only
   LELF         =      F    write electronic localiz. function (ELF)
   LORBIT       =      0    0 simple, 1 ext, 2 COOP (PROOUT), +10 PAW based schemes


 Dipole corrections
   LMONO  =      F    monopole corrections only (constant potential shift)
   LDIPOL =      F    correct potential (dipole corrections)
   IDIPOL =      0    1-x, 2-y, 3-z, 4-all directions 
   EPSILON=  1.0000000 bulk dielectric constant

 Exchange correlation treatment:
   GGA     =    --    GGA type
   LEXCH   =     8    internal setting for exchange type
   VOSKOWN=      0    Vosko Wilk Nusair interpolation
   LHFCALC =     F    Hartree Fock is set to
   LHFONE  =     F    Hartree Fock one center treatment
   AEXX    =    0.0000 exact exchange contribution

 Linear response parameters
   LEPSILON=     F    determine dielectric tensor
   LRPA    =     F    only Hartree local field effects (RPA)
   LNABLA  =     F    use nabla operator in PAW spheres
   LVEL    =     F    velocity operator in full k-point grid
   LINTERFAST=   F  fast interpolation
   KINTER  =     0    interpolate to denser k-point grid
   CSHIFT  =0.1000    complex shift for real part using Kramers Kronig
   OMEGAMAX=  -1.0    maximum frequency
   DEG_THRESHOLD= 0.2000000E-02 threshold for treating states as degnerate
   RTIME   =   -0.100 relaxation time in fs
  (WPLASMAI=    0.000 imaginary part of plasma frequency in eV, 0.658/RTIME)
   DFIELD  = 0.0000000 0.0000000 0.0000000 field for delta impulse in time
 
 Orbital magnetization related:
   ORBITALMAG=     F  switch on orbital magnetization
   LCHIMAG   =     F  perturbation theory with respect to B field
   DQ        =  0.001000  dq finite difference perturbation B field
   LLRAUG    =     F  two centre corrections for induced B field



--------------------------------------------------------------------------------------------------------


 Static calculation
 charge density and potential will be updated during run
 non-spin polarized calculation
 Variant of blocked Davidson
 Davidson routine will perform the subspace rotation
 perform sub-space diagonalisation
    after iterative eigenvector-optimisation
 modified Broyden-mixing scheme, WC =      100.0
 initial mixing is a Kerker type mixing with AMIX =  0.4000 and BMIX =      1.0000
 Hartree-type preconditioning will be used
 using additional bands          106
 real space projection scheme for non local part
 use partial core corrections
 calculate Harris-corrections to forces 
   (improved forces if not selfconsistent)
 use gradient corrections 
 use of overlap-Matrix (Vanderbilt PP)
 Gauss-broadening in eV      SIGMA  =   0.20


--------------------------------------------------------------------------------------------------------


  energy-cutoff  :      450.00
  volume of cell :     2550.88
      direct lattice vectors                 reciprocal lattice vectors
    11.256463038  0.000000000  0.000000000     0.088837852 -0.044535036  0.000000000
     5.044562121 10.062820337  0.000000000     0.000000000  0.099375718  0.000000000
     0.000000000  0.000000000 22.519955973     0.000000000  0.000000000  0.044405060

  length of vectors
    11.256463038 11.256463038 22.519955973     0.099375718  0.099375718  0.044405060


 
 k-points in units of 2pi/SCALE and weight: gamma-point-only calculation. no periodi
   0.00000000  0.00000000  0.00000000       1.000
 
 k-points in reciprocal lattice and weights: gamma-point-only calculation. no periodi
   0.00000000  0.00000000  0.00000000       1.000
 
 position of ions in fractional coordinates (direct lattice) 
   0.26092069  0.47878037  0.29519774
   0.35488056  0.38482050  0.42557357
   0.04185877  0.21298224  0.09058243
   0.16696082  0.07274025  0.16482191
   0.02643086  0.04959389  0.49010927
   0.19903824  0.32302542  0.03669732
   0.27423906  0.33335901  0.13037583
   0.36819893  0.23939914  0.26075166
   0.46215879  0.14543927  0.39112749
   0.00030194  0.37150214  0.26075166
   0.09426180  0.27754227  0.39112749
   0.21052328  0.21241048  0.48357845
   0.40634206  0.46546200  0.13037583
   0.22518396  0.00666494  0.05287133
   0.76092069  0.47878037  0.29519774
   0.85488056  0.38482050  0.42557357
   0.54185920  0.21298173  0.09058177
   0.66696082  0.07274025  0.16482191
   0.69903785  0.32302547  0.03669740
   0.77423906  0.33335901  0.13037583
   0.86819893  0.23939914  0.26075166
   0.96215879  0.14543927  0.39112749
   0.50030194  0.37150214  0.26075166
   0.59426180  0.27754227  0.39112749
   0.90634206  0.46546200  0.13037583
   0.72518445  0.00666463  0.05287121
   0.26092069  0.97878037  0.29519774
   0.35488056  0.88482051  0.42557357
   0.16696083  0.57274025  0.16482191
   0.06307477  0.51854267  0.47824965
   0.27423906  0.83335901  0.13037583
   0.36819893  0.73939914  0.26075166
   0.46215879  0.64543927  0.39112749
   0.00030194  0.87150214  0.26075166
   0.09426180  0.77754227  0.39112749
   0.40634206  0.96546200  0.13037583
   0.21573839  0.53066008  0.05758954
   0.76092069  0.97878037  0.29519774
   0.85488056  0.88482051  0.42557357
   0.66696083  0.57274025  0.16482191
   0.55622103  0.52796840  0.48100856
   0.77423906  0.83335901  0.13037583
   0.86819893  0.73939914  0.26075166
   0.96215879  0.64543927  0.39112749
   0.50030194  0.87150214  0.26075166
   0.59426180  0.77754227  0.39112749
   0.90634206  0.96546200  0.13037583
   0.71573832  0.53065996  0.05758962
   0.07287763  0.16682345  0.31134757
   0.16683750  0.07286358  0.44172340
   0.38495788  0.35474318  0.05059590
   0.47891775  0.26078331  0.18097174
   0.02025188  0.36147565  0.47604177
   0.43627354  0.47164252  0.35520991
   0.24835381  0.15956227  0.09445824
   0.34231367  0.06560240  0.22483408
   0.08548843  0.47294628  0.09911198
   0.17409868  0.39738739  0.22483408
   0.26805854  0.30342752  0.35520991
   0.38617755  0.21602038  0.47345532
   0.57287763  0.16682345  0.31134757
   0.66568438  0.07389968  0.41729055
   0.88495788  0.35474318  0.05059590
   0.97891775  0.26078331  0.18097174
   0.52191375  0.36864133  0.47112671
   0.93627354  0.47164252  0.35520991
   0.74835381  0.15956227  0.09445824
   0.84231367  0.06560240  0.22483408
   0.58548829  0.47294629  0.09911209
   0.67409868  0.39738739  0.22483408
   0.76805854  0.30342752  0.35520991
   0.86345993  0.21946490  0.47014526
   0.07287763  0.66682345  0.31134757
   0.17012042  0.57623074  0.42272762
   0.39768830  0.84241926  0.06463194
   0.47891775  0.76078331  0.18097174
   0.01881168  0.87896193  0.46933163
   0.43627354  0.97164252  0.35520991
   0.25751426  0.65835096  0.10889593
   0.34231367  0.56560240  0.22483408
   0.07712468  0.99572718  0.10393184
   0.17409868  0.89738739  0.22483408
   0.26805854  0.80342752  0.35520991
   0.39883697  0.71255940  0.47494842
   0.57287763  0.66682345  0.31134757
   0.66778941  0.57556277  0.42356442
   0.89768861  0.84241893  0.06463200
   0.97891775  0.76078331  0.18097174
   0.51768623  0.87893931  0.46629322
   0.93627354  0.97164252  0.35520991
   0.75751425  0.65835095  0.10889591
   0.84231367  0.56560240  0.22483408
   0.57712488  0.99572721  0.10393172
   0.67409868  0.89738739  0.22483408
   0.76805854  0.80342752  0.35520991
   0.90549087  0.70866871  0.47509432
 
 position of ions in cartesian coordinates  (Angst):
   5.35228144  4.81788086  6.64784004
   5.93595083  3.87237960  9.58389801
   1.54558383  2.14320206  2.03991237
   2.24633108  0.73197210  3.71178209
   0.54769748  0.49905446 11.03723917
   3.86998837  3.25054675  0.82642210
   4.76861206  3.35453179  2.93605795
   5.35228145  2.40903053  5.87211593
   5.93595082  1.46352927  8.80817388
   1.87746436  3.73835925  5.87211593
   2.46113373  2.79285799  8.80817388
   3.44126537  2.13744848 10.89016549
   6.92202632  4.68386050  2.93605795
   2.56839667  0.06706812  1.19066012
  10.98051296  4.81788086  6.64784004
  11.56418235  3.87237960  9.58389801
   7.17381764  2.14319691  2.03989752
   7.87456260  0.73197210  3.71178209
   9.49821570  3.25054724  0.82642378
  10.39684358  3.35453179  2.93605795
  10.98051297  2.40903053  5.87211593
  11.56418234  1.46352927  8.80817388
   7.50569588  3.73835925  5.87211593
   8.08936525  2.79285799  8.80817388
  12.55025784  4.68386050  2.93605795
   8.19663210  0.06706499  1.19065735
   7.87456250  9.84929103  6.64784004
   8.45823189  8.90378977  9.58389801
   4.76861214  5.76338227  3.71178209
   3.32581956  5.21800168 10.77016117
   7.29089312  8.38594195  2.93605795
   7.87456251  7.44044070  5.87211593
   8.45823188  6.49493944  8.80817388
   4.39974542  8.76976942  5.87211593
   4.98341479  7.82426816  8.80817388
   9.44430738  9.71527067  2.93605795
   5.10539898  5.33993704  1.29691380
  13.50279402  9.84929103  6.64784004
  14.08646341  8.90378977  9.58389801
  10.39684366  5.76338227  3.71178209
   8.92445085  5.31285117 10.83229154
  12.91912464  8.38594195  2.93605795
  13.50279403  7.44044070  5.87211593
  14.08646340  6.49493944  8.80817388
  10.02797694  8.76976942  5.87211593
  10.61164631  7.82426816  8.80817388
  15.07253890  9.71527067  2.93605795
  10.73362906  5.33993582  1.29691568
   1.66189560  1.67871438  7.01153346
   2.24556499  0.73321311  9.94759143
   6.12278818  3.56971688  1.13941755
   6.70645757  2.62421563  4.07547550
   2.05145095  3.63746454 10.72043960
   7.29012695  4.74605393  7.99931144
   3.60050720  1.60564642  2.12719552
   4.18417659  0.66014516  5.06325349
   3.34810431  4.75917347  2.23199746
   3.96438071  3.99883791  5.06325349
   4.54805009  3.05333666  7.99931144
   5.43672147  2.17377423 10.66219307
   7.29012712  1.67871438  7.01153346
   7.86604311  0.74363918  9.39736487
  11.75101970  3.56971688  1.13941755
  12.33468909  2.62421563  4.07547550
   7.73453691  3.70957150 10.60975269
  12.91835847  4.74605393  7.99931144
   9.22873872  1.60564642  2.12719552
   9.81240811  0.66014516  5.06325349
   8.97633425  4.75917350  2.23199981
   9.59261223  3.99883791  5.06325349
  10.17628161  3.05333666  7.99931144
  10.82660910  2.20843588 10.58765062
   4.18417666  6.71012454  7.01153346
   4.82178595  5.79850642  9.51980747
   8.72619999  8.47711369  1.45550852
   9.22873863  7.65562579  4.07547550
   4.64573104  8.84483593 10.56932756
   9.81240801  9.77746410  7.99931144
   6.21979201  6.62486743  2.45233154
   6.70645765  5.69155533  5.06325349
   5.89115875 10.01982370  2.34054054
   6.48666177  9.03024808  5.06325349
   7.07033115  8.08474683  7.99931144
   8.08404374  7.17035722 10.69581748
   9.81240818  6.71012454  7.01153346
  10.42040892  5.79178477  9.53865212
  14.35443329  8.47711032  1.45550971
  14.85697015  7.65562579  4.07547550
  10.26117984  8.84460835 10.50090288
  15.44063953  9.77746410  7.99931144
  11.84802338  6.62486728  2.45233109
  12.33468917  5.69155533  5.06325349
  11.51939260 10.01982397  2.34053783
  12.11489329  9.03024808  5.06325349
  12.69856267  8.08474683  7.99931144
  13.76754785  7.13120593 10.69910327
 


--------------------------------------------------------------------------------------------------------


 use parallel FFT for orbitals z direction half grid
 k-point  1 :   0.0000 0.0000 0.0000  plane waves:   27671

 maximum and minimum number of plane-waves per node :      4613     4610

 maximum number of plane-waves:     27671
 maximum index in each direction: 
   IXMAX=   19   IYMAX=   19   IZMAX=   38
   IXMIN=  -19   IYMIN=  -19   IZMIN=    0


 real space projection operators:
  total allocation   :      15710.31 KBytes
  max/ min on nodes  :       2643.14       2594.64


 parallel 3D FFT for wavefunctions:
    minimum data exchange during FFTs selected (reduces bandwidth)
 parallel 3D FFT for charge:
    minimum data exchange during FFTs selected (reduces bandwidth)


 total amount of memory used by VASP MPI-rank0    87638. kBytes
=======================================================================

   base      :      30000. kBytes
   nonlr-proj:       3208. kBytes
   fftplans  :      11274. kBytes
   grid      :      19113. kBytes
   one-center:        124. kBytes
   wavefun   :      23919. kBytes
 
     INWAV:  cpu time    0.0000: real time    0.0000
 Broyden mixing: mesh for mixing (old mesh)
   NGX = 39   NGY = 39   NGZ = 77
  (NGX  =120   NGY  =120   NGZ  =240)
  gives a total of 117117 points

 initial charge density was supplied:
 charge density of overlapping atoms calculated
 number of electron    1056.0000000 magnetization 
 keeping initial charge density in first step


--------------------------------------------------------------------------------------------------------


 Maximum index for non-local projection operator          326
 Maximum index for augmentation-charges          493 (set IRDMAX)


--------------------------------------------------------------------------------------------------------


 First call to EWALD:  gamma=   0.130
 Maximum number of real-space cells 4x 4x 2
 Maximum number of reciprocal cells 2x 2x 4

    FEWALD:  cpu time    0.0126: real time    0.0126


--------------------------------------- Iteration      1(   1)  ---------------------------------------


    POTLOK:  cpu time    0.3752: real time    0.3752
    SETDIJ:  cpu time    0.0230: real time    0.0230
     EDDAV:  cpu time   13.4432: real time   13.4459
       DOS:  cpu time    0.0017: real time    0.0017
    --------------------------------------------
      LOOP:  cpu time   13.8432: real time   13.8459

 eigenvalue-minimisations  :  1540
 total energy-change (2. order) : 0.1341504E+05  (-0.6851183E+05)
 number of electron    1056.0000000 magnetization 
 augmentation part     1056.0000000 magnetization 

 Free energy of the ion-electron system (eV)
  ---------------------------------------------------
  alpha Z        PSCENC =      2592.50432107
  Ewald energy   TEWEN  =    338418.31454300
  -Hartree energ DENC   =   -501628.02988380
  -exchange      EXHF   =         0.00000000
  -V(xc)+E(xc)   XCENC  =      4906.09527420
  PAW double counting   =    150306.04444553  -156855.34918313
  entropy T*S    EENTRO =        -0.49510238
  eigenvalues    EBANDS =     -5660.84931819
  atomic energy  EATOM  =    181336.80673834
  Solvation  Ediel_sol  =         0.00000000
  ---------------------------------------------------
  free energy    TOTEN  =     13415.04183465 eV

  energy without entropy =    13415.53693704  energy(sigma->0) =    13415.28938584


--------------------------------------------------------------------------------------------------------




--------------------------------------- Iteration      1(   2)  ---------------------------------------


     EDDAV:  cpu time   12.1135: real time   12.1167
       DOS:  cpu time    0.0016: real time    0.0016
    --------------------------------------------
      LOOP:  cpu time   12.1151: real time   12.1182

 eigenvalue-minimisations  :  1332
 total energy-change (2. order) :-0.1255740E+05  (-0.1213393E+05)
 number of electron    1056.0000000 magnetization 
 augmentation part     1056.0000000 magnetization 

 Free energy of the ion-electron system (eV)
  ---------------------------------------------------
  alpha Z        PSCENC =      2592.50432107
  Ewald energy   TEWEN  =    338418.31454300
  -Hartree energ DENC   =   -501628.02988380
  -exchange      EXHF   =         0.00000000
  -V(xc)+E(xc)   XCENC  =      4906.09527420
  PAW double counting   =    150306.04444553  -156855.34918313
  entropy T*S    EENTRO =        -0.87329852
  eigenvalues    EBANDS =    -18217.87540525
  atomic energy  EATOM  =    181336.80673834
  Solvation  Ediel_sol  =         0.00000000
  ---------------------------------------------------
  free energy    TOTEN  =       857.63755145 eV

  energy without entropy =      858.51084997  energy(sigma->0) =      858.07420071


--------------------------------------------------------------------------------------------------------




--------------------------------------- Iteration      1(   3)  ---------------------------------------


     EDDAV:  cpu time   12.8598: real time   12.8621
       DOS:  cpu time    0.0016: real time    0.0016
    --------------------------------------------
      LOOP:  cpu time   12.8614: real time   12.8637

 eigenvalue-minimisations  :  1430
 total energy-change (2. order) :-0.1306937E+04  (-0.1238879E+04)
 number of electron    1056.0000000 magnetization 
 augmentation part     1056.0000000 magnetization 

 Free energy of the ion-electron system (eV)
  ---------------------------------------------------
  alpha Z        PSCENC =      2592.50432107
  Ewald energy   TEWEN  =    338418.31454300
  -Hartree energ DENC   =   -501628.02988380
  -exchange      EXHF   =         0.00000000
  -V(xc)+E(xc)   XCENC  =      4906.09527420
  PAW double counting   =    150306.04444553  -156855.34918313
  entropy T*S    EENTRO =        -1.42486404
  eigenvalues    EBANDS =    -19524.26046940
  atomic energy  EATOM  =    181336.80673834
  Solvation  Ediel_sol  =         0.00000000
  ---------------------------------------------------
  free energy    TOTEN  =      -449.29907821 eV

  energy without entropy =     -447.87421417  energy(sigma->0) =     -448.58664619


--------------------------------------------------------------------------------------------------------




--------------------------------------- Iteration      1(   4)  ---------------------------------------


     EDDAV:  cpu time   12.9077: real time   12.9098
       DOS:  cpu time    0.0015: real time    0.0015
    --------------------------------------------
      LOOP:  cpu time   12.9091: real time   12.9112

 eigenvalue-minimisations  :  1456
 total energy-change (2. order) :-0.8257921E+02  (-0.8157715E+02)
 number of electron    1056.0000000 magnetization 
 augmentation part     1056.0000000 magnetization 

 Free energy of the ion-electron system (eV)
  ---------------------------------------------------
  alpha Z        PSCENC =      2592.50432107
  Ewald energy   TEWEN  =    338418.31454300
  -Hartree energ DENC   =   -501628.02988380
  -exchange      EXHF   =         0.00000000
  -V(xc)+E(xc)   XCENC  =      4906.09527420
  PAW double counting   =    150306.04444553  -156855.34918313
  entropy T*S    EENTRO =        -1.45867229
  eigenvalues    EBANDS =    -19606.80586824
  atomic energy  EATOM  =    181336.80673834
  Solvation  Ediel_sol  =         0.00000000
  ---------------------------------------------------
  free energy    TOTEN  =      -531.87828531 eV

  energy without entropy =     -530.41961302  energy(sigma->0) =     -531.14894917


--------------------------------------------------------------------------------------------------------




--------------------------------------- Iteration      1(   5)  ---------------------------------------


     EDDAV:  cpu time   14.4809: real time   14.4845
       DOS:  cpu time    0.0016: real time    0.0016
    CHARGE:  cpu time    0.4034: real time    0.4035
    MIXING:  cpu time    0.0110: real time    0.0111
    --------------------------------------------
      LOOP:  cpu time   14.8970: real time   14.9007

 eigenvalue-minimisations  :  1656
 total energy-change (2. order) :-0.3374210E+01  (-0.3368694E+01)
 number of electron    1056.0000230 magnetization 
 augmentation part      382.5128737 magnetization 

 Broyden mixing:
  rms(total) = 0.10993E+02    rms(broyden)= 0.10979E+02
  rms(prec ) = 0.11335E+02
  weight for this iteration     100.00

 Free energy of the ion-electron system (eV)
  ---------------------------------------------------
  alpha Z        PSCENC =      2592.50432107
  Ewald energy   TEWEN  =    338418.31454300
  -Hartree energ DENC   =   -501628.02988380
  -exchange      EXHF   =         0.00000000
  -V(xc)+E(xc)   XCENC  =      4906.09527420
  PAW double counting   =    150306.04444553  -156855.34918313
  entropy T*S    EENTRO =        -1.47294798
  eigenvalues    EBANDS =    -19610.16580279
  atomic energy  EATOM  =    181336.80673834
  Solvation  Ediel_sol  =         0.00000000
  ---------------------------------------------------
  free energy    TOTEN  =      -535.25249555 eV

  energy without entropy =     -533.77954757  energy(sigma->0) =     -534.51602156


--------------------------------------------------------------------------------------------------------




--------------------------------------- Iteration      1(   6)  ---------------------------------------


    POTLOK:  cpu time    0.3650: real time    0.3652
    SETDIJ:  cpu time    0.0232: real time    0.0232
     EDDAV:  cpu time   14.1525: real time   14.1552
       DOS:  cpu time    0.0015: real time    0.0014
    CHARGE:  cpu time    0.4082: real time    0.4082
    MIXING:  cpu time    0.0112: real time    0.0112
    --------------------------------------------
      LOOP:  cpu time   14.9616: real time   14.9645

 eigenvalue-minimisations  :  1592
 total energy-change (2. order) :-0.1007273E+03  (-0.1218189E+03)
 number of electron    1056.0000283 magnetization 
 augmentation part      458.5021623 magnetization 

 Broyden mixing:
  rms(total) = 0.18398E+02    rms(broyden)= 0.18394E+02
  rms(prec ) = 0.19221E+02
  weight for this iteration     100.00

 eigenvalues of (default mixing * dielectric matrix)
  average eigenvalue GAMMA=   0.2371
  0.2371

 Free energy of the ion-electron system (eV)
  ---------------------------------------------------
  alpha Z        PSCENC =      2592.50432107
  Ewald energy   TEWEN  =    338418.31454300
  -Hartree energ DENC   =   -497992.80318341
  -exchange      EXHF   =         0.00000000
  -V(xc)+E(xc)   XCENC  =      4807.71168915
  PAW double counting   =    156411.97096465  -162654.87080409
  entropy T*S    EENTRO =        -1.03009283
  eigenvalues    EBANDS =    -23554.58401679
  atomic energy  EATOM  =    181336.80673834
  Solvation  Ediel_sol  =         0.00000000
  ---------------------------------------------------
  free energy    TOTEN  =      -635.97984090 eV

  energy without entropy =     -634.94974808  energy(sigma->0) =     -635.46479449


--------------------------------------------------------------------------------------------------------




--------------------------------------- Iteration      1(   7)  ---------------------------------------


    POTLOK:  cpu time    0.3556: real time    0.3556
    SETDIJ:  cpu time    0.0231: real time    0.0231
     EDDAV:  cpu time   12.8772: real time   12.8789
       DOS:  cpu time    0.0015: real time    0.0015
    CHARGE:  cpu time    0.3923: real time    0.3923
    MIXING:  cpu time    0.0113: real time    0.0113
    --------------------------------------------
      LOOP:  cpu time   13.6610: real time   13.6627

 eigenvalue-minimisations  :  1448
 total energy-change (2. order) : 0.1300621E+03  (-0.2614315E+02)
 number of electron    1056.0000231 magnetization 
 augmentation part      442.2965283 magnetization 

 Broyden mixing:
  rms(total) = 0.89092E+01    rms(broyden)= 0.89068E+01
  rms(prec ) = 0.93757E+01
  weight for this iteration     100.00

 eigenvalues of (default mixing * dielectric matrix)
  average eigenvalue GAMMA=   0.4309
  0.4309  0.4309

 Free energy of the ion-electron system (eV)
  ---------------------------------------------------
  alpha Z        PSCENC =      2592.50432107
  Ewald energy   TEWEN  =    338418.31454300
  -Hartree energ DENC   =   -499539.01298508
  -exchange      EXHF   =         0.00000000
  -V(xc)+E(xc)   XCENC  =      4838.77876115
  PAW double counting   =    161874.49084888  -168285.38020501
  entropy T*S    EENTRO =        -0.99913000
  eigenvalues    EBANDS =    -21741.42067359
  atomic energy  EATOM  =    181336.80673834
  Solvation  Ediel_sol  =         0.00000000
  ---------------------------------------------------
  free energy    TOTEN  =      -505.91778125 eV

  energy without entropy =     -504.91865124  energy(sigma->0) =     -505.41821624


--------------------------------------------------------------------------------------------------------




--------------------------------------- Iteration      1(   8)  ---------------------------------------


    POTLOK:  cpu time    0.3609: real time    0.3613
    SETDIJ:  cpu time    0.0230: real time    0.0230
     EDDAV:  cpu time   14.6512: real time   14.6541
       DOS:  cpu time    0.0015: real time    0.0014
    CHARGE:  cpu time    0.3844: real time    0.3844
    MIXING:  cpu time    0.0125: real time    0.0125
    --------------------------------------------
      LOOP:  cpu time   15.4335: real time   15.4367

 eigenvalue-minimisations  :  1680
 total energy-change (2. order) :-0.1529801E+03  (-0.2466896E+02)
 number of electron    1056.0000378 magnetization 
 augmentation part      412.1316891 magnetization 

 Broyden mixing:
  rms(total) = 0.17814E+02    rms(broyden)= 0.17810E+02
  rms(prec ) = 0.22093E+02
  weight for this iteration     100.00

 eigenvalues of (default mixing * dielectric matrix)
  average eigenvalue GAMMA=   0.4248
  0.6641  0.4690  0.1412

 Free energy of the ion-electron system (eV)
  ---------------------------------------------------
  alpha Z        PSCENC =      2592.50432107
  Ewald energy   TEWEN  =    338418.31454300
  -Hartree energ DENC   =   -500288.23224653
  -exchange      EXHF   =         0.00000000
  -V(xc)+E(xc)   XCENC  =      4869.21102006
  PAW double counting   =    169081.11587175  -175656.33184640
  entropy T*S    EENTRO =        -0.90703896
  eigenvalues    EBANDS =    -21011.37920119
  atomic energy  EATOM  =    181336.80673834
  Solvation  Ediel_sol  =         0.00000000
  ---------------------------------------------------
  free energy    TOTEN  =      -658.89783887 eV

  energy without entropy =     -657.99079991  energy(sigma->0) =     -658.44431939


--------------------------------------------------------------------------------------------------------




--------------------------------------- Iteration      1(   9)  ---------------------------------------


    POTLOK:  cpu time    0.3597: real time    0.3597
    SETDIJ:  cpu time    0.0231: real time    0.0231
     EDDAV:  cpu time   14.9164: real time   14.9257
       DOS:  cpu time    0.0015: real time    0.0015
    CHARGE:  cpu time    0.3947: real time    0.3949
    MIXING:  cpu time    0.0125: real time    0.0125
    --------------------------------------------
      LOOP:  cpu time   15.7080: real time   15.7175

 eigenvalue-minimisations  :  1704
 total energy-change (2. order) : 0.1009248E+03  (-0.2486127E+02)
 number of electron    1056.0000261 magnetization 
 augmentation part      406.3557629 magnetization 

 Broyden mixing:
  rms(total) = 0.13632E+02    rms(broyden)= 0.13624E+02
  rms(prec ) = 0.15554E+02
  weight for this iteration     100.00

 eigenvalues of (default mixing * dielectric matrix)
  average eigenvalue GAMMA=   0.4278
  0.9837  0.3952  0.2336  0.0987

 Free energy of the ion-electron system (eV)
  ---------------------------------------------------
  alpha Z        PSCENC =      2592.50432107
  Ewald energy   TEWEN  =    338418.31454300
  -Hartree energ DENC   =   -500712.00939343
  -exchange      EXHF   =         0.00000000
  -V(xc)+E(xc)   XCENC  =      4873.63207115
  PAW double counting   =    173982.73721372  -180615.55365953
  entropy T*S    EENTRO =        -1.13300916
  eigenvalues    EBANDS =    -20433.27189891
  atomic energy  EATOM  =    181336.80673834
  Solvation  Ediel_sol  =         0.00000000
  ---------------------------------------------------
  free energy    TOTEN  =      -557.97307374 eV

  energy without entropy =     -556.84006458  energy(sigma->0) =     -557.40656916


--------------------------------------------------------------------------------------------------------




--------------------------------------- Iteration      1(  10)  ---------------------------------------


    POTLOK:  cpu time    0.3558: real time    0.3561
    SETDIJ:  cpu time    0.0232: real time    0.0232
     EDDAV:  cpu time   14.9956: real time   15.0052
       DOS:  cpu time    0.0018: real time    0.0017
    CHARGE:  cpu time    0.3974: real time    0.3974
    MIXING:  cpu time    0.0139: real time    0.0139
    --------------------------------------------
      LOOP:  cpu time   15.7877: real time   15.7977

 eigenvalue-minimisations  :  1728
 total energy-change (2. order) : 0.4471670E+02  (-0.1744344E+02)
 number of electron    1056.0000296 magnetization 
 augmentation part      408.4862883 magnetization 

 Broyden mixing:
  rms(total) = 0.75276E+01    rms(broyden)= 0.75231E+01
  rms(prec ) = 0.81821E+01
  weight for this iteration     100.00

 eigenvalues of (default mixing * dielectric matrix)
  average eigenvalue GAMMA=   0.5707
  1.7739  0.4127  0.4127  0.1456  0.1086

 Free energy of the ion-electron system (eV)
  ---------------------------------------------------
  alpha Z        PSCENC =      2592.50432107
  Ewald energy   TEWEN  =    338418.31454300
  -Hartree energ DENC   =   -500780.48898811
  -exchange      EXHF   =         0.00000000
  -V(xc)+E(xc)   XCENC  =      4870.73580877
  PAW double counting   =    177904.44067122  -184561.03148836
  entropy T*S    EENTRO =        -1.11566541
  eigenvalues    EBANDS =    -20293.42231441
  atomic energy  EATOM  =    181336.80673834
  Solvation  Ediel_sol  =         0.00000000
  ---------------------------------------------------
  free energy    TOTEN  =      -513.25637390 eV

  energy without entropy =     -512.14070849  energy(sigma->0) =     -512.69854119


--------------------------------------------------------------------------------------------------------




--------------------------------------- Iteration      1(  11)  ---------------------------------------


    POTLOK:  cpu time    0.3577: real time    0.3610
    SETDIJ:  cpu time    0.0230: real time    0.0230
     EDDAV:  cpu time   15.5957: real time   15.6007
       DOS:  cpu time    0.0014: real time    0.0014
    CHARGE:  cpu time    0.3916: real time    0.3916
    MIXING:  cpu time    0.0134: real time    0.0134
    --------------------------------------------
      LOOP:  cpu time   16.3828: real time   16.3911

 eigenvalue-minimisations  :  1824
 total energy-change (2. order) :-0.2992210E+02  (-0.9600700E+01)
 number of electron    1056.0000037 magnetization 
 augmentation part      407.1171900 magnetization 

 Broyden mixing:
  rms(total) = 0.13291E+02    rms(broyden)= 0.13287E+02
  rms(prec ) = 0.15956E+02
  weight for this iteration     100.00

 eigenvalues of (default mixing * dielectric matrix)
  average eigenvalue GAMMA=   0.5686
  2.1790  0.4163  0.4163  0.1512  0.1512  0.0975

 Free energy of the ion-electron system (eV)
  ---------------------------------------------------
  alpha Z        PSCENC =      2592.50432107
  Ewald energy   TEWEN  =    338418.31454300
  -Hartree energ DENC   =   -500577.34388848
  -exchange      EXHF   =         0.00000000
  -V(xc)+E(xc)   XCENC  =      4868.12942072
  PAW double counting   =    184993.84984913  -191701.58031601
  entropy T*S    EENTRO =        -1.31789139
  eigenvalues    EBANDS =    -20472.54125167
  atomic energy  EATOM  =    181336.80673834
  Solvation  Ediel_sol  =         0.00000000
  ---------------------------------------------------
  free energy    TOTEN  =      -543.17847528 eV

  energy without entropy =     -541.86058390  energy(sigma->0) =     -542.51952959


--------------------------------------------------------------------------------------------------------




--------------------------------------- Iteration      1(  12)  ---------------------------------------


    POTLOK:  cpu time    0.3556: real time    0.3556
    SETDIJ:  cpu time    0.0238: real time    0.0238
     EDDAV:  cpu time   15.0034: real time   15.0084
       DOS:  cpu time    0.0015: real time    0.0015
    CHARGE:  cpu time    0.3915: real time    0.3915
    MIXING:  cpu time    0.0143: real time    0.0143
    --------------------------------------------
      LOOP:  cpu time   15.7901: real time   15.7951

 eigenvalue-minimisations  :  1736
 total energy-change (2. order) : 0.3836928E+02  (-0.8026974E+01)
 number of electron    1056.0000301 magnetization 
 augmentation part      415.8390861 magnetization 

 Broyden mixing:
  rms(total) = 0.57127E+01    rms(broyden)= 0.57069E+01
  rms(prec ) = 0.64056E+01
  weight for this iteration     100.00

 eigenvalues of (default mixing * dielectric matrix)
  average eigenvalue GAMMA=   0.5589
  2.2861  0.4419  0.4419  0.3669  0.1404  0.1404  0.0950

 Free energy of the ion-electron system (eV)
  ---------------------------------------------------
  alpha Z        PSCENC =      2592.50432107
  Ewald energy   TEWEN  =    338418.31454300
  -Hartree energ DENC   =   -500643.51950243
  -exchange      EXHF   =         0.00000000
  -V(xc)+E(xc)   XCENC  =      4862.60807296
  PAW double counting   =    189072.76481444  -195792.87506909
  entropy T*S    EENTRO =        -0.99394748
  eigenvalues    EBANDS =    -20350.41917009
  atomic energy  EATOM  =    181336.80673834
  Solvation  Ediel_sol  =         0.00000000
  ---------------------------------------------------
  free energy    TOTEN  =      -504.80919928 eV

  energy without entropy =     -503.81525179  energy(sigma->0) =     -504.31222553


--------------------------------------------------------------------------------------------------------




--------------------------------------- Iteration      1(  13)  ---------------------------------------


    POTLOK:  cpu time    0.3597: real time    0.3597
    SETDIJ:  cpu time    0.0232: real time    0.0232
     EDDAV:  cpu time   14.5935: real time   14.6018
       DOS:  cpu time    0.0017: real time    0.0016
    CHARGE:  cpu time    0.6211: real time    0.6213
    MIXING:  cpu time    0.0167: real time    0.0167
    --------------------------------------------
      LOOP:  cpu time   15.6158: real time   15.6243

 eigenvalue-minimisations  :  1704
 total energy-change (2. order) : 0.1347615E+02  (-0.5304776E+01)
 number of electron    1056.0000289 magnetization 
 augmentation part      416.6996974 magnetization 

 Broyden mixing:
  rms(total) = 0.66732E+01    rms(broyden)= 0.66714E+01
  rms(prec ) = 0.74785E+01
  weight for this iteration     100.00

 eigenvalues of (default mixing * dielectric matrix)
  average eigenvalue GAMMA=   0.5256
  2.2714  0.4597  0.4597  0.4379  0.2099  0.0963  0.1349  0.1349

 Free energy of the ion-electron system (eV)
  ---------------------------------------------------
  alpha Z        PSCENC =      2592.50432107
  Ewald energy   TEWEN  =    338418.31454300
  -Hartree energ DENC   =   -500552.52252063
  -exchange      EXHF   =         0.00000000
  -V(xc)+E(xc)   XCENC  =      4862.87070304
  PAW double counting   =    190201.87368276  -196930.94114262
  entropy T*S    EENTRO =        -1.12463694
  eigenvalues    EBANDS =    -20419.11473878
  atomic energy  EATOM  =    181336.80673834
  Solvation  Ediel_sol  =         0.00000000
  ---------------------------------------------------
  free energy    TOTEN  =      -491.33305075 eV

  energy without entropy =     -490.20841382  energy(sigma->0) =     -490.77073228


--------------------------------------------------------------------------------------------------------




--------------------------------------- Iteration      1(  14)  ---------------------------------------


    POTLOK:  cpu time    0.3617: real time    0.3617
    SETDIJ:  cpu time    0.0251: real time    0.0251
     EDDAV:  cpu time   14.9875: real time   15.0013
       DOS:  cpu time    0.0017: real time    0.0017
    CHARGE:  cpu time    0.6547: real time    0.6548
    MIXING:  cpu time    0.0158: real time    0.0158
    --------------------------------------------
      LOOP:  cpu time   16.0464: real time   16.0604

 eigenvalue-minimisations  :  1744
 total energy-change (2. order) : 0.1992295E+01  (-0.4669985E+01)
 number of electron    1056.0000299 magnetization 
 augmentation part      417.4248392 magnetization 

 Broyden mixing:
  rms(total) = 0.51887E+01    rms(broyden)= 0.51870E+01
  rms(prec ) = 0.57803E+01
  weight for this iteration     100.00

 eigenvalues of (default mixing * dielectric matrix)
  average eigenvalue GAMMA=   0.4913
  2.1603  0.5167  0.5167  0.3643  0.3643  0.1423  0.1423  0.0952  0.1199

 Free energy of the ion-electron system (eV)
  ---------------------------------------------------
  alpha Z        PSCENC =      2592.50432107
  Ewald energy   TEWEN  =    338418.31454300
  -Hartree energ DENC   =   -500521.31227998
  -exchange      EXHF   =         0.00000000
  -V(xc)+E(xc)   XCENC  =      4862.90203065
  PAW double counting   =    190252.88057888  -196979.27807702
  entropy T*S    EENTRO =        -1.23286777
  eigenvalues    EBANDS =    -20450.92574253
  atomic energy  EATOM  =    181336.80673834
  Solvation  Ediel_sol  =         0.00000000
  ---------------------------------------------------
  free energy    TOTEN  =      -489.34075535 eV

  energy without entropy =     -488.10788758  energy(sigma->0) =     -488.72432147


--------------------------------------------------------------------------------------------------------




--------------------------------------- Iteration      1(  15)  ---------------------------------------


    POTLOK:  cpu time    0.3604: real time    0.3608
    SETDIJ:  cpu time    0.0237: real time    0.0237
     EDDAV:  cpu time   14.9480: real time   14.9521
       DOS:  cpu time    0.0015: real time    0.0015
    CHARGE:  cpu time    0.3975: real time    0.3976
    MIXING:  cpu time    0.0165: real time    0.0165
    --------------------------------------------
      LOOP:  cpu time   15.7476: real time   15.7523

 eigenvalue-minimisations  :  1760
 total energy-change (2. order) : 0.9296187E+01  (-0.1452586E+01)
 number of electron    1056.0000269 magnetization 
 augmentation part      417.8807843 magnetization 

 Broyden mixing:
  rms(total) = 0.35257E+01    rms(broyden)= 0.35245E+01
  rms(prec ) = 0.39306E+01
  weight for this iteration     100.00

 eigenvalues of (default mixing * dielectric matrix)
  average eigenvalue GAMMA=   0.4760
  1.9954  0.6276  0.6276  0.4021  0.4021  0.1717  0.1717  0.0959  0.1330  0.1330

 Free energy of the ion-electron system (eV)
  ---------------------------------------------------
  alpha Z        PSCENC =      2592.50432107
  Ewald energy   TEWEN  =    338418.31454300
  -Hartree energ DENC   =   -500529.37559943
  -exchange      EXHF   =         0.00000000
  -V(xc)+E(xc)   XCENC  =      4863.94867590
  PAW double counting   =    189524.99991652  -196246.69281851
  entropy T*S    EENTRO =        -1.13922259
  eigenvalues    EBANDS =    -20439.41112217
  atomic energy  EATOM  =    181336.80673834
  Solvation  Ediel_sol  =         0.00000000
  ---------------------------------------------------
  free energy    TOTEN  =      -480.04456786 eV

  energy without entropy =     -478.90534527  energy(sigma->0) =     -479.47495656


--------------------------------------------------------------------------------------------------------




--------------------------------------- Iteration      1(  16)  ---------------------------------------


    POTLOK:  cpu time    0.4809: real time    0.4809
    SETDIJ:  cpu time    0.0238: real time    0.0238
     EDDAV:  cpu time   14.6798: real time   14.6909
       DOS:  cpu time    0.0015: real time    0.0014
    CHARGE:  cpu time    0.3925: real time    0.3925
    MIXING:  cpu time    0.0177: real time    0.0177
    --------------------------------------------
      LOOP:  cpu time   15.5962: real time   15.6073

 eigenvalue-minimisations  :  1704
 total energy-change (2. order) : 0.3366650E+01  (-0.8082076E+00)
 number of electron    1056.0000307 magnetization 
 augmentation part      416.3743082 magnetization 

 Broyden mixing:
  rms(total) = 0.34169E+01    rms(broyden)= 0.34160E+01
  rms(prec ) = 0.38478E+01
  weight for this iteration     100.00

 eigenvalues of (default mixing * dielectric matrix)
  average eigenvalue GAMMA=   0.4701
  1.9350  0.7446  0.7446  0.4098  0.4098  0.2455  0.1931  0.1362  0.1362  0.0958
  0.1207

 Free energy of the ion-electron system (eV)
  ---------------------------------------------------
  alpha Z        PSCENC =      2592.50432107
  Ewald energy   TEWEN  =    338418.31454300
  -Hartree energ DENC   =   -500582.82743600
  -exchange      EXHF   =         0.00000000
  -V(xc)+E(xc)   XCENC  =      4865.22667597
  PAW double counting   =    188434.31571527  -195147.22982710
  entropy T*S    EENTRO =        -1.27577191
  eigenvalues    EBANDS =    -20392.51287649
  atomic energy  EATOM  =    181336.80673834
  Solvation  Ediel_sol  =         0.00000000
  ---------------------------------------------------
  free energy    TOTEN  =      -476.67791785 eV

  energy without entropy =     -475.40214594  energy(sigma->0) =     -476.04003189


--------------------------------------------------------------------------------------------------------




--------------------------------------- Iteration      1(  17)  ---------------------------------------


    POTLOK:  cpu time    0.3639: real time    0.3639
    SETDIJ:  cpu time    0.0245: real time    0.0245
     EDDAV:  cpu time   15.1134: real time   15.1198
       DOS:  cpu time    0.0015: real time    0.0014
    CHARGE:  cpu time    0.3913: real time    0.3914
    MIXING:  cpu time    0.0206: real time    0.0206
    --------------------------------------------
      LOOP:  cpu time   15.9151: real time   15.9217

 eigenvalue-minimisations  :  1744
 total energy-change (2. order) : 0.2893825E+01  (-0.5844125E+00)
 number of electron    1056.0000255 magnetization 
 augmentation part      415.7545134 magnetization 

 Broyden mixing:
  rms(total) = 0.24630E+01    rms(broyden)= 0.24620E+01
  rms(prec ) = 0.27194E+01
  weight for this iteration     100.00

 eigenvalues of (default mixing * dielectric matrix)
  average eigenvalue GAMMA=   0.4865
  1.9834  0.8667  0.8667  0.4422  0.4422  0.3765  0.2154  0.0958  0.1376  0.1376
  0.1507  0.1228

 Free energy of the ion-electron system (eV)
  ---------------------------------------------------
  alpha Z        PSCENC =      2592.50432107
  Ewald energy   TEWEN  =    338418.31454300
  -Hartree energ DENC   =   -500606.38718262
  -exchange      EXHF   =         0.00000000
  -V(xc)+E(xc)   XCENC  =      4865.87293843
  PAW double counting   =    187776.77977757  -194482.50442031
  entropy T*S    EENTRO =        -1.22580796
  eigenvalues    EBANDS =    -20373.94500020
  atomic energy  EATOM  =    181336.80673834
  Solvation  Ediel_sol  =         0.00000000
  ---------------------------------------------------
  free energy    TOTEN  =      -473.78409269 eV

  energy without entropy =     -472.55828472  energy(sigma->0) =     -473.17118870


--------------------------------------------------------------------------------------------------------




--------------------------------------- Iteration      1(  18)  ---------------------------------------


    POTLOK:  cpu time    0.3604: real time    0.3604
    SETDIJ:  cpu time    0.0233: real time    0.0233
     EDDAV:  cpu time   15.0124: real time   15.0192
       DOS:  cpu time    0.0015: real time    0.0015
    CHARGE:  cpu time    0.3980: real time    0.3981
    MIXING:  cpu time    0.0183: real time    0.0183
    --------------------------------------------
      LOOP:  cpu time   15.8141: real time   15.8208

 eigenvalue-minimisations  :  1736
 total energy-change (2. order) : 0.9863633E+00  (-0.3284562E+00)
 number of electron    1056.0000269 magnetization 
 augmentation part      415.8833641 magnetization 

 Broyden mixing:
  rms(total) = 0.22239E+01    rms(broyden)= 0.22231E+01
  rms(prec ) = 0.24577E+01
  weight for this iteration     100.00

 eigenvalues of (default mixing * dielectric matrix)
  average eigenvalue GAMMA=   0.5008
  2.0213  1.0226  1.0226  0.4753  0.4753  0.4249  0.2595  0.1627  0.1627  0.1345
  0.1345  0.0958  0.1191

 Free energy of the ion-electron system (eV)
  ---------------------------------------------------
  alpha Z        PSCENC =      2592.50432107
  Ewald energy   TEWEN  =    338418.31454300
  -Hartree energ DENC   =   -500606.17210942
  -exchange      EXHF   =         0.00000000
  -V(xc)+E(xc)   XCENC  =      4865.62663180
  PAW double counting   =    187465.61742834  -194164.13921002
  entropy T*S    EENTRO =        -1.28327698
  eigenvalues    EBANDS =    -20380.07279547
  atomic energy  EATOM  =    181336.80673834
  Solvation  Ediel_sol  =         0.00000000
  ---------------------------------------------------
  free energy    TOTEN  =      -472.79772935 eV

  energy without entropy =     -471.51445236  energy(sigma->0) =     -472.15609085


--------------------------------------------------------------------------------------------------------




--------------------------------------- Iteration      1(  19)  ---------------------------------------


    POTLOK:  cpu time    0.3596: real time    0.3597
    SETDIJ:  cpu time    0.0232: real time    0.0232
     EDDAV:  cpu time   14.7140: real time   14.7181
       DOS:  cpu time    0.0016: real time    0.0016
    CHARGE:  cpu time    0.3959: real time    0.3970
    MIXING:  cpu time    0.0220: real time    0.0220
    --------------------------------------------
      LOOP:  cpu time   15.5163: real time   15.5215

 eigenvalue-minimisations  :  1688
 total energy-change (2. order) : 0.7110611E+00  (-0.2057299E+00)
 number of electron    1056.0000279 magnetization 
 augmentation part      416.2873608 magnetization 

 Broyden mixing:
  rms(total) = 0.18934E+01    rms(broyden)= 0.18928E+01
  rms(prec ) = 0.21332E+01
  weight for this iteration     100.00

 eigenvalues of (default mixing * dielectric matrix)
  average eigenvalue GAMMA=   0.5251
  1.9971  1.2359  1.2359  0.5279  0.5279  0.4138  0.4138  0.1822  0.1822  0.1363
  0.1363  0.0958  0.1457  0.1207

 Free energy of the ion-electron system (eV)
  ---------------------------------------------------
  alpha Z        PSCENC =      2592.50432107
  Ewald energy   TEWEN  =    338418.31454300
  -Hartree energ DENC   =   -500598.65171134
  -exchange      EXHF   =         0.00000000
  -V(xc)+E(xc)   XCENC  =      4865.28606932
  PAW double counting   =    187094.71849965  -193785.32886108
  entropy T*S    EENTRO =        -1.23120885
  eigenvalues    EBANDS =    -20394.50505833
  atomic energy  EATOM  =    181336.80673834
  Solvation  Ediel_sol  =         0.00000000
  ---------------------------------------------------
  free energy    TOTEN  =      -472.08666822 eV

  energy without entropy =     -470.85545938  energy(sigma->0) =     -471.47106380


--------------------------------------------------------------------------------------------------------




--------------------------------------- Iteration      1(  20)  ---------------------------------------


    POTLOK:  cpu time    0.3637: real time    0.3638
    SETDIJ:  cpu time    0.0243: real time    0.0243
     EDDAV:  cpu time   15.0872: real time   15.0971
       DOS:  cpu time    0.0018: real time    0.0018
    CHARGE:  cpu time    0.3984: real time    0.3996
    MIXING:  cpu time    0.0211: real time    0.0211
    --------------------------------------------
      LOOP:  cpu time   15.8965: real time   15.9076

 eigenvalue-minimisations  :  1744
 total energy-change (2. order) : 0.8925626E+00  (-0.1039173E+00)
 number of electron    1056.0000260 magnetization 
 augmentation part      416.1615967 magnetization 

 Broyden mixing:
  rms(total) = 0.15057E+01    rms(broyden)= 0.15055E+01
  rms(prec ) = 0.16686E+01
  weight for this iteration     100.00

 eigenvalues of (default mixing * dielectric matrix)
  average eigenvalue GAMMA=   0.5450
  1.9749  1.4475  1.4475  0.5956  0.5956  0.4429  0.4429  0.2163  0.2163  0.0958
  0.1361  0.1361  0.1539  0.1539  0.1196

 Free energy of the ion-electron system (eV)
  ---------------------------------------------------
  alpha Z        PSCENC =      2592.50432107
  Ewald energy   TEWEN  =    338418.31454300
  -Hartree energ DENC   =   -500609.26144165
  -exchange      EXHF   =         0.00000000
  -V(xc)+E(xc)   XCENC  =      4865.39410406
  PAW double counting   =    186336.47044157  -193016.35820784
  entropy T*S    EENTRO =        -1.27274514
  eigenvalues    EBANDS =    -20393.79185904
  atomic energy  EATOM  =    181336.80673834
  Solvation  Ediel_sol  =         0.00000000
  ---------------------------------------------------
  free energy    TOTEN  =      -471.19410563 eV

  energy without entropy =     -469.92136049  energy(sigma->0) =     -470.55773306


--------------------------------------------------------------------------------------------------------




--------------------------------------- Iteration      1(  21)  ---------------------------------------


    POTLOK:  cpu time    0.3632: real time    0.3633
    SETDIJ:  cpu time    0.0233: real time    0.0233
     EDDAV:  cpu time   15.4234: real time   15.4312
       DOS:  cpu time    0.0047: real time    0.0047
    CHARGE:  cpu time    0.4029: real time    0.4041
    MIXING:  cpu time    0.0223: real time    0.0223
    --------------------------------------------
      LOOP:  cpu time   16.2399: real time   16.2490

 eigenvalue-minimisations  :  1792
 total energy-change (2. order) : 0.8424862E+00  (-0.9774343E-01)
 number of electron    1056.0000265 magnetization 
 augmentation part      415.9888337 magnetization 

 Broyden mixing:
  rms(total) = 0.10196E+01    rms(broyden)= 0.10192E+01
  rms(prec ) = 0.11339E+01
  weight for this iteration     100.00

 eigenvalues of (default mixing * dielectric matrix)
  average eigenvalue GAMMA=   0.5663
  1.9743  1.5911  1.5911  0.7109  0.7109  0.4519  0.4519  0.3928  0.2091  0.0958
  0.1359  0.1359  0.1717  0.1717  0.1465  0.1201

 Free energy of the ion-electron system (eV)
  ---------------------------------------------------
  alpha Z        PSCENC =      2592.50432107
  Ewald energy   TEWEN  =    338418.31454300
  -Hartree energ DENC   =   -500631.54937527
  -exchange      EXHF   =         0.00000000
  -V(xc)+E(xc)   XCENC  =      4865.48912248
  PAW double counting   =    185458.69725807  -192125.39788407
  entropy T*S    EENTRO =        -1.30767347
  eigenvalues    EBANDS =    -20383.90866957
  atomic energy  EATOM  =    181336.80673834
  Solvation  Ediel_sol  =         0.00000000
  ---------------------------------------------------
  free energy    TOTEN  =      -470.35161942 eV

  energy without entropy =     -469.04394595  energy(sigma->0) =     -469.69778269


--------------------------------------------------------------------------------------------------------




--------------------------------------- Iteration      1(  22)  ---------------------------------------


    POTLOK:  cpu time    0.3685: real time    0.3686
    SETDIJ:  cpu time    0.0241: real time    0.0241
     EDDAV:  cpu time   15.0095: real time   15.0141
       DOS:  cpu time    0.0053: real time    0.0052
    CHARGE:  cpu time    0.3988: real time    0.3989
    MIXING:  cpu time    0.0215: real time    0.0215
    --------------------------------------------
      LOOP:  cpu time   15.8277: real time   15.8324

 eigenvalue-minimisations  :  1736
 total energy-change (2. order) : 0.2659813E+00  (-0.7986694E-01)
 number of electron    1056.0000257 magnetization 
 augmentation part      415.8378484 magnetization 

 Broyden mixing:
  rms(total) = 0.77604E+00    rms(broyden)= 0.77543E+00
  rms(prec ) = 0.85132E+00
  weight for this iteration     100.00

 eigenvalues of (default mixing * dielectric matrix)
  average eigenvalue GAMMA=   0.5724
  1.9710  1.6531  1.6531  0.8128  0.8128  0.4706  0.4706  0.4771  0.2304  0.1911
  0.1911  0.0958  0.1360  0.1360  0.1595  0.1501  0.1200

 Free energy of the ion-electron system (eV)
  ---------------------------------------------------
  alpha Z        PSCENC =      2592.50432107
  Ewald energy   TEWEN  =    338418.31454300
  -Hartree energ DENC   =   -500651.04863822
  -exchange      EXHF   =         0.00000000
  -V(xc)+E(xc)   XCENC  =      4865.57128619
  PAW double counting   =    184893.20809030  -191550.36026966
  entropy T*S    EENTRO =        -1.30460860
  eigenvalues    EBANDS =    -20373.77710054
  atomic energy  EATOM  =    181336.80673834
  Solvation  Ediel_sol  =         0.00000000
  ---------------------------------------------------
  free energy    TOTEN  =      -470.08563813 eV

  energy without entropy =     -468.78102953  energy(sigma->0) =     -469.43333383


--------------------------------------------------------------------------------------------------------




--------------------------------------- Iteration      1(  23)  ---------------------------------------


    POTLOK:  cpu time    0.3657: real time    0.3657
    SETDIJ:  cpu time    0.0230: real time    0.0231
     EDDAV:  cpu time   14.3168: real time   14.3210
       DOS:  cpu time    0.0045: real time    0.0045
    CHARGE:  cpu time    0.6572: real time    0.6572
    MIXING:  cpu time    0.0224: real time    0.0224
    --------------------------------------------
      LOOP:  cpu time   15.3896: real time   15.3940

 eigenvalue-minimisations  :  1664
 total energy-change (2. order) : 0.1880189E+00  (-0.5540096E-01)
 number of electron    1056.0000257 magnetization 
 augmentation part      416.0159329 magnetization 

 Broyden mixing:
  rms(total) = 0.49377E+00    rms(broyden)= 0.49316E+00
  rms(prec ) = 0.54377E+00
  weight for this iteration     100.00

 eigenvalues of (default mixing * dielectric matrix)
  average eigenvalue GAMMA=   0.5749
  1.8687  1.6344  1.6344  0.9620  0.9620  0.4918  0.4918  0.5121  0.4324  0.0958
  0.1977  0.1977  0.1359  0.1359  0.1200  0.1474  0.1636  0.1636

 Free energy of the ion-electron system (eV)
  ---------------------------------------------------
  alpha Z        PSCENC =      2592.50432107
  Ewald energy   TEWEN  =    338418.31454300
  -Hartree energ DENC   =   -500662.28421604
  -exchange      EXHF   =         0.00000000
  -V(xc)+E(xc)   XCENC  =      4865.51722855
  PAW double counting   =    184556.25706813  -191207.00364170
  entropy T*S    EENTRO =        -1.31636401
  eigenvalues    EBANDS =    -20368.69329653
  atomic energy  EATOM  =    181336.80673834
  Solvation  Ediel_sol  =         0.00000000
  ---------------------------------------------------
  free energy    TOTEN  =      -469.89761919 eV

  energy without entropy =     -468.58125518  energy(sigma->0) =     -469.23943718


[...]
   -.524E+03 -.736E+02 -.171E+03   0.526E+03 0.746E+02 0.171E+03   -.119E+01 -.994E+00 0.206E+00   -.169E+00 0.128E+00 0.416E+00
   -.507E+03 0.192E+03 -.358E+04   0.512E+03 -.192E+03 0.358E+04   -.460E+01 0.178E+00 -.195E+01   -.133E+00 0.928E-01 -.192E+00
   -.648E+03 -.518E+03 0.332E+04   0.650E+03 0.519E+03 -.332E+04   -.180E+01 -.224E+01 -.602E+00   -.101E+00 0.464E+00 0.448E+00
   0.926E+02 0.467E+03 0.626E+04   -.921E+02 -.470E+03 -.627E+04   -.955E+00 0.375E+01 0.538E+01   0.819E-02 -.399E+00 0.180E+00
   0.217E+03 -.298E+03 -.121E+04   -.218E+03 0.299E+03 0.121E+04   0.969E+00 -.148E+01 0.364E+00   0.924E-01 -.133E+00 0.282E+00
   0.177E+03 -.303E+03 -.465E+04   -.180E+03 0.308E+03 0.465E+04   0.137E+01 -.355E+01 -.281E+01   0.102E+00 -.761E-01 -.217E+00
   0.356E+03 -.747E+03 0.211E+04   -.359E+03 0.750E+03 -.211E+04   0.156E+01 -.211E+01 -.132E+01   0.924E-01 0.205E+00 0.551E+00
   -.120E+03 -.158E+03 -.582E+04   0.118E+03 0.158E+03 0.582E+04   0.343E+01 0.419E-01 0.261E+00   0.476E-01 0.701E-01 -.266E+00
   0.312E+03 0.786E+03 0.355E+04   -.314E+03 -.789E+03 -.355E+04   0.995E+00 0.246E+01 0.545E+00   -.123E-01 -.117E+00 0.464E+00
   0.228E+03 0.439E+03 -.182E+02   -.229E+03 -.440E+03 0.166E+02   0.871E+00 0.446E+00 0.111E+01   0.102E-01 0.182E-01 0.446E+00
   0.302E+03 0.237E+03 -.323E+04   -.306E+03 -.240E+03 0.322E+04   0.334E+01 0.246E+01 0.142E+01   -.897E-01 0.203E+00 -.270E+00
   -.495E+03 0.403E+02 -.318E+02   0.496E+03 -.395E+02 0.303E+02   -.856E+00 -.619E+00 0.119E+01   0.104E+00 -.204E+00 0.331E+00
   -.560E+03 0.179E+02 -.350E+04   0.565E+03 -.171E+02 0.350E+04   -.480E+01 -.500E+00 -.125E+01   0.121E-01 -.184E+00 -.122E+00
   -.720E+03 0.325E+03 0.349E+04   0.724E+03 -.325E+03 -.348E+04   -.281E+01 0.601E+00 0.746E-01   0.134E+00 -.206E+00 0.510E+00
   0.333E+02 -.110E+04 0.596E+04   -.339E+02 0.111E+04 -.597E+04   -.373E-01 -.413E+01 0.367E+01   0.259E+00 0.573E+00 0.224E+00
   0.267E+03 -.325E+03 -.127E+04   -.267E+03 0.326E+03 0.127E+04   0.660E+00 -.105E+01 0.116E+01   -.278E-01 -.158E+00 0.151E+00
   0.547E+03 -.492E+03 -.479E+04   -.549E+03 0.495E+03 0.479E+04   0.149E+01 -.240E+01 -.208E+01   -.126E-01 -.259E+00 -.869E-01
   0.360E+03 -.748E+03 0.210E+04   -.362E+03 0.750E+03 -.210E+04   0.154E+01 -.217E+01 -.121E+01   -.133E-01 0.220E+00 0.424E+00
   -.133E+03 0.155E+03 -.589E+04   0.131E+03 -.156E+03 0.589E+04   0.206E+01 0.102E+01 0.132E+01   -.480E-01 0.262E+00 -.348E+00
   0.316E+03 0.782E+03 0.355E+04   -.318E+03 -.785E+03 -.355E+04   0.102E+01 0.245E+01 0.599E+00   -.448E-01 -.402E-01 0.343E+00
   0.256E+03 0.415E+03 -.295E+02   -.257E+03 -.415E+03 0.280E+02   0.106E+01 0.504E+00 0.122E+01   0.331E-01 -.707E-01 0.318E+00
   0.395E+03 0.118E+03 -.322E+04   -.399E+03 -.121E+03 0.322E+04   0.354E+01 0.258E+01 0.131E+01   0.105E+00 -.567E-01 0.480E-01
   -.531E+03 0.439E+02 -.555E+02   0.532E+03 -.434E+02 0.538E+02   -.758E+00 -.552E+00 0.129E+01   -.867E-01 -.309E-01 0.396E+00
   -.669E+03 -.735E+02 -.361E+04   0.674E+03 0.734E+02 0.361E+04   -.472E+01 -.361E+00 -.240E+01   -.110E+00 0.656E-01 -.438E-01
   -.712E+03 0.322E+03 0.349E+04   0.716E+03 -.323E+03 -.348E+04   -.275E+01 0.647E+00 0.103E+00   -.963E-01 -.223E+00 0.383E+00
   0.351E+02 -.110E+04 0.596E+04   -.355E+02 0.111E+04 -.596E+04   -.353E-01 -.406E+01 0.361E+01   0.129E+00 0.516E+00 0.180E+00
   -.663E+02 0.142E+03 -.418E+03   0.674E+02 -.144E+03 0.417E+03   -.113E+01 0.162E+01 0.118E+01   0.949E-01 -.716E-01 0.162E+00
   -.116E+03 0.243E+03 -.169E+04   0.116E+03 -.245E+03 0.169E+04   0.302E+00 0.790E+00 -.121E+01   0.105E+00 0.587E-02 -.144E+00
   -.173E+03 0.100E+02 0.238E+04   0.175E+03 -.116E+02 -.239E+04   -.360E+01 0.149E+01 0.273E+01   0.130E+00 0.145E+00 0.420E-01
   -.309E+02 0.849E+02 0.604E+03   0.308E+02 -.858E+02 -.602E+03   -.189E+00 0.117E+01 -.435E+00   0.155E-01 0.194E-01 0.326E+00
   0.166E+03 -.134E+03 -.226E+04   -.166E+03 0.134E+03 0.227E+04   -.351E-01 0.698E+00 -.195E+01   0.101E+00 0.579E-01 -.100E+00
   -.685E+02 -.156E+03 -.921E+03   0.697E+02 0.159E+03 0.921E+03   -.107E+01 -.291E+01 -.106E+01   -.500E-01 0.312E-01 -.459E-01
   -.240E+03 0.535E+02 0.166E+04   0.244E+03 -.525E+02 -.166E+04   -.225E+01 -.237E+00 -.436E+00   0.684E-01 -.252E+00 0.287E+00
   -.882E+02 -.963E+02 0.278E+03   0.891E+02 0.994E+02 -.279E+03   -.888E+00 -.280E+01 0.748E+00   0.756E-02 -.551E-01 0.225E+00
   0.300E+03 -.349E+03 0.162E+04   -.303E+03 0.351E+03 -.162E+04   0.115E+01 -.898E+00 -.532E-01   -.375E-01 0.282E+00 0.247E+00
   0.166E+03 -.460E+02 0.267E+03   -.169E+03 0.460E+02 -.267E+03   0.279E+01 -.106E+00 0.486E+00   0.109E+00 0.405E-01 0.257E+00
   0.118E+03 0.144E+02 -.881E+03   -.121E+03 -.141E+02 0.881E+03   0.280E+01 -.396E+00 -.500E+00   -.183E-02 0.332E-01 0.219E-01
   -.209E+03 0.195E+03 -.229E+04   0.210E+03 -.198E+03 0.229E+04   -.674E+00 0.144E+01 -.148E+01   -.366E-01 0.766E-02 -.758E-01
   -.760E+02 0.141E+03 -.466E+03   0.768E+02 -.143E+03 0.464E+03   -.933E+00 0.179E+01 0.650E+00   -.860E-01 0.101E+00 0.566E-01
   -.480E+02 0.151E+03 -.179E+04   0.483E+02 -.151E+03 0.179E+04   0.230E+00 -.558E+00 -.475E+00   -.450E-01 -.968E-02 -.176E-01
   -.172E+03 0.947E+01 0.238E+04   0.174E+03 -.111E+02 -.239E+04   -.357E+01 0.150E+01 0.269E+01   -.199E-01 0.203E+00 -.181E-02
   -.263E+02 0.830E+02 0.609E+03   0.263E+02 -.839E+02 -.608E+03   -.299E+00 0.119E+01 -.735E+00   0.808E-02 -.193E-01 0.234E+00
   -.402E+02 0.142E+03 -.227E+04   0.420E+02 -.144E+03 0.228E+04   -.114E+01 0.854E+00 -.146E+01   -.110E+00 -.555E-01 -.112E+00
   -.321E+02 -.199E+03 -.894E+03   0.332E+02 0.201E+03 0.894E+03   -.121E+01 -.259E+01 -.874E+00   0.483E-01 0.398E-01 0.803E-01
   -.238E+03 0.530E+02 0.166E+04   0.242E+03 -.521E+02 -.166E+04   -.225E+01 -.194E+00 -.455E+00   -.156E-01 -.205E+00 0.223E+00
   -.762E+02 -.100E+03 0.275E+03   0.773E+02 0.103E+03 -.276E+03   -.975E+00 -.271E+01 0.839E+00   -.226E-01 -.878E-01 0.101E+00
   0.300E+03 -.349E+03 0.161E+04   -.303E+03 0.351E+03 -.162E+04   0.116E+01 -.895E+00 0.882E-01   -.317E-01 0.207E+00 0.207E+00
   0.172E+03 -.449E+02 0.257E+03   -.175E+03 0.450E+02 -.258E+03   0.278E+01 -.273E+00 0.607E+00   -.936E-01 0.929E-01 0.209E+00
   0.200E+03 0.101E+02 -.940E+03   -.203E+03 -.102E+02 0.939E+03   0.274E+01 0.509E-01 -.133E-01   -.319E-01 0.529E-01 0.265E-01
   0.390E+03 -.737E+02 -.222E+04   -.394E+03 0.731E+02 0.222E+04   0.188E+01 0.753E+00 -.116E+01   -.626E-02 0.328E-01 -.813E-01
   -.726E+02 0.839E+02 -.404E+03   0.737E+02 -.858E+02 0.402E+03   -.114E+01 0.204E+01 0.773E+00   0.341E-01 -.126E-01 0.104E+00
   -.268E+03 -.320E+02 -.164E+04   0.270E+03 0.315E+02 0.164E+04   -.521E+00 0.901E-01 -.804E-01   -.487E-01 0.355E-02 -.538E-01
   -.236E+03 0.418E+03 0.224E+04   0.238E+03 -.421E+03 -.224E+04   -.546E+00 0.928E+00 0.935E+00   0.557E-01 -.745E-01 0.463E-01
   -.854E+02 0.133E+03 0.899E+03   0.860E+02 -.134E+03 -.901E+03   -.592E+00 0.133E+01 0.181E+01   0.205E-01 0.193E-02 0.210E+00
   -.283E+02 0.108E+03 -.221E+04   0.302E+02 -.109E+03 0.222E+04   -.109E+01 -.655E-01 -.127E+01   -.348E-01 -.135E+00 -.110E+00
   -.115E+03 -.120E+03 -.958E+03   0.116E+03 0.123E+03 0.958E+03   -.103E+01 -.272E+01 -.120E+00   -.435E-01 -.353E-01 0.135E-01
   -.995E+02 -.350E+03 0.167E+04   0.995E+02 0.352E+03 -.167E+04   0.387E+00 -.431E+00 0.709E+00   -.940E-02 -.725E-02 0.118E+00
   -.833E+02 -.204E+03 0.305E+03   0.843E+02 0.206E+03 -.305E+03   -.844E+00 -.252E+01 0.543E+00   0.352E-02 -.142E-01 0.221E+00
   0.340E+03 0.221E+03 0.170E+04   -.343E+03 -.222E+03 -.170E+04   0.103E+01 0.555E+00 0.887E+00   -.536E-01 -.139E+00 0.166E+00
   0.175E+03 0.473E+02 0.315E+03   -.178E+03 -.469E+02 -.315E+03   0.269E+01 -.456E+00 0.530E+00   0.173E-01 -.320E-01 0.209E+00
   0.168E+03 0.958E+01 -.947E+03   -.171E+03 -.957E+01 0.947E+03   0.269E+01 0.140E+00 -.552E+00   0.244E-01 -.269E-01 0.798E-02
   0.210E+03 -.105E+03 -.231E+04   -.215E+03 0.105E+03 0.232E+04   0.307E+01 0.100E+01 -.160E+01   -.310E-01 0.114E+00 -.132E+00
   -.811E+02 0.885E+02 -.417E+03   0.823E+02 -.905E+02 0.416E+03   -.111E+01 0.213E+01 0.194E+00   -.287E-01 0.249E-01 0.771E-01
   -.249E+03 -.131E+02 -.166E+04   0.251E+03 0.125E+02 0.166E+04   -.160E+00 -.851E-01 -.256E+00   0.506E-01 0.980E-01 -.143E+00
   -.235E+03 0.417E+03 0.224E+04   0.237E+03 -.420E+03 -.224E+04   -.540E+00 0.886E+00 0.968E+00   -.199E-01 -.305E-01 0.671E-01
   -.815E+02 0.131E+03 0.901E+03   0.824E+02 -.133E+03 -.902E+03   -.696E+00 0.142E+01 0.177E+01   -.568E-02 0.102E-01 0.181E+00
   -.283E+03 -.118E+03 -.229E+04   0.286E+03 0.119E+03 0.229E+04   -.105E+01 -.721E+00 -.568E+00   -.167E-01 -.339E-02 -.808E-01
   -.339E+02 -.131E+03 -.927E+03   0.348E+02 0.134E+03 0.927E+03   -.748E+00 -.279E+01 -.622E+00   0.646E-01 -.876E-01 0.271E-01
   -.986E+02 -.351E+03 0.167E+04   0.985E+02 0.353E+03 -.167E+04   0.450E+00 -.405E+00 0.735E+00   -.142E-01 0.488E-01 0.866E-01
   -.769E+02 -.210E+03 0.305E+03   0.778E+02 0.212E+03 -.305E+03   -.736E+00 -.238E+01 0.643E+00   -.230E-01 0.105E+00 0.171E+00
   0.339E+03 0.221E+03 0.170E+04   -.342E+03 -.222E+03 -.170E+04   0.105E+01 0.548E+00 0.791E+00   0.266E-01 -.127E+00 0.160E+00
   0.176E+03 0.438E+02 0.304E+03   -.179E+03 -.434E+02 -.304E+03   0.273E+01 -.502E+00 0.741E+00   -.453E-01 -.420E-01 0.102E+00
   0.194E+03 -.239E+02 -.990E+03   -.197E+03 0.242E+02 0.990E+03   0.272E+01 -.349E+00 -.402E+00   -.166E-01 -.809E-01 0.466E-01
   0.261E+03 -.168E+03 -.233E+04   -.265E+03 0.168E+03 0.233E+04   0.318E+01 0.338E+00 -.164E+01   0.246E-01 -.598E-01 -.780E-01
 -----------------------------------------------------------------------------------------------
   -.528E+01 0.583E+01 -.229E+02   -.114E-11 0.173E-11 -.455E-12   0.411E+01 -.703E+01 0.959E+01   0.994E+00 0.120E+01 0.135E+02
 
 
 POSITION                                       TOTAL-FORCE (eV/Angst)
 -----------------------------------------------------------------------------------
      5.35228      4.81788      6.64784         0.294665     -0.449953     -0.195760
      5.93595      3.87238      9.58390        -0.754652      1.272992     -1.702146
      1.54558      2.14320      2.03991         0.248046     -0.358039     -0.794704
      2.24633      0.73197      3.71178         0.502956     -0.426289      2.567737
      0.54770      0.49905     11.03724         0.021588     -0.681726      1.230226
      3.86999      3.25055      0.82642        -0.312087     -0.280845     -1.186282
      4.76861      3.35453      2.93606         0.800576     -0.943604      2.728423
      5.35228      2.40903      5.87212        -0.057650      0.052567      0.041041
      5.93595      1.46353      8.80817         0.073497     -0.269039     -2.123700
      1.87746      3.73836      5.87212         0.046306      0.207652      0.054551
      2.46113      2.79286      8.80817        -0.044205     -0.092979     -1.938145
      3.44127      2.13745     10.89017        -0.240968      0.182204      1.179452
      6.92203      4.68386      2.93606         0.804006     -0.433328      1.112597
      2.56840      0.06707      1.19066        -0.498240      0.646638     -1.825418
     10.98051      4.81788      6.64784         0.289169     -0.394121     -0.170767
     11.56418      3.87238      9.58390        -0.512142      0.947299     -1.164666
      7.17382      2.14320      2.03990         0.257071     -0.380745     -0.827221
      7.87456      0.73197      3.71178         0.517144     -0.366716      2.537077
      9.49822      3.25055      0.82642        -0.327694     -0.278394     -1.195264
     10.39684      3.35453      2.93606         0.802634     -0.935553      2.752063
     10.98051      2.40903      5.87212        -0.119926     -0.051605      0.082179
     11.56418      1.46353      8.80817         0.281335     -0.135784     -2.239201
      7.50570      3.73836      5.87212        -0.000467      0.138991      0.048796
      8.08937      2.79286      8.80817         0.324119     -0.042707     -2.119429
     12.55026      4.68386      2.93606         0.810705     -0.435597      1.075346
      8.19663      0.06706      1.19066        -0.520091      0.696084     -1.826341
      7.87456      9.84929      6.64784         0.141072     -0.308397     -0.092510
      8.45823      8.90379      9.58390        -1.457619      0.982051     -1.818171
      4.76861      5.76338      3.71178        -0.620424      0.237156      1.642450
      3.32582      5.21800     10.77016         0.605083     -0.250075      1.333376
      7.29089      8.38594      2.93606        -0.775953     -0.634493      1.816108
      7.87456      7.44044      5.87212        -0.001150      0.119044     -0.033376
      8.45823      6.49494      8.80817        -0.310999      0.127794     -2.911198
      4.39975      8.76977      5.87212        -0.118113     -0.034673     -0.006015
      4.98341      7.82427      8.80817         0.346099      0.081673     -1.819205
      9.44431      9.71527      2.93606         1.078259      0.191898      1.625570
      5.10540      5.33994      1.29691        -0.321370      0.889078     -1.546973
     13.50279      9.84929      6.64784         0.246831     -0.385559     -0.030797
     14.08646      8.90379      9.58390        -0.930019      0.819875     -1.502433
     10.39684      5.76338      3.71178        -0.625068      0.255802      1.637172
      8.92445      5.31285     10.83229         0.430038     -0.080325      1.296823
     12.91912      8.38594      2.93606        -0.723176     -0.625871      1.863099
     13.50279      7.44044      5.87212        -0.018549      0.085668      0.023529
     14.08646      6.49494      8.80817        -0.243902      0.034743     -2.974674
     10.02798      8.76977      5.87212        -0.131026     -0.046741     -0.047158
     10.61165      7.82427      8.80817         0.505715     -0.434516     -2.278736
     15.07254      9.71527      2.93606         1.105069      0.192590      1.613728
     10.73363      5.33994      1.29692        -0.303016      0.883173     -1.543571
      1.66190      1.67871      7.01153         0.091627     -0.169674     -0.120707
      2.24556      0.73321      9.94759         1.084000     -0.889103     -0.017054
      6.12279      3.56972      1.13942        -0.940290      0.032663     -3.183256
      6.70646      2.62422      4.07548        -0.267137      0.294683      1.093245
      2.05145      3.63746     10.72044        -0.140709      0.915212      2.320792
      7.29013      4.74605      7.99931         0.019790      0.055276     -0.931269
      3.60051      1.60565      2.12720         1.740756      0.577902     -0.146323
      4.18418      0.66015      5.06325         0.044991      0.170205      0.010965
      3.34810      4.75917      2.23200        -1.525353      1.304592     -0.499654
      3.96438      3.99884      5.06325        -0.130975     -0.004207      0.075831
      4.54805      3.05334      7.99931        -0.226043     -0.072332     -0.417924
      5.43672      2.17377     10.66219         0.201787     -1.388109      3.154782
      7.29013      1.67871      7.01153        -0.230953      0.315220     -1.039832
      7.86604      0.74364      9.39736         0.515457     -0.735289      1.814428
     11.75102      3.56972      1.13942        -0.956758      0.034758     -3.174705
     12.33469      2.62422      4.07548        -0.274583      0.321373      0.974673
      7.73454      3.70957     10.60975         0.601569     -0.536004      3.232229
     12.91836      4.74605      7.99931        -0.044261     -0.041838     -0.797149
      9.22874      1.60565      2.12720         1.741264      0.538761     -0.141872
      9.81241      0.66015      5.06325         0.033392      0.140515     -0.050004
      8.97633      4.75917      2.23200        -1.535948      1.276446     -0.505605
      9.59261      3.99884      5.06325        -0.082092     -0.071925      0.155646
     10.17628      3.05334      7.99931        -0.048482      0.062786     -0.662800
     10.82661      2.20844     10.58765        -2.316718      0.167106      2.479475
      4.18418      6.71012      7.01153         0.005404      0.128932     -0.895525
      4.82179      5.79851      9.51981         1.154754     -0.409122      1.124874
      8.72620      8.47711      1.45551         1.455313     -2.113852     -3.170138
      9.22874      7.65563      4.07548         0.105254     -0.157756      0.478564
      4.64573      8.84484     10.56933         0.767017     -0.333213      3.075243
      9.81241      9.77746      7.99931        -0.100237      0.240569     -0.477453
      6.21979      6.62487      2.45233         0.384408      1.583336     -1.229122
      6.70646      5.69156      5.06325         0.106524     -0.125977      0.583977
      5.89116     10.01982      2.34054        -2.014202     -0.122600     -1.058917
      6.48666      9.03025      5.06325         0.030239     -0.101802      0.356414
      7.07033      8.08475      7.99931        -0.213737      0.128689     -0.099123
      8.08404      7.17036     10.69582        -1.207864      0.310173      3.243500
      9.81241      6.71012      7.01153        -0.007933      0.089746     -0.931782
     10.42041      5.79178      9.53865         1.330033     -0.605609      1.286497
     14.35443      8.47711      1.45551         1.419623     -2.120503     -3.211786
     14.85697      7.65563      4.07548         0.145673     -0.154686      0.480934
     10.26118      8.84461     10.50090         1.480950      0.975809      3.480507
     15.44064      9.77746      7.99931         0.235124      0.193263     -0.847465
     11.84802      6.62487      2.45233         0.413274      1.596029     -1.203004
     12.33469      5.69156      5.06325         0.156676     -0.191330      0.633942
     11.51939     10.01982      2.34054        -1.993937     -0.142603     -1.089624
     12.11489      9.03025      5.06325         0.014232     -0.154798      0.350213
     12.69856      8.08475      7.99931        -0.193056     -0.195497     -0.189388
     13.76755      7.13121     10.69910        -1.391341      0.096490      3.337264
 -----------------------------------------------------------------------------------
    total drift:                               -0.181265     -0.004287      0.191207


--------------------------------------------------------------------------------------------------------



  FREE ENERGIE OF THE ION-ELECTRON SYSTEM (eV)
  ---------------------------------------------------
  free  energy   TOTEN  =      -469.79579337 eV

  energy  without entropy=     -468.48910160  energy(sigma->0) =     -469.14244749
 


--------------------------------------------------------------------------------------------------------


    POTLOK:  cpu time    0.3951: real time    0.3951


--------------------------------------------------------------------------------------------------------


     LOOP+:  cpu time  551.6699: real time  551.8580
    4ORBIT:  cpu time    0.0000: real time    0.0000

 total amount of memory used by VASP MPI-rank0    87638. kBytes
=======================================================================

   base      :      30000. kBytes
   nonlr-proj:       3208. kBytes
   fftplans  :      11274. kBytes
   grid      :      19113. kBytes
   one-center:        124. kBytes
   wavefun   :      23919. kBytes
 
  
  
 General timing and accounting informations for this job:
 ========================================================
  
                  Total CPU time used (sec):      556.135
                            User time (sec):      555.738
                          System time (sec):        0.397
                         Elapsed time (sec):      556.561
  
                   Maximum memory used (kb):      242612.
                   Average memory used (kb):           0.
  
                          Minor page faults:       140860
                          Major page faults:            0
                 Voluntary context switches:          175
