<?xml version="1.0" encoding="ISO-8859-1"?>
<modeling>
 <generator>
  <i name="program" type="string">vasp </i>
  <i name="version" type="string">5.4.4.18Apr17-6-g9f103f2a35  </i>
  <i name="subversion" type="string">(build Aug 13 2019 17:33:20) gamma-only         parallel </i>
  <i name="platform" type="string">LinuxIFC </i>
  <i name="date" type="string">2020 05 10 </i>
  <i name="time" type="string">11:39:48 </i>
 </generator>
 <incar>
  <i type="string" name="SYSTEM">"Millerite NiS"</i>
  <i type="string" name="PREC">normal</i>
  <i type="int" name="NSIM">     4</i>
  <i type="int" name="NELM">   100</i>
  <i name="ENCUT">    450.00000000</i>
  <i type="string" name="LREAL">A</i>
  <i type="int" name="ISMEAR">     0</i>
  <i type="int" name="NWRITE">     2</i>
  <i type="logical" name="LWAVE"> F  </i>
  <i type="logical" name="LCHARG"> F  </i>
  <v type="int" name="KPOINT_BSE">    -1     0     0     0</v>
  <i type="int" name="NELM">   100</i>
 </incar>
 <structure name="primitive_cell" >
  <crystal>
   <varray name="basis" >
    <v>      11.25646304       0.00000000       0.00000000 </v>
    <v>       0.00000000       9.57841000       0.00000000 </v>
    <v>       0.00000000       0.00000000      17.19249240 </v>
   </varray>
   <i name="volume">   1853.67765028 </i>
   <varray name="rec_basis" >
    <v>       0.08883785       0.00000000       0.00000000 </v>
    <v>       0.00000000       0.10440146       0.00000000 </v>
    <v>       0.00000000       0.00000000       0.05816492 </v>
   </varray>
  </crystal>
  <varray name="positions" >
   <v>       0.43933499       0.46388800       0.16283377 </v>
   <v>      -0.44838563       0.49993847       0.07097133 </v>
   <v>       0.31027392       0.32309337       0.10939787 </v>
   <v>       0.33556306      -0.33643000       0.14923241 </v>
   <v>       0.36788880       0.33178500       0.26911836 </v>
   <v>      -0.38851096       0.50000000       0.23893853 </v>
   <v>       0.43933499       0.19968200       0.16283377 </v>
   <v>      -0.36936030       0.33178500       0.13913288 </v>
   <v>       0.46254985       0.49547219       0.31502608 </v>
   <v>       0.48612300      -0.28215227       0.08626829 </v>
   <v>      -0.34116939      -0.37233504       0.14025877 </v>
   <v>       0.38584794      -0.30450612       0.30777410 </v>
   <v>      -0.42585739      -0.29379353       0.27840660 </v>
   <v>       0.21949023      -0.30410902       0.24103304 </v>
   <v>       0.13776117       0.33004025       0.16192824 </v>
   <v>       0.40525597      -0.16958843       0.21308218 </v>
   <v>      -0.42397452       0.14847812       0.08521591 </v>
   <v>      -0.38851096       0.16357000       0.23893853 </v>
   <v>       0.49668344       0.22309429       0.33150225 </v>
   <v>       0.11148904       0.50000000       0.23893853 </v>
   <v>      -0.40803716      -0.16821500       0.17941224 </v>
   <v>      -0.31750836       0.33178500       0.31854512 </v>
   <v>       0.18249164       0.33178500       0.31854512 </v>
   <v>       0.22087323       0.12962181       0.09075390 </v>
   <v>      -0.35160750      -0.23112812       0.03949108 </v>
   <v>      -0.44698097       0.39039781       0.39915670 </v>
   <v>       0.23739997      -0.16405393       0.10464132 </v>
   <v>      -0.21134498      -0.43121092       0.25859413 </v>
   <v>      -0.18525062       0.34595638       0.11670457 </v>
   <v>       0.33556306      -0.00000000       0.14923241 </v>
   <v>       0.11148904       0.16357000       0.23893853 </v>
   <v>      -0.16443694      -0.33643000       0.14923241 </v>
   <v>       0.15246117      -0.49650681       0.38571421 </v>
   <v>       0.05394855       0.21440249       0.07051057 </v>
   <v>       0.09196284      -0.16821500       0.17941224 </v>
   <v>      -0.13211120       0.33178500       0.26911836 </v>
   <v>      -0.35056571       0.15914846       0.38581205 </v>
   <v>       0.20232697      -0.02566570       0.22971279 </v>
   <v>      -0.33245319      -0.04079689       0.09520985 </v>
   <v>      -0.06040163       0.46329012       0.18019555 </v>
   <v>      -0.23037215      -0.21344711       0.33543373 </v>
   <v>      -0.28682632      -0.02619516       0.24077982 </v>
   <v>      -0.00749626       0.46061375       0.33026855 </v>
   <v>      -0.06066501       0.19968200       0.16283377 </v>
   <v>       0.04187133       0.27760491       0.39024295 </v>
   <v>       0.15634120      -0.03665353       0.02472673 </v>
   <v>      -0.16443694      -0.00000000       0.14923241 </v>
   <v>      -0.07747712      -0.32769406       0.31854985 </v>
   <v>       0.03650202      -0.00009689       0.11309657 </v>
   <v>      -0.09343434      -0.16821500       0.22883899 </v>
   <v>      -0.03978545       0.15641317       0.30873655 </v>
   <v>      -0.14182436      -0.02807870       0.31839046 </v>
  </varray>
 </structure>
 <varray name="primitive_index" >
  <v type="int" >        1 </v>
  <v type="int" >       44 </v>
  <v type="int" >       35 </v>
  <v type="int" >       30 </v>
  <v type="int" >       36 </v>
  <v type="int" >       45 </v>
  <v type="int" >        5 </v>
  <v type="int" >       22 </v>
  <v type="int" >        2 </v>
  <v type="int" >       11 </v>
  <v type="int" >       20 </v>
  <v type="int" >       31 </v>
  <v type="int" >       13 </v>
  <v type="int" >        8 </v>
  <v type="int" >        9 </v>
  <v type="int" >       12 </v>
  <v type="int" >       39 </v>
  <v type="int" >       40 </v>
  <v type="int" >        6 </v>
  <v type="int" >       32 </v>
  <v type="int" >       52 </v>
  <v type="int" >       23 </v>
  <v type="int" >       10 </v>
  <v type="int" >        3 </v>
  <v type="int" >       51 </v>
  <v type="int" >       46 </v>
  <v type="int" >        7 </v>
  <v type="int" >       21 </v>
  <v type="int" >       49 </v>
  <v type="int" >       34 </v>
  <v type="int" >       28 </v>
  <v type="int" >       42 </v>
  <v type="int" >       33 </v>
  <v type="int" >       27 </v>
  <v type="int" >       38 </v>
  <v type="int" >       50 </v>
  <v type="int" >       41 </v>
  <v type="int" >        4 </v>
  <v type="int" >       16 </v>
  <v type="int" >       14 </v>
  <v type="int" >       26 </v>
  <v type="int" >       17 </v>
  <v type="int" >       15 </v>
  <v type="int" >       18 </v>
  <v type="int" >       29 </v>
  <v type="int" >       37 </v>
  <v type="int" >       47 </v>
  <v type="int" >       43 </v>
  <v type="int" >       24 </v>
  <v type="int" >       25 </v>
  <v type="int" >       19 </v>
  <v type="int" >       48 </v>
 </varray>
 <kpoints>
  <generation param="Gamma">
   <v type="int" name="divisions">       1        1        1 </v>
   <v name="usershift">      0.00000000       0.00000000       0.00000000 </v>
   <v name="genvec1">      1.00000000       0.00000000       0.00000000 </v>
   <v name="genvec2">      0.00000000       1.00000000       0.00000000 </v>
   <v name="genvec3">      0.00000000       0.00000000       1.00000000 </v>
   <v name="shift">      0.00000000       0.00000000       0.00000000 </v>
  </generation>
  <varray name="kpointlist" >
   <v>       0.00000000       0.00000000       0.00000000 </v>
  </varray>
  <varray name="weights" >
   <v>       1.00000000 </v>
  </varray>
 </kpoints>
 <parameters>
  <separator name="general" >
   <i type="string" name="SYSTEM">"Millerite NiS"</i>
   <i type="logical" name="LCOMPAT"> F  </i>
  </separator>
  <separator name="electronic" >
   <i type="string" name="PREC">normal</i>
   <i name="ENMAX">    450.00000000</i>
   <i name="ENAUG">    703.44300000</i>
   <i name="EDIFF">      0.00010000</i>
   <i type="int" name="IALGO">    38</i>
   <i type="int" name="IWAVPR">    10</i>
   <i type="int" name="NBANDS">   344</i>
   <i name="NELECT">    572.00000000</i>
   <i type="int" name="TURBO">     0</i>
   <i type="int" name="IRESTART">     0</i>
   <i type="int" name="NREBOOT">     0</i>
   <i type="int" name="NMIN">     0</i>
   <i name="EREF">      0.00000000</i>
   <separator name="electronic smearing" >
    <i type="int" name="ISMEAR">     0</i>
    <i name="SIGMA">      0.20000000</i>
    <i name="KSPACING">      0.50000000</i>
    <i type="logical" name="KGAMMA"> T  </i>
   </separator>
   <separator name="electronic projectors" >
    <i type="logical" name="LREAL"> T  </i>
    <v name="ROPT">     -0.00050000     -0.00050000</v>
    <i type="int" name="LMAXPAW">  -100</i>
    <i type="int" name="LMAXMIX">     2</i>
    <i type="logical" name="NLSPLINE"> F  </i>
   </separator>
   <separator name="electronic startup" >
    <i type="int" name="ISTART">     0</i>
    <i type="int" name="ICHARG">     2</i>
    <i type="int" name="INIWAV">     1</i>
   </separator>
   <separator name="electronic spin" >
    <i type="int" name="ISPIN">     1</i>
    <i type="logical" name="LNONCOLLINEAR"> F  </i>
    <v name="MAGMOM">      1.00000000      1.00000000      1.00000000      1.00000000      1.00000000      1.00000000      1.00000000      1.00000000      1.00000000      1.00000000      1.00000000      1.00000000      1.00000000      1.00000000      1.00000000      1.00000000      1.00000000      1.00000000      1.00000000      1.00000000
      1.00000000      1.00000000      1.00000000      1.00000000      1.00000000      1.00000000      1.00000000      1.00000000      1.00000000      1.00000000      1.00000000      1.00000000      1.00000000      1.00000000      1.00000000      1.00000000      1.00000000      1.00000000      1.00000000      1.00000000
      1.00000000      1.00000000      1.00000000      1.00000000      1.00000000      1.00000000      1.00000000      1.00000000      1.00000000      1.00000000      1.00000000      1.00000000</v>
    <i name="NUPDOWN">     -1.00000000</i>
    <i type="logical" name="LSORBIT"> F  </i>
    <v name="SAXIS">      0.00000000      0.00000000      1.00000000</v>
    <i type="logical" name="LSPIRAL"> F  </i>
    <v name="QSPIRAL">      0.00000000      0.00000000      0.00000000</v>
    <i type="logical" name="LZEROZ"> F  </i>
   </separator>
   <separator name="electronic exchange-correlation" >
    <i type="logical" name="LASPH"> F  </i>
    <i type="logical" name="LMETAGGA"> F  </i>
   </separator>
   <separator name="electronic convergence" >
    <i type="int" name="NELM">   100</i>
    <i type="int" name="NELMDL">    -5</i>
    <i type="int" name="NELMIN">     2</i>
    <i name="ENINI">    450.00000000</i>
    <separator name="electronic convergence detail" >
     <i type="logical" name="LDIAG"> T  </i>
     <i type="logical" name="LSUBROT"> F  </i>
     <i name="WEIMIN">      0.00000000</i>
     <i name="EBREAK">      0.00000007</i>
     <i name="DEPER">      0.30000000</i>
     <i type="int" name="NRMM">     4</i>
     <i name="TIME">      0.40000000</i>
    </separator>
   </separator>
   <separator name="electronic mixer" >
    <i name="AMIX">      0.40000000</i>
    <i name="BMIX">      1.00000000</i>
    <i name="AMIN">      0.10000000</i>
    <i name="AMIX_MAG">      1.60000000</i>
    <i name="BMIX_MAG">      1.00000000</i>
    <separator name="electronic mixer details" >
     <i type="int" name="IMIX">     4</i>
     <i type="logical" name="MIXFIRST"> F  </i>
     <i type="int" name="MAXMIX">   -45</i>
     <i name="WC">    100.00000000</i>
     <i type="int" name="INIMIX">     1</i>
     <i type="int" name="MIXPRE">     1</i>
     <i type="int" name="MREMOVE">     5</i>
    </separator>
   </separator>
   <separator name="electronic dipolcorrection" >
    <i type="logical" name="LDIPOL"> F  </i>
    <i type="logical" name="LMONO"> F  </i>
    <i type="int" name="IDIPOL">     0</i>
    <i name="EPSILON">      1.00000000</i>
    <v name="DIPOL">   -100.00000000   -100.00000000   -100.00000000</v>
    <i name="EFIELD">      0.00000000</i>
   </separator>
  </separator>
  <separator name="grids" >
   <i type="int" name="NGX">    60</i>
   <i type="int" name="NGY">    50</i>
   <i type="int" name="NGZ">    90</i>
   <i type="int" name="NGXF">   120</i>
   <i type="int" name="NGYF">   100</i>
   <i type="int" name="NGZF">   180</i>
   <i type="logical" name="ADDGRID"> F  </i>
  </separator>
  <separator name="ionic" >
   <i type="int" name="NSW">     0</i>
   <i type="int" name="IBRION">    -1</i>
   <i type="int" name="MDALGO">     0</i>
   <i type="int" name="ISIF">     2</i>
   <i name="PSTRESS">      0.00000000</i>
   <i name="EDIFFG">      0.00100000</i>
   <i type="int" name="NFREE">     0</i>
   <i name="POTIM">      0.50000000</i>
   <i name="SMASS">     -3.00000000</i>
   <i name="SCALEE">      1.00000000</i>
  </separator>
  <separator name="ionic md" >
   <i name="TEBEG">      0.00010000</i>
   <i name="TEEND">      0.00010000</i>
   <i type="int" name="NBLOCK">     1</i>
   <i type="int" name="KBLOCK">     1</i>
   <i type="int" name="NPACO">   256</i>
   <i name="APACO">     16.00000000</i>
  </separator>
  <separator name="symmetry" >
   <i type="int" name="ISYM">     2</i>
   <i name="SYMPREC">      0.00001000</i>
  </separator>
  <separator name="dos" >
   <i type="int" name="LORBIT">     0</i>
   <v name="RWIGS">     -1.00000000     -1.00000000</v>
   <i type="int" name="NEDOS">   301</i>
   <i name="EMIN">     10.00000000</i>
   <i name="EMAX">    -10.00000000</i>
   <i name="EFERMI">      0.00000000</i>
  </separator>
  <separator name="writing" >
   <i type="int" name="NWRITE">     2</i>
   <i type="logical" name="LWAVE"> F  </i>
   <i type="logical" name="LDOWNSAMPLE"> F  </i>
   <i type="logical" name="LCHARG"> F  </i>
   <i type="logical" name="LPARD"> F  </i>
   <i type="logical" name="LVTOT"> F  </i>
   <i type="logical" name="LVHAR"> F  </i>
   <i type="logical" name="LELF"> F  </i>
   <i type="logical" name="LOPTICS"> F  </i>
   <v name="STM">      0.00000000      0.00000000      0.00000000      0.00000000      0.00000000      0.00000000      0.00000000</v>
  </separator>
  <separator name="performance" >
   <i type="int" name="NPAR">     2</i>
   <i type="int" name="NSIM">     4</i>
   <i type="int" name="NBLK">    -1</i>
   <i type="logical" name="LPLANE"> T  </i>
   <i type="logical" name="LSCALAPACK"> T  </i>
   <i type="logical" name="LSCAAWARE"> F  </i>
   <i type="logical" name="LSCALU"> F  </i>
   <i type="logical" name="LASYNC"> F  </i>
   <i type="logical" name="LORBITALREAL"> F  </i>
  </separator>
  <separator name="miscellaneous" >
   <i type="int" name="IDIOT">     3</i>
   <i type="int" name="ISPECIAL">     0</i>
   <i type="logical" name="LMUSIC"> F  </i>
   <v name="POMASS">     58.69000000     32.06600000</v>
   <v name="DARWINR">      0.00000000      0.00000000</v>
   <v name="DARWINV">      1.00000000      1.00000000</v>
   <i type="logical" name="LCORR"> T  </i>
  </separator>
  <i type="logical" name="GGA_COMPAT"> T  </i>
  <i type="logical" name="LBERRY"> F  </i>
  <i type="int" name="ICORELEVEL">     0</i>
  <i type="logical" name="LDAU"> F  </i>
  <i type="int" name="I_CONSTRAINED_M">     0</i>
  <separator name="electronic exchange-correlation" >
   <i type="string" name="GGA">--</i>
   <i type="int" name="VOSKOWN">     0</i>
   <i type="logical" name="LHFCALC"> F  </i>
   <i type="string" name="PRECFOCK"></i>
   <i type="logical" name="LSYMGRAD"> F  </i>
   <i type="logical" name="LHFONE"> F  </i>
   <i type="logical" name="LRHFCALC"> F  </i>
   <i type="logical" name="LTHOMAS"> F  </i>
   <i type="logical" name="LMODELHF"> F  </i>
   <i name="ENCUT4O">     -1.00000000</i>
   <i type="int" name="EXXOEP">     0</i>
   <i type="int" name="FOURORBIT">     0</i>
   <i name="AEXX">      0.00000000</i>
   <i name="HFALPHA">      0.00000000</i>
   <i name="MCALPHA">      0.00000000</i>
   <i name="ALDAX">      1.00000000</i>
   <i name="AGGAX">      1.00000000</i>
   <i name="ALDAC">      1.00000000</i>
   <i name="AGGAC">      1.00000000</i>
   <i type="int" name="NKREDX">     1</i>
   <i type="int" name="NKREDY">     1</i>
   <i type="int" name="NKREDZ">     1</i>
   <i type="logical" name="SHIFTRED"> F  </i>
   <i type="logical" name="ODDONLY"> F  </i>
   <i type="logical" name="EVENONLY"> F  </i>
   <i type="int" name="LMAXFOCK">     0</i>
   <i type="int" name="NMAXFOCKAE">     0</i>
   <i type="logical" name="LFOCKAEDFT"> F  </i>
   <i name="HFSCREEN">      0.00000000</i>
   <i name="HFSCREENC">      0.00000000</i>
   <i type="int" name="NBANDSGWLOW">     0</i>
  </separator>
  <separator name="vdW DFT" >
   <i type="logical" name="LUSE_VDW"> F  </i>
   <i name="Zab_VDW">     -0.84910000</i>
   <i name="PARAM1">      0.12340000</i>
   <i name="PARAM2">      1.00000000</i>
   <i name="PARAM3">      0.00000000</i>
  </separator>
  <separator name="model GW" >
   <i type="int" name="MODEL_GW">     0</i>
   <i name="MODEL_EPS0">     21.38858827</i>
   <i name="MODEL_ALPHA">      1.00000000</i>
  </separator>
  <separator name="linear response parameters" >
   <i type="logical" name="LEPSILON"> F  </i>
   <i type="logical" name="LRPA"> F  </i>
   <i type="logical" name="LNABLA"> F  </i>
   <i type="logical" name="LVEL"> F  </i>
   <i type="int" name="KINTER">     0</i>
   <i name="CSHIFT">      0.10000000</i>
   <i name="OMEGAMAX">     -1.00000000</i>
   <i name="DEG_THRESHOLD">      0.00200000</i>
   <i name="RTIME">     -0.10000000</i>
   <i name="WPLASMAI">      0.00000000</i>
   <v name="DFIELD">      0.00000000      0.00000000      0.00000000</v>
   <v name="WPLASMA">      0.00000000      0.00000000      0.00000000      0.00000000      0.00000000      0.00000000      0.00000000      0.00000000      0.00000000</v>
  </separator>
  <separator name="orbital magnetization" >
   <i type="logical" name="NUCIND"> F  </i>
   <v name="MAGPOS">      0.00000000      0.00000000      0.00000000</v>
   <i type="logical" name="LNICSALL"> T  </i>
   <i type="logical" name="ORBITALMAG"> F  </i>
   <i type="logical" name="LMAGBLOCH"> F  </i>
   <i type="logical" name="LCHIMAG"> F  </i>
   <i type="logical" name="LGAUGE"> T  </i>
   <i type="int" name="MAGATOM">     0</i>
   <v name="MAGDIPOL">      0.00000000      0.00000000      0.00000000</v>
   <v name="AVECCONST">      0.00000000      0.00000000      0.00000000</v>
  </separator>
  <separator name="response functions" >
   <i type="logical" name="LADDER"> F  </i>
   <i type="logical" name="LRPAFORCE"> F  </i>
   <i type="logical" name="LFXC"> F  </i>
   <i type="logical" name="LHARTREE"> T  </i>
   <i type="int" name="IBSE">     0</i>
   <v type="int" name="KPOINT">    -1     0     0     0</v>
   <i type="logical" name="LTCTE"> F  </i>
   <i type="logical" name="LTETE"> F  </i>
   <i type="logical" name="LTRIPLET"> F  </i>
   <i type="logical" name="LFXCEPS"> F  </i>
   <i type="logical" name="LFXHEG"> F  </i>
   <i type="int" name="NATURALO">     2</i>
   <i type="logical" name="L2ORDER"> F  </i>
   <i type="logical" name="LMP2LT"> F  </i>
   <i type="logical" name="LUSEW"> F  </i>
   <i name="ENCUTGW">     -2.00000000</i>
   <i name="ENCUTGWSOFT">     -2.00000000</i>
   <i name="ENCUTLF">     -1.00000000</i>
   <i type="int" name="LMAXMP2">    -1</i>
   <i name="SCISSOR">      0.00000000</i>
   <i type="int" name="NOMEGA">     0</i>
   <i type="int" name="NOMEGAR">     0</i>
   <i type="int" name="NBANDSGW">    -1</i>
   <i type="int" name="NBANDSO">    -1</i>
   <i type="int" name="NBANDSV">    -1</i>
   <i type="int" name="NELM">   100</i>
   <i type="int" name="NELMHF">     1</i>
   <i type="int" name="DIM">     3</i>
   <i type="int" name="ANTIRES">     0</i>
   <i name="OMEGAMAX">    -30.00000000</i>
   <i name="OMEGAMIN">    -30.00000000</i>
   <i name="OMEGATL">   -200.00000000</i>
   <i type="int" name="OMEGAGRID">   140</i>
   <i name="CSHIFT">     -0.10000000</i>
   <i type="logical" name="SELFENERGY"> F  </i>
   <i type="logical" name="LSPECTRAL"> F  </i>
   <i type="logical" name="LSPECTRALGW"> F  </i>
   <i type="logical" name="LSINGLES"> F  </i>
   <i type="logical" name="LFERMIGW"> F  </i>
   <i type="logical" name="ODDONLYGW"> F  </i>
   <i type="logical" name="EVENONLYGW"> F  </i>
   <i type="int" name="NKREDLFX">     1</i>
   <i type="int" name="NKREDLFY">     1</i>
   <i type="int" name="NKREDLFZ">     1</i>
   <i type="int" name="MAXMEM">  2800</i>
   <i type="int" name="TELESCOPE">     0</i>
   <i type="int" name="TAUPAR">     1</i>
   <i type="int" name="OMEGAPAR">    -1</i>
   <i name="LAMBDA">      1.00000000</i>
  </separator>
  <separator name="External order field" >
   <i name="OFIELD_KAPPA">      0.00000000</i>
   <v name="OFIELD_K">      0.00000000      0.00000000      0.00000000</v>
   <i name="OFIELD_Q6_NEAR">      0.00000000</i>
   <i name="OFIELD_Q6_FAR">      0.00000000</i>
   <i name="OFIELD_A">      0.00000000</i>
  </separator>
 </parameters>
 <atominfo>
  <atoms>      52 </atoms>
  <types>       2 </types>
  <array name="atoms" >
   <dimension dim="1">ion</dimension>
   <field type="string">element</field>
   <field type="int">atomtype</field>
   <set>
    <rc><c>Ni</c><c>   1</c></rc>
    <rc><c>Ni</c><c>   1</c></rc>
    <rc><c>Ni</c><c>   1</c></rc>
    <rc><c>Ni</c><c>   1</c></rc>
    <rc><c>Ni</c><c>   1</c></rc>
    <rc><c>Ni</c><c>   1</c></rc>
    <rc><c>Ni</c><c>   1</c></rc>
    <rc><c>Ni</c><c>   1</c></rc>
    <rc><c>Ni</c><c>   1</c></rc>
    <rc><c>Ni</c><c>   1</c></rc>
    <rc><c>Ni</c><c>   1</c></rc>
    <rc><c>Ni</c><c>   1</c></rc>
    <rc><c>Ni</c><c>   1</c></rc>
    <rc><c>Ni</c><c>   1</c></rc>
    <rc><c>Ni</c><c>   1</c></rc>
    <rc><c>Ni</c><c>   1</c></rc>
    <rc><c>Ni</c><c>   1</c></rc>
    <rc><c>Ni</c><c>   1</c></rc>
    <rc><c>Ni</c><c>   1</c></rc>
    <rc><c>Ni</c><c>   1</c></rc>
    <rc><c>Ni</c><c>   1</c></rc>
    <rc><c>Ni</c><c>   1</c></rc>
    <rc><c>Ni</c><c>   1</c></rc>
    <rc><c>Ni</c><c>   1</c></rc>
    <rc><c>Ni</c><c>   1</c></rc>
    <rc><c>Ni</c><c>   1</c></rc>
    <rc><c>S </c><c>   2</c></rc>
    <rc><c>S </c><c>   2</c></rc>
    <rc><c>S </c><c>   2</c></rc>
    <rc><c>S </c><c>   2</c></rc>
    <rc><c>S </c><c>   2</c></rc>
    <rc><c>S </c><c>   2</c></rc>
    <rc><c>S </c><c>   2</c></rc>
    <rc><c>S </c><c>   2</c></rc>
    <rc><c>S </c><c>   2</c></rc>
    <rc><c>S </c><c>   2</c></rc>
    <rc><c>S </c><c>   2</c></rc>
    <rc><c>S </c><c>   2</c></rc>
    <rc><c>S </c><c>   2</c></rc>
    <rc><c>S </c><c>   2</c></rc>
    <rc><c>S </c><c>   2</c></rc>
    <rc><c>S </c><c>   2</c></rc>
    <rc><c>S </c><c>   2</c></rc>
    <rc><c>S </c><c>   2</c></rc>
    <rc><c>S </c><c>   2</c></rc>
    <rc><c>S </c><c>   2</c></rc>
    <rc><c>S </c><c>   2</c></rc>
    <rc><c>S </c><c>   2</c></rc>
    <rc><c>S </c><c>   2</c></rc>
    <rc><c>S </c><c>   2</c></rc>
    <rc><c>S </c><c>   2</c></rc>
    <rc><c>S </c><c>   2</c></rc>
   </set>
  </array>
  <array name="atomtypes" >
   <dimension dim="1">type</dimension>
   <field type="int">atomspertype</field>
   <field type="string">element</field>
   <field>mass</field>
   <field>valence</field>
   <field type="string">pseudopotential</field>
   <set>
    <rc><c>  26</c><c>Ni</c><c>     58.69000000</c><c>     16.00000000</c><c>  PAW_PBE Ni_pv 06Sep2000               </c></rc>
    <rc><c>  26</c><c>S </c><c>     32.06600000</c><c>      6.00000000</c><c>  PAW_PBE S 06Sep2000                   </c></rc>
   </set>
  </array>
 </atominfo>
 <structure name="initialpos" >
  <crystal>
   <varray name="basis" >
    <v>      11.25646304       0.00000000       0.00000000 </v>
    <v>       0.00000000       9.57841000       0.00000000 </v>
    <v>       0.00000000       0.00000000      17.19249240 </v>
   </varray>
   <i name="volume">   1853.67765028 </i>
   <varray name="rec_basis" >
    <v>       0.08883785       0.00000000       0.00000000 </v>
    <v>       0.00000000       0.10440146       0.00000000 </v>
    <v>       0.00000000       0.00000000       0.05816492 </v>
   </varray>
  </crystal>
  <varray name="positions" >
   <v>       0.43933499       0.46388800       0.16283377 </v>
   <v>       0.46254985       0.49547219       0.31502608 </v>
   <v>       0.22087323       0.12962181       0.09075390 </v>
   <v>       0.20232697       0.97433430       0.22971279 </v>
   <v>       0.43933499       0.19968200       0.16283377 </v>
   <v>       0.49668344       0.22309429       0.33150225 </v>
   <v>       0.23739997       0.83594607       0.10464132 </v>
   <v>       0.21949023       0.69589098       0.24103304 </v>
   <v>       0.13776117       0.33004025       0.16192824 </v>
   <v>       0.18249164       0.33178500       0.31854512 </v>
   <v>       0.48612300       0.71784773       0.08626829 </v>
   <v>       0.40525597       0.83041157       0.21308218 </v>
   <v>       0.57414261       0.70620647       0.27840660 </v>
   <v>       0.93959837       0.46329012       0.18019555 </v>
   <v>       0.99250374       0.46061375       0.33026855 </v>
   <v>       0.66754681       0.95920311       0.09520985 </v>
   <v>       0.71317368       0.97380484       0.24077982 </v>
   <v>       0.93933499       0.19968200       0.16283377 </v>
   <v>       0.96021455       0.15641317       0.30873655 </v>
   <v>       0.65883061       0.62766496       0.14025877 </v>
   <v>       0.78865502       0.56878908       0.25859413 </v>
   <v>       0.63063970       0.33178500       0.13913288 </v>
   <v>       0.68249164       0.33178500       0.31854512 </v>
   <v>       0.03650202       0.99990311       0.11309657 </v>
   <v>       0.90656566       0.83178500       0.22883899 </v>
   <v>       0.76962785       0.78655289       0.33543373 </v>
   <v>       0.05394855       0.21440249       0.07051057 </v>
   <v>       0.11148904       0.16357000       0.23893853 </v>
   <v>       0.04187133       0.27760491       0.39024295 </v>
   <v>       0.33556306       0.66357000       0.14923241 </v>
   <v>       0.38584794       0.69549388       0.30777410 </v>
   <v>       0.11148904       0.50000000       0.23893853 </v>
   <v>       0.15246117       0.50349319       0.38571421 </v>
   <v>       0.33556306       1.00000000       0.14923241 </v>
   <v>       0.31027392       0.32309337       0.10939787 </v>
   <v>       0.36788880       0.33178500       0.26911836 </v>
   <v>       0.15634120       0.96334647       0.02472673 </v>
   <v>       0.09196284       0.83178500       0.17941224 </v>
   <v>       0.57602548       0.14847812       0.08521591 </v>
   <v>       0.61148904       0.16357000       0.23893853 </v>
   <v>       0.64943429       0.15914846       0.38581205 </v>
   <v>       0.83556306       0.66357000       0.14923241 </v>
   <v>       0.92252288       0.67230594       0.31854985 </v>
   <v>       0.55161437       0.49993847       0.07097133 </v>
   <v>       0.61148904       0.50000000       0.23893853 </v>
   <v>       0.55301903       0.39039781       0.39915670 </v>
   <v>       0.83556306       1.00000000       0.14923241 </v>
   <v>       0.85817564       0.97192130       0.31839046 </v>
   <v>       0.81474938       0.34595638       0.11670457 </v>
   <v>       0.86788880       0.33178500       0.26911836 </v>
   <v>       0.64839250       0.76887188       0.03949108 </v>
   <v>       0.59196284       0.83178500       0.17941224 </v>
  </varray>
 </structure>
 <calculation>
  <scstep>
   <time name="dav">    4.12    4.12</time>
   <time name="total">    4.35    4.35</time>
   <energy>
    <i name="alphaZ">   1046.73971423 </i>
    <i name="ewald"> 128462.88253877 </i>
    <i name="hartreedc">-215391.73765407 </i>
    <i name="XCdc">   2661.65700862 </i>
    <i name="pawpsdc">  81415.77407466 </i>
    <i name="pawaedc"> -84963.31414086 </i>
    <i name="eentropy">     -0.32561172 </i>
    <i name="bandstr">  -4972.74746241 </i>
    <i name="atom">  98224.10364994 </i>
    <i name="e_fr_energy">   6483.03211715 </i>
    <i name="e_wo_entrp">   6483.35772887 </i>
    <i name="e_0_energy">   6483.19492301 </i>
   </energy>
  </scstep>
  <scstep>
   <time name="dav">    3.46    3.46</time>
   <time name="total">    3.46    3.46</time>
   <energy>
    <i name="e_fr_energy">    350.83319078 </i>
    <i name="e_wo_entrp">    351.42263380 </i>
    <i name="e_0_energy">    351.12791229 </i>
   </energy>
  </scstep>
  <scstep>
   <time name="dav">    4.06    4.06</time>
   <time name="total">    4.06    4.06</time>
   <energy>
    <i name="e_fr_energy">   -249.75983499 </i>
    <i name="e_wo_entrp">   -248.88208286 </i>
    <i name="e_0_energy">   -249.32095893 </i>
   </energy>
  </scstep>
  <scstep>
   <time name="dav">    3.94    3.94</time>
   <time name="total">    3.94    3.94</time>
   <energy>
    <i name="e_fr_energy">   -280.27232643 </i>
    <i name="e_wo_entrp">   -279.40239307 </i>
    <i name="e_0_energy">   -279.83735975 </i>
   </energy>
  </scstep>
  <scstep>
   <time name="dav">    4.19    4.19</time>
   <time name="total">    4.35    4.35</time>
   <energy>
    <i name="e_fr_energy">   -281.42574242 </i>
    <i name="e_wo_entrp">   -280.55806943 </i>
    <i name="e_0_energy">   -280.99190592 </i>
   </energy>
  </scstep>
  <scstep>
   <time name="dav">    3.89    3.89</time>
   <time name="total">    4.39    4.39</time>
   <energy>
    <i name="e_fr_energy">   -327.15274661 </i>
    <i name="e_wo_entrp">   -326.72351564 </i>
    <i name="e_0_energy">   -326.93813112 </i>
   </energy>
  </scstep>
  <scstep>
   <time name="dav">    3.67    3.67</time>
   <time name="total">    4.09    4.09</time>
   <energy>
    <i name="e_fr_energy">   -255.22927556 </i>
    <i name="e_wo_entrp">   -254.73543815 </i>
    <i name="e_0_energy">   -254.98235685 </i>
   </energy>
  </scstep>
  <scstep>
   <time name="dav">    4.50    4.51</time>
   <time name="total">    4.88    4.88</time>
   <energy>
    <i name="e_fr_energy">   -264.76039111 </i>
    <i name="e_wo_entrp">   -264.01589003 </i>
    <i name="e_0_energy">   -264.38814057 </i>
   </energy>
  </scstep>
  <scstep>
   <time name="dav">    4.33    4.33</time>
   <time name="total">    4.70    4.70</time>
   <energy>
    <i name="e_fr_energy">   -260.64583933 </i>
    <i name="e_wo_entrp">   -259.85028499 </i>
    <i name="e_0_energy">   -260.24806216 </i>
   </energy>
  </scstep>
  <scstep>
   <time name="dav">    4.40    4.40</time>
   <time name="total">    4.76    4.76</time>
   <energy>
    <i name="e_fr_energy">   -257.72195108 </i>
    <i name="e_wo_entrp">   -257.02201272 </i>
    <i name="e_0_energy">   -257.37198190 </i>
   </energy>
  </scstep>
  <scstep>
   <time name="dav">    4.50    4.50</time>
   <time name="total">    4.86    4.86</time>
   <energy>
    <i name="e_fr_energy">   -256.58407499 </i>
    <i name="e_wo_entrp">   -255.89811784 </i>
    <i name="e_0_energy">   -256.24109641 </i>
   </energy>
  </scstep>
  <scstep>
   <time name="dav">    4.39    4.39</time>
   <time name="total">    4.76    4.85</time>
   <energy>
    <i name="e_fr_energy">   -251.59282450 </i>
    <i name="e_wo_entrp">   -250.93866274 </i>
    <i name="e_0_energy">   -251.26574362 </i>
   </energy>
  </scstep>
  <scstep>
   <time name="dav">    4.41    4.47</time>
   <time name="total">    4.82    4.88</time>
   <energy>
    <i name="e_fr_energy">   -249.31857643 </i>
    <i name="e_wo_entrp">   -248.70954894 </i>
    <i name="e_0_energy">   -249.01406269 </i>
   </energy>
  </scstep>
  <scstep>
   <time name="dav">    4.26    4.26</time>
   <time name="total">    4.62    4.63</time>
   <energy>
    <i name="e_fr_energy">   -248.45948954 </i>
    <i name="e_wo_entrp">   -247.77055001 </i>
    <i name="e_0_energy">   -248.11501978 </i>
   </energy>
  </scstep>
  <scstep>
   <time name="dav">    4.46    4.46</time>
   <time name="total">    4.83    4.83</time>
   <energy>
    <i name="e_fr_energy">   -247.98911196 </i>
    <i name="e_wo_entrp">   -247.35713682 </i>
    <i name="e_0_energy">   -247.67312439 </i>
   </energy>
  </scstep>
  <scstep>
   <time name="dav">    4.44    4.44</time>
   <time name="total">    4.81    4.81</time>
   <energy>
    <i name="e_fr_energy">   -247.66546213 </i>
    <i name="e_wo_entrp">   -247.00859035 </i>
    <i name="e_0_energy">   -247.33702624 </i>
   </energy>
  </scstep>
  <scstep>
   <time name="dav">    4.47    4.47</time>
   <time name="total">    4.84    4.84</time>
   <energy>
    <i name="e_fr_energy">   -247.22799740 </i>
    <i name="e_wo_entrp">   -246.55703421 </i>
    <i name="e_0_energy">   -246.89251581 </i>
   </energy>
  </scstep>
  <scstep>
   <time name="dav">    4.48    4.48</time>
   <time name="total">    4.86    4.91</time>
   <energy>
    <i name="e_fr_energy">   -246.89771844 </i>
    <i name="e_wo_entrp">   -246.23056722 </i>
    <i name="e_0_energy">   -246.56414283 </i>
   </energy>
  </scstep>
  <scstep>
   <time name="dav">    4.80    4.80</time>
   <time name="total">    5.17    5.17</time>
   <energy>
    <i name="e_fr_energy">   -246.52954395 </i>
    <i name="e_wo_entrp">   -245.84577026 </i>
    <i name="e_0_energy">   -246.18765711 </i>
   </energy>
  </scstep>
  <scstep>
   <time name="dav">    4.38    4.39</time>
   <time name="total">    4.75    4.76</time>
   <energy>
    <i name="e_fr_energy">   -246.49492654 </i>
    <i name="e_wo_entrp">   -245.82074984 </i>
    <i name="e_0_energy">   -246.15783819 </i>
   </energy>
  </scstep>
  <scstep>
   <time name="dav">    4.18    4.22</time>
   <time name="total">    4.56    4.60</time>
   <energy>
    <i name="e_fr_energy">   -246.47180815 </i>
    <i name="e_wo_entrp">   -245.78883347 </i>
    <i name="e_0_energy">   -246.13032081 </i>
   </energy>
  </scstep>
  <scstep>
   <time name="dav">    4.28    4.28</time>
   <time name="total">    4.83    4.83</time>
   <energy>
    <i name="e_fr_energy">   -246.47193739 </i>
    <i name="e_wo_entrp">   -245.78762451 </i>
    <i name="e_0_energy">   -246.12978095 </i>
   </energy>
  </scstep>
  <scstep>
   <time name="dav">    4.00    4.00</time>
   <time name="total">    4.40    4.41</time>
   <energy>
    <i name="e_fr_energy">   -246.43919533 </i>
    <i name="e_wo_entrp">   -245.76262869 </i>
    <i name="e_0_energy">   -246.10091201 </i>
   </energy>
  </scstep>
  <scstep>
   <time name="dav">    4.43    4.43</time>
   <time name="total">    4.81    4.81</time>
   <energy>
    <i name="e_fr_energy">   -246.44282046 </i>
    <i name="e_wo_entrp">   -245.76878072 </i>
    <i name="e_0_energy">   -246.10580059 </i>
   </energy>
  </scstep>
  <scstep>
   <time name="dav">    4.32    4.38</time>
   <time name="total">    4.69    4.75</time>
   <energy>
    <i name="e_fr_energy">   -246.43415027 </i>
    <i name="e_wo_entrp">   -245.76361851 </i>
    <i name="e_0_energy">   -246.09888439 </i>
   </energy>
  </scstep>
  <scstep>
   <time name="dav">    4.47    4.47</time>
   <time name="total">    4.84    4.84</time>
   <energy>
    <i name="e_fr_energy">   -246.43393604 </i>
    <i name="e_wo_entrp">   -245.76390797 </i>
    <i name="e_0_energy">   -246.09892200 </i>
   </energy>
  </scstep>
  <scstep>
   <time name="dav">    3.86    3.86</time>
   <time name="total">    4.23    4.23</time>
   <energy>
    <i name="e_fr_energy">   -246.43385986 </i>
    <i name="e_wo_entrp">   -245.76538699 </i>
    <i name="e_0_energy">   -246.09962342 </i>
   </energy>
  </scstep>
  <scstep>
   <time name="dav">    3.63    3.63</time>
   <time name="total">    4.10    4.10</time>
   <energy>
    <i name="e_fr_energy">   -246.43401002 </i>
    <i name="e_wo_entrp">   -245.76645203 </i>
    <i name="e_0_energy">   -246.10023102 </i>
   </energy>
  </scstep>
  <scstep>
   <time name="dav">    3.59    3.59</time>
   <time name="total">    4.03    4.03</time>
   <energy>
    <i name="e_fr_energy">   -246.43404956 </i>
    <i name="e_wo_entrp">   -245.76390942 </i>
    <i name="e_0_energy">   -246.09897949 </i>
   </energy>
  </scstep>
  <scstep>
   <time name="dav">    3.93    3.94</time>
   <time name="total">    4.31    4.32</time>
   <energy>
    <i name="e_fr_energy">   -246.43422032 </i>
    <i name="e_wo_entrp">   -245.76324010 </i>
    <i name="e_0_energy">   -246.09873021 </i>
   </energy>
  </scstep>
  <scstep>
   <time name="dav">    3.05    3.05</time>
   <time name="total">    3.45    3.45</time>
   <energy>
    <i name="e_fr_energy">   -246.43444240 </i>
    <i name="e_wo_entrp">   -245.76308699 </i>
    <i name="e_0_energy">   -246.09876469 </i>
   </energy>
  </scstep>
  <scstep>
   <time name="dav">    2.38    2.38</time>
   <time name="total">    2.60    2.60</time>
   <energy>
    <i name="alphaZ">   1046.73971423 </i>
    <i name="ewald"> 128462.88253877 </i>
    <i name="hartreedc">-214933.10267412 </i>
    <i name="XCdc">   2640.98915233 </i>
    <i name="pawpsdc"> 102387.05018040 </i>
    <i name="pawaedc">-105992.79165435 </i>
    <i name="eentropy">     -0.67119490 </i>
    <i name="bandstr"> -12081.63419909 </i>
    <i name="atom">  98224.10364994 </i>
    <i name="e_fr_energy">   -246.43448679 </i>
    <i name="e_wo_entrp">   -245.76329189 </i>
    <i name="e_0_energy">   -246.09888934 </i>
   </energy>
  </scstep>
  <structure>
   <crystal>
    <varray name="basis" >
     <v>      11.25646304       0.00000000       0.00000000 </v>
     <v>       0.00000000       9.57841000       0.00000000 </v>
     <v>       0.00000000       0.00000000      17.19249240 </v>
    </varray>
    <i name="volume">   1853.67765028 </i>
    <varray name="rec_basis" >
     <v>       0.08883785       0.00000000       0.00000000 </v>
     <v>       0.00000000       0.10440146       0.00000000 </v>
     <v>       0.00000000       0.00000000       0.05816492 </v>
    </varray>
   </crystal>
   <varray name="positions" >
    <v>       0.43933499       0.46388800       0.16283377 </v>
    <v>       0.46254985       0.49547219       0.31502608 </v>
    <v>       0.22087323       0.12962181       0.09075390 </v>
    <v>       0.20232697       0.97433430       0.22971279 </v>
    <v>       0.43933499       0.19968200       0.16283377 </v>
    <v>       0.49668344       0.22309429       0.33150225 </v>
    <v>       0.23739997       0.83594607       0.10464132 </v>
    <v>       0.21949023       0.69589098       0.24103304 </v>
    <v>       0.13776117       0.33004025       0.16192824 </v>
    <v>       0.18249164       0.33178500       0.31854512 </v>
    <v>       0.48612300       0.71784773       0.08626829 </v>
    <v>       0.40525597       0.83041157       0.21308218 </v>
    <v>       0.57414261       0.70620647       0.27840660 </v>
    <v>       0.93959837       0.46329012       0.18019555 </v>
    <v>       0.99250374       0.46061375       0.33026855 </v>
    <v>       0.66754681       0.95920311       0.09520985 </v>
    <v>       0.71317368       0.97380484       0.24077982 </v>
    <v>       0.93933499       0.19968200       0.16283377 </v>
    <v>       0.96021455       0.15641317       0.30873655 </v>
    <v>       0.65883061       0.62766496       0.14025877 </v>
    <v>       0.78865502       0.56878908       0.25859413 </v>
    <v>       0.63063970       0.33178500       0.13913288 </v>
    <v>       0.68249164       0.33178500       0.31854512 </v>
    <v>       0.03650202       0.99990311       0.11309657 </v>
    <v>       0.90656566       0.83178500       0.22883899 </v>
    <v>       0.76962785       0.78655289       0.33543373 </v>
    <v>       0.05394855       0.21440249       0.07051057 </v>
    <v>       0.11148904       0.16357000       0.23893853 </v>
    <v>       0.04187133       0.27760491       0.39024295 </v>
    <v>       0.33556306       0.66357000       0.14923241 </v>
    <v>       0.38584794       0.69549388       0.30777410 </v>
    <v>       0.11148904       0.50000000       0.23893853 </v>
    <v>       0.15246117       0.50349319       0.38571421 </v>
    <v>       0.33556306       1.00000000       0.14923241 </v>
    <v>       0.31027392       0.32309337       0.10939787 </v>
    <v>       0.36788880       0.33178500       0.26911836 </v>
    <v>       0.15634120       0.96334647       0.02472673 </v>
    <v>       0.09196284       0.83178500       0.17941224 </v>
    <v>       0.57602548       0.14847812       0.08521591 </v>
    <v>       0.61148904       0.16357000       0.23893853 </v>
    <v>       0.64943429       0.15914846       0.38581205 </v>
    <v>       0.83556306       0.66357000       0.14923241 </v>
    <v>       0.92252288       0.67230594       0.31854985 </v>
    <v>       0.55161437       0.49993847       0.07097133 </v>
    <v>       0.61148904       0.50000000       0.23893853 </v>
    <v>       0.55301903       0.39039781       0.39915670 </v>
    <v>       0.83556306       1.00000000       0.14923241 </v>
    <v>       0.85817564       0.97192130       0.31839046 </v>
    <v>       0.81474938       0.34595638       0.11670457 </v>
    <v>       0.86788880       0.33178500       0.26911836 </v>
    <v>       0.64839250       0.76887188       0.03949108 </v>
    <v>       0.59196284       0.83178500       0.17941224 </v>
   </varray>
  </structure>
  <varray name="forces" >
   <v>      -0.95121219      -0.92703250       1.54689807 </v>
   <v>      -0.45622605       1.36974377       0.01182840 </v>
   <v>       0.55087413       1.01623713      -0.44603252 </v>
   <v>       0.29044223       0.19607178       1.22527764 </v>
   <v>      -0.05077307      -0.56136934       1.18849295 </v>
   <v>      -1.82617408      -1.43058927      -0.13006262 </v>
   <v>       0.78795249      -1.87760267      -1.27678441 </v>
   <v>      -0.75328973       0.28568521       0.98274225 </v>
   <v>      -0.07961150       0.87751764      -0.49939187 </v>
   <v>       1.51967857      -1.34130755      -1.51641575 </v>
   <v>      -1.46749840       0.29670406      -0.33609416 </v>
   <v>       0.37679937       1.26812505       0.40352772 </v>
   <v>       0.72765474       0.41730326       0.98968242 </v>
   <v>       0.46330100       0.42934364      -0.69325819 </v>
   <v>      -1.47353614       0.73132022       0.61936236 </v>
   <v>       0.42827968       0.91588622      -0.61655429 </v>
   <v>      -0.96403449      -0.39450390       0.41233893 </v>
   <v>      -1.48871754       0.35413421       1.94311140 </v>
   <v>      -0.69669340      -1.40888122       0.26918395 </v>
   <v>       0.21577272       0.15259593      -0.22161936 </v>
   <v>      -0.67299297      -0.25571077       0.90371696 </v>
   <v>       0.25664133       0.73577611       0.81394746 </v>
   <v>       2.24125075       1.50598888      -1.44250336 </v>
   <v>      -2.11136880       0.37825942      -0.04115293 </v>
   <v>       0.57445270      -0.57716699      -1.89605323 </v>
   <v>      -0.84759836      -0.17231411       0.81719724 </v>
   <v>      -0.56142366       0.72373553      -3.19918804 </v>
   <v>       0.71791632      -1.26835574       1.08443903 </v>
   <v>      -0.06479716      -0.88794419       3.35223759 </v>
   <v>      -0.61831775      -2.77995961      -2.23205126 </v>
   <v>      -0.70171238       0.41350383       2.47048017 </v>
   <v>       1.02252483       1.40817757      -2.36069630 </v>
   <v>       1.46391918       2.06618678       2.66109761 </v>
   <v>       3.60416270       1.43640005       0.96802945 </v>
   <v>      -0.57052911       1.67469073      -2.04897512 </v>
   <v>      -2.03117704      -0.60952308      -0.24659614 </v>
   <v>      -0.14789231      -0.79659129      -4.02580791 </v>
   <v>      -2.44067933      -2.51677717       1.81322628 </v>
   <v>      -0.06273281      -0.72615433      -2.01391992 </v>
   <v>       0.02686876      -0.20325823      -0.54278432 </v>
   <v>       1.09043039      -1.98557172       2.21874332 </v>
   <v>       3.65771953       0.06679281      -0.52486674 </v>
   <v>       0.37804327       0.88629885       1.83820982 </v>
   <v>      -0.21948176      -0.85445852      -3.21215178 </v>
   <v>       0.22974798      -0.92191912       0.02516265 </v>
   <v>       0.10698729       0.61961135       3.54811873 </v>
   <v>       1.80004059       0.49202500      -1.56966980 </v>
   <v>       0.22328863       1.06072590       2.10311605 </v>
   <v>      -0.18804530      -0.13869109      -2.31138402 </v>
   <v>      -1.90552382      -0.16797648       0.65342065 </v>
   <v>       1.46359505       0.17690128      -3.23720430 </v>
   <v>      -0.86630511       0.84791669       1.77762925 </v>
  </varray>
  <varray name="stress" >
   <v>      84.46626447       1.55931150      -2.08570360 </v>
   <v>       1.55931155      80.08155709       1.22030192 </v>
   <v>      -2.08570350       1.22030196      84.33422650 </v>
  </varray>
  <energy>
   <i name="e_fr_energy">   -246.43448679 </i>
   <i name="e_wo_entrp">   -246.09888934 </i>
   <i name="e_0_energy">     -0.67119490 </i>
  </energy>
  <time name="totalsc">  146.08  146.42</time>
  <eigenvalues>
   <array>
    <dimension dim="1">band</dimension>
    <dimension dim="2">kpoint</dimension>
    <dimension dim="3">spin</dimension>
    <field>eigene</field>
    <field>occ</field>
    <set>
     <set comment="spin 1">
      <set comment="kpoint 1">
       <r>  -65.0655    1.0000 </r>
       <r>  -65.0034    1.0000 </r>
       <r>  -64.9840    1.0000 </r>
       <r>  -64.9664    1.0000 </r>
       <r>  -64.8146    1.0000 </r>
       <r>  -64.8023    1.0000 </r>
       <r>  -64.7781    1.0000 </r>
       <r>  -64.6924    1.0000 </r>
       <r>  -64.6731    1.0000 </r>
       <r>  -64.6569    1.0000 </r>
       <r>  -64.6314    1.0000 </r>
       <r>  -64.6213    1.0000 </r>
       <r>  -64.6112    1.0000 </r>
       <r>  -64.6060    1.0000 </r>
       <r>  -64.5917    1.0000 </r>
       <r>  -64.5888    1.0000 </r>
       <r>  -64.5577    1.0000 </r>
       <r>  -64.5559    1.0000 </r>
       <r>  -64.5552    1.0000 </r>
       <r>  -64.5230    1.0000 </r>
       <r>  -64.5103    1.0000 </r>
       <r>  -64.4977    1.0000 </r>
       <r>  -64.4933    1.0000 </r>
       <r>  -64.4926    1.0000 </r>
       <r>  -64.4744    1.0000 </r>
       <r>  -64.4716    1.0000 </r>
       <r>  -64.4452    1.0000 </r>
       <r>  -64.4320    1.0000 </r>
       <r>  -64.4275    1.0000 </r>
       <r>  -64.4257    1.0000 </r>
       <r>  -64.4085    1.0000 </r>
       <r>  -64.3958    1.0000 </r>
       <r>  -64.3952    1.0000 </r>
       <r>  -64.3924    1.0000 </r>
       <r>  -64.3626    1.0000 </r>
       <r>  -64.3577    1.0000 </r>
       <r>  -64.3449    1.0000 </r>
       <r>  -64.3440    1.0000 </r>
       <r>  -64.3321    1.0000 </r>
       <r>  -64.3309    1.0000 </r>
       <r>  -64.3304    1.0000 </r>
       <r>  -64.3247    1.0000 </r>
       <r>  -64.3190    1.0000 </r>
       <r>  -64.3007    1.0000 </r>
       <r>  -64.2748    1.0000 </r>
       <r>  -64.2712    1.0000 </r>
       <r>  -64.2521    1.0000 </r>
       <r>  -64.2513    1.0000 </r>
       <r>  -64.2395    1.0000 </r>
       <r>  -64.2226    1.0000 </r>
       <r>  -64.2189    1.0000 </r>
       <r>  -64.1943    1.0000 </r>
       <r>  -64.1939    1.0000 </r>
       <r>  -64.1886    1.0000 </r>
       <r>  -64.1799    1.0000 </r>
       <r>  -64.1747    1.0000 </r>
       <r>  -64.1721    1.0000 </r>
       <r>  -64.1536    1.0000 </r>
       <r>  -64.1306    1.0000 </r>
       <r>  -64.1202    1.0000 </r>
       <r>  -64.0889    1.0000 </r>
       <r>  -64.0832    1.0000 </r>
       <r>  -64.0800    1.0000 </r>
       <r>  -64.0457    1.0000 </r>
       <r>  -64.0435    1.0000 </r>
       <r>  -64.0250    1.0000 </r>
       <r>  -64.0121    1.0000 </r>
       <r>  -63.9535    1.0000 </r>
       <r>  -63.9435    1.0000 </r>
       <r>  -63.9070    1.0000 </r>
       <r>  -63.9044    1.0000 </r>
       <r>  -63.8969    1.0000 </r>
       <r>  -63.8717    1.0000 </r>
       <r>  -63.7404    1.0000 </r>
       <r>  -63.6359    1.0000 </r>
       <r>  -63.6348    1.0000 </r>
       <r>  -63.5769    1.0000 </r>
       <r>  -63.0678    1.0000 </r>
       <r>  -16.7328    1.0000 </r>
       <r>  -16.3442    1.0000 </r>
       <r>  -16.0968    1.0000 </r>
       <r>  -15.8857    1.0000 </r>
       <r>  -15.6453    1.0000 </r>
       <r>  -15.4827    1.0000 </r>
       <r>  -15.2895    1.0000 </r>
       <r>  -15.1698    1.0000 </r>
       <r>  -15.0079    1.0000 </r>
       <r>  -14.9427    1.0000 </r>
       <r>  -14.8132    1.0000 </r>
       <r>  -14.7270    1.0000 </r>
       <r>  -14.6221    1.0000 </r>
       <r>  -14.5056    1.0000 </r>
       <r>  -14.4988    1.0000 </r>
       <r>  -14.3074    1.0000 </r>
       <r>  -14.1353    1.0000 </r>
       <r>  -13.9216    1.0000 </r>
       <r>  -13.8414    1.0000 </r>
       <r>  -13.7765    1.0000 </r>
       <r>  -13.6409    1.0000 </r>
       <r>  -13.5302    1.0000 </r>
       <r>  -13.4399    1.0000 </r>
       <r>  -13.2774    1.0000 </r>
       <r>  -12.9198    1.0000 </r>
       <r>  -12.7923    1.0000 </r>
       <r>   -8.4000    1.0000 </r>
       <r>   -8.1992    1.0000 </r>
       <r>   -8.0890    1.0000 </r>
       <r>   -7.9813    1.0000 </r>
       <r>   -7.9175    1.0000 </r>
       <r>   -7.7682    1.0000 </r>
       <r>   -7.7192    1.0000 </r>
       <r>   -7.6773    1.0000 </r>
       <r>   -7.5626    1.0000 </r>
       <r>   -7.4330    1.0000 </r>
       <r>   -7.3805    1.0000 </r>
       <r>   -7.2958    1.0000 </r>
       <r>   -7.2348    1.0000 </r>
       <r>   -7.0910    1.0000 </r>
       <r>   -7.0430    1.0000 </r>
       <r>   -7.0240    1.0000 </r>
       <r>   -6.9274    1.0000 </r>
       <r>   -6.7900    1.0000 </r>
       <r>   -6.7423    1.0000 </r>
       <r>   -6.6886    1.0000 </r>
       <r>   -6.6626    1.0000 </r>
       <r>   -6.5729    1.0000 </r>
       <r>   -6.5314    1.0000 </r>
       <r>   -6.4898    1.0000 </r>
       <r>   -6.4182    1.0000 </r>
       <r>   -6.3585    1.0000 </r>
       <r>   -6.3230    1.0000 </r>
       <r>   -6.2486    1.0000 </r>
       <r>   -6.1847    1.0000 </r>
       <r>   -6.1161    1.0000 </r>
       <r>   -6.0827    1.0000 </r>
       <r>   -5.9353    1.0000 </r>
       <r>   -5.9051    1.0000 </r>
       <r>   -5.8430    1.0000 </r>
       <r>   -5.7986    1.0000 </r>
       <r>   -5.7324    1.0000 </r>
       <r>   -5.7001    1.0000 </r>
       <r>   -5.6395    1.0000 </r>
       <r>   -5.5720    1.0000 </r>
       <r>   -5.5182    1.0000 </r>
       <r>   -5.4583    1.0000 </r>
       <r>   -5.4451    1.0000 </r>
       <r>   -5.4222    1.0000 </r>
       <r>   -5.3834    1.0000 </r>
       <r>   -5.3518    1.0000 </r>
       <r>   -5.3298    1.0000 </r>
       <r>   -5.2739    1.0000 </r>
       <r>   -5.1940    1.0000 </r>
       <r>   -5.1413    1.0000 </r>
       <r>   -5.0937    1.0000 </r>
       <r>   -4.9994    1.0000 </r>
       <r>   -4.9548    1.0000 </r>
       <r>   -4.9106    1.0000 </r>
       <r>   -4.8339    1.0000 </r>
       <r>   -4.8140    1.0000 </r>
       <r>   -4.7695    1.0000 </r>
       <r>   -4.6513    1.0000 </r>
       <r>   -4.6286    1.0000 </r>
       <r>   -4.6136    1.0000 </r>
       <r>   -4.5308    1.0000 </r>
       <r>   -4.4963    1.0000 </r>
       <r>   -4.4461    1.0000 </r>
       <r>   -4.4249    1.0000 </r>
       <r>   -4.3759    1.0000 </r>
       <r>   -4.3416    1.0000 </r>
       <r>   -4.2594    1.0000 </r>
       <r>   -4.2312    1.0000 </r>
       <r>   -4.1077    1.0000 </r>
       <r>   -4.0810    1.0000 </r>
       <r>   -4.0258    1.0000 </r>
       <r>   -4.0062    1.0000 </r>
       <r>   -3.9049    1.0000 </r>
       <r>   -3.8809    1.0000 </r>
       <r>   -3.7722    1.0000 </r>
       <r>   -3.7110    1.0000 </r>
       <r>   -3.6285    1.0000 </r>
       <r>   -3.5473    1.0000 </r>
       <r>   -3.5188    1.0000 </r>
       <r>   -3.4507    1.0000 </r>
       <r>   -3.4234    1.0000 </r>
       <r>   -3.3870    1.0000 </r>
       <r>   -3.3373    1.0000 </r>
       <r>   -3.2834    1.0000 </r>
       <r>   -3.2158    1.0000 </r>
       <r>   -3.1913    1.0000 </r>
       <r>   -3.1821    1.0000 </r>
       <r>   -3.1289    1.0000 </r>
       <r>   -3.1083    1.0000 </r>
       <r>   -3.0850    1.0000 </r>
       <r>   -3.0484    1.0000 </r>
       <r>   -3.0257    1.0000 </r>
       <r>   -2.9729    1.0000 </r>
       <r>   -2.9378    1.0000 </r>
       <r>   -2.9316    1.0000 </r>
       <r>   -2.9161    1.0000 </r>
       <r>   -2.8808    1.0000 </r>
       <r>   -2.8634    1.0000 </r>
       <r>   -2.8208    1.0000 </r>
       <r>   -2.8022    1.0000 </r>
       <r>   -2.7769    1.0000 </r>
       <r>   -2.7099    1.0000 </r>
       <r>   -2.6739    1.0000 </r>
       <r>   -2.6181    1.0000 </r>
       <r>   -2.6151    1.0000 </r>
       <r>   -2.6010    1.0000 </r>
       <r>   -2.5488    1.0000 </r>
       <r>   -2.5332    1.0000 </r>
       <r>   -2.5085    1.0000 </r>
       <r>   -2.4999    1.0000 </r>
       <r>   -2.4499    1.0000 </r>
       <r>   -2.4332    1.0000 </r>
       <r>   -2.3874    1.0000 </r>
       <r>   -2.3716    1.0000 </r>
       <r>   -2.3574    1.0000 </r>
       <r>   -2.3395    1.0000 </r>
       <r>   -2.3053    1.0000 </r>
       <r>   -2.2754    1.0000 </r>
       <r>   -2.2647    1.0000 </r>
       <r>   -2.2458    1.0000 </r>
       <r>   -2.2108    1.0000 </r>
       <r>   -2.2007    1.0000 </r>
       <r>   -2.1620    1.0000 </r>
       <r>   -2.1568    1.0000 </r>
       <r>   -2.1212    1.0000 </r>
       <r>   -2.1076    1.0000 </r>
       <r>   -2.0853    1.0000 </r>
       <r>   -2.0546    1.0000 </r>
       <r>   -2.0505    1.0000 </r>
       <r>   -2.0389    1.0000 </r>
       <r>   -2.0091    1.0000 </r>
       <r>   -1.9930    1.0000 </r>
       <r>   -1.9693    1.0000 </r>
       <r>   -1.9391    1.0000 </r>
       <r>   -1.9333    1.0000 </r>
       <r>   -1.9197    1.0000 </r>
       <r>   -1.8923    1.0000 </r>
       <r>   -1.8792    1.0000 </r>
       <r>   -1.8148    1.0000 </r>
       <r>   -1.8025    1.0000 </r>
       <r>   -1.7821    1.0000 </r>
       <r>   -1.7604    1.0000 </r>
       <r>   -1.7281    1.0000 </r>
       <r>   -1.7216    1.0000 </r>
       <r>   -1.6680    1.0000 </r>
       <r>   -1.6270    1.0000 </r>
       <r>   -1.6135    1.0000 </r>
       <r>   -1.5855    1.0000 </r>
       <r>   -1.5599    1.0000 </r>
       <r>   -1.5206    1.0000 </r>
       <r>   -1.5045    1.0000 </r>
       <r>   -1.4668    1.0000 </r>
       <r>   -1.4296    1.0000 </r>
       <r>   -1.3971    1.0000 </r>
       <r>   -1.3721    1.0000 </r>
       <r>   -1.3692    1.0000 </r>
       <r>   -1.3169    1.0000 </r>
       <r>   -1.2624    1.0000 </r>
       <r>   -1.2517    1.0000 </r>
       <r>   -1.2194    1.0000 </r>
       <r>   -1.1620    1.0000 </r>
       <r>   -1.1132    1.0000 </r>
       <r>   -1.0813    1.0000 </r>
       <r>   -1.0541    1.0000 </r>
       <r>   -1.0330    1.0000 </r>
       <r>   -0.9687    1.0000 </r>
       <r>   -0.9419    1.0000 </r>
       <r>   -0.8827    1.0000 </r>
       <r>   -0.8230    1.0000 </r>
       <r>   -0.7522    1.0000 </r>
       <r>   -0.7448    1.0000 </r>
       <r>   -0.6661    1.0000 </r>
       <r>   -0.6585    0.9999 </r>
       <r>   -0.6208    0.9998 </r>
       <r>   -0.5644    0.9993 </r>
       <r>   -0.5036    0.9971 </r>
       <r>   -0.4757    0.9947 </r>
       <r>   -0.4281    0.9868 </r>
       <r>   -0.3835    0.9715 </r>
       <r>   -0.3500    0.9523 </r>
       <r>   -0.3192    0.9264 </r>
       <r>   -0.1867    0.6960 </r>
       <r>   -0.1040    0.4712 </r>
       <r>   -0.0864    0.4222 </r>
       <r>   -0.0313    0.2789 </r>
       <r>    0.0162    0.1783 </r>
       <r>    0.1097    0.0567 </r>
       <r>    0.1286    0.0430 </r>
       <r>    0.1773    0.0196 </r>
       <r>    0.2453    0.0055 </r>
       <r>    0.3543    0.0005 </r>
       <r>    0.3938    0.0002 </r>
       <r>    0.4059    0.0001 </r>
       <r>    0.4769    0.0000 </r>
       <r>    0.5420    0.0000 </r>
       <r>    0.7183    0.0000 </r>
       <r>    0.7694    0.0000 </r>
       <r>    0.8238    0.0000 </r>
       <r>    0.8296    0.0000 </r>
       <r>    0.9372    0.0000 </r>
       <r>    1.0181    0.0000 </r>
       <r>    1.0905    0.0000 </r>
       <r>    1.1297    0.0000 </r>
       <r>    1.2549    0.0000 </r>
       <r>    1.3020    0.0000 </r>
       <r>    1.3437    0.0000 </r>
       <r>    1.4342    0.0000 </r>
       <r>    1.6056    0.0000 </r>
       <r>    1.7137    0.0000 </r>
       <r>    1.8987    0.0000 </r>
       <r>    2.7269    0.0000 </r>
       <r>    3.4973    0.0000 </r>
       <r>    3.6660    0.0000 </r>
       <r>    3.8429    0.0000 </r>
       <r>    3.9116    0.0000 </r>
       <r>    4.0705    0.0000 </r>
       <r>    4.1144    0.0000 </r>
       <r>    4.2510    0.0000 </r>
       <r>    4.2878    0.0000 </r>
       <r>    4.3767    0.0000 </r>
       <r>    4.5048    0.0000 </r>
       <r>    4.5895    0.0000 </r>
       <r>    4.7085    0.0000 </r>
       <r>    4.7255    0.0000 </r>
       <r>    4.7687    0.0000 </r>
       <r>    4.8935    0.0000 </r>
       <r>    4.9473    0.0000 </r>
       <r>    4.9853    0.0000 </r>
       <r>    5.0378    0.0000 </r>
       <r>    5.1557    0.0000 </r>
       <r>    5.1701    0.0000 </r>
       <r>    5.2999    0.0000 </r>
       <r>    5.3099    0.0000 </r>
       <r>    5.3716    0.0000 </r>
       <r>    5.4375    0.0000 </r>
       <r>    5.4870    0.0000 </r>
       <r>    5.5188    0.0000 </r>
       <r>    5.6023    0.0000 </r>
       <r>    5.6229    0.0000 </r>
       <r>    5.6853    0.0000 </r>
       <r>    5.8220    0.0000 </r>
      </set>
     </set>
    </set>
   </array>
  </eigenvalues>
  <separator name="orbital magnetization" >
   <v name="MAGDIPOLOUT">      0.00000000      0.00000000      0.00000000</v>
  </separator>
  <dos>
   <i name="efermi">     -0.11417993 </i>
   <total>
    <array>
     <dimension dim="1">gridpoints</dimension>
     <dimension dim="2">spin</dimension>
     <field>energy</field>
     <field>total</field>
     <field>integrated</field>
     <set>
      <set comment="spin 1">
       <r>   -68.6099     0.0000     0.0000 </r>
       <r>   -68.3500     0.0000     0.0000 </r>
       <r>   -68.0901     0.0000     0.0000 </r>
       <r>   -67.8301     0.0000     0.0000 </r>
       <r>   -67.5702     0.0000     0.0000 </r>
       <r>   -67.3103     0.0000     0.0000 </r>
       <r>   -67.0504     0.0000     0.0000 </r>
       <r>   -66.7905     0.0000     0.0000 </r>
       <r>   -66.5305     0.0000     0.0000 </r>
       <r>   -66.2706     0.0000     0.0000 </r>
       <r>   -66.0107     0.0000     0.0000 </r>
       <r>   -65.7508     0.0000     0.0000 </r>
       <r>   -65.4909     0.0144     0.0038 </r>
       <r>   -65.2309     1.9069     0.4994 </r>
       <r>   -64.9710    19.5860     5.5902 </r>
       <r>   -64.7111    53.6349    19.5310 </r>
       <r>   -64.4512   137.9888    55.3972 </r>
       <r>   -64.1912   184.3642   103.3173 </r>
       <r>   -63.9313   124.7384   135.7395 </r>
       <r>   -63.6714    50.4456   148.8513 </r>
       <r>   -63.4115    17.9733   153.5230 </r>
       <r>   -63.1516     3.9499   154.5496 </r>
       <r>   -62.8916     4.7607   155.7870 </r>
       <r>   -62.6317     0.8115   155.9980 </r>
       <r>   -62.3718     0.0079   156.0000 </r>
       <r>   -62.1119     0.0000   156.0000 </r>
       <r>   -61.8520     0.0000   156.0000 </r>
       <r>   -61.5920     0.0000   156.0000 </r>
       <r>   -61.3321     0.0000   156.0000 </r>
       <r>   -61.0722     0.0000   156.0000 </r>
       <r>   -60.8123     0.0000   156.0000 </r>
       <r>   -60.5524     0.0000   156.0000 </r>
       <r>   -60.2924     0.0000   156.0000 </r>
       <r>   -60.0325     0.0000   156.0000 </r>
       <r>   -59.7726     0.0000   156.0000 </r>
       <r>   -59.5127     0.0000   156.0000 </r>
       <r>   -59.2527     0.0000   156.0000 </r>
       <r>   -58.9928     0.0000   156.0000 </r>
       <r>   -58.7329     0.0000   156.0000 </r>
       <r>   -58.4730     0.0000   156.0000 </r>
       <r>   -58.2131     0.0000   156.0000 </r>
       <r>   -57.9531     0.0000   156.0000 </r>
       <r>   -57.6932     0.0000   156.0000 </r>
       <r>   -57.4333     0.0000   156.0000 </r>
       <r>   -57.1734     0.0000   156.0000 </r>
       <r>   -56.9135     0.0000   156.0000 </r>
       <r>   -56.6535     0.0000   156.0000 </r>
       <r>   -56.3936     0.0000   156.0000 </r>
       <r>   -56.1337     0.0000   156.0000 </r>
       <r>   -55.8738     0.0000   156.0000 </r>
       <r>   -55.6139     0.0000   156.0000 </r>
       <r>   -55.3539     0.0000   156.0000 </r>
       <r>   -55.0940     0.0000   156.0000 </r>
       <r>   -54.8341     0.0000   156.0000 </r>
       <r>   -54.5742     0.0000   156.0000 </r>
       <r>   -54.3143     0.0000   156.0000 </r>
       <r>   -54.0543     0.0000   156.0000 </r>
       <r>   -53.7944     0.0000   156.0000 </r>
       <r>   -53.5345     0.0000   156.0000 </r>
       <r>   -53.2746     0.0000   156.0000 </r>
       <r>   -53.0146     0.0000   156.0000 </r>
       <r>   -52.7547     0.0000   156.0000 </r>
       <r>   -52.4948     0.0000   156.0000 </r>
       <r>   -52.2349     0.0000   156.0000 </r>
       <r>   -51.9750     0.0000   156.0000 </r>
       <r>   -51.7150     0.0000   156.0000 </r>
       <r>   -51.4551     0.0000   156.0000 </r>
       <r>   -51.1952     0.0000   156.0000 </r>
       <r>   -50.9353     0.0000   156.0000 </r>
       <r>   -50.6754     0.0000   156.0000 </r>
       <r>   -50.4154     0.0000   156.0000 </r>
       <r>   -50.1555     0.0000   156.0000 </r>
       <r>   -49.8956     0.0000   156.0000 </r>
       <r>   -49.6357     0.0000   156.0000 </r>
       <r>   -49.3758     0.0000   156.0000 </r>
       <r>   -49.1158     0.0000   156.0000 </r>
       <r>   -48.8559     0.0000   156.0000 </r>
       <r>   -48.5960     0.0000   156.0000 </r>
       <r>   -48.3361     0.0000   156.0000 </r>
       <r>   -48.0761     0.0000   156.0000 </r>
       <r>   -47.8162     0.0000   156.0000 </r>
       <r>   -47.5563     0.0000   156.0000 </r>
       <r>   -47.2964     0.0000   156.0000 </r>
       <r>   -47.0365     0.0000   156.0000 </r>
       <r>   -46.7765     0.0000   156.0000 </r>
       <r>   -46.5166     0.0000   156.0000 </r>
       <r>   -46.2567     0.0000   156.0000 </r>
       <r>   -45.9968     0.0000   156.0000 </r>
       <r>   -45.7369     0.0000   156.0000 </r>
       <r>   -45.4769     0.0000   156.0000 </r>
       <r>   -45.2170     0.0000   156.0000 </r>
       <r>   -44.9571     0.0000   156.0000 </r>
       <r>   -44.6972     0.0000   156.0000 </r>
       <r>   -44.4373     0.0000   156.0000 </r>
       <r>   -44.1773     0.0000   156.0000 </r>
       <r>   -43.9174     0.0000   156.0000 </r>
       <r>   -43.6575     0.0000   156.0000 </r>
       <r>   -43.3976     0.0000   156.0000 </r>
       <r>   -43.1377     0.0000   156.0000 </r>
       <r>   -42.8777     0.0000   156.0000 </r>
       <r>   -42.6178     0.0000   156.0000 </r>
       <r>   -42.3579     0.0000   156.0000 </r>
       <r>   -42.0980     0.0000   156.0000 </r>
       <r>   -41.8380     0.0000   156.0000 </r>
       <r>   -41.5781     0.0000   156.0000 </r>
       <r>   -41.3182     0.0000   156.0000 </r>
       <r>   -41.0583     0.0000   156.0000 </r>
       <r>   -40.7984     0.0000   156.0000 </r>
       <r>   -40.5384     0.0000   156.0000 </r>
       <r>   -40.2785     0.0000   156.0000 </r>
       <r>   -40.0186     0.0000   156.0000 </r>
       <r>   -39.7587     0.0000   156.0000 </r>
       <r>   -39.4988     0.0000   156.0000 </r>
       <r>   -39.2388     0.0000   156.0000 </r>
       <r>   -38.9789     0.0000   156.0000 </r>
       <r>   -38.7190     0.0000   156.0000 </r>
       <r>   -38.4591     0.0000   156.0000 </r>
       <r>   -38.1992     0.0000   156.0000 </r>
       <r>   -37.9392     0.0000   156.0000 </r>
       <r>   -37.6793     0.0000   156.0000 </r>
       <r>   -37.4194     0.0000   156.0000 </r>
       <r>   -37.1595     0.0000   156.0000 </r>
       <r>   -36.8995     0.0000   156.0000 </r>
       <r>   -36.6396     0.0000   156.0000 </r>
       <r>   -36.3797     0.0000   156.0000 </r>
       <r>   -36.1198     0.0000   156.0000 </r>
       <r>   -35.8599     0.0000   156.0000 </r>
       <r>   -35.5999     0.0000   156.0000 </r>
       <r>   -35.3400     0.0000   156.0000 </r>
       <r>   -35.0801     0.0000   156.0000 </r>
       <r>   -34.8202     0.0000   156.0000 </r>
       <r>   -34.5603     0.0000   156.0000 </r>
       <r>   -34.3003     0.0000   156.0000 </r>
       <r>   -34.0404     0.0000   156.0000 </r>
       <r>   -33.7805     0.0000   156.0000 </r>
       <r>   -33.5206     0.0000   156.0000 </r>
       <r>   -33.2607     0.0000   156.0000 </r>
       <r>   -33.0007     0.0000   156.0000 </r>
       <r>   -32.7408     0.0000   156.0000 </r>
       <r>   -32.4809     0.0000   156.0000 </r>
       <r>   -32.2210     0.0000   156.0000 </r>
       <r>   -31.9611     0.0000   156.0000 </r>
       <r>   -31.7011     0.0000   156.0000 </r>
       <r>   -31.4412     0.0000   156.0000 </r>
       <r>   -31.1813     0.0000   156.0000 </r>
       <r>   -30.9214     0.0000   156.0000 </r>
       <r>   -30.6614     0.0000   156.0000 </r>
       <r>   -30.4015     0.0000   156.0000 </r>
       <r>   -30.1416     0.0000   156.0000 </r>
       <r>   -29.8817     0.0000   156.0000 </r>
       <r>   -29.6218     0.0000   156.0000 </r>
       <r>   -29.3618     0.0000   156.0000 </r>
       <r>   -29.1019     0.0000   156.0000 </r>
       <r>   -28.8420     0.0000   156.0000 </r>
       <r>   -28.5821     0.0000   156.0000 </r>
       <r>   -28.3222     0.0000   156.0000 </r>
       <r>   -28.0622     0.0000   156.0000 </r>
       <r>   -27.8023     0.0000   156.0000 </r>
       <r>   -27.5424     0.0000   156.0000 </r>
       <r>   -27.2825     0.0000   156.0000 </r>
       <r>   -27.0226     0.0000   156.0000 </r>
       <r>   -26.7626     0.0000   156.0000 </r>
       <r>   -26.5027     0.0000   156.0000 </r>
       <r>   -26.2428     0.0000   156.0000 </r>
       <r>   -25.9829     0.0000   156.0000 </r>
       <r>   -25.7229     0.0000   156.0000 </r>
       <r>   -25.4630     0.0000   156.0000 </r>
       <r>   -25.2031     0.0000   156.0000 </r>
       <r>   -24.9432     0.0000   156.0000 </r>
       <r>   -24.6833     0.0000   156.0000 </r>
       <r>   -24.4233     0.0000   156.0000 </r>
       <r>   -24.1634     0.0000   156.0000 </r>
       <r>   -23.9035     0.0000   156.0000 </r>
       <r>   -23.6436     0.0000   156.0000 </r>
       <r>   -23.3837     0.0000   156.0000 </r>
       <r>   -23.1237     0.0000   156.0000 </r>
       <r>   -22.8638     0.0000   156.0000 </r>
       <r>   -22.6039     0.0000   156.0000 </r>
       <r>   -22.3440     0.0000   156.0000 </r>
       <r>   -22.0841     0.0000   156.0000 </r>
       <r>   -21.8241     0.0000   156.0000 </r>
       <r>   -21.5642     0.0000   156.0000 </r>
       <r>   -21.3043     0.0000   156.0000 </r>
       <r>   -21.0444     0.0000   156.0000 </r>
       <r>   -20.7845     0.0000   156.0000 </r>
       <r>   -20.5245     0.0000   156.0000 </r>
       <r>   -20.2646     0.0000   156.0000 </r>
       <r>   -20.0047     0.0000   156.0000 </r>
       <r>   -19.7448     0.0000   156.0000 </r>
       <r>   -19.4848     0.0000   156.0000 </r>
       <r>   -19.2249     0.0000   156.0000 </r>
       <r>   -18.9650     0.0000   156.0000 </r>
       <r>   -18.7051     0.0000   156.0000 </r>
       <r>   -18.4452     0.0000   156.0000 </r>
       <r>   -18.1852     0.0000   156.0000 </r>
       <r>   -17.9253     0.0000   156.0000 </r>
       <r>   -17.6654     0.0000   156.0000 </r>
       <r>   -17.4055     0.0000   156.0000 </r>
       <r>   -17.1456     0.0135   156.0035 </r>
       <r>   -16.8856     1.0634   156.2799 </r>
       <r>   -16.6257     5.0700   157.5977 </r>
       <r>   -16.3658     5.1141   158.9270 </r>
       <r>   -16.1059     7.8891   160.9775 </r>
       <r>   -15.8460     8.9780   163.3111 </r>
       <r>   -15.5860     9.5554   165.7947 </r>
       <r>   -15.3261    11.5765   168.8037 </r>
       <r>   -15.0662    14.5032   172.5734 </r>
       <r>   -14.8063    18.4599   177.3715 </r>
       <r>   -14.5463    20.6774   182.7460 </r>
       <r>   -14.2864    16.9091   187.1411 </r>
       <r>   -14.0265    11.9331   190.2427 </r>
       <r>   -13.7666    17.0234   194.6675 </r>
       <r>   -13.5067    18.4153   199.4540 </r>
       <r>   -13.2467    13.5328   202.9715 </r>
       <r>   -12.9868     6.8933   204.7632 </r>
       <r>   -12.7269     9.3124   207.1836 </r>
       <r>   -12.4670     3.0531   207.9772 </r>
       <r>   -12.2071     0.0875   208.0000 </r>
       <r>   -11.9471     0.0001   208.0000 </r>
       <r>   -11.6872     0.0000   208.0000 </r>
       <r>   -11.4273     0.0000   208.0000 </r>
       <r>   -11.1674     0.0000   208.0000 </r>
       <r>   -10.9075     0.0000   208.0000 </r>
       <r>   -10.6475     0.0000   208.0000 </r>
       <r>   -10.3876     0.0000   208.0000 </r>
       <r>   -10.1277     0.0000   208.0000 </r>
       <r>    -9.8678     0.0000   208.0000 </r>
       <r>    -9.6079     0.0000   208.0000 </r>
       <r>    -9.3479     0.0000   208.0000 </r>
       <r>    -9.0880     0.0000   208.0000 </r>
       <r>    -8.8281     0.0095   208.0025 </r>
       <r>    -8.5682     0.9301   208.2442 </r>
       <r>    -8.3082     7.0316   210.0719 </r>
       <r>    -8.0483    15.0915   213.9945 </r>
       <r>    -7.7884    21.1782   219.4992 </r>
       <r>    -7.5285    23.3130   225.5587 </r>
       <r>    -7.2686    23.5020   231.6674 </r>
       <r>    -7.0086    25.6836   238.3431 </r>
       <r>    -6.7487    27.6430   245.5281 </r>
       <r>    -6.4888    34.7236   254.5534 </r>
       <r>    -6.2289    34.4174   263.4992 </r>
       <r>    -5.9690    30.1229   271.3288 </r>
       <r>    -5.7090    34.4334   280.2788 </r>
       <r>    -5.4491    42.8277   291.4106 </r>
       <r>    -5.1892    44.8397   303.0654 </r>
       <r>    -4.9293    35.3134   312.2441 </r>
       <r>    -4.6694    37.4988   321.9908 </r>
       <r>    -4.4094    42.3220   332.9912 </r>
       <r>    -4.1495    37.9072   342.8441 </r>
       <r>    -3.8896    33.9661   351.6726 </r>
       <r>    -3.6297    29.9738   359.4634 </r>
       <r>    -3.3697    38.6565   369.5110 </r>
       <r>    -3.1098    53.2082   383.3409 </r>
       <r>    -2.8499    66.3291   400.5813 </r>
       <r>    -2.5900    65.2838   417.5499 </r>
       <r>    -2.3301    76.8739   437.5310 </r>
       <r>    -2.0701    90.2503   460.9890 </r>
       <r>    -1.8102    89.2240   484.1801 </r>
       <r>    -1.5503    72.9785   503.1488 </r>
       <r>    -1.2904    64.0721   519.8025 </r>
       <r>    -1.0305    53.7442   533.7717 </r>
       <r>    -0.7705    45.1696   545.5122 </r>
       <r>    -0.5106    45.0562   557.2233 </r>
       <r>    -0.2507    39.5375   567.4999 </r>
       <r>     0.0092    33.8219   576.2909 </r>
       <r>     0.2691    34.9104   585.3649 </r>
       <r>     0.5291    31.5106   593.5551 </r>
       <r>     0.7890    26.3343   600.4000 </r>
       <r>     1.0489    29.3988   608.0413 </r>
       <r>     1.3088    27.4586   615.1784 </r>
       <r>     1.5687    20.7730   620.5777 </r>
       <r>     1.8287    13.4859   624.0830 </r>
       <r>     2.0886     6.6516   625.8119 </r>
       <r>     2.3485     0.7468   626.0060 </r>
       <r>     2.6084     1.5237   626.4020 </r>
       <r>     2.8684     4.9270   627.6827 </r>
       <r>     3.1283     1.2389   628.0047 </r>
       <r>     3.3882     1.8725   628.4914 </r>
       <r>     3.6481     9.0659   630.8478 </r>
       <r>     3.9080    14.6782   634.6630 </r>
       <r>     4.1680    19.8675   639.8270 </r>
       <r>     4.4279    22.4067   645.6509 </r>
       <r>     4.6878    23.6039   651.7861 </r>
       <r>     4.9477    29.5777   659.4739 </r>
       <r>     5.2076    30.7836   667.4752 </r>
       <r>     5.4676    34.5706   676.4609 </r>
       <r>     5.7275    31.3756   684.6160 </r>
       <r>     5.9874    11.8932   687.7073 </r>
       <r>     6.2473     1.1155   687.9973 </r>
       <r>     6.5072     0.0105   688.0000 </r>
       <r>     6.7672     0.0000   688.0000 </r>
       <r>     7.0271     0.0000   688.0000 </r>
       <r>     7.2870     0.0000   688.0000 </r>
       <r>     7.5469     0.0000   688.0000 </r>
       <r>     7.8069     0.0000   688.0000 </r>
       <r>     8.0668     0.0000   688.0000 </r>
       <r>     8.3267     0.0000   688.0000 </r>
       <r>     8.5866     0.0000   688.0000 </r>
       <r>     8.8465     0.0000   688.0000 </r>
       <r>     9.1065     0.0000   688.0000 </r>
       <r>     9.3664     0.0000   688.0000 </r>
      </set>
     </set>
    </array>
   </total>
  </dos>
 </calculation>
 <structure name="finalpos" >
  <crystal>
   <varray name="basis" >
    <v>      11.25646304       0.00000000       0.00000000 </v>
    <v>       0.00000000       9.57841000       0.00000000 </v>
    <v>       0.00000000       0.00000000      17.19249240 </v>
   </varray>
   <i name="volume">   1853.67765028 </i>
   <varray name="rec_basis" >
    <v>       0.08883785       0.00000000       0.00000000 </v>
    <v>       0.00000000       0.10440146       0.00000000 </v>
    <v>       0.00000000       0.00000000       0.05816492 </v>
   </varray>
  </crystal>
  <varray name="positions" >
   <v>       0.43933499       0.46388800       0.16283377 </v>
   <v>       0.46254985       0.49547219       0.31502608 </v>
   <v>       0.22087323       0.12962181       0.09075390 </v>
   <v>       0.20232697       0.97433430       0.22971279 </v>
   <v>       0.43933499       0.19968200       0.16283377 </v>
   <v>       0.49668344       0.22309429       0.33150225 </v>
   <v>       0.23739997       0.83594607       0.10464132 </v>
   <v>       0.21949023       0.69589098       0.24103304 </v>
   <v>       0.13776117       0.33004025       0.16192824 </v>
   <v>       0.18249164       0.33178500       0.31854512 </v>
   <v>       0.48612300       0.71784773       0.08626829 </v>
   <v>       0.40525597       0.83041157       0.21308218 </v>
   <v>       0.57414261       0.70620647       0.27840660 </v>
   <v>       0.93959837       0.46329012       0.18019555 </v>
   <v>       0.99250374       0.46061375       0.33026855 </v>
   <v>       0.66754681       0.95920311       0.09520985 </v>
   <v>       0.71317368       0.97380484       0.24077982 </v>
   <v>       0.93933499       0.19968200       0.16283377 </v>
   <v>       0.96021455       0.15641317       0.30873655 </v>
   <v>       0.65883061       0.62766496       0.14025877 </v>
   <v>       0.78865502       0.56878908       0.25859413 </v>
   <v>       0.63063970       0.33178500       0.13913288 </v>
   <v>       0.68249164       0.33178500       0.31854512 </v>
   <v>       0.03650202       0.99990311       0.11309657 </v>
   <v>       0.90656566       0.83178500       0.22883899 </v>
   <v>       0.76962785       0.78655289       0.33543373 </v>
   <v>       0.05394855       0.21440249       0.07051057 </v>
   <v>       0.11148904       0.16357000       0.23893853 </v>
   <v>       0.04187133       0.27760491       0.39024295 </v>
   <v>       0.33556306       0.66357000       0.14923241 </v>
   <v>       0.38584794       0.69549388       0.30777410 </v>
   <v>       0.11148904       0.50000000       0.23893853 </v>
   <v>       0.15246117       0.50349319       0.38571421 </v>
   <v>       0.33556306       1.00000000       0.14923241 </v>
   <v>       0.31027392       0.32309337       0.10939787 </v>
   <v>       0.36788880       0.33178500       0.26911836 </v>
   <v>       0.15634120       0.96334647       0.02472673 </v>
   <v>       0.09196284       0.83178500       0.17941224 </v>
   <v>       0.57602548       0.14847812       0.08521591 </v>
   <v>       0.61148904       0.16357000       0.23893853 </v>
   <v>       0.64943429       0.15914846       0.38581205 </v>
   <v>       0.83556306       0.66357000       0.14923241 </v>
   <v>       0.92252288       0.67230594       0.31854985 </v>
   <v>       0.55161437       0.49993847       0.07097133 </v>
   <v>       0.61148904       0.50000000       0.23893853 </v>
   <v>       0.55301903       0.39039781       0.39915670 </v>
   <v>       0.83556306       1.00000000       0.14923241 </v>
   <v>       0.85817564       0.97192130       0.31839046 </v>
   <v>       0.81474938       0.34595638       0.11670457 </v>
   <v>       0.86788880       0.33178500       0.26911836 </v>
   <v>       0.64839250       0.76887188       0.03949108 </v>
   <v>       0.59196284       0.83178500       0.17941224 </v>
  </varray>
 </structure>
</modeling>
