  54  54   0   0
  0.2990868E+02  0.9578410E-09  0.1007973E-08  0.1901114E-08  0.5000000E-15
  1.000000000000000E-004
  CAR 
 "Millerite NiS"                         
     10.49925711    -66.71621046  301      0.99833789      1.00000000
    -66.716  0.0000E+00  0.0000E+00
    -66.459  0.0000E+00  0.0000E+00
    -66.201  0.0000E+00  0.0000E+00
    -65.944  0.0000E+00  0.0000E+00
    -65.687  0.0000E+00  0.0000E+00
    -65.429  0.0000E+00  0.0000E+00
    -65.172  0.0000E+00  0.0000E+00
    -64.915  0.0000E+00  0.0000E+00
    -64.657  0.0000E+00  0.0000E+00
    -64.400  0.0000E+00  0.0000E+00
    -64.142  0.2200E-09  0.5662E-10
    -63.885  0.1430E-04  0.3681E-05
    -63.628  0.4735E-01  0.1219E-01
    -63.370  0.8948E+01  0.2315E+01
    -63.113  0.1234E+03  0.3406E+02
    -62.855  0.2028E+03  0.8626E+02
    -62.598  0.1043E+03  0.1131E+03
    -62.341  0.7372E+02  0.1321E+03
    -62.083  0.5324E+02  0.1458E+03
    -61.826  0.2126E+02  0.1513E+03
    -61.569  0.2352E+02  0.1573E+03
    -61.311  0.1268E+02  0.1606E+03
    -61.054  0.4977E+01  0.1619E+03
    -60.796  0.5767E+00  0.1620E+03
    -60.539  0.4282E-02  0.1620E+03
    -60.282  0.1443E-05  0.1620E+03
    -60.024  0.1978E-10  0.1620E+03
    -59.767  0.0000E+00  0.1620E+03
    -59.509  0.0000E+00  0.1620E+03
    -59.252  0.0000E+00  0.1620E+03
    -58.995  0.0000E+00  0.1620E+03
    -58.737  0.0000E+00  0.1620E+03
    -58.480  0.0000E+00  0.1620E+03
    -58.223  0.0000E+00  0.1620E+03
    -57.965  0.0000E+00  0.1620E+03
    -57.708  0.0000E+00  0.1620E+03
    -57.450  0.0000E+00  0.1620E+03
    -57.193  0.0000E+00  0.1620E+03
    -56.936  0.0000E+00  0.1620E+03
    -56.678  0.0000E+00  0.1620E+03
    -56.421  0.0000E+00  0.1620E+03
    -56.163  0.0000E+00  0.1620E+03
    -55.906  0.0000E+00  0.1620E+03
    -55.649  0.0000E+00  0.1620E+03
    -55.391  0.0000E+00  0.1620E+03
    -55.134  0.0000E+00  0.1620E+03
    -54.877  0.0000E+00  0.1620E+03
    -54.619  0.0000E+00  0.1620E+03
    -54.362  0.0000E+00  0.1620E+03
    -54.104  0.0000E+00  0.1620E+03
    -53.847  0.0000E+00  0.1620E+03
    -53.590  0.0000E+00  0.1620E+03
    -53.332  0.0000E+00  0.1620E+03
    -53.075  0.0000E+00  0.1620E+03
    -52.817  0.0000E+00  0.1620E+03
    -52.560  0.0000E+00  0.1620E+03
    -52.303  0.0000E+00  0.1620E+03
    -52.045  0.0000E+00  0.1620E+03
    -51.788  0.0000E+00  0.1620E+03
    -51.531  0.0000E+00  0.1620E+03
    -51.273  0.0000E+00  0.1620E+03
    -51.016  0.0000E+00  0.1620E+03
    -50.758  0.0000E+00  0.1620E+03
    -50.501  0.0000E+00  0.1620E+03
    -50.244  0.0000E+00  0.1620E+03
    -49.986  0.0000E+00  0.1620E+03
    -49.729  0.0000E+00  0.1620E+03
    -49.471  0.0000E+00  0.1620E+03
    -49.214  0.0000E+00  0.1620E+03
    -48.957  0.0000E+00  0.1620E+03
    -48.699  0.0000E+00  0.1620E+03
    -48.442  0.0000E+00  0.1620E+03
    -48.184  0.0000E+00  0.1620E+03
    -47.927  0.0000E+00  0.1620E+03
    -47.670  0.0000E+00  0.1620E+03
    -47.412  0.0000E+00  0.1620E+03
    -47.155  0.0000E+00  0.1620E+03
    -46.898  0.0000E+00  0.1620E+03
    -46.640  0.0000E+00  0.1620E+03
    -46.383  0.0000E+00  0.1620E+03
    -46.125  0.0000E+00  0.1620E+03
    -45.868  0.0000E+00  0.1620E+03
    -45.611  0.0000E+00  0.1620E+03
    -45.353  0.0000E+00  0.1620E+03
    -45.096  0.0000E+00  0.1620E+03
    -44.838  0.0000E+00  0.1620E+03
    -44.581  0.0000E+00  0.1620E+03
    -44.324  0.0000E+00  0.1620E+03
    -44.066  0.0000E+00  0.1620E+03
    -43.809  0.0000E+00  0.1620E+03
    -43.552  0.0000E+00  0.1620E+03
    -43.294  0.0000E+00  0.1620E+03
    -43.037  0.0000E+00  0.1620E+03
    -42.779  0.0000E+00  0.1620E+03
    -42.522  0.0000E+00  0.1620E+03
    -42.265  0.0000E+00  0.1620E+03
    -42.007  0.0000E+00  0.1620E+03
    -41.750  0.0000E+00  0.1620E+03
    -41.492  0.0000E+00  0.1620E+03
    -41.235  0.0000E+00  0.1620E+03
    -40.978  0.0000E+00  0.1620E+03
    -40.720  0.0000E+00  0.1620E+03
    -40.463  0.0000E+00  0.1620E+03
    -40.206  0.0000E+00  0.1620E+03
    -39.948  0.0000E+00  0.1620E+03
    -39.691  0.0000E+00  0.1620E+03
    -39.433  0.0000E+00  0.1620E+03
    -39.176  0.0000E+00  0.1620E+03
    -38.919  0.0000E+00  0.1620E+03
    -38.661  0.0000E+00  0.1620E+03
    -38.404  0.0000E+00  0.1620E+03
    -38.146  0.0000E+00  0.1620E+03
    -37.889  0.0000E+00  0.1620E+03
    -37.632  0.0000E+00  0.1620E+03
    -37.374  0.0000E+00  0.1620E+03
    -37.117  0.0000E+00  0.1620E+03
    -36.860  0.0000E+00  0.1620E+03
    -36.602  0.0000E+00  0.1620E+03
    -36.345  0.0000E+00  0.1620E+03
    -36.087  0.0000E+00  0.1620E+03
    -35.830  0.0000E+00  0.1620E+03
    -35.573  0.0000E+00  0.1620E+03
    -35.315  0.0000E+00  0.1620E+03
    -35.058  0.0000E+00  0.1620E+03
    -34.800  0.0000E+00  0.1620E+03
    -34.543  0.0000E+00  0.1620E+03
    -34.286  0.0000E+00  0.1620E+03
    -34.028  0.0000E+00  0.1620E+03
    -33.771  0.0000E+00  0.1620E+03
    -33.514  0.0000E+00  0.1620E+03
    -33.256  0.0000E+00  0.1620E+03
    -32.999  0.0000E+00  0.1620E+03
    -32.741  0.0000E+00  0.1620E+03
    -32.484  0.0000E+00  0.1620E+03
    -32.227  0.0000E+00  0.1620E+03
    -31.969  0.0000E+00  0.1620E+03
    -31.712  0.0000E+00  0.1620E+03
    -31.454  0.0000E+00  0.1620E+03
    -31.197  0.0000E+00  0.1620E+03
    -30.940  0.0000E+00  0.1620E+03
    -30.682  0.0000E+00  0.1620E+03
    -30.425  0.0000E+00  0.1620E+03
    -30.168  0.0000E+00  0.1620E+03
    -29.910  0.0000E+00  0.1620E+03
    -29.653  0.0000E+00  0.1620E+03
    -29.395  0.0000E+00  0.1620E+03
    -29.138  0.0000E+00  0.1620E+03
    -28.881  0.0000E+00  0.1620E+03
    -28.623  0.0000E+00  0.1620E+03
    -28.366  0.0000E+00  0.1620E+03
    -28.108  0.0000E+00  0.1620E+03
    -27.851  0.0000E+00  0.1620E+03
    -27.594  0.0000E+00  0.1620E+03
    -27.336  0.0000E+00  0.1620E+03
    -27.079  0.0000E+00  0.1620E+03
    -26.822  0.0000E+00  0.1620E+03
    -26.564  0.0000E+00  0.1620E+03
    -26.307  0.0000E+00  0.1620E+03
    -26.049  0.0000E+00  0.1620E+03
    -25.792  0.0000E+00  0.1620E+03
    -25.535  0.0000E+00  0.1620E+03
    -25.277  0.0000E+00  0.1620E+03
    -25.020  0.0000E+00  0.1620E+03
    -24.762  0.0000E+00  0.1620E+03
    -24.505  0.0000E+00  0.1620E+03
    -24.248  0.0000E+00  0.1620E+03
    -23.990  0.0000E+00  0.1620E+03
    -23.733  0.0000E+00  0.1620E+03
    -23.476  0.0000E+00  0.1620E+03
    -23.218  0.0000E+00  0.1620E+03
    -22.961  0.0000E+00  0.1620E+03
    -22.703  0.0000E+00  0.1620E+03
    -22.446  0.0000E+00  0.1620E+03
    -22.189  0.0000E+00  0.1620E+03
    -21.931  0.0000E+00  0.1620E+03
    -21.674  0.0000E+00  0.1620E+03
    -21.416  0.0000E+00  0.1620E+03
    -21.159  0.0000E+00  0.1620E+03
    -20.902  0.0000E+00  0.1620E+03
    -20.644  0.0000E+00  0.1620E+03
    -20.387  0.0000E+00  0.1620E+03
    -20.130  0.0000E+00  0.1620E+03
    -19.872  0.0000E+00  0.1620E+03
    -19.615  0.0000E+00  0.1620E+03
    -19.357  0.0000E+00  0.1620E+03
    -19.100  0.0000E+00  0.1620E+03
    -18.843  0.0000E+00  0.1620E+03
    -18.585  0.0000E+00  0.1620E+03
    -18.328  0.0000E+00  0.1620E+03
    -18.070  0.0000E+00  0.1620E+03
    -17.813  0.0000E+00  0.1620E+03
    -17.556  0.0000E+00  0.1620E+03
    -17.298  0.0000E+00  0.1620E+03
    -17.041  0.0000E+00  0.1620E+03
    -16.784  0.0000E+00  0.1620E+03
    -16.526  0.0000E+00  0.1620E+03
    -16.269  0.0000E+00  0.1620E+03
    -16.011  0.0000E+00  0.1620E+03
    -15.754  0.0000E+00  0.1620E+03
    -15.497  0.6902E-14  0.1620E+03
    -15.239  0.3322E-08  0.1620E+03
    -14.982  0.6218E-04  0.1620E+03
    -14.724  0.4896E-01  0.1620E+03
    -14.467  0.1894E+01  0.1625E+03
    -14.210  0.4849E+01  0.1637E+03
    -13.952  0.1017E+01  0.1640E+03
    -13.695  0.2807E+01  0.1647E+03
    -13.438  0.1433E+02  0.1684E+03
    -13.180  0.2050E+02  0.1737E+03
    -12.923  0.2191E+02  0.1793E+03
    -12.665  0.1898E+02  0.1842E+03
    -12.408  0.2831E+02  0.1915E+03
    -12.151  0.2479E+02  0.1979E+03
    -11.893  0.2049E+02  0.2032E+03
    -11.636  0.1556E+02  0.2072E+03
    -11.378  0.1496E+02  0.2110E+03
    -11.121  0.9975E+01  0.2136E+03
    -10.864  0.4670E+01  0.2148E+03
    -10.606  0.4259E+01  0.2159E+03
    -10.349  0.4613E+00  0.2160E+03
    -10.092  0.2846E-02  0.2160E+03
     -9.834  0.7869E-06  0.2160E+03
     -9.577  0.8809E-11  0.2160E+03
     -9.319  0.0000E+00  0.2160E+03
     -9.062  0.0000E+00  0.2160E+03
     -8.805  0.0000E+00  0.2160E+03
     -8.547  0.0000E+00  0.2160E+03
     -8.290  0.0000E+00  0.2160E+03
     -8.032  0.0000E+00  0.2160E+03
     -7.775  0.0000E+00  0.2160E+03
     -7.518  0.0000E+00  0.2160E+03
     -7.260  0.4313E-15  0.2160E+03
     -7.003  0.2569E-09  0.2160E+03
     -6.746  0.9681E-05  0.2160E+03
     -6.488  0.1524E-01  0.2160E+03
     -6.231  0.1214E+01  0.2163E+03
     -5.973  0.8892E+01  0.2186E+03
     -5.716  0.1857E+02  0.2234E+03
     -5.459  0.1925E+02  0.2283E+03
     -5.201  0.3234E+02  0.2367E+03
     -4.944  0.4139E+02  0.2473E+03
     -4.686  0.3477E+02  0.2563E+03
     -4.429  0.3105E+02  0.2643E+03
     -4.172  0.2872E+02  0.2716E+03
     -3.914  0.3055E+02  0.2795E+03
     -3.657  0.3842E+02  0.2894E+03
     -3.400  0.4360E+02  0.3006E+03
     -3.142  0.5086E+02  0.3137E+03
     -2.885  0.5916E+02  0.3289E+03
     -2.627  0.4731E+02  0.3411E+03
     -2.370  0.3656E+02  0.3505E+03
     -2.113  0.4013E+02  0.3609E+03
     -1.855  0.3917E+02  0.3709E+03
     -1.598  0.3931E+02  0.3811E+03
     -1.340  0.6113E+02  0.3968E+03
     -1.083  0.7752E+02  0.4167E+03
     -0.826  0.9803E+02  0.4420E+03
     -0.568  0.1267E+03  0.4746E+03
     -0.311  0.1207E+03  0.5056E+03
     -0.054  0.9630E+02  0.5304E+03
      0.204  0.7372E+02  0.5494E+03
      0.461  0.7292E+02  0.5682E+03
      0.719  0.5884E+02  0.5833E+03
      0.976  0.3824E+02  0.5932E+03
      1.233  0.4260E+02  0.6041E+03
      1.491  0.4237E+02  0.6150E+03
      1.748  0.4504E+02  0.6266E+03
      2.006  0.5206E+02  0.6400E+03
      2.263  0.3450E+02  0.6489E+03
      2.520  0.1128E+02  0.6518E+03
      2.778  0.3274E+01  0.6526E+03
      3.035  0.4675E+01  0.6539E+03
      3.292  0.3121E+01  0.6547E+03
      3.550  0.4586E+01  0.6558E+03
      3.807  0.1867E+01  0.6563E+03
      4.065  0.7587E+01  0.6583E+03
      4.322  0.8957E+01  0.6606E+03
      4.579  0.1241E+02  0.6638E+03
      4.837  0.1339E+02  0.6672E+03
      5.094  0.1797E+02  0.6718E+03
      5.352  0.1647E+02  0.6761E+03
      5.609  0.1969E+02  0.6811E+03
      5.866  0.1959E+02  0.6862E+03
      6.124  0.2573E+02  0.6928E+03
      6.381  0.2589E+02  0.6995E+03
      6.638  0.2842E+02  0.7068E+03
      6.896  0.3176E+02  0.7150E+03
      7.153  0.1758E+02  0.7195E+03
      7.411  0.1962E+01  0.7200E+03
      7.668  0.1762E-01  0.7200E+03
      7.925  0.8257E-05  0.7200E+03
      8.183  0.1694E-09  0.7200E+03
      8.440  0.0000E+00  0.7200E+03
      8.698  0.0000E+00  0.7200E+03
      8.955  0.0000E+00  0.7200E+03
      9.212  0.0000E+00  0.7200E+03
      9.470  0.0000E+00  0.7200E+03
      9.727  0.0000E+00  0.7200E+03
      9.984  0.0000E+00  0.7200E+03
     10.242  0.0000E+00  0.7200E+03
     10.499  0.0000E+00  0.7200E+03
