 vasp.6.1.0 28Jan20 (build Mar 31 2020 17:42:31) gamma-only                     
  
 executed on             LinuxIFC date 2020.04.11  22:13:10
 running on   48 total cores
 distrk:  each k-point on   48 cores,    1 groups
 distr:  one band on NCORE=   6 cores,    8 groups


--------------------------------------------------------------------------------------------------------


 INCAR:
 POTCAR:    PAW_PBE Ni_pv 06Sep2000               
 POTCAR:    PAW_PBE S 06Sep2000                   
 POTCAR:    PAW_PBE Ni_pv 06Sep2000               
   VRHFIN =Ni:                                                                                      
   LEXCH  = PE                                                                                      
   EATOM  =  3501.1230 eV,  257.3253 Ry                                                             
                                                                                                    
   TITEL  = PAW_PBE Ni_pv 06Sep2000                                                                 
   LULTRA =        F    use ultrasoft PP ?                                                          
   IUNSCR =        1    unscreen: 0-lin 1-nonlin 2-no                                               
   RPACOR =    1.500    partial core radius                                                         
   POMASS =   58.690; ZVAL   =   16.000    mass and valenz                                          
   RCORE  =    2.000    outmost cutoff radius                                                       
   RWIGS  =    2.000; RWIGS  =    1.058    wigner-seitz radius (au A)                               
   ENMAX  =  367.986; ENMIN  =  275.989 eV                                                          
   RCLOC  =    1.301    cutoff for local pot                                                        
   LCOR   =        T    correct aug charges                                                         
   LPAW   =        T    paw PP                                                                      
   EAUG   =  703.443                                                                                
   DEXC   =    0.000                                                                                
   RMAX   =    2.041    core radius for proj-oper                                                   
   RAUG   =    1.300    factor for augmentation sphere                                              
   RDEP   =    2.103    radius for radial grids                                                     
   RDEPT  =    1.618    core radius for aug-charge                                                  
                                                                                                    
   Atomic configuration                                                                             
    8 entries                                                                                       
     n  l   j            E        occ.                                                              
     1  0  0.50     -8206.4253   2.0000                                                             
     2  0  0.50      -976.1748   2.0000                                                             
     2  1  1.50      -839.0571   6.0000                                                             
     3  0  0.50      -105.9991   2.0000                                                             
     3  1  1.50       -66.4603   6.0000                                                             
     3  2  2.50        -4.6458   9.0000                                                             
     4  0  0.50        -4.4926   1.0000                                                             
     4  3  2.50        -1.3606   0.0000                                                             
   Description                                                                                      
     l       E           TYP  RCUT    TYP  RCUT                                                     
     1    -66.4602962     23  1.700                                                                 
     1     -1.3605826     23  1.700                                                                 
     2     -4.6457867     23  2.000                                                                 
     2     -6.0063693     23  2.000                                                                 
     0     -4.4925576     23  1.900                                                                 
     0     16.3626226     23  1.900                                                                 
  local pseudopotential read in
  partial core-charges read in
  partial kinetic energy density read in
  atomic valenz-charges read in
  non local Contribution for L=           1  read in
    real space projection operators read in
  non local Contribution for L=           1  read in
    real space projection operators read in
  non local Contribution for L=           2  read in
    real space projection operators read in
  non local Contribution for L=           2  read in
    real space projection operators read in
  non local Contribution for L=           0  read in
    real space projection operators read in
  non local Contribution for L=           0  read in
    real space projection operators read in
    PAW grid and wavefunctions read in
 
   number of l-projection  operators is LMAX  =           6
   number of lm-projection operators is LMMAX =          18
 
 POTCAR:    PAW_PBE S 06Sep2000                   
   VRHFIN =S : s2p4                                                                                 
   LEXCH  = PE                                                                                      
   EATOM  =   276.8230 eV,   20.3459 Ry                                                             
                                                                                                    
   TITEL  = PAW_PBE S 06Sep2000                                                                     
   LULTRA =        F    use ultrasoft PP ?                                                          
   IUNSCR =        1    unscreen: 0-lin 1-nonlin 2-no                                               
   RPACOR =    1.500    partial core radius                                                         
   POMASS =   32.066; ZVAL   =    6.000    mass and valenz                                          
   RCORE  =    1.900    outmost cutoff radius                                                       
   RWIGS  =    2.200; RWIGS  =    1.164    wigner-seitz radius (au A)                               
   ENMAX  =  258.689; ENMIN  =  194.016 eV                                                          
   ICORE  =        2    local potential                                                             
   LCOR   =        T    correct aug charges                                                         
   LPAW   =        T    paw PP                                                                      
   EAUG   =  335.092                                                                                
   DEXC   =    0.000                                                                                
   RMAX   =    1.942    core radius for proj-oper                                                   
   RAUG   =    1.300    factor for augmentation sphere                                              
   RDEP   =    1.954    radius for radial grids                                                     
   RDEPT  =    1.744    core radius for aug-charge                                                  
                                                                                                    
   Atomic configuration                                                                             
    6 entries                                                                                       
     n  l   j            E        occ.                                                              
     1  0  0.50     -2405.8406   2.0000                                                             
     2  0  0.50      -211.7007   2.0000                                                             
     2  1  1.50      -156.4958   6.0000                                                             
     3  0  0.50       -17.2562   2.0000                                                             
     3  1  0.50        -7.0085   4.0000                                                             
     3  2  1.50        -6.8029   0.0000                                                             
   Description                                                                                      
     l       E           TYP  RCUT    TYP  RCUT                                                     
     0    -17.2561641     23  1.900                                                                 
     0    -15.8743224     23  1.900                                                                 
     1     -7.0085400     23  1.900                                                                 
     1     -2.7779785     23  1.900                                                                 
     2     -6.8029130     23  1.900                                                                 
  local pseudopotential read in
  partial core-charges read in
  partial kinetic energy density read in
  atomic valenz-charges read in
  non local Contribution for L=           0  read in
    real space projection operators read in
  non local Contribution for L=           0  read in
    real space projection operators read in
  non local Contribution for L=           1  read in
    real space projection operators read in
  non local Contribution for L=           1  read in
    real space projection operators read in
    PAW grid and wavefunctions read in
 
   number of l-projection  operators is LMAX  =           4
   number of lm-projection operators is LMMAX =           8
 
 Optimization of the real space projectors (new method)

 maximal supplied QI-value         = 18.90
 optimisation between [QCUT,QGAM] = [ 10.77, 21.73] = [ 32.49,132.25] Ry 
 Optimized for a Real-space Cutoff    1.38 Angstroem

   l    n(q)    QCUT    max X(q) W(low)/X(q) W(high)/X(q)  e(spline) 
   1      8    10.771     2.836    0.40E-04    0.29E-04    0.12E-06
   1      8    10.771     4.023    0.10E-03    0.48E-04    0.29E-06
   2      8    10.771    73.368    0.42E-03    0.97E-04    0.44E-06
   2      8    10.771    69.010    0.42E-03    0.99E-04    0.45E-06
   0      9    10.771    54.797    0.10E-03    0.56E-04    0.74E-07
   0      9    10.771    24.266    0.89E-04    0.49E-04    0.67E-07
 Optimization of the real space projectors (new method)

 maximal supplied QI-value         = 19.84
 optimisation between [QCUT,QGAM] = [ 10.71, 21.63] = [ 32.15,130.99] Ry 
 Optimized for a Real-space Cutoff    1.19 Angstroem

   l    n(q)    QCUT    max X(q) W(low)/X(q) W(high)/X(q)  e(spline) 
   0      8    10.715   187.594    0.41E-03    0.53E-04    0.66E-07
   0      8    10.715   164.243    0.41E-03    0.53E-04    0.65E-07
   1      7    10.715    67.533    0.19E-03    0.59E-03    0.68E-07
   1      7    10.715    50.729    0.19E-03    0.58E-03    0.67E-07
  PAW_PBE Ni_pv 06Sep2000               :
 energy of atom  1       EATOM=-3501.1230
 kinetic energy error for atom=    0.0925 (will be added to EATOM!!)
  PAW_PBE S 06Sep2000                   :
 energy of atom  2       EATOM= -276.8230
 kinetic energy error for atom=    0.0033 (will be added to EATOM!!)
 
 
 POSCAR: Structure 15 made from -111-5.xsd file
  positions in direct lattice
  No initial velocities read in
 exchange correlation table for  LEXCH =        8
   RHO(1)=    0.500       N(1)  =     2000
   RHO(2)=  100.500       N(2)  =     4000
 


--------------------------------------------------------------------------------------------------------


 ion  position               nearest neighbor table
   1  0.261  0.479  0.253-  73 2.25  58 2.26  81 2.26  54 2.36  59 2.36   7 2.53  21 2.53
   2  0.355  0.385  0.388-  74 2.25  54 2.26  59 2.26  60 2.36  66 2.36   8 2.53  22 2.53
   3  0.449  0.291  0.523-  60 2.26  66 2.26  17 2.53  23 2.53
   4  0.167  0.073  0.118-  64 2.25  55 2.26  82 2.26  56 2.36  83 2.36  36 2.53  30 2.53
   5  0.056  0.051  0.488-  78 2.25  50 2.26  72 2.26  77 2.36  11 2.53  15 2.53
   6  0.274  0.333  0.083-  55 2.25  57 2.26  51 2.26  52 2.36  58 2.36  12 2.53  28 2.53
   7  0.368  0.239  0.218-  56 2.25  58 2.26  52 2.26  59 2.36  61 2.36   1 2.53  21 2.53
   8  0.462  0.145  0.353-  79 2.25  59 2.26  61 2.26  60 2.36  62 2.36   2 2.53  22 2.53
   9  0.000  0.372  0.218-  58 2.25  64 2.26  93 2.26  49 2.36  67 2.36  13 2.53  19 2.53
  10  0.094  0.278  0.353-  59 2.25  49 2.26  67 2.26  53 2.36  50 2.36  20 2.53  14 2.53
  11  0.188  0.184  0.488-  60 2.25  53 2.26  50 2.26  77 2.36   5 2.53  15 2.53
  12  0.406  0.465  0.083-  69 2.25  51 2.26  80 2.26  52 2.36  81 2.36  28 2.53   6 2.53
  13  0.761  0.479  0.253-  86 2.25  70 2.26  93 2.26  67 2.36  71 2.36  19 2.53   9 2.53
  14  0.855  0.385  0.388-  87 2.25  67 2.26  71 2.26  72 2.36  53 2.36  20 2.53  10 2.53
  15  0.949  0.291  0.523-  65 2.25  72 2.26  53 2.26   5 2.53  11 2.53
  16  0.667  0.073  0.118-  52 2.25  68 2.36  94 2.36  48 2.53  42 2.53
  17  0.556  0.051  0.488-  90 2.25  62 2.26  60 2.26  23 2.53   3 2.53
  18  0.774  0.333  0.083-  69 2.26  63 2.26  64 2.36  70 2.36  24 2.53  40 2.53
  19  0.868  0.239  0.218-  68 2.25  70 2.26  64 2.26  71 2.36  49 2.36  13 2.53   9 2.53
  20  0.962  0.145  0.353-  91 2.25  71 2.26  49 2.26  72 2.36  50 2.36  14 2.53  10 2.53
  21  0.500  0.372  0.218-  70 2.25  52 2.26  81 2.26  61 2.36  54 2.36   1 2.53   7 2.53
  22  0.594  0.278  0.353-  71 2.25  61 2.26  54 2.26  66 2.36  62 2.36   8 2.53   2 2.53
  23  0.688  0.184  0.488-  72 2.25  66 2.26  62 2.26  17 2.53   3 2.53
  24  0.906  0.465  0.083-  57 2.25  63 2.26  92 2.26  64 2.36  93 2.36  40 2.53  18 2.53
  25  0.261  0.979  0.253-  49 2.25  83 2.26  56 2.26  79 2.36  84 2.36  31 2.53  45 2.53
  26  0.355  0.885  0.388-  50 2.25  79 2.26  84 2.26  85 2.36  90 2.36  32 2.53  46 2.53
  27  0.449  0.791  0.523-  77 2.25  85 2.26  90 2.26  41 2.53  47 2.53
  28  0.167  0.573  0.118-  89 2.25  80 2.26  57 2.26  81 2.36  58 2.36  12 2.53   6 2.53
  29  0.056  0.551  0.488-  53 2.25  74 2.26  96 2.26  35 2.53  39 2.53
  30  0.274  0.833  0.083-  80 2.25  82 2.26  75 2.26  76 2.36  83 2.36  36 2.53   4 2.53
  31  0.368  0.739  0.218-  81 2.25  83 2.26  76 2.26  84 2.36  86 2.36  25 2.53  45 2.53
  32  0.462  0.645  0.353-  54 2.25  84 2.26  86 2.26  85 2.36  87 2.36  26 2.53  46 2.53
  33  0.000  0.872  0.218-  83 2.25  89 2.26  68 2.26  73 2.36  91 2.36  37 2.53  43 2.53
  34  0.094  0.778  0.353-  84 2.25  73 2.26  91 2.26  78 2.36  74 2.36  44 2.53  38 2.53
  35  0.188  0.684  0.488-  85 2.25  78 2.26  74 2.26  29 2.53  39 2.53
  36  0.406  0.965  0.083-  75 2.26  55 2.26  76 2.36  56 2.36   4 2.53  30 2.53
  37  0.761  0.979  0.253-  61 2.25  94 2.26  68 2.26  91 2.36  95 2.36  43 2.53  33 2.53
  38  0.855  0.885  0.388-  62 2.25  91 2.26  95 2.26  96 2.36  78 2.36  44 2.53  34 2.53
  39  0.949  0.791  0.523-  96 2.26  78 2.26  29 2.53  35 2.53
  40  0.667  0.573  0.118-  76 2.25  92 2.26  69 2.26  93 2.36  70 2.36  24 2.53  18 2.53
  41  0.556  0.551  0.488-  66 2.25  87 2.26  85 2.26  65 2.36  47 2.53  27 2.53
  42  0.774  0.833  0.083-  92 2.25  88 2.26  89 2.36  94 2.36  48 2.53  16 2.53
  43  0.868  0.739  0.218-  93 2.25  94 2.26  89 2.26  95 2.36  73 2.36  37 2.53  33 2.53
  44  0.962  0.645  0.353-  67 2.25  95 2.26  73 2.26  96 2.36  74 2.36  38 2.53  34 2.53
  45  0.500  0.872  0.218-  94 2.25  76 2.26  56 2.26  86 2.36  79 2.36  25 2.53  31 2.53
  46  0.594  0.778  0.353-  95 2.25  86 2.26  79 2.26  90 2.36  87 2.36  32 2.53  26 2.53
  47  0.688  0.684  0.488-  96 2.25  90 2.26  87 2.26  65 2.36  41 2.53  27 2.53
  48  0.906  0.965  0.083-  82 2.25  88 2.26  89 2.36  68 2.36  16 2.53  42 2.53
  49  0.073  0.167  0.270-  25 2.25  10 2.26  20 2.26   9 2.36  19 2.36
  50  0.167  0.073  0.405-  26 2.25  11 2.26   5 2.26  10 2.36  20 2.36
  51  0.385  0.355  0.000-  12 2.26   6 2.26
  52  0.479  0.261  0.135-  16 2.25   7 2.26  21 2.26   6 2.36  12 2.36
  53  0.030  0.378  0.451-  29 2.25  11 2.26  15 2.26  10 2.36  14 2.36
  54  0.436  0.472  0.315-  32 2.25   2 2.26  22 2.26   1 2.36  21 2.36
  55  0.248  0.160  0.045-   6 2.25   4 2.26  36 2.26
  56  0.342  0.066  0.180-   7 2.25  25 2.26  45 2.26   4 2.36  36 2.36
  57  0.080  0.491  0.045-  24 2.25   6 2.26  28 2.26
  58  0.174  0.397  0.180-   9 2.25   7 2.26   1 2.26   6 2.36  28 2.36
  59  0.268  0.303  0.315-  10 2.25   2 2.26   8 2.26   7 2.36   1 2.36
  60  0.362  0.209  0.451-  11 2.25   3 2.26  17 2.26   8 2.36   2 2.36
  61  0.573  0.167  0.270-  37 2.25  22 2.26   8 2.26  21 2.36   7 2.36
  62  0.667  0.073  0.405-  38 2.25  23 2.26  17 2.26  22 2.36   8 2.36
  63  0.885  0.355  0.000-  24 2.26  18 2.26
  64  0.979  0.261  0.135-   4 2.25  19 2.26   9 2.26  18 2.36  24 2.36
  65  0.761  0.479  0.540-  15 2.25  41 2.36  47 2.36
  66  0.530  0.378  0.451-  41 2.25  23 2.26   3 2.26  22 2.36   2 2.36
  67  0.936  0.472  0.315-  44 2.25  14 2.26  10 2.26  13 2.36   9 2.36
  68  0.842  0.066  0.180-  19 2.25  37 2.26  33 2.26  16 2.36  48 2.36
  69  0.580  0.491  0.045-  12 2.25  18 2.26  40 2.26
  70  0.674  0.397  0.180-  21 2.25  19 2.26  13 2.26  18 2.36  40 2.36
  71  0.768  0.303  0.315-  22 2.25  14 2.26  20 2.26  19 2.36  13 2.36
  72  0.862  0.209  0.451-  23 2.25  15 2.26   5 2.26  20 2.36  14 2.36
  73  0.073  0.667  0.270-   1 2.25  34 2.26  44 2.26  33 2.36  43 2.36
  74  0.167  0.573  0.405-   2 2.25  35 2.26  29 2.26  34 2.36  44 2.36
  75  0.385  0.855  0.000-  36 2.26  30 2.26
  76  0.479  0.761  0.135-  40 2.25  31 2.26  45 2.26  30 2.36  36 2.36
  77  0.261  0.979  0.540-  27 2.25   5 2.36  11 2.36
  78  0.030  0.878  0.451-   5 2.25  35 2.26  39 2.26  34 2.36  38 2.36
  79  0.436  0.972  0.315-   8 2.25  26 2.26  46 2.26  25 2.36  45 2.36
  80  0.248  0.660  0.045-  30 2.25  28 2.26  12 2.26
  81  0.342  0.566  0.180-  31 2.25   1 2.26  21 2.26  28 2.36  12 2.36
  82  0.080  0.991  0.045-  48 2.25  30 2.26   4 2.26
  83  0.174  0.897  0.180-  33 2.25  31 2.26  25 2.26  30 2.36   4 2.36
  84  0.268  0.803  0.315-  34 2.25  26 2.26  32 2.26  31 2.36  25 2.36
  85  0.362  0.709  0.451-  35 2.25  27 2.26  41 2.26  32 2.36  26 2.36
  86  0.573  0.667  0.270-  13 2.25  46 2.26  32 2.26  45 2.36  31 2.36
  87  0.667  0.573  0.405-  14 2.25  47 2.26  41 2.26  46 2.36  32 2.36
  88  0.885  0.855  0.000-  48 2.26  42 2.26
  89  0.979  0.761  0.135-  28 2.25  43 2.26  33 2.26  42 2.36  48 2.36
  90  0.530  0.878  0.451-  17 2.25  47 2.26  27 2.26  46 2.36  26 2.36
  91  0.936  0.972  0.315-  20 2.25  38 2.26  34 2.26  37 2.36  33 2.36
  92  0.748  0.660  0.045-  42 2.25  40 2.26  24 2.26
  93  0.842  0.566  0.180-  43 2.25  13 2.26   9 2.26  40 2.36  24 2.36
  94  0.674  0.897  0.180-  45 2.25  43 2.26  37 2.26  42 2.36  16 2.36
  95  0.768  0.803  0.315-  46 2.25  38 2.26  44 2.26  43 2.36  37 2.36
  96  0.862  0.709  0.451-  47 2.25  39 2.26  29 2.26  44 2.36  38 2.36
 
  LATTYP: Found a base centered orthorhombic cell.
 ALAT       =    11.8257374459
 B/A-ratio  =     1.6199260857
 C/A-ratio  =     1.8387210052
  
  Lattice vectors:
  
 A1 = (  10.0628203371,   5.0445621212,   0.0000000000)
 A2 = (   0.0000000000, -11.2564630382,   0.0000000000)
 A3 = (   0.0000000000,   0.0000000000, -21.7442318436)


Analysis of symmetry for initial positions (statically):
=====================================================================
 Subroutine PRICEL returns:
 Original cell was already a primitive cell.
 

 Routine SETGRP: Setting up the symmetry group for a 
 base centered orthorhombic supercell.


 Subroutine GETGRP returns: Found  2 space group operations
 (whereof  1 operations were pure point group operations)
 out of a pool of  8 trial point group operations.


The static configuration has the point symmetry C_1 .
 The point group associated with its full space group is C_1h.


Analysis of symmetry for dynamics (positions and initial velocities):
=====================================================================
 Subroutine PRICEL returns:
 Original cell was already a primitive cell.
 

 Routine SETGRP: Setting up the symmetry group for a 
 base centered orthorhombic supercell.


 Subroutine GETGRP returns: Found  2 space group operations
 (whereof  1 operations were pure point group operations)
 out of a pool of  8 trial point group operations.


The dynamic configuration has the point symmetry C_1 .
 The point group associated with its full space group is C_1h.


 Subroutine INISYM returns: Found  2 space group operations
 (whereof  1 operations are pure point group operations),
 and found     1 'primitive' translations


----------------------------------------------------------------------------------------

                                     Primitive cell                                     

  volume of cell :    2463.0075

  direct lattice vectors                    reciprocal lattice vectors
    10.062820337  5.044562121  0.000000000     0.099375718  0.000000000  0.000000000
     0.000000000 11.256463038  0.000000000    -0.044535036  0.088837852  0.000000000
     0.000000000  0.000000000 21.744231844     0.000000000  0.000000000  0.045989208

  length of vectors
    11.256463038 11.256463038 21.744231844     0.099375718  0.099375718  0.045989208

  position of ions in fractional coordinates (direct lattice)
     0.260920696  0.478780360  0.253327988
     0.354880562  0.384820493  0.388354968
     0.448840428  0.290860627  0.523381948
     0.166960829  0.072740241  0.118301008
     0.056118679  0.051479395  0.487707010
     0.274239065  0.333358994  0.082626070
     0.368198931  0.239399128  0.217653050
     0.462158798  0.145439262  0.352680030
     0.000301942  0.371502124  0.217653050
     0.094261809  0.277542258  0.352680030
     0.188221675  0.183582391  0.487707010
     0.406342061  0.465461991  0.082626070
     0.760920696  0.478780360  0.253327988
     0.854880562  0.384820493  0.388354968
     0.948840428  0.290860627  0.523381948
     0.666960829  0.072740241  0.118301008
     0.556118679  0.051479395  0.487707010
     0.774239065  0.333358994  0.082626070
     0.868198931  0.239399128  0.217653050
     0.962158798  0.145439262  0.352680030
     0.500301942  0.371502124  0.217653050
     0.594261809  0.277542258  0.352680030
     0.688221675  0.183582391  0.487707010
     0.906342061  0.465461991  0.082626070
     0.260920696  0.978780360  0.253327988
     0.354880562  0.884820493  0.388354968
     0.448840428  0.790860627  0.523381948
     0.166960829  0.572740241  0.118301008
     0.056118679  0.551479395  0.487707010
     0.274239065  0.833358994  0.082626070
     0.368198931  0.739399128  0.217653050
     0.462158798  0.645439262  0.352680030
     0.000301942  0.871502124  0.217653050
     0.094261809  0.777542258  0.352680030
     0.188221675  0.683582391  0.487707010
     0.406342061  0.965461991  0.082626070
     0.760920696  0.978780360  0.253327988
     0.854880562  0.884820493  0.388354968
     0.948840428  0.790860627  0.523381948
     0.666960829  0.572740241  0.118301008
     0.556118679  0.551479395  0.487707010
     0.774239065  0.833358994  0.082626070
     0.868198931  0.739399128  0.217653050
     0.962158798  0.645439262  0.352680030
     0.500301942  0.871502124  0.217653050
     0.594261809  0.777542258  0.352680030
     0.688221675  0.683582391  0.487707010
     0.906342061  0.965461991  0.082626070
     0.072877635  0.166823435  0.270053960
     0.166837502  0.072863568  0.405080940
     0.384957888  0.354743168  0.000000000
     0.478917754  0.260783301  0.135026980
     0.030233425  0.377682640  0.450508067
     0.436273543  0.471642507  0.315481087
     0.248353811  0.159562255  0.045427127
     0.342313677  0.065602388  0.180454107
     0.080138816  0.491347245  0.045427127
     0.174098682  0.397387378  0.180454107
     0.268058548  0.303427512  0.315481087
     0.362018415  0.209467645  0.450508067
     0.572877635  0.166823435  0.270053960
     0.666837502  0.072863568  0.405080940
     0.884957888  0.354743168  0.000000000
     0.978917754  0.260783301  0.135026980
     0.760797368  0.478903687  0.540107920
     0.530233425  0.377682640  0.450508067
     0.936273543  0.471642507  0.315481087
     0.842313677  0.065602388  0.180454107
     0.580138816  0.491347245  0.045427127
     0.674098682  0.397387378  0.180454107
     0.768058548  0.303427512  0.315481087
     0.862018415  0.209467645  0.450508067
     0.072877635  0.666823435  0.270053960
     0.166837502  0.572863568  0.405080940
     0.384957888  0.854743168  0.000000000
     0.478917754  0.760783301  0.135026980
     0.260797368  0.978903687  0.540107920
     0.030233425  0.877682640  0.450508067
     0.436273543  0.971642507  0.315481087
     0.248353811  0.659562255  0.045427127
     0.342313677  0.565602388  0.180454107
     0.080138816  0.991347245  0.045427127
     0.174098682  0.897387378  0.180454107
     0.268058548  0.803427512  0.315481087
     0.362018415  0.709467645  0.450508067
     0.572877635  0.666823435  0.270053960
     0.666837502  0.572863568  0.405080940
     0.884957888  0.854743168  0.000000000
     0.978917754  0.760783301  0.135026980
     0.530233425  0.877682640  0.450508067
     0.936273543  0.971642507  0.315481087
     0.748353811  0.659562255  0.045427127
     0.842313677  0.565602388  0.180454107
     0.674098682  0.897387378  0.180454107
     0.768058548  0.803427512  0.315481087
     0.862018415  0.709467645  0.450508067

  ion indices of the primitive-cell ions
   primitive index   ion index
                 1           1
                 2           2
                 3           3
                 4           4
                 5           5
                 6           6
                 7           7
                 8           8
                 9           9
                10          10
                11          11
                12          12
                13          13
                14          14
                15          15
                16          16
                17          17
                18          18
                19          19
                20          20
                21          21
                22          22
                23          23
                24          24
                25          25
                26          26
                27          27
                28          28
                29          29
                30          30
                31          31
                32          32
                33          33
                34          34
                35          35
                36          36
                37          37
                38          38
                39          39
                40          40
                41          41
                42          42
                43          43
                44          44
                45          45
                46          46
                47          47
                48          48
                49          49
                50          50
                51          51
                52          52
                53          53
                54          54
                55          55
                56          56
                57          57
                58          58
                59          59
                60          60
                61          61
                62          62
                63          63
                64          64
                65          65
                66          66
                67          67
                68          68
                69          69
                70          70
                71          71
                72          72
                73          73
                74          74
                75          75
                76          76
                77          77
                78          78
                79          79
                80          80
                81          81
                82          82
                83          83
                84          84
                85          85
                86          86
                87          87
                88          88
                89          89
                90          90
                91          91
                92          92
                93          93
                94          94
                95          95
                96          96

----------------------------------------------------------------------------------------

 
 
 KPOINTS: gamma-point-only calculation. no periodi

Automatic generation of k-mesh.
Space group operators:
 irot       det(A)        alpha          n_x          n_y          n_z        tau_x        tau_y        tau_z
    1     1.000000     0.000000     1.000000     0.000000     0.000000     0.000000     0.000000     0.000000
    2    -1.000000   180.000000    -0.525287    -0.850925     0.000000    -0.260299    -0.260299     0.000000
 
 Subroutine IBZKPT returns following result:
 ===========================================
 
 Found      1 irreducible k-points:
 
 Following reciprocal coordinates:
            Coordinates               Weight
  0.000000  0.000000  0.000000      1.000000
 
 Following cartesian coordinates:
            Coordinates               Weight
  0.000000  0.000000  0.000000      1.000000
 


--------------------------------------------------------------------------------------------------------




 Dimension of arrays:
   k-points           NKPTS =      1   k-points in BZ     NKDIM =      1   number of bands    NBANDS=    640
   number of dos      NEDOS =    301   number of ions     NIONS =     96
   non local maximal  LDIM  =      6   non local SUM 2l+1 LMDIM =     18
   total plane-waves  NPLWV = 432000
   max r-space proj   IRMAX =   1984   max aug-charges    IRDMAX=   5725
   dimension x,y,z NGX =    60 NGY =   60 NGZ =  120
   dimension x,y,z NGXF=   120 NGYF=  120 NGZF=  240
   support grid    NGXF=   120 NGYF=  120 NGZF=  240
   ions per type =              48  48
   NGX,Y,Z   is equivalent  to a cutoff of   8.86,  8.86,  9.17 a.u.
   NGXF,Y,Z  is equivalent  to a cutoff of  17.72, 17.72, 18.35 a.u.

 SYSTEM =  "Millerite NiS"                         
 POSCAR =  Structure 15 made from -111-5.xsd file  

 Startparameter for this run:
   NWRITE =      2    write-flag & timer
   PREC   = normal    normal or accurate (medium, high low for compatibility)
   ISTART =      0    job   : 0-new  1-cont  2-samecut
   ICHARG =      2    charge: 1-file 2-atom 10-const
   ISPIN  =      1    spin polarized calculation?
   LNONCOLLINEAR =      F non collinear calculations
   LSORBIT =      F    spin-orbit coupling
   INIWAV =      1    electr: 0-lowe 1-rand  2-diag
   LASPH  =      F    aspherical Exc in radial PAW
   METAGGA=      F    non-selfconsistent MetaGGA calc.

 Electronic Relaxation 1
   ENCUT  =  450.0 eV  33.07 Ry    5.75 a.u.  19.47 19.47 37.61*2*pi/ulx,y,z
   ENINI  =  450.0     initial cutoff
   ENAUG  =  703.4 eV  augmentation charge cutoff
   NELM   =    100;   NELMIN=  2; NELMDL= -5     # of ELM steps 
   EDIFF  = 0.1E-03   stopping-criterion for ELM
   LREAL  =      T    real-space projection
   NLSPLINE    = F    spline interpolate recip. space projectors
   LCOMPAT=      F    compatible to vasp.4.4
   GGA_COMPAT  = T    GGA compatible to vasp.4.4-vasp.4.6
   LMAXPAW     = -100 max onsite density
   LMAXMIX     =    2 max onsite mixed and CHGCAR
   VOSKOWN=      0    Vosko Wilk Nusair interpolation
   ROPT   =   -0.00050  -0.00050
 Ionic relaxation
   EDIFFG = 0.1E-02   stopping-criterion for IOM
   NSW    =      0    number of steps for IOM
   NBLOCK =      1;   KBLOCK =      1    inner block; outer block 
   IBRION =     -1    ionic relax: 0-MD 1-quasi-New 2-CG
   NFREE  =      0    steps in history (QN), initial steepest desc. (CG)
   ISIF   =      2    stress and relaxation
   IWAVPR =     10    prediction:  0-non 1-charg 2-wave 3-comb
   ISYM   =      2    0-nonsym 1-usesym 2-fastsym
   LCORR  =      T    Harris-Foulkes like correction to forces

   POTIM  = 0.5000    time-step for ionic-motion
   TEIN   =    0.0    initial temperature
   TEBEG  =    0.0;   TEEND  =   0.0 temperature during run
   SMASS  =  -3.00    Nose mass-parameter (am)
   estimated Nose-frequenzy (Omega)   =  0.10E-29 period in steps = 0.13E+47 mass=  -0.290E-26a.u.
   SCALEE = 1.0000    scale energy and forces
   NPACO  =    256;   APACO  = 16.0  distance and # of slots for P.C.
   PSTRESS=    0.0 pullay stress

  Mass of Ions in am
   POMASS =  58.69 32.07
  Ionic Valenz
   ZVAL   =  16.00  6.00
  Atomic Wigner-Seitz radii
   RWIGS  =  -1.00 -1.00
  virtual crystal weights 
   VCA    =   1.00  1.00
   NELECT =    1056.0000    total number of electrons
   NUPDOWN=      -1.0000    fix difference up-down

 DOS related values:
   EMIN   =  10.00;   EMAX   =-10.00  energy-range for DOS
   EFERMI =   0.00
   ISMEAR =     0;   SIGMA  =   0.20  broadening in eV -4-tet -1-fermi 0-gaus

 Electronic relaxation 2 (details)
   IALGO  =     38    algorithm
   LDIAG  =      T    sub-space diagonalisation (order eigenvalues)
   LSUBROT=      F    optimize rotation matrix (better conditioning)
   TURBO    =      0    0=normal 1=particle mesh
   IRESTART =      0    0=no restart 2=restart with 2 vectors
   NREBOOT  =      0    no. of reboots
   NMIN     =      0    reboot dimension
   EREF     =   0.00    reference energy to select bands
   IMIX   =      4    mixing-type and parameters
     AMIX     =   0.40;   BMIX     =  1.00
     AMIX_MAG =   1.60;   BMIX_MAG =  1.00
     AMIN     =   0.10
     WC   =   100.;   INIMIX=   1;  MIXPRE=   1;  MAXMIX= -45

 Intra band minimization:
   WEIMIN = 0.0000     energy-eigenvalue tresh-hold
   EBREAK =  0.39E-07  absolut break condition
   DEPER  =   0.30     relativ break condition  

   TIME   =   0.40     timestep for ELM

  volume/ion in A,a.u.               =      25.66       173.14
  Fermi-wavevector in a.u.,A,eV,Ry     =   1.234452  2.332776 20.733535  1.523872
  Thomas-Fermi vector in A             =   2.369142
 
 Write flags
   LWAVE        =      F    write WAVECAR
   LDOWNSAMPLE  =      F    k-point downsampling of WAVECAR
   LCHARG       =      F    write CHGCAR
   LVTOT        =      F    write LOCPOT, total local potential
   LVHAR        =      F    write LOCPOT, Hartree potential only
   LELF         =      F    write electronic localiz. function (ELF)
   LORBIT       =      0    0 simple, 1 ext, 2 COOP (PROOUT), +10 PAW based schemes


 Dipole corrections
   LMONO  =      F    monopole corrections only (constant potential shift)
   LDIPOL =      F    correct potential (dipole corrections)
   IDIPOL =      0    1-x, 2-y, 3-z, 4-all directions 
   EPSILON=  1.0000000 bulk dielectric constant

 Exchange correlation treatment:
   GGA     =    --    GGA type
   LEXCH   =     8    internal setting for exchange type
   VOSKOWN=      0    Vosko Wilk Nusair interpolation
   LHFCALC =     F    Hartree Fock is set to
   LHFONE  =     F    Hartree Fock one center treatment
   AEXX    =    0.0000 exact exchange contribution

 Linear response parameters
   LEPSILON=     F    determine dielectric tensor
   LRPA    =     F    only Hartree local field effects (RPA)
   LNABLA  =     F    use nabla operator in PAW spheres
   LVEL    =     F    velocity operator in full k-point grid
   LINTERFAST=   F  fast interpolation
   KINTER  =     0    interpolate to denser k-point grid
   CSHIFT  =0.1000    complex shift for real part using Kramers Kronig
   OMEGAMAX=  -1.0    maximum frequency
   DEG_THRESHOLD= 0.2000000E-02 threshold for treating states as degnerate
   RTIME   =   -0.100 relaxation time in fs
  (WPLASMAI=    0.000 imaginary part of plasma frequency in eV, 0.658/RTIME)
   DFIELD  = 0.0000000 0.0000000 0.0000000 field for delta impulse in time
 
 Orbital magnetization related:
   ORBITALMAG=     F  switch on orbital magnetization
   LCHIMAG   =     F  perturbation theory with respect to B field
   DQ        =  0.001000  dq finite difference perturbation B field
   LLRAUG    =     F  two centre corrections for induced B field



--------------------------------------------------------------------------------------------------------


 Static calculation
 charge density and potential will be updated during run
 non-spin polarized calculation
 Variant of blocked Davidson
 Davidson routine will perform the subspace rotation
 perform sub-space diagonalisation
    after iterative eigenvector-optimisation
 modified Broyden-mixing scheme, WC =      100.0
 initial mixing is a Kerker type mixing with AMIX =  0.4000 and BMIX =      1.0000
 Hartree-type preconditioning will be used
 using additional bands          112
 real space projection scheme for non local part
 use partial core corrections
 calculate Harris-corrections to forces 
   (improved forces if not selfconsistent)
 use gradient corrections 
 use of overlap-Matrix (Vanderbilt PP)
 Gauss-broadening in eV      SIGMA  =   0.20


--------------------------------------------------------------------------------------------------------


  energy-cutoff  :      450.00
  volume of cell :     2463.01
      direct lattice vectors                 reciprocal lattice vectors
    10.062820337  5.044562121  0.000000000     0.099375718  0.000000000  0.000000000
     0.000000000 11.256463038  0.000000000    -0.044535036  0.088837852  0.000000000
     0.000000000  0.000000000 21.744231844     0.000000000  0.000000000  0.045989208

  length of vectors
    11.256463038 11.256463038 21.744231844     0.099375718  0.099375718  0.045989208


 
 k-points in units of 2pi/SCALE and weight: gamma-point-only calculation. no periodi
   0.00000000  0.00000000  0.00000000       1.000
 
 k-points in reciprocal lattice and weights: gamma-point-only calculation. no periodi
   0.00000000  0.00000000  0.00000000       1.000
 
 position of ions in fractional coordinates (direct lattice) 
   0.26092070  0.47878036  0.25332799
   0.35488056  0.38482049  0.38835497
   0.44884043  0.29086063  0.52338195
   0.16696083  0.07274024  0.11830101
   0.05611868  0.05147940  0.48770701
   0.27423907  0.33335899  0.08262607
   0.36819893  0.23939913  0.21765305
   0.46215880  0.14543926  0.35268003
   0.00030194  0.37150212  0.21765305
   0.09426181  0.27754226  0.35268003
   0.18822168  0.18358239  0.48770701
   0.40634206  0.46546199  0.08262607
   0.76092070  0.47878036  0.25332799
   0.85488056  0.38482049  0.38835497
   0.94884043  0.29086063  0.52338195
   0.66696083  0.07274024  0.11830101
   0.55611868  0.05147940  0.48770701
   0.77423907  0.33335899  0.08262607
   0.86819893  0.23939913  0.21765305
   0.96215880  0.14543926  0.35268003
   0.50030194  0.37150212  0.21765305
   0.59426181  0.27754226  0.35268003
   0.68822168  0.18358239  0.48770701
   0.90634206  0.46546199  0.08262607
   0.26092070  0.97878036  0.25332799
   0.35488056  0.88482049  0.38835497
   0.44884043  0.79086063  0.52338195
   0.16696083  0.57274024  0.11830101
   0.05611868  0.55147940  0.48770701
   0.27423907  0.83335899  0.08262607
   0.36819893  0.73939913  0.21765305
   0.46215880  0.64543926  0.35268003
   0.00030194  0.87150212  0.21765305
   0.09426181  0.77754226  0.35268003
   0.18822168  0.68358239  0.48770701
   0.40634206  0.96546199  0.08262607
   0.76092070  0.97878036  0.25332799
   0.85488056  0.88482049  0.38835497
   0.94884043  0.79086063  0.52338195
   0.66696083  0.57274024  0.11830101
   0.55611868  0.55147940  0.48770701
   0.77423907  0.83335899  0.08262607
   0.86819893  0.73939913  0.21765305
   0.96215880  0.64543926  0.35268003
   0.50030194  0.87150212  0.21765305
   0.59426181  0.77754226  0.35268003
   0.68822168  0.68358239  0.48770701
   0.90634206  0.96546199  0.08262607
   0.07287763  0.16682343  0.27005396
   0.16683750  0.07286357  0.40508094
   0.38495789  0.35474317  0.00000000
   0.47891775  0.26078330  0.13502698
   0.03023342  0.37768264  0.45050807
   0.43627354  0.47164251  0.31548109
   0.24835381  0.15956225  0.04542713
   0.34231368  0.06560239  0.18045411
   0.08013882  0.49134725  0.04542713
   0.17409868  0.39738738  0.18045411
   0.26805855  0.30342751  0.31548109
   0.36201842  0.20946764  0.45050807
   0.57287763  0.16682343  0.27005396
   0.66683750  0.07286357  0.40508094
   0.88495789  0.35474317  0.00000000
   0.97891775  0.26078330  0.13502698
   0.76079737  0.47890369  0.54010792
   0.53023342  0.37768264  0.45050807
   0.93627354  0.47164251  0.31548109
   0.84231368  0.06560239  0.18045411
   0.58013882  0.49134725  0.04542713
   0.67409868  0.39738738  0.18045411
   0.76805855  0.30342751  0.31548109
   0.86201842  0.20946764  0.45050807
   0.07287763  0.66682343  0.27005396
   0.16683750  0.57286357  0.40508094
   0.38495789  0.85474317  0.00000000
   0.47891775  0.76078330  0.13502698
   0.26079737  0.97890369  0.54010792
   0.03023342  0.87768264  0.45050807
   0.43627354  0.97164251  0.31548109
   0.24835381  0.65956225  0.04542713
   0.34231368  0.56560239  0.18045411
   0.08013882  0.99134725  0.04542713
   0.17409868  0.89738738  0.18045411
   0.26805855  0.80342751  0.31548109
   0.36201842  0.70946764  0.45050807
   0.57287763  0.66682343  0.27005396
   0.66683750  0.57286357  0.40508094
   0.88495789  0.85474317  0.00000000
   0.97891775  0.76078330  0.13502698
   0.53023342  0.87768264  0.45050807
   0.93627354  0.97164251  0.31548109
   0.74835381  0.65956225  0.04542713
   0.84231368  0.56560239  0.18045411
   0.67409868  0.89738738  0.18045411
   0.76805855  0.80342751  0.31548109
   0.86201842  0.70946764  0.45050807
 
 position of ions in cartesian coordinates  (Angst):
   2.62559809  6.70560409  5.50842250
   3.57109934  6.12193470  8.44448046
   4.51660059  5.53826532 11.38053842
   1.68009683  1.66104211  2.57236455
   0.56471218  0.86257007 10.60481430
   2.75961844  5.13585919  1.79664042
   3.70511969  4.55218982  4.73269838
   4.65062095  3.96852044  7.66875634
   0.00303839  4.18332309  4.73269838
   0.94853965  3.59965372  7.66875634
   1.89404090  3.01598433 10.60481430
   4.08894716  7.28927347  1.79664042
   7.65700825  9.22788515  5.50842250
   8.60250951  8.64421576  8.44448046
   9.54801076  8.06054638 11.38053842
   6.71150699  4.18332317  2.57236455
   5.59612235  3.38485113 10.60481430
   7.79102861  7.65814025  1.79664042
   8.73652986  7.07447088  4.73269838
   9.68203112  6.49080150  7.66875634
   5.03444856  6.70560415  4.73269838
   5.97994982  6.12193478  7.66875634
   6.92545107  5.53826539 10.60481430
   9.12035732  9.81155453  1.79664042
   2.62559809 12.33383560  5.50842250
   3.57109934 11.75016622  8.44448046
   4.51660059 11.16649684 11.38053842
   1.68009683  7.28927363  2.57236455
   0.56471218  6.49080159 10.60481430
   2.75961844 10.76409071  1.79664042
   3.70511969 10.18042134  4.73269838
   4.65062095  9.59675196  7.66875634
   0.00303839  9.81155461  4.73269838
   0.94853965  9.22788524  7.66875634
   1.89404090  8.64421585 10.60481430
   4.08894716 12.91750499  1.79664042
   7.65700825 14.85611667  5.50842250
   8.60250951 14.27244728  8.44448046
   9.54801076 13.68877790 11.38053842
   6.71150699  9.81155469  2.57236455
   5.59612235  9.01308265 10.60481430
   7.79102861 13.28637177  1.79664042
   8.73652986 12.70270240  4.73269838
   9.68203112 12.11903302  7.66875634
   5.03444856 12.33383567  4.73269838
   5.97994982 11.75016630  7.66875634
   6.92545107 11.16649691 10.60481430
   9.12035732 15.43978605  1.79664042
   0.73335455  2.24547759  5.87211592
   1.67885581  1.66180820  8.80817387
   3.87376206  5.93509734  0.00000000
   4.81926331  5.35142795  2.93605796
   0.30423352  4.40388507  9.79595186
   4.39014228  7.50983544  6.85989390
   2.49913978  3.04894285  0.98777798
   3.44464103  2.46527346  3.92383594
   0.80642251  5.93509734  0.98777798
   1.75192376  5.35142795  3.92383594
   2.69742501  4.76775857  6.85989390
   3.64292627  4.18408919  9.79595186
   5.76476472  4.76775865  5.87211592
   6.71026598  4.18408926  8.80817387
   8.90517223  8.45737840  0.00000000
   9.85067348  7.87370901  2.93605796
   7.65576723  9.22865124 11.74423183
   5.33564369  6.92616613  9.79595186
   9.42155245 10.03211650  6.85989390
   8.47605120  4.98755452  3.92383594
   5.83783268  8.45737840  0.98777798
   6.78333393  7.87370901  3.92383594
   7.72883518  7.29003963  6.85989390
   8.67433644  6.70637025  9.79595186
   0.73335455  7.87370911  5.87211592
   1.67885581  7.29003972  8.80817387
   3.87376206 11.56332886  0.00000000
   4.81926331 10.97965947  2.93605796
   2.62435706 12.33460169 11.74423183
   0.30423352 10.03211659  9.79595186
   4.39014228 13.13806696  6.85989390
   2.49913978  8.67717437  0.98777798
   3.44464103  8.09350498  3.92383594
   0.80642251 11.56332886  0.98777798
   1.75192376 10.97965947  3.92383594
   2.69742501 10.39599009  6.85989390
   3.64292627  9.81232071  9.79595186
   5.76476472 10.39599017  5.87211592
   6.71026598  9.81232078  8.80817387
   8.90517223 14.08560992  0.00000000
   9.85067348 13.50194053  2.93605796
   5.33564369 12.55439765  9.79595186
   9.42155245 15.66034802  6.85989390
   7.53054995 11.19945543  0.98777798
   8.47605120 10.61578604  3.92383594
   6.78333393 13.50194053  3.92383594
   7.72883518 12.91827115  6.85989390
   8.67433644 12.33460177  9.79595186
 


--------------------------------------------------------------------------------------------------------


 use parallel FFT for orbitals z direction half grid
 k-point   1 :   0.0000 0.0000 0.0000  plane waves:   26744

 maximum and minimum number of plane-waves per node :      4459     4455

 maximum number of plane-waves:     26744
 maximum index in each direction: 
   IXMAX=   19   IYMAX=   19   IZMAX=   37
   IXMIN=  -19   IYMIN=  -19   IZMIN=    0


 real space projection operators:
  total allocation   :      16266.69 KBytes
  max/ min on nodes  :       2748.62       2669.38


 parallel 3D FFT for wavefunctions:
    minimum data exchange during FFTs selected (reduces bandwidth)
 parallel 3D FFT for charge:
    minimum data exchange during FFTs selected (reduces bandwidth)


 total amount of memory used by VASP MPI-rank0    51435. kBytes
=======================================================================

   base      :      30000. kBytes
   nonlr-proj:       3322. kBytes
   fftplans  :       4386. kBytes
   grid      :       7756. kBytes
   one-center:        124. kBytes
   wavefun   :       5847. kBytes
 
     INWAV:  cpu time    0.0000: real time    0.0000
 Broyden mixing: mesh for mixing (old mesh)
   NGX = 39   NGY = 39   NGZ = 75
  (NGX  =120   NGY  =120   NGZ  =240)
  gives a total of 114075 points

 initial charge density was supplied:
 charge density of overlapping atoms calculated
 number of electron    1056.0000000 magnetization 
 keeping initial charge density in first step


--------------------------------------------------------------------------------------------------------


 Maximum index for non-local projection operator          332
 Maximum index for augmentation-charges          340 (set IRDMAX)


--------------------------------------------------------------------------------------------------------


 First call to EWALD:  gamma=   0.131
 Maximum number of real-space cells 4x 4x 2
 Maximum number of reciprocal cells 2x 2x 4

    FEWALD:  cpu time    0.0106: real time    0.0106


--------------------------------------- Iteration      1(   1)  ---------------------------------------


    POTLOK:  cpu time    0.0941: real time    0.0947
    SETDIJ:  cpu time    0.0069: real time    0.0088
     EDDAV:  cpu time    6.5417: real time    6.5588
       DOS:  cpu time    0.0031: real time    0.0031
    --------------------------------------------
      LOOP:  cpu time    6.6458: real time    6.6655

 eigenvalue-minimisations  :  1552
 total energy-change (2. order) : 0.1334730E+05  (-0.6781618E+05)
 number of electron    1056.0000000 magnetization 
 augmentation part     1056.0000000 magnetization 

 Free energy of the ion-electron system (eV)
  ---------------------------------------------------
  alpha Z        PSCENC =      2684.99175279
  Ewald energy   TEWEN  =    241989.76998717
  -Hartree energ DENC   =   -405998.22288199
  -exchange      EXHF   =         0.00000000
  -V(xc)+E(xc)   XCENC  =      4873.00821350
  PAW double counting   =    150306.04444553  -156855.34918313
  entropy T*S    EENTRO =        -0.49007926
  eigenvalues    EBANDS =     -4989.25696508
  atomic energy  EATOM  =    181336.80673834
  Solvation  Ediel_sol  =         0.00000000
  ---------------------------------------------------
  free energy    TOTEN  =     13347.30202788 eV

  energy without entropy =    13347.79210714  energy(sigma->0) =    13347.54706751


--------------------------------------------------------------------------------------------------------




--------------------------------------- Iteration      1(   2)  ---------------------------------------


     EDDAV:  cpu time    5.7727: real time    5.7905
       DOS:  cpu time    0.0028: real time    0.0028
    --------------------------------------------
      LOOP:  cpu time    5.7755: real time    5.7933

 eigenvalue-minimisations  :  1344
 total energy-change (2. order) :-0.1246810E+05  (-0.1203490E+05)
 number of electron    1056.0000000 magnetization 
 augmentation part     1056.0000000 magnetization 

 Free energy of the ion-electron system (eV)
  ---------------------------------------------------
  alpha Z        PSCENC =      2684.99175279
  Ewald energy   TEWEN  =    241989.76998717
  -Hartree energ DENC   =   -405998.22288199
  -exchange      EXHF   =         0.00000000
  -V(xc)+E(xc)   XCENC  =      4873.00821350
  PAW double counting   =    150306.04444553  -156855.34918313
  entropy T*S    EENTRO =        -1.02176636
  eigenvalues    EBANDS =    -17456.82943969
  atomic energy  EATOM  =    181336.80673834
  Solvation  Ediel_sol  =         0.00000000
  ---------------------------------------------------
  free energy    TOTEN  =       879.19786618 eV

  energy without entropy =      880.21963254  energy(sigma->0) =      879.70874936


--------------------------------------------------------------------------------------------------------




--------------------------------------- Iteration      1(   3)  ---------------------------------------


     EDDAV:  cpu time    6.2433: real time    6.2600
       DOS:  cpu time    0.0031: real time    0.0032
    --------------------------------------------
      LOOP:  cpu time    6.2465: real time    6.2632

 eigenvalue-minimisations  :  1472
 total energy-change (2. order) :-0.1331942E+04  (-0.1243927E+04)
 number of electron    1056.0000000 magnetization 
 augmentation part     1056.0000000 magnetization 

 Free energy of the ion-electron system (eV)
  ---------------------------------------------------
  alpha Z        PSCENC =      2684.99175279
  Ewald energy   TEWEN  =    241989.76998717
  -Hartree energ DENC   =   -405998.22288199
  -exchange      EXHF   =         0.00000000
  -V(xc)+E(xc)   XCENC  =      4873.00821350
  PAW double counting   =    150306.04444553  -156855.34918313
  entropy T*S    EENTRO =        -1.34463166
  eigenvalues    EBANDS =    -18788.44883536
  atomic energy  EATOM  =    181336.80673834
  Solvation  Ediel_sol  =         0.00000000
  ---------------------------------------------------
  free energy    TOTEN  =      -452.74439479 eV

  energy without entropy =     -451.39976313  energy(sigma->0) =     -452.07207896


--------------------------------------------------------------------------------------------------------




--------------------------------------- Iteration      1(   4)  ---------------------------------------


     EDDAV:  cpu time    6.2349: real time    6.2517
       DOS:  cpu time    0.0033: real time    0.0033
    --------------------------------------------
      LOOP:  cpu time    6.2383: real time    6.2550

 eigenvalue-minimisations  :  1472
 total energy-change (2. order) :-0.9001365E+02  (-0.8879905E+02)
 number of electron    1056.0000000 magnetization 
 augmentation part     1056.0000000 magnetization 

 Free energy of the ion-electron system (eV)
  ---------------------------------------------------
  alpha Z        PSCENC =      2684.99175279
  Ewald energy   TEWEN  =    241989.76998717
  -Hartree energ DENC   =   -405998.22288199
  -exchange      EXHF   =         0.00000000
  -V(xc)+E(xc)   XCENC  =      4873.00821350
  PAW double counting   =    150306.04444553  -156855.34918313
  entropy T*S    EENTRO =        -1.43941360
  eigenvalues    EBANDS =    -18878.36770532
  atomic energy  EATOM  =    181336.80673834
  Solvation  Ediel_sol  =         0.00000000
  ---------------------------------------------------
  free energy    TOTEN  =      -542.75804670 eV

  energy without entropy =     -541.31863309  energy(sigma->0) =     -542.03833989


--------------------------------------------------------------------------------------------------------




--------------------------------------- Iteration      1(   5)  ---------------------------------------


     EDDAV:  cpu time    6.8757: real time    6.8932
       DOS:  cpu time    0.0035: real time    0.0035
    CHARGE:  cpu time    0.1688: real time    0.1692
    MIXING:  cpu time    0.0042: real time    0.0046
    --------------------------------------------
      LOOP:  cpu time    7.0522: real time    7.0705

 eigenvalue-minimisations  :  1664
 total energy-change (2. order) :-0.3729075E+01  (-0.3723112E+01)
 number of electron    1056.0000194 magnetization 
 augmentation part      380.6476446 magnetization 

 Broyden mixing:
  rms(total) = 0.96588E+01    rms(broyden)= 0.96402E+01
  rms(prec ) = 0.10129E+02
  weight for this iteration     100.00

 Free energy of the ion-electron system (eV)
  ---------------------------------------------------
  alpha Z        PSCENC =      2684.99175279
  Ewald energy   TEWEN  =    241989.76998717
  -Hartree energ DENC   =   -405998.22288199
  -exchange      EXHF   =         0.00000000
  -V(xc)+E(xc)   XCENC  =      4873.00821350
  PAW double counting   =    150306.04444553  -156855.34918313
  entropy T*S    EENTRO =        -1.42474642
  eigenvalues    EBANDS =    -18882.11144722
  atomic energy  EATOM  =    181336.80673834
  Solvation  Ediel_sol  =         0.00000000
  ---------------------------------------------------
  free energy    TOTEN  =      -546.48712141 eV

  energy without entropy =     -545.06237500  energy(sigma->0) =     -545.77474820


--------------------------------------------------------------------------------------------------------




--------------------------------------- Iteration      1(   6)  ---------------------------------------


    POTLOK:  cpu time    0.0916: real time    0.0939
    SETDIJ:  cpu time    0.0063: real time    0.0086
     EDDAV:  cpu time    6.5197: real time    6.5364
       DOS:  cpu time    0.0028: real time    0.0028
    CHARGE:  cpu time    0.1655: real time    0.1659
    MIXING:  cpu time    0.0034: real time    0.0035
    --------------------------------------------
      LOOP:  cpu time    6.7895: real time    6.8111

 eigenvalue-minimisations  :  1568
 total energy-change (2. order) :-0.1452241E+03  (-0.1299796E+03)
 number of electron    1056.0000159 magnetization 
 augmentation part      472.5329601 magnetization 

 Broyden mixing:
  rms(total) = 0.19149E+02    rms(broyden)= 0.19143E+02
  rms(prec ) = 0.20559E+02
  weight for this iteration     100.00

 eigenvalues of (default mixing * dielectric matrix)
  average eigenvalue GAMMA=   0.2163
  0.2163

 Free energy of the ion-electron system (eV)
  ---------------------------------------------------
  alpha Z        PSCENC =      2684.99175279
  Ewald energy   TEWEN  =    241989.76998717
  -Hartree energ DENC   =   -401982.47559678
  -exchange      EXHF   =         0.00000000
  -V(xc)+E(xc)   XCENC  =      4767.76413418
  PAW double counting   =    152738.00197746  -158959.55955604
  entropy T*S    EENTRO =        -1.18570177
  eigenvalues    EBANDS =    -23265.82491810
  atomic energy  EATOM  =    181336.80673834
  Solvation  Ediel_sol  =         0.00000000
  ---------------------------------------------------
  free energy    TOTEN  =      -691.71118275 eV

  energy without entropy =     -690.52548098  energy(sigma->0) =     -691.11833186


--------------------------------------------------------------------------------------------------------




--------------------------------------- Iteration      1(   7)  ---------------------------------------


    POTLOK:  cpu time    0.0912: real time    0.0915
    SETDIJ:  cpu time    0.0059: real time    0.0059
     EDDAV:  cpu time    6.3777: real time    6.3928
       DOS:  cpu time    0.0034: real time    0.0034
    CHARGE:  cpu time    0.1651: real time    0.1655
    MIXING:  cpu time    0.0033: real time    0.0033
    --------------------------------------------
      LOOP:  cpu time    6.6466: real time    6.6624

 eigenvalue-minimisations  :  1528
 total energy-change (2. order) : 0.1654063E+03  (-0.2295962E+02)
 number of electron    1056.0000230 magnetization 
 augmentation part      442.1512207 magnetization 

 Broyden mixing:
  rms(total) = 0.10190E+02    rms(broyden)= 0.10187E+02
  rms(prec ) = 0.11477E+02
  weight for this iteration     100.00

 eigenvalues of (default mixing * dielectric matrix)
  average eigenvalue GAMMA=   0.3543
  0.3543  0.3543

 Free energy of the ion-electron system (eV)
  ---------------------------------------------------
  alpha Z        PSCENC =      2684.99175279
  Ewald energy   TEWEN  =    241989.76998717
  -Hartree energ DENC   =   -403808.23458864
  -exchange      EXHF   =         0.00000000
  -V(xc)+E(xc)   XCENC  =      4804.83166503
  PAW double counting   =    158016.36341246  -164423.98094404
  entropy T*S    EENTRO =        -1.34189765
  eigenvalues    EBANDS =    -21125.51102564
  atomic energy  EATOM  =    181336.80673834
  Solvation  Ediel_sol  =         0.00000000
  ---------------------------------------------------
  free energy    TOTEN  =      -526.30490016 eV

  energy without entropy =     -524.96300252  energy(sigma->0) =     -525.63395134


--------------------------------------------------------------------------------------------------------




--------------------------------------- Iteration      1(   8)  ---------------------------------------


    POTLOK:  cpu time    0.0920: real time    0.0922
    SETDIJ:  cpu time    0.0060: real time    0.0060
     EDDAV:  cpu time    6.8144: real time    6.8306
       DOS:  cpu time    0.0031: real time    0.0031
    CHARGE:  cpu time    0.1665: real time    0.1670
    MIXING:  cpu time    0.0037: real time    0.0037
    --------------------------------------------
      LOOP:  cpu time    7.0857: real time    7.1026

 eigenvalue-minimisations  :  1656
 total energy-change (2. order) :-0.1151499E+03  (-0.1602719E+02)
 number of electron    1055.9999923 magnetization 
 augmentation part      421.7662202 magnetization 

 Broyden mixing:
  rms(total) = 0.16244E+02    rms(broyden)= 0.16240E+02
  rms(prec ) = 0.21118E+02
  weight for this iteration     100.00

 eigenvalues of (default mixing * dielectric matrix)
  average eigenvalue GAMMA=   0.3832
  0.5238  0.5238  0.1021

 Free energy of the ion-electron system (eV)
  ---------------------------------------------------
  alpha Z        PSCENC =      2684.99175279
  Ewald energy   TEWEN  =    241989.76998717
  -Hartree energ DENC   =   -404027.92211629
  -exchange      EXHF   =         0.00000000
  -V(xc)+E(xc)   XCENC  =      4818.69662936
  PAW double counting   =    161317.01022778  -167804.22450995
  entropy T*S    EENTRO =        -1.28041609
  eigenvalues    EBANDS =    -20955.30306302
  atomic energy  EATOM  =    181336.80673834
  Solvation  Ediel_sol  =         0.00000000
  ---------------------------------------------------
  free energy    TOTEN  =      -641.45476990 eV

  energy without entropy =     -640.17435381  energy(sigma->0) =     -640.81456186


--------------------------------------------------------------------------------------------------------




--------------------------------------- Iteration      1(   9)  ---------------------------------------


    POTLOK:  cpu time    0.0913: real time    0.0936
    SETDIJ:  cpu time    0.0058: real time    0.0090
     EDDAV:  cpu time    7.0789: real time    7.0956
       DOS:  cpu time    0.0041: real time    0.0041
    CHARGE:  cpu time    0.1646: real time    0.1650
    MIXING:  cpu time    0.0041: real time    0.0041
    --------------------------------------------
      LOOP:  cpu time    7.3487: real time    7.3713

 eigenvalue-minimisations  :  1736
 total energy-change (2. order) : 0.5392231E+02  (-0.2567734E+02)
 number of electron    1056.0000354 magnetization 
 augmentation part      421.5890374 magnetization 

 Broyden mixing:
  rms(total) = 0.12228E+02    rms(broyden)= 0.12224E+02
  rms(prec ) = 0.14198E+02
  weight for this iteration     100.00

 eigenvalues of (default mixing * dielectric matrix)
  average eigenvalue GAMMA=   0.3594
  0.7409  0.4405  0.1460  0.1105

 Free energy of the ion-electron system (eV)
  ---------------------------------------------------
  alpha Z        PSCENC =      2684.99175279
  Ewald energy   TEWEN  =    241989.76998717
  -Hartree energ DENC   =   -404147.42878365
  -exchange      EXHF   =         0.00000000
  -V(xc)+E(xc)   XCENC  =      4823.66973318
  PAW double counting   =    166291.31962128  -172848.80038937
  entropy T*S    EENTRO =        -1.56205887
  eigenvalues    EBANDS =    -20716.29905999
  atomic energy  EATOM  =    181336.80673834
  Solvation  Ediel_sol  =         0.00000000
  ---------------------------------------------------
  free energy    TOTEN  =      -587.53245914 eV

  energy without entropy =     -585.97040026  energy(sigma->0) =     -586.75142970


--------------------------------------------------------------------------------------------------------




--------------------------------------- Iteration      1(  10)  ---------------------------------------


    POTLOK:  cpu time    0.0922: real time    0.0934
    SETDIJ:  cpu time    0.0058: real time    0.0059
     EDDAV:  cpu time    7.1512: real time    7.1681
       DOS:  cpu time    0.0034: real time    0.0034
    CHARGE:  cpu time    0.1664: real time    0.1668
    MIXING:  cpu time    0.0041: real time    0.0041
    --------------------------------------------
      LOOP:  cpu time    7.4231: real time    7.4417

 eigenvalue-minimisations  :  1752
 total energy-change (2. order) : 0.5746533E+02  (-0.1007359E+02)
 number of electron    1056.0000310 magnetization 
 augmentation part      421.0329935 magnetization 

 Broyden mixing:
  rms(total) = 0.93825E+01    rms(broyden)= 0.93755E+01
  rms(prec ) = 0.10509E+02
  weight for this iteration     100.00

 eigenvalues of (default mixing * dielectric matrix)
  average eigenvalue GAMMA=   0.3695
  0.9589  0.4101  0.2283  0.1251  0.1251

 Free energy of the ion-electron system (eV)
  ---------------------------------------------------
  alpha Z        PSCENC =      2684.99175279
  Ewald energy   TEWEN  =    241989.76998717
  -Hartree energ DENC   =   -404090.72551477
  -exchange      EXHF   =         0.00000000
  -V(xc)+E(xc)   XCENC  =      4826.99641449
  PAW double counting   =    168940.25508715  -175536.41110964
  entropy T*S    EENTRO =        -1.50490274
  eigenvalues    EBANDS =    -20680.24558333
  atomic energy  EATOM  =    181336.80673834
  Solvation  Ediel_sol  =         0.00000000
  ---------------------------------------------------
  free energy    TOTEN  =      -530.06713055 eV

  energy without entropy =     -528.56222780  energy(sigma->0) =     -529.31467918


--------------------------------------------------------------------------------------------------------




--------------------------------------- Iteration      1(  11)  ---------------------------------------


    POTLOK:  cpu time    0.0913: real time    0.0915
    SETDIJ:  cpu time    0.0059: real time    0.0059
     EDDAV:  cpu time    7.2409: real time    7.2581
       DOS:  cpu time    0.0029: real time    0.0029
    CHARGE:  cpu time    0.1675: real time    0.1679
    MIXING:  cpu time    0.0039: real time    0.0039
    --------------------------------------------
      LOOP:  cpu time    7.5125: real time    7.5303

 eigenvalue-minimisations  :  1776
 total energy-change (2. order) : 0.1438089E+02  (-0.1072767E+02)
 number of electron    1056.0000266 magnetization 
 augmentation part      415.1057913 magnetization 

 Broyden mixing:
  rms(total) = 0.83153E+01    rms(broyden)= 0.83075E+01
  rms(prec ) = 0.92602E+01
  weight for this iteration     100.00

 eigenvalues of (default mixing * dielectric matrix)
  average eigenvalue GAMMA=   0.4477
  1.5015  0.3812  0.3812  0.1667  0.1442  0.1113

 Free energy of the ion-electron system (eV)
  ---------------------------------------------------
  alpha Z        PSCENC =      2684.99175279
  Ewald energy   TEWEN  =    241989.76998717
  -Hartree energ DENC   =   -404368.92358600
  -exchange      EXHF   =         0.00000000
  -V(xc)+E(xc)   XCENC  =      4828.33263828
  PAW double counting   =    171527.67473582  -178153.10713257
  entropy T*S    EENTRO =        -1.62556710
  eigenvalues    EBANDS =    -20359.60580995
  atomic energy  EATOM  =    181336.80673834
  Solvation  Ediel_sol  =         0.00000000
  ---------------------------------------------------
  free energy    TOTEN  =      -515.68624320 eV

  energy without entropy =     -514.06067611  energy(sigma->0) =     -514.87345965


--------------------------------------------------------------------------------------------------------




--------------------------------------- Iteration      1(  12)  ---------------------------------------


    POTLOK:  cpu time    0.0912: real time    0.0914
    SETDIJ:  cpu time    0.0057: real time    0.0058
     EDDAV:  cpu time    7.0034: real time    7.0200
       DOS:  cpu time    0.0039: real time    0.0038
    CHARGE:  cpu time    0.1668: real time    0.1672
    MIXING:  cpu time    0.0038: real time    0.0038
    --------------------------------------------
      LOOP:  cpu time    7.2747: real time    7.2919

 eigenvalue-minimisations  :  1712
 total energy-change (2. order) :-0.1564376E+02  (-0.1025468E+02)
 number of electron    1056.0000358 magnetization 
 augmentation part      413.5640266 magnetization 

 Broyden mixing:
  rms(total) = 0.98099E+01    rms(broyden)= 0.98066E+01
  rms(prec ) = 0.11321E+02
  weight for this iteration     100.00

 eigenvalues of (default mixing * dielectric matrix)
  average eigenvalue GAMMA=   0.4782
  1.8173  0.4253  0.4253  0.3161  0.1172  0.1230  0.1230

 Free energy of the ion-electron system (eV)
  ---------------------------------------------------
  alpha Z        PSCENC =      2684.99175279
  Ewald energy   TEWEN  =    241989.76998717
  -Hartree energ DENC   =   -404532.28119884
  -exchange      EXHF   =         0.00000000
  -V(xc)+E(xc)   XCENC  =      4825.63014478
  PAW double counting   =    175336.48330655  -181991.48208551
  entropy T*S    EENTRO =        -1.57149471
  eigenvalues    EBANDS =    -20179.67715478
  atomic energy  EATOM  =    181336.80673834
  Solvation  Ediel_sol  =         0.00000000
  ---------------------------------------------------
  free energy    TOTEN  =      -531.33000421 eV

  energy without entropy =     -529.75850950  energy(sigma->0) =     -530.54425686


--------------------------------------------------------------------------------------------------------




--------------------------------------- Iteration      1(  13)  ---------------------------------------


    POTLOK:  cpu time    0.0908: real time    0.0910
    SETDIJ:  cpu time    0.0060: real time    0.0060
     EDDAV:  cpu time    6.9677: real time    6.9853
       DOS:  cpu time    0.0035: real time    0.0035
    CHARGE:  cpu time    0.1668: real time    0.1672
    MIXING:  cpu time    0.0045: real time    0.0045
    --------------------------------------------
      LOOP:  cpu time    7.2393: real time    7.2576

 eigenvalue-minimisations  :  1696
 total energy-change (2. order) : 0.2710752E+00  (-0.6219107E+01)
 number of electron    1056.0000312 magnetization 
 augmentation part      416.6823114 magnetization 

 Broyden mixing:
  rms(total) = 0.11734E+02    rms(broyden)= 0.11730E+02
  rms(prec ) = 0.13543E+02
  weight for this iteration     100.00

 eigenvalues of (default mixing * dielectric matrix)
  average eigenvalue GAMMA=   0.4516
  1.9075  0.4531  0.4531  0.3428  0.1276  0.1276  0.1098  0.0916

 Free energy of the ion-electron system (eV)
  ---------------------------------------------------
  alpha Z        PSCENC =      2684.99175279
  Ewald energy   TEWEN  =    241989.76998717
  -Hartree energ DENC   =   -404288.73921243
  -exchange      EXHF   =         0.00000000
  -V(xc)+E(xc)   XCENC  =      4825.40820596
  PAW double counting   =    177681.47769170  -184359.88425302
  entropy T*S    EENTRO =        -1.63063998
  eigenvalues    EBANDS =    -20399.25919952
  atomic energy  EATOM  =    181336.80673834
  Solvation  Ediel_sol  =         0.00000000
  ---------------------------------------------------
  free energy    TOTEN  =      -531.05892899 eV

  energy without entropy =     -529.42828901  energy(sigma->0) =     -530.24360900


--------------------------------------------------------------------------------------------------------




--------------------------------------- Iteration      1(  14)  ---------------------------------------


    POTLOK:  cpu time    0.0920: real time    0.0932
    SETDIJ:  cpu time    0.0062: real time    0.0086
     EDDAV:  cpu time    7.0864: real time    7.1045
       DOS:  cpu time    0.0034: real time    0.0034
    CHARGE:  cpu time    0.1670: real time    0.1674
    MIXING:  cpu time    0.0041: real time    0.0041
    --------------------------------------------
      LOOP:  cpu time    7.3591: real time    7.3812

 eigenvalue-minimisations  :  1736
 total energy-change (2. order) : 0.3192131E+02  (-0.3824938E+01)
 number of electron    1056.0000213 magnetization 
 augmentation part      424.1583003 magnetization 

 Broyden mixing:
  rms(total) = 0.53830E+01    rms(broyden)= 0.53803E+01
  rms(prec ) = 0.63310E+01
  weight for this iteration     100.00

 eigenvalues of (default mixing * dielectric matrix)
  average eigenvalue GAMMA=   0.4133
  1.8177  0.4465  0.4465  0.3923  0.1459  0.1459  0.1178  0.1178  0.0898

 Free energy of the ion-electron system (eV)
  ---------------------------------------------------
  alpha Z        PSCENC =      2684.99175279
  Ewald energy   TEWEN  =    241989.76998717
  -Hartree energ DENC   =   -404216.37005720
  -exchange      EXHF   =         0.00000000
  -V(xc)+E(xc)   XCENC  =      4826.10087650
  PAW double counting   =    178384.51280760  -185071.35170995
  entropy T*S    EENTRO =        -1.64226682
  eigenvalues    EBANDS =    -20431.95574851
  atomic energy  EATOM  =    181336.80673834
  Solvation  Ediel_sol  =         0.00000000
  ---------------------------------------------------
  free energy    TOTEN  =      -499.13762006 eV

  energy without entropy =     -497.49535325  energy(sigma->0) =     -498.31648665


--------------------------------------------------------------------------------------------------------




--------------------------------------- Iteration      1(  15)  ---------------------------------------


    POTLOK:  cpu time    0.0918: real time    0.0931
    SETDIJ:  cpu time    0.0059: real time    0.0059
     EDDAV:  cpu time    7.1975: real time    7.2145
       DOS:  cpu time    0.0033: real time    0.0033
    CHARGE:  cpu time    0.1664: real time    0.1668
    MIXING:  cpu time    0.0043: real time    0.0043
    --------------------------------------------
      LOOP:  cpu time    7.4692: real time    7.4879

 eigenvalue-minimisations  :  1776
 total energy-change (2. order) : 0.1178308E+02  (-0.2130486E+01)
 number of electron    1056.0000250 magnetization 
 augmentation part      421.8790554 magnetization 

 Broyden mixing:
  rms(total) = 0.37531E+01    rms(broyden)= 0.37506E+01
  rms(prec ) = 0.43358E+01
  weight for this iteration     100.00

 eigenvalues of (default mixing * dielectric matrix)
  average eigenvalue GAMMA=   0.3883
  1.6455  0.4603  0.4603  0.4582  0.2007  0.2007  0.1243  0.1243  0.1177  0.0907

 Free energy of the ion-electron system (eV)
  ---------------------------------------------------
  alpha Z        PSCENC =      2684.99175279
  Ewald energy   TEWEN  =    241989.76998717
  -Hartree energ DENC   =   -404372.81813740
  -exchange      EXHF   =         0.00000000
  -V(xc)+E(xc)   XCENC  =      4828.25991230
  PAW double counting   =    178005.47615976  -184693.10326857
  entropy T*S    EENTRO =        -1.43075944
  eigenvalues    EBANDS =    -20265.30692065
  atomic energy  EATOM  =    181336.80673834
  Solvation  Ediel_sol  =         0.00000000
  ---------------------------------------------------
  free energy    TOTEN  =      -487.35453570 eV

  energy without entropy =     -485.92377627  energy(sigma->0) =     -486.63915598


--------------------------------------------------------------------------------------------------------




--------------------------------------- Iteration      1(  16)  ---------------------------------------


    POTLOK:  cpu time    0.0911: real time    0.0913
    SETDIJ:  cpu time    0.0058: real time    0.0059
     EDDAV:  cpu time    7.2226: real time    7.2398
       DOS:  cpu time    0.0016: real time    0.0016
    CHARGE:  cpu time    0.1668: real time    0.1672
    MIXING:  cpu time    0.0043: real time    0.0043
    --------------------------------------------
      LOOP:  cpu time    7.4923: real time    7.5101

 eigenvalue-minimisations  :  1776
 total energy-change (2. order) : 0.4490353E+01  (-0.1158361E+01)
 number of electron    1056.0000238 magnetization 
 augmentation part      417.7729321 magnetization 

 Broyden mixing:
  rms(total) = 0.32432E+01    rms(broyden)= 0.32421E+01
  rms(prec ) = 0.36677E+01
  weight for this iteration     100.00

 eigenvalues of (default mixing * dielectric matrix)
  average eigenvalue GAMMA=   0.3866
  1.6115  0.5424  0.5424  0.3400  0.3400  0.2925  0.1306  0.1306  0.1156  0.1156
  0.0915

 Free energy of the ion-electron system (eV)
  ---------------------------------------------------
  alpha Z        PSCENC =      2684.99175279
  Ewald energy   TEWEN  =    241989.76998717
  -Hartree energ DENC   =   -404543.70401107
  -exchange      EXHF   =         0.00000000
  -V(xc)+E(xc)   XCENC  =      4830.76337202
  PAW double counting   =    177269.79891885  -183953.78108731
  entropy T*S    EENTRO =        -1.29636900
  eigenvalues    EBANDS =    -20096.21348494
  atomic energy  EATOM  =    181336.80673834
  Solvation  Ediel_sol  =         0.00000000
  ---------------------------------------------------
  free energy    TOTEN  =      -482.86418314 eV

  energy without entropy =     -481.56781414  energy(sigma->0) =     -482.21599864


--------------------------------------------------------------------------------------------------------




--------------------------------------- Iteration      1(  17)  ---------------------------------------


    POTLOK:  cpu time    0.0913: real time    0.0916
    SETDIJ:  cpu time    0.0058: real time    0.0058
     EDDAV:  cpu time    6.9358: real time    6.9522
       DOS:  cpu time    0.0035: real time    0.0035
    CHARGE:  cpu time    0.1692: real time    0.1696
    MIXING:  cpu time    0.0045: real time    0.0045
    --------------------------------------------
      LOOP:  cpu time    7.2101: real time    7.2272

 eigenvalue-minimisations  :  1688
 total energy-change (2. order) : 0.1811457E+01  (-0.5493953E+00)
 number of electron    1056.0000217 magnetization 
 augmentation part      417.1828685 magnetization 

 Broyden mixing:
  rms(total) = 0.26128E+01    rms(broyden)= 0.26120E+01
  rms(prec ) = 0.29414E+01
  weight for this iteration     100.00

 eigenvalues of (default mixing * dielectric matrix)
  average eigenvalue GAMMA=   0.4183
  1.7021  0.7107  0.7107  0.4158  0.4158  0.3147  0.1336  0.1336  0.1396  0.1396
  0.1124  0.0915

 Free energy of the ion-electron system (eV)
  ---------------------------------------------------
  alpha Z        PSCENC =      2684.99175279
  Ewald energy   TEWEN  =    241989.76998717
  -Hartree energ DENC   =   -404557.55867264
  -exchange      EXHF   =         0.00000000
  -V(xc)+E(xc)   XCENC  =      4831.59943007
  PAW double counting   =    176836.72004952  -183515.31033704
  entropy T*S    EENTRO =        -1.43895451
  eigenvalues    EBANDS =    -20086.63271962
  atomic energy  EATOM  =    181336.80673834
  Solvation  Ediel_sol  =         0.00000000
  ---------------------------------------------------
  free energy    TOTEN  =      -481.05272593 eV

  energy without entropy =     -479.61377141  energy(sigma->0) =     -480.33324867


--------------------------------------------------------------------------------------------------------




--------------------------------------- Iteration      1(  18)  ---------------------------------------


    POTLOK:  cpu time    0.0914: real time    0.0917
    SETDIJ:  cpu time    0.0058: real time    0.0058
     EDDAV:  cpu time    6.9212: real time    6.9376
       DOS:  cpu time    0.0037: real time    0.0037
    CHARGE:  cpu time    0.1687: real time    0.1691
    MIXING:  cpu time    0.0046: real time    0.0046
    --------------------------------------------
      LOOP:  cpu time    7.1954: real time    7.2124

 eigenvalue-minimisations  :  1688
 total energy-change (2. order) : 0.2355462E+00  (-0.2422633E+00)
 number of electron    1056.0000227 magnetization 
 augmentation part      418.0057668 magnetization 

 Broyden mixing:
  rms(total) = 0.23508E+01    rms(broyden)= 0.23502E+01
  rms(prec ) = 0.27518E+01
  weight for this iteration     100.00

 eigenvalues of (default mixing * dielectric matrix)
  average eigenvalue GAMMA=   0.4532
  1.8063  0.9767  0.9767  0.4394  0.4394  0.3362  0.1682  0.1682  0.1301  0.1301
  0.1144  0.1144  0.0917

 Free energy of the ion-electron system (eV)
  ---------------------------------------------------
  alpha Z        PSCENC =      2684.99175279
  Ewald energy   TEWEN  =    241989.76998717
  -Hartree energ DENC   =   -404530.04272749
  -exchange      EXHF   =         0.00000000
  -V(xc)+E(xc)   XCENC  =      4831.52740373
  PAW double counting   =    176658.26388276  -183331.97851173
  entropy T*S    EENTRO =        -1.50749948
  eigenvalues    EBANDS =    -20118.64820586
  atomic energy  EATOM  =    181336.80673834
  Solvation  Ediel_sol  =         0.00000000
  ---------------------------------------------------
  free energy    TOTEN  =      -480.81717976 eV

  energy without entropy =     -479.30968028  energy(sigma->0) =     -480.06343002


--------------------------------------------------------------------------------------------------------




--------------------------------------- Iteration      1(  19)  ---------------------------------------


    POTLOK:  cpu time    0.0911: real time    0.0913
    SETDIJ:  cpu time    0.0058: real time    0.0058
     EDDAV:  cpu time    6.9965: real time    7.0131
       DOS:  cpu time    0.0035: real time    0.0035
[...]
   -.484E+03 -.658E+02 -.466E+04   0.479E+03 0.654E+02 0.465E+04   0.408E+01 0.838E+00 0.398E+01   0.216E+00 -.371E-02 0.197E+00
   -.381E+03 -.239E+03 0.451E+04   0.383E+03 0.241E+03 -.451E+04   -.164E+01 -.168E+01 0.558E+01   -.103E+00 0.805E-01 0.833E-01
   0.393E+03 -.254E+03 0.533E+03   -.394E+03 0.254E+03 -.534E+03   0.103E+01 -.571E+00 0.396E+00   0.144E-01 0.583E-01 -.115E+00
   0.396E+03 -.247E+03 -.253E+04   -.397E+03 0.248E+03 0.253E+04   0.131E+01 -.799E+00 0.795E+00   0.682E-01 0.727E-01 0.446E+00
   0.258E+03 -.160E+03 -.527E+04   -.260E+03 0.161E+03 0.527E+04   0.123E+01 -.676E+00 0.554E+01   0.156E+00 0.635E-02 0.181E+00
   0.433E+03 -.268E+03 0.363E+04   -.435E+03 0.269E+03 -.364E+04   0.159E+01 -.982E+00 0.400E+01   0.300E-01 -.185E-01 -.162E+00
   -.157E+03 0.462E+03 -.466E+04   0.156E+03 -.458E+03 0.465E+04   0.115E+01 -.402E+01 0.398E+01   -.379E-01 -.543E-01 0.268E+00
   0.426E+02 0.448E+03 0.451E+04   -.434E+02 -.451E+03 -.451E+04   0.769E+00 0.222E+01 0.558E+01   -.118E+00 0.564E-01 0.833E-01
   0.770E+01 0.506E+03 0.160E+04   -.824E+01 -.507E+03 -.161E+04   0.487E+00 0.897E+00 0.122E+01   0.478E-01 0.458E-01 -.218E+00
   0.221E+02 0.527E+03 -.147E+04   -.223E+02 -.528E+03 0.146E+04   0.259E+00 0.859E+00 0.143E+01   0.117E+00 0.436E-01 0.311E+00
   -.417E+03 -.256E+03 0.162E+04   0.418E+03 0.256E+03 -.162E+04   -.665E+00 -.703E+00 0.177E+01   0.770E-01 0.124E+00 -.378E+00
   -.442E+03 -.234E+03 -.149E+04   0.443E+03 0.234E+03 0.148E+04   -.648E+00 -.675E+00 0.164E+01   0.478E-01 0.509E-01 0.347E+00
   -.484E+03 -.667E+02 -.466E+04   0.479E+03 0.663E+02 0.465E+04   0.411E+01 0.771E+00 0.398E+01   0.315E-01 0.582E-01 0.268E+00
   -.629E+03 -.417E+03 0.459E+04   0.623E+03 0.415E+03 -.460E+04   0.519E+01 0.158E+01 0.589E+01   0.273E-01 0.649E-01 0.116E+00
   0.415E+03 -.256E+03 0.565E+03   -.416E+03 0.257E+03 -.565E+03   0.116E+01 -.714E+00 0.534E+00   -.119E+00 0.732E-01 -.131E+00
   0.418E+03 -.258E+03 -.260E+04   -.419E+03 0.259E+03 0.260E+04   0.106E+01 -.652E+00 0.760E+00   -.864E-01 0.533E-01 0.435E+00
   0.424E+03 -.262E+03 -.532E+04   -.416E+03 0.257E+03 0.531E+04   -.804E+01 0.496E+01 0.105E+02   0.266E-01 -.164E-01 0.149E+00
   0.434E+03 -.267E+03 0.365E+04   -.436E+03 0.268E+03 -.366E+04   0.200E+01 -.107E+01 0.400E+01   0.709E-01 -.319E-03 -.134E+00
   0.660E+02 0.554E+03 -.456E+04   -.637E+02 -.553E+03 0.456E+04   -.182E+01 -.121E+01 -.396E+00   0.768E-01 0.300E+00 0.333E+00
   0.282E+03 0.309E+03 0.461E+04   -.281E+03 -.310E+03 -.461E+04   -.312E+00 0.108E+01 0.469E+01   -.163E-01 0.169E+00 0.391E-02
   0.417E+02 0.488E+03 0.162E+04   -.419E+02 -.488E+03 -.162E+04   0.330E+00 0.910E+00 0.177E+01   -.766E-01 -.125E+00 -.378E+00
   0.107E+02 0.500E+03 -.149E+04   -.108E+02 -.501E+03 0.148E+04   0.313E+00 0.882E+00 0.164E+01   -.241E-01 -.655E-01 0.347E+00
   -.471E+03 -.279E+03 0.164E+04   0.472E+03 0.280E+03 -.165E+04   -.911E+00 -.929E+00 0.136E+01   0.131E-01 0.230E-01 -.200E+00
   -.461E+03 -.263E+03 -.146E+04   0.462E+03 0.264E+03 0.146E+04   -.691E+00 -.666E+00 0.141E+01   0.467E-01 0.252E-01 0.365E+00
   -.465E+03 -.308E+03 -.456E+04   0.465E+03 0.306E+03 0.456E+04   0.292E+00 0.218E+01 -.450E+00   -.164E+00 -.157E-01 0.317E+00
   -.149E+03 -.391E+03 0.461E+04   0.151E+03 0.391E+03 -.461E+04   -.110E+01 -.205E+00 0.469E+01   -.158E+00 -.612E-01 0.391E-02
   -.119E+03 0.764E+02 0.236E+03   0.121E+03 -.776E+02 -.238E+03   -.174E+01 0.126E+01 0.156E+01   -.211E-01 -.335E-01 -.243E-02
   -.118E+03 0.731E+02 -.917E+03   0.120E+03 -.743E+02 0.914E+03   -.208E+01 0.130E+01 0.222E+01   -.716E-01 -.217E-01 0.215E+00
   -.138E+03 0.851E+02 0.206E+04   0.139E+03 -.859E+02 -.207E+04   -.167E+01 0.103E+01 0.532E+01   -.808E-02 0.499E-02 0.516E-01
   -.178E+03 0.110E+03 0.142E+04   0.181E+03 -.112E+03 -.142E+04   -.156E+01 0.961E+00 0.110E+01   0.276E-02 -.170E-02 -.647E-01
   -.212E+02 -.191E+03 -.139E+04   0.211E+02 0.195E+03 0.139E+04   0.498E+00 -.334E+01 0.144E+01   -.155E-01 -.407E-01 0.213E+00
   0.297E+01 -.166E+03 -.247E+03   -.287E+01 0.168E+03 0.247E+03   -.100E+00 -.261E+01 -.122E+00   0.233E-01 -.367E-01 0.671E-01
   0.443E+02 -.688E+02 0.201E+04   -.461E+02 0.690E+02 -.202E+04   0.241E+01 -.267E+00 0.601E+01   0.220E-01 -.117E-01 0.574E-01
   -.163E+02 -.176E+03 0.921E+03   0.164E+02 0.180E+03 -.921E+03   -.166E-01 -.306E+01 0.454E+00   0.132E-01 -.209E-01 -.112E+00
   0.103E+03 -.418E+02 0.202E+04   -.103E+03 0.432E+02 -.202E+04   0.989E+00 -.161E+01 0.569E+01   -.187E-01 0.575E-03 0.405E-01
   0.147E+03 0.764E+02 0.901E+03   -.150E+03 -.774E+02 -.902E+03   0.285E+01 0.103E+01 0.664E+00   0.120E-01 -.196E-01 -.119E+00
   0.149E+03 0.716E+02 -.247E+03   -.152E+03 -.729E+02 0.247E+03   0.229E+01 0.126E+01 -.122E+00   0.432E-01 -.438E-02 0.671E-01
   0.149E+03 0.561E+02 -.140E+04   -.152E+03 -.571E+02 0.140E+04   0.274E+01 0.122E+01 0.160E+01   -.307E-02 -.735E-01 0.674E-01
   -.125E+03 0.774E+02 0.244E+03   0.127E+03 -.785E+02 -.246E+03   -.169E+01 0.104E+01 0.180E+01   -.489E-01 0.302E-01 0.219E-01
   -.128E+03 0.793E+02 -.952E+03   0.130E+03 -.805E+02 0.951E+03   -.165E+01 0.102E+01 0.223E+01   -.249E-01 0.154E-01 0.170E+00
   -.781E+02 0.936E+02 0.207E+04   0.788E+02 -.943E+02 -.207E+04   -.107E+01 0.437E+00 0.540E+01   -.268E-01 -.868E-02 0.552E-01
   -.118E+03 0.102E+03 0.139E+04   0.120E+03 -.103E+03 -.139E+04   -.162E+01 0.726E+00 0.145E+01   -.292E-01 -.329E-01 -.630E-01
   -.251E+02 0.157E+02 -.201E+04   0.254E+02 -.158E+02 0.201E+04   -.102E+01 0.627E+00 -.354E+01   0.931E-02 0.272E-01 0.253E-01
   0.166E+02 -.158E+03 -.140E+04   -.168E+02 0.161E+03 0.140E+04   0.142E+00 -.300E+01 0.160E+01   0.644E-01 0.357E-01 0.674E-01
   0.119E+01 -.173E+03 -.244E+03   -.128E+01 0.176E+03 0.244E+03   0.811E-01 -.290E+01 -.182E+00   -.237E-01 -.233E-02 0.455E-01
   0.301E+02 -.171E+03 0.949E+03   -.300E+02 0.173E+03 -.949E+03   -.337E+00 -.247E+01 -.644E+00   0.170E-01 0.352E-01 -.243E+00
   0.814E+02 -.881E+01 0.201E+04   -.823E+02 0.103E+02 -.202E+04   0.132E+01 -.203E+01 0.601E+01   0.203E-01 -.145E-01 0.574E-01
   0.150E+03 0.937E+02 0.921E+03   -.153E+03 -.951E+02 -.921E+03   0.273E+01 0.139E+01 0.454E+00   0.246E-01 -.247E-02 -.112E+00
   0.156E+03 0.812E+02 -.239E+03   -.159E+03 -.824E+02 0.239E+03   0.249E+01 0.119E+01 0.885E-01   0.709E-02 -.340E-01 0.539E-01
   0.162E+03 0.105E+03 -.139E+04   -.165E+03 -.107E+03 0.139E+04   0.321E+01 0.917E+00 0.135E+01   0.738E-01 -.235E-01 0.186E+00
   -.118E+03 0.727E+02 0.228E+03   0.120E+03 -.738E+02 -.230E+03   -.178E+01 0.110E+01 0.213E+01   0.330E-01 -.204E-01 -.414E-02
   -.128E+03 0.793E+02 -.955E+03   0.130E+03 -.805E+02 0.954E+03   -.175E+01 0.108E+01 0.217E+01   0.167E-01 -.103E-01 0.171E+00
   -.119E+03 0.278E+02 0.207E+04   0.120E+03 -.281E+02 -.207E+04   -.872E+00 0.765E+00 0.540E+01   -.424E-02 0.278E-01 0.552E-01
   -.144E+03 0.601E+02 0.139E+04   0.146E+03 -.611E+02 -.139E+04   -.138E+01 0.113E+01 0.145E+01   0.163E-01 0.408E-01 -.630E-01
   -.253E+02 0.155E+02 -.201E+04   0.255E+02 -.156E+02 0.201E+04   -.102E+01 0.634E+00 -.354E+01   -.202E-01 -.205E-01 0.253E-01
   0.177E+02 -.159E+03 -.140E+04   -.179E+02 0.162E+03 0.140E+04   0.144E+00 -.304E+01 0.163E+01   0.317E-01 0.974E-01 0.163E+00
   -.248E+01 -.176E+03 -.239E+03   0.239E+01 0.179E+03 0.239E+03   0.558E-01 -.276E+01 0.885E-01   0.336E-01 0.891E-02 0.539E-01
   0.833E+02 -.730E+02 0.202E+04   -.850E+02 0.731E+02 -.202E+04   0.188E+01 -.163E+00 0.569E+01   -.891E-02 0.165E-01 0.405E-01
   -.232E+01 -.166E+03 0.901E+03   0.198E+01 0.169E+03 -.902E+03   0.356E+00 -.301E+01 0.664E+00   0.229E-01 -.197E-02 -.119E+00
   0.141E+03 -.455E+02 0.202E+04   -.142E+03 0.474E+02 -.202E+04   0.944E+00 -.193E+01 0.592E+01   -.839E-01 -.599E-01 0.708E-01
   0.161E+03 0.682E+02 0.905E+03   -.164E+03 -.694E+02 -.906E+03   0.250E+01 0.106E+01 0.710E+00   -.342E-02 0.373E-01 -.136E+00
   0.156E+03 0.766E+02 -.244E+03   -.158E+03 -.779E+02 0.244E+03   0.263E+01 0.123E+01 -.182E+00   -.854E-02 0.222E-01 0.455E-01
   0.161E+03 0.105E+03 -.139E+04   -.165E+03 -.106E+03 0.139E+04   0.321E+01 0.105E+01 0.144E+01   0.295E-01 0.321E-01 0.213E+00
   -.122E+03 0.721E+02 0.236E+03   0.124E+03 -.731E+02 -.238E+03   -.190E+01 0.992E+00 0.156E+01   0.205E-01 0.339E-01 -.243E-02
   -.118E+03 0.731E+02 -.917E+03   0.120E+03 -.743E+02 0.914E+03   -.210E+01 0.127E+01 0.222E+01   -.127E-01 0.738E-01 0.215E+00
   -.356E+02 0.220E+02 0.205E+04   0.363E+02 -.224E+02 -.206E+04   -.133E+01 0.821E+00 0.552E+01   -.587E-01 0.363E-01 0.158E+00
   -.109E+03 0.673E+02 0.139E+04   0.111E+03 -.683E+02 -.139E+04   -.158E+01 0.978E+00 0.748E+00   -.105E+00 0.651E-01 -.202E+00
   -.217E+02 -.192E+03 -.139E+04   0.214E+02 0.195E+03 0.139E+04   0.619E+00 -.328E+01 0.135E+01   0.541E-01 -.554E-01 0.186E+00
   0.916E+01 -.168E+03 -.244E+03   -.928E+01 0.171E+03 0.244E+03   0.859E-01 -.272E+01 0.172E+00   0.260E-01 0.101E+00 0.115E+00
   0.104E+03 -.106E+03 0.202E+04   -.106E+03 0.106E+03 -.202E+04   0.215E+01 0.202E-01 0.592E+01   0.159E-01 0.102E+00 0.708E-01
   0.113E+02 -.175E+03 0.905E+03   -.114E+02 0.178E+03 -.906E+03   0.176E+00 -.271E+01 0.710E+00   -.349E-01 -.137E-01 -.136E+00
   0.166E+03 0.497E+02 0.949E+03   -.168E+03 -.508E+02 -.949E+03   0.206E+01 0.141E+01 -.644E+00   -.238E-01 -.310E-01 -.243E+00
   0.155E+03 0.673E+02 -.244E+03   -.157E+03 -.684E+02 0.244E+03   0.247E+01 0.114E+01 0.172E+00   -.783E-01 -.683E-01 0.115E+00
   0.150E+03 0.555E+02 -.140E+04   -.153E+03 -.565E+02 0.140E+04   0.278E+01 0.123E+01 0.163E+01   -.728E-01 -.720E-01 0.163E+00
 -----------------------------------------------------------------------------------------------
   -.230E+02 0.142E+02 -.219E+03   -.125E-11 0.204E-11 -.455E-12   0.226E+02 -.140E+02 0.213E+03   0.347E+00 -.214E+00 0.625E+01
 
 
 POSITION                                       TOTAL-FORCE (eV/Angst)
 -----------------------------------------------------------------------------------
      2.62560      6.70560      5.50842         0.063627     -0.039278     -0.036453
      3.57110      6.12193      8.44448        -0.064946      0.040092      0.214832
      4.51660      5.53827     11.38054         0.288911     -0.178348     -1.743384
      1.68010      1.66104      2.57236        -0.214719      0.128194     -0.327156
      0.56471      0.86257     10.60481         0.605890     -0.057854     -0.434580
      2.75962      5.13586      1.79664        -0.228309     -0.378233     -0.492572
      3.70512      4.55219      4.73270        -0.063523      0.208187      0.076308
      4.65062      3.96852      7.66876         0.184263     -0.124191      0.111076
      0.00304      4.18332      4.73270        -0.100367     -0.048415      0.033029
      0.94854      3.59965      7.66876         0.122367     -0.092708      0.008996
      1.89404      3.01598     10.60481         0.321419     -0.518157     -0.448430
      4.08895      7.28927      1.79664         0.235808      0.373604     -0.492572
      7.65701      9.22789      5.50842         0.172185     -0.096589     -0.083106
      8.60251      8.64422      8.44448         0.081681     -0.057695      0.059220
      9.54801      8.06055     11.38054        -0.993907      0.629098     -1.318647
      6.71151      4.18332      2.57236        -0.050365      0.031091      0.947989
      5.59612      3.38485     10.60481        -0.468457      0.054686     -1.462226
      7.79103      7.65814      1.79664         0.081501      0.787161     -0.214336
      8.73653      7.07447      4.73270         0.058102      0.123717     -0.044775
      9.68203      6.49080      7.66876         0.139711     -0.057206      0.014688
      5.03445      6.70560      4.73270        -0.214579     -0.036512      0.076308
      5.97995      6.12193      7.66876         0.193598     -0.109068      0.111076
      6.92545      5.53827     10.60481        -0.258826      0.394274     -1.462226
      9.12036      9.81155      1.79664         0.337964      0.327118     -0.668302
      2.62560     12.33384      5.50842         0.163511     -0.110640     -0.083106
      3.57110     11.75017      8.44448         0.088183     -0.047164      0.059220
      4.51660     11.16650     11.38054        -1.007805      0.606583     -1.318647
      1.68010      7.28927      2.57236        -0.167116      0.103163     -0.447122
      0.56471      6.49080     10.60481        -0.488793      0.063763     -1.453340
      2.75962     10.76409      1.79664        -0.140972     -0.448723     -0.668302
      3.70512     10.18042      4.73270        -0.001698      0.111421      0.033029
      4.65062      9.59675      7.66876         0.137716     -0.067844      0.008996
      0.00304      9.81155      4.73270        -0.054832     -0.034738     -0.092584
      0.94854      9.22789      7.66876         0.129581     -0.112255      0.101372
      1.89404      8.64422     10.60481        -0.276053      0.408385     -1.453340
      4.08895     12.91750      1.79664        -0.667166     -0.425623     -0.214336
      7.65701     14.85612      5.50842         0.015644     -0.009657     -0.256837
      8.60251     14.27245      8.44448        -0.053134      0.032800      0.223199
      9.54801     13.68878     11.38054         0.289297     -0.178587     -1.775956
      6.71151      9.81155      2.57236        -0.210826      0.134500     -0.327156
      5.59612      9.01308     10.60481         0.607254     -0.055124     -0.448430
      7.79103     13.28637      1.79664         0.745022     -0.294276     -0.466448
      8.73653     12.70270      4.73270         0.006481      0.064585     -0.092584
      9.68203     12.11903      7.66876         0.158423     -0.065534      0.101372
      5.03445     12.33384      4.73270        -0.084559     -0.107384     -0.044775
      5.97995     11.75017      7.66876         0.113752     -0.099259      0.014688
      6.92545     11.16650     10.60481         0.323247     -0.515714     -0.434580
      9.12036     15.43979      1.79664         0.596951     -0.534140     -0.466448
      0.73335      2.24548      5.87212        -0.013730     -0.058980      0.046448
      1.67886      1.66181      8.80817        -0.149720      0.066202     -0.043960
      3.87376      5.93510      0.00000        -0.237611      0.146680      1.053280
      4.81926      5.35143      2.93606         0.670495     -0.413905     -0.828656
      0.30423      4.40389      9.79595         0.359297      0.008870      1.194729
      4.39014      7.50984      6.85989         0.027449      0.055267      0.134245
      2.49914      3.04894      0.98778         0.667241     -0.073817      0.447611
      3.44464      2.46527      3.92384         0.051402      0.053474     -0.242662
      0.80642      5.93510      0.98778         0.109474     -0.157505      0.561545
      1.75192      5.35143      3.92384         0.032459     -0.016720     -0.146966
      2.69743      4.76776      6.85989        -0.037106     -0.049306      0.134245
      3.64293      4.18409      9.79595         0.117436      0.136712      1.382199
      5.76476      4.76776      5.87212        -0.005521      0.003408      0.007351
      6.71027      4.18409      8.80817         0.213113     -0.131557      0.967477
      8.90517      8.45738      0.00000        -0.420746     -0.276380      1.215552
      9.85067      7.87371      2.93606        -0.130126     -0.137293     -0.349572
      7.65577      9.22865     11.74423        -0.773033      0.480301      0.029810
      5.33564      6.92617      9.79595        -0.069586     -0.166250      1.382199
      9.42155     10.03212      6.85989        -0.031838     -0.004158      0.063697
      8.47605      4.98755      3.92384        -0.221974      0.012049     -1.026538
      5.83783      8.45738      0.98778         0.365012     -0.563405      0.447611
      6.78333      7.87371      3.92384        -0.024768     -0.069916     -0.242662
      7.72884      7.29004      6.85989        -0.013847     -0.011867      0.089736
      8.67434      6.70637      9.79595         0.147064     -0.334946      1.154066
      0.73335      7.87371      5.87212         0.086118     -0.053162     -0.035423
      1.67886      7.29004      8.80817         0.212353     -0.131088      0.999223
      3.87376     11.56333      0.00000         0.058516      0.499989      1.215552
      4.81926     10.97966      2.93606         0.064418      0.177855     -0.349572
      2.62436     12.33460     11.74423        -0.775803      0.475814      0.029810
      0.30423     10.03212      9.79595        -0.021074     -0.173653      1.426232
      4.39014     13.13807      6.85989         0.004403      0.017697      0.089736
      2.49914      8.67717      0.98778         0.189863     -0.027280      0.561545
      3.44464      8.09350      3.92384         0.029493     -0.021524     -0.146966
      0.80642     11.56333      0.98778        -0.412738     -0.146338      0.537668
      1.75192     10.97966      3.92384        -0.009815     -0.067809     -0.112294
      2.69743     10.39599      6.85989        -0.010552      0.030325      0.063697
      3.64293      9.81232      9.79595         0.153089     -0.325172      1.194729
      5.76476     10.39599      5.87212         0.046573      0.038705      0.046448
      6.71027      9.81232      8.80817        -0.126278      0.104175     -0.043960
      8.90517     14.08561      0.00000        -0.713664      0.440554      1.812437
      9.85067     13.50194      2.93606        -0.173099      0.106856      0.092450
      5.33564     12.55440      9.79595         0.365335      0.018637      1.154066
      9.42155     15.66035      6.85989        -0.013120      0.075763      0.143062
      7.53055     11.19946      0.98778        -0.054148      0.434552      0.537668
      8.47605     10.61579      3.92384         0.056220      0.039163     -0.112294
      6.78333     13.50194      3.92384        -0.110248      0.193036     -1.026538
      7.72884     12.91827      6.85989        -0.073608     -0.022224      0.143062
      8.67434     12.33460      9.79595         0.145794      0.096661      1.426232
 -----------------------------------------------------------------------------------
    total drift:                                0.002846     -0.012809      0.083513


--------------------------------------------------------------------------------------------------------



  FREE ENERGIE OF THE ION-ELECTRON SYSTEM (eV)
  ---------------------------------------------------
  free  energy   TOTEN  =      -477.31844651 eV

  energy  without entropy=     -475.94898286  energy(sigma->0) =     -476.63371469
 


--------------------------------------------------------------------------------------------------------


    POTLOK:  cpu time    0.0978: real time    0.0980


--------------------------------------------------------------------------------------------------------


     LOOP+:  cpu time  279.0784: real time  279.8543
    4ORBIT:  cpu time    0.0000: real time    0.0000

 total amount of memory used by VASP MPI-rank0    51435. kBytes
=======================================================================

   base      :      30000. kBytes
   nonlr-proj:       3322. kBytes
   fftplans  :       4386. kBytes
   grid      :       7756. kBytes
   one-center:        124. kBytes
   wavefun   :       5847. kBytes
 
  
  
 General timing and accounting informations for this job:
 ========================================================
  
                  Total CPU time used (sec):      282.224
                            User time (sec):      281.402
                          System time (sec):        0.822
                         Elapsed time (sec):      283.424
  
                   Maximum memory used (kb):      270212.
                   Average memory used (kb):           0.
  
                          Minor page faults:        85924
                          Major page faults:            0
                 Voluntary context switches:         1082
