
72 atoms
2 atom types
   0.0000000000   11.4527836705 xlo xhi
   0.0000000000    8.7007307979 ylo yhi
   0.0000000000   20.5007628560 zlo zhi
  -4.0053990701    0.0000000000    0.0000000000 xy xz yz

Atoms # atomic

     1      1    6.3498294782    0.6471180538    7.1632766569
     2      1    8.0708222517    1.4393805677    4.6601620083
     3      1    9.7918150136    2.2316430815    2.1570473596
     4      1    0.6234376421    8.5555863465    9.6663913056
     5      1   -2.8082971717    6.9757802645    5.4945335647
     6      1   -1.0873044057    7.7680427697    2.9914189160
     7      1    0.6336883563    8.5603052836    0.4883042673
     8      1    6.9234937368    6.1835177507    7.9976482133
     9      1    0.0497733950    3.0191866496    8.8320197492
    10      1    1.7707661570    3.8114491635    6.3289051210
    11      1    3.4917589230    4.6037116687    3.8257904724
    12      1    5.2127516850    5.3959741825    1.3226758237
    13      1    2.5123357812    0.2734965619    8.3437154819
    14      1    4.2333285432    1.0657590758    5.8406008332
    15      1    5.9543213206    1.8580215810    3.3374862050
    16      1    7.6753140826    2.6502840948    0.8343715564
    17      1   -3.2038053408    8.1866837917    1.6687430923
    18      1    3.0860000398    5.8098962588    9.1780870382
    19      1    4.8069928017    6.6021587726    6.6749723896
    20      1    6.5279855677    7.3944212778    4.1718577409
    21      1   -0.3457347741    4.2300901768    5.0062292973
    22      1    1.3752579879    5.0223526907    2.5031146487
    23      1    3.0962507539    5.8146151958    0.0000000000
    24      1    7.6650633684    2.6455651578   10.0124585946
    25      1    9.3860561304    3.4378276716    7.5093439460
    26      1    3.5705862455    2.1536408298    9.6663913056
    27      1    5.2915790115    2.9459033350    7.1632766569
    28      1    7.0125717849    3.7381658488    4.6601620083
    29      1    0.1388514317    0.5738347478    5.4945335647
    30      1    1.8598441977    1.3660972530    2.9914189160
    31      1    3.5808369597    2.1583597669    0.4883042673
    32      1    5.8652432701    8.4823030318    7.9976482133
    33      1   -1.0084770717    5.3179719308    8.8320197492
    34      1    0.7125156903    6.1102344447    6.3289051210
    35      1    2.4335084562    6.9024969499    3.8257904724
    36      1    4.1545012182    7.6947594637    1.3226758237
    37      2    1.4043655511    1.5372042152    9.8548274500
    38      2    3.1253583171    2.3294667204    7.3517128013
    39      2    4.8463510791    3.1217292343    4.8485981527
    40      2    6.5673438451    3.9139917394    2.3454835040
    41      2   -0.3063764967    0.7496606384    3.1798550604
    42      2    1.4146162653    1.5419231523    0.6767404118
    43      2    3.6990225757    7.8658664173    8.1860843577
    44      2    5.4200153376    8.6581289311    5.6829697091
    45      2   -1.4537050116    5.4937978214    6.5173412450
    46      2    0.2672877504    6.2860603353    4.0142265963
    47      2    1.9882805278    7.0783228405    1.5111119476
    48      2    8.2780858929    4.7015353162    9.0204558936
    49      2   -0.4693742431    4.1731725017    1.5266145835
    50      2    5.8204311374    1.7963849688    9.0359585295
    51      2    7.5414238994    2.5886474827    6.5328438808
    52      2    9.2624166654    3.3809099879    4.0297292322
    53      2    2.3886963236    0.2165788868    4.8641007681
    54      2    4.1096890856    1.0088414007    2.3609861194
    55      2   -3.3376955085    8.1250471709    7.3672154167
    56      2    6.3940953845    7.3327846657    9.8703300654
    57      2    1.2413678087    4.9607160698    8.2015869731
    58      2    2.9623605707    5.7529785837    5.6984723244
    59      2    4.6833533367    6.5452410889    3.1953576758
    60      2    6.4043460987    7.3375036027    0.6922430271
    61      2    6.1938874882    0.1945423719    4.8485981527
    62      2    7.9148802542    0.9868048771    2.3454835040
    63      2   -1.2534971099    7.3107481508    9.8548274500
    64      2    0.4674956561    8.1030106559    7.3517128013
    65      2   -2.9642391577    6.5232045740    3.1798550604
    66      2   -1.2432463957    7.3154670878    0.6767404118
    67      2    5.0465589848    4.9386795549    8.1860843577
    68      2    6.7675517468    5.7309420688    5.6829697091
    69      2   -0.1061686024    2.5666109591    6.5173412450
    70      2    1.6148241596    3.3588734730    4.0142265963
    71      2    3.3358169370    4.1511359781    1.5111119476
    72      2    9.6256223020    1.7743484539    9.0204558936
