 vasp.5.4.4.18Apr17-6-g9f103f2a35 (build Aug 13 2019 17:33:20) gamma-only       
  
 executed on             LinuxIFC date 2020.05.12  22:46:24
 running on   12 total cores
 distrk:  each k-point on   12 cores,    1 groups
 distr:  one band on NCORES_PER_BAND=   6 cores,    2 groups


--------------------------------------------------------------------------------------------------------


 INCAR:
 POTCAR:    PAW_PBE Ni_pv 06Sep2000               
 POTCAR:    PAW_PBE S 06Sep2000                   
 POTCAR:    PAW_PBE Ni_pv 06Sep2000               
   VRHFIN =Ni:                                                                  
   LEXCH  = PE                                                                  
   EATOM  =  3501.1230 eV,  257.3253 Ry                                         
                                                                                
   TITEL  = PAW_PBE Ni_pv 06Sep2000                                             
   LULTRA =        F    use ultrasoft PP ?                                      
   IUNSCR =        1    unscreen: 0-lin 1-nonlin 2-no                           
   RPACOR =    1.500    partial core radius                                     
   POMASS =   58.690; ZVAL   =   16.000    mass and valenz                      
   RCORE  =    2.000    outmost cutoff radius                                   
   RWIGS  =    2.000; RWIGS  =    1.058    wigner-seitz radius (au A)           
   ENMAX  =  367.986; ENMIN  =  275.989 eV                                      
   RCLOC  =    1.301    cutoff for local pot                                    
   LCOR   =        T    correct aug charges                                     
   LPAW   =        T    paw PP                                                  
   EAUG   =  703.443                                                            
   DEXC   =    0.000                                                            
   RMAX   =    2.041    core radius for proj-oper                               
   RAUG   =    1.300    factor for augmentation sphere                          
   RDEP   =    2.103    radius for radial grids                                 
   RDEPT  =    1.618    core radius for aug-charge                              
                                                                                
   Atomic configuration                                                         
    8 entries                                                                   
     n  l   j            E        occ.                                          
     1  0  0.50     -8206.4253   2.0000                                         
     2  0  0.50      -976.1748   2.0000                                         
     2  1  1.50      -839.0571   6.0000                                         
     3  0  0.50      -105.9991   2.0000                                         
     3  1  1.50       -66.4603   6.0000                                         
     3  2  2.50        -4.6458   9.0000                                         
     4  0  0.50        -4.4926   1.0000                                         
     4  3  2.50        -1.3606   0.0000                                         
   Description                                                                  
     l       E           TYP  RCUT    TYP  RCUT                                 
     1    -66.4602962     23  1.700                                             
     1     -1.3605826     23  1.700                                             
     2     -4.6457867     23  2.000                                             
     2     -6.0063693     23  2.000                                             
     0     -4.4925576     23  1.900                                             
     0     16.3626226     23  1.900                                             
  local pseudopotential read in
  partial core-charges read in
  partial kinetic energy density read in
  atomic valenz-charges read in
  non local Contribution for L=           1  read in
    real space projection operators read in
  non local Contribution for L=           1  read in
    real space projection operators read in
  non local Contribution for L=           2  read in
    real space projection operators read in
  non local Contribution for L=           2  read in
    real space projection operators read in
  non local Contribution for L=           0  read in
    real space projection operators read in
  non local Contribution for L=           0  read in
    real space projection operators read in
    PAW grid and wavefunctions read in
 
   number of l-projection  operators is LMAX  =           6
   number of lm-projection operators is LMMAX =          18
 
 POTCAR:    PAW_PBE S 06Sep2000                   
   VRHFIN =S : s2p4                                                             
   LEXCH  = PE                                                                  
   EATOM  =   276.8230 eV,   20.3459 Ry                                         
                                                                                
   TITEL  = PAW_PBE S 06Sep2000                                                 
   LULTRA =        F    use ultrasoft PP ?                                      
   IUNSCR =        1    unscreen: 0-lin 1-nonlin 2-no                           
   RPACOR =    1.500    partial core radius                                     
   POMASS =   32.066; ZVAL   =    6.000    mass and valenz                      
   RCORE  =    1.900    outmost cutoff radius                                   
   RWIGS  =    2.200; RWIGS  =    1.164    wigner-seitz radius (au A)           
   ENMAX  =  258.689; ENMIN  =  194.016 eV                                      
   ICORE  =        2    local potential                                         
   LCOR   =        T    correct aug charges                                     
   LPAW   =        T    paw PP                                                  
   EAUG   =  335.092                                                            
   DEXC   =    0.000                                                            
   RMAX   =    1.942    core radius for proj-oper                               
   RAUG   =    1.300    factor for augmentation sphere                          
   RDEP   =    1.954    radius for radial grids                                 
   RDEPT  =    1.744    core radius for aug-charge                              
                                                                                
   Atomic configuration                                                         
    6 entries                                                                   
     n  l   j            E        occ.                                          
     1  0  0.50     -2405.8406   2.0000                                         
     2  0  0.50      -211.7007   2.0000                                         
     2  1  1.50      -156.4958   6.0000                                         
     3  0  0.50       -17.2562   2.0000                                         
     3  1  0.50        -7.0085   4.0000                                         
     3  2  1.50        -6.8029   0.0000                                         
   Description                                                                  
     l       E           TYP  RCUT    TYP  RCUT                                 
     0    -17.2561641     23  1.900                                             
     0    -15.8743224     23  1.900                                             
     1     -7.0085400     23  1.900                                             
     1     -2.7779785     23  1.900                                             
     2     -6.8029130     23  1.900                                             
  local pseudopotential read in
  partial core-charges read in
  partial kinetic energy density read in
  atomic valenz-charges read in
  non local Contribution for L=           0  read in
    real space projection operators read in
  non local Contribution for L=           0  read in
    real space projection operators read in
  non local Contribution for L=           1  read in
    real space projection operators read in
  non local Contribution for L=           1  read in
    real space projection operators read in
    PAW grid and wavefunctions read in
 
   number of l-projection  operators is LMAX  =           4
   number of lm-projection operators is LMMAX =           8
 
 Optimization of the real space projectors (new method)

 maximal supplied QI-value         = 18.90
 optimisation between [QCUT,QGAM] = [ 10.77, 21.73] = [ 32.49,132.25] Ry 
 Optimized for a Real-space Cutoff    1.38 Angstroem

   l    n(q)    QCUT    max X(q) W(low)/X(q) W(high)/X(q)  e(spline) 
   1      8    10.771     2.836    0.40E-04    0.29E-04    0.12E-06
   1      8    10.771     4.023    0.10E-03    0.48E-04    0.29E-06
   2      8    10.771    73.368    0.42E-03    0.97E-04    0.44E-06
   2      8    10.771    69.010    0.42E-03    0.99E-04    0.45E-06
   0      9    10.771    54.797    0.10E-03    0.56E-04    0.74E-07
   0      9    10.771    24.266    0.89E-04    0.49E-04    0.67E-07
 Optimization of the real space projectors (new method)

 maximal supplied QI-value         = 19.84
 optimisation between [QCUT,QGAM] = [ 10.71, 21.63] = [ 32.15,130.99] Ry 
 Optimized for a Real-space Cutoff    1.19 Angstroem

   l    n(q)    QCUT    max X(q) W(low)/X(q) W(high)/X(q)  e(spline) 
   0      8    10.715   187.594    0.41E-03    0.53E-04    0.66E-07
   0      8    10.715   164.243    0.41E-03    0.53E-04    0.65E-07
   1      7    10.715    67.533    0.19E-03    0.59E-03    0.68E-07
   1      7    10.715    50.729    0.19E-03    0.58E-03    0.67E-07
  PAW_PBE Ni_pv 06Sep2000               :
 energy of atom  1       EATOM=-3501.1230
 kinetic energy error for atom=    0.0925 (will be added to EATOM!!)
  PAW_PBE S 06Sep2000                   :
 energy of atom  2       EATOM= -276.8230
 kinetic energy error for atom=    0.0033 (will be added to EATOM!!)
 
 
 POSCAR: Type_036 Type_136                       
  positions in cartesian coordinates
  No initial velocities read in
 exchange correlation table for  LEXCH =        8
   RHO(1)=    0.500       N(1)  =     2000
   RHO(2)=  100.500       N(2)  =     4000
 


--------------------------------------------------------------------------------------------------------


 ion  position               nearest neighbor table
   1  0.397  0.795  0.118-  49 2.04  61 2.11  42 2.25  50 2.36  62 2.36  25 2.46
   2  0.547  0.645  0.245-  43 2.25  62 2.26  50 2.26  63 2.36  51 2.36  26 2.53  13 2.53
   3  0.698  0.494  0.372-  52 2.11  64 2.18  44 2.25  51 2.26  63 2.26  14 2.53  27 2.53
   4  0.114  0.412  0.160-  53 2.13  45 2.25  68 2.26   7 2.28  54 2.36  65 2.36  28 2.53  16 2.53

   5  0.264  0.261  0.287-  46 2.21  65 2.26  54 2.26  55 2.36  66 2.36  17 2.53  29 2.53
   6  0.414  0.111  0.414-  67 2.15  56 2.17  47 2.23  55 2.26  66 2.26  30 2.53  18 2.53
   7  0.993  0.595  0.094-  48 2.00  45 2.14  53 2.21   4 2.28  68 2.29  20 2.46
   8  0.104  0.805  0.446-  58 2.04  37 2.08  72 2.15  59 2.16
   9  0.705  0.212  0.138-  38 1.99  39 2.11  60 2.19  70 2.27  10 2.28  36 2.41
  10  0.831  0.028  0.203-  39 2.25  60 2.26  70 2.26   9 2.28  57 2.36  71 2.36  22 2.53  32 2.53

  11  0.981  0.878  0.330-  72 2.15  40 2.25  57 2.26  71 2.26  58 2.36  33 2.53  23 2.53
  12  0.363  0.553  0.104-  62 2.04  61 2.12  53 2.16  38 2.21
  13  0.508  0.420  0.212-  54 2.25  62 2.26  38 2.26  39 2.36  63 2.36  26 2.53   2 2.53
  14  0.658  0.270  0.338-  64 2.08  55 2.25  63 2.26  39 2.26  40 2.36   3 2.53  27 2.53
  15  0.783  0.115  0.447-  40 2.02  37 2.09  56 2.11  64 2.13
  16  0.074  0.187  0.127-  41 2.06  60 2.25  68 2.26  42 2.36  65 2.36  20 2.53  28 2.53   4 2.53

  17  0.224  0.037  0.254-  57 2.25  42 2.26  65 2.26  66 2.36  43 2.36   5 2.53  29 2.53
  18  0.375  0.886  0.381-  67 2.01  58 2.25  66 2.26  43 2.26  19 2.32  44 2.36  30 2.53   6 2.53

  19  0.433  0.722  0.464-  59 2.05  44 2.11  67 2.13  18 2.32
  20  0.073  0.363  0.040-  41 2.01  68 2.06  53 2.08   7 2.46  28 2.46  16 2.53
  21  0.626  0.848  0.079-  69 2.02  49 2.07  50 2.14  48 2.33  70 2.36  22 2.44  36 2.47
  22  0.791  0.804  0.169-  50 2.25  70 2.26  48 2.26  71 2.36  45 2.36  21 2.44  10 2.53  32 2.53

  23  0.941  0.653  0.296-  72 2.14  46 2.19  51 2.25  71 2.26  45 2.26  33 2.53  11 2.53
  24  0.026  0.161  0.416-  40 2.03  37 2.08  52 2.09  66 2.12
  25  0.591  0.594  0.071-  49 2.03  50 2.05  38 2.06   1 2.46
  26  0.732  0.460  0.178-  68 2.25  50 2.26  38 2.26  51 2.36  39 2.36  13 2.53   2 2.53
  27  0.882  0.310  0.305-  52 2.04  65 2.25  39 2.26  51 2.26  40 2.36   3 2.53  14 2.53
  28  0.299  0.227  0.093-  41 2.03  53 2.16  54 2.36  42 2.36  20 2.46   4 2.53  16 2.53
  29  0.449  0.076  0.220-  70 2.25  42 2.26  54 2.26  43 2.36  55 2.36  17 2.53   5 2.53
  30  0.599  0.926  0.347-  56 2.10  71 2.25  43 2.26  55 2.26  31 2.33  44 2.36   6 2.53  18 2.53

  31  0.772  0.799  0.421-  72 2.06  56 2.09  44 2.13  30 2.33
  32  0.015  0.843  0.136-  61 2.11  48 2.26  60 2.26  45 2.36  57 2.36  22 2.53  10 2.53
  33  0.166  0.693  0.263-  46 2.17  62 2.25  57 2.26  45 2.26  58 2.36  11 2.53  23 2.53
  34  0.203  0.573  0.384-  46 2.09  59 2.13  58 2.14  72 2.18  47 2.23  35 2.48
  35  0.455  0.471  0.418-  64 2.08  63 2.09  47 2.10  59 2.14  34 2.48
  36  0.768  0.002  0.072-  69 2.02  48 2.02  60 2.06  70 2.10   9 2.41  21 2.47
  37  0.992  0.011  0.477-   8 2.08  24 2.08  15 2.09  40 2.64
  38  0.586  0.406  0.108-   9 1.99  25 2.06  12 2.21  13 2.26  26 2.26
  39  0.736  0.256  0.235-   9 2.11  10 2.25  27 2.26  14 2.26  13 2.36  26 2.36
  40  0.886  0.105  0.362-  15 2.02  24 2.03  11 2.25  14 2.36  27 2.36  37 2.64
  41  0.174  0.151  0.038-  20 2.01  28 2.03  16 2.06  42 2.75
  42  0.303  0.023  0.151-   1 2.25  29 2.26  17 2.26  16 2.36  28 2.36  41 2.75
  43  0.453  0.872  0.278-   2 2.25  30 2.26  18 2.26  29 2.36  17 2.36
  44  0.603  0.722  0.405-  19 2.11  31 2.13   3 2.25  30 2.36  18 2.36
  45  0.019  0.639  0.193-   7 2.14   4 2.25  23 2.26  33 2.26  22 2.36  32 2.36  46 2.70
  46  0.156  0.493  0.297-  34 2.09  33 2.17  23 2.19   5 2.21  45 2.70
  47  0.328  0.347  0.407-  35 2.10  34 2.23   6 2.23  55 2.76
  48  0.869  0.789  0.066-   7 2.00  36 2.02  32 2.26  22 2.26  21 2.33
  49  0.483  0.782  0.028-  25 2.03   1 2.04  21 2.07
  50  0.636  0.692  0.151-  25 2.05  21 2.14  22 2.25  26 2.26   2 2.26   1 2.36
  51  0.787  0.542  0.278-  23 2.25   3 2.26  27 2.26  26 2.36   2 2.36
  52  0.910  0.373  0.396-  27 2.04  24 2.09   3 2.11  64 2.77
  53  0.214  0.453  0.076-  20 2.08   4 2.13  28 2.16  12 2.16   7 2.21
  54  0.353  0.308  0.193-  13 2.25   5 2.26  29 2.26  28 2.36   4 2.36
  55  0.503  0.158  0.320-  14 2.25   6 2.26  30 2.26   5 2.36  29 2.36  47 2.76
  56  0.639  0.009  0.435-  31 2.09  30 2.10  15 2.11   6 2.17
  57  0.070  0.925  0.236-  17 2.25  33 2.26  11 2.26  10 2.36  32 2.36
  58  0.220  0.775  0.363-   8 2.04  34 2.14  18 2.25  33 2.36  11 2.36  59 2.68
  59  0.288  0.622  0.472-  19 2.05  34 2.13  35 2.14   8 2.16  58 2.68
  60  0.920  0.075  0.109-  36 2.06   9 2.19  16 2.25  10 2.26  32 2.26
  61  0.213  0.759  0.088-   1 2.11  32 2.11  12 2.12  62 2.63
  62  0.350  0.641  0.194-  12 2.04  33 2.25  13 2.26   2 2.26   1 2.36  61 2.63
  63  0.501  0.491  0.321-  35 2.09   3 2.26  14 2.26   2 2.36  13 2.36
  64  0.662  0.335  0.434-  35 2.08  14 2.08  15 2.13   3 2.18  52 2.77
  65  0.067  0.258  0.236-  27 2.25   5 2.26  17 2.26   4 2.36  16 2.36
  66  0.218  0.108  0.363-  24 2.12  18 2.26   6 2.26  17 2.36   5 2.36
  67  0.395  0.942  0.473-  18 2.01  19 2.13   6 2.15
  68  0.917  0.408  0.109-  20 2.06  26 2.25  16 2.26   4 2.26   7 2.29
  69  0.604  0.006  0.015-  21 2.02  36 2.02
  70  0.634  0.025  0.152-  36 2.10  29 2.25  10 2.26  22 2.26   9 2.27  21 2.36
  71  0.784  0.874  0.279-  30 2.25  23 2.26  11 2.26  22 2.36  10 2.36
  72  0.981  0.708  0.393-  31 2.06  23 2.14   8 2.15  11 2.15  34 2.18
 
  LATTYP: Found a base centered orthorhombic cell.
 ALAT       =    11.4527836704
 B/A-ratio  =     1.4485816945
 C/A-ratio  =     1.8059804630
  
  Lattice vectors:
  
 A1 = (  10.0797329849,   0.0000000000,   0.0000000000)
 A2 = (  -3.5732980427,  -9.4251025535,   0.0000000000)
 A3 = (   0.0000000000,   0.0000000000, -20.6835035552)


Analysis of symmetry for initial positions (statically):
=====================================================================
 Subroutine PRICEL returns:
 Original cell was already a primitive cell.
 

 Routine SETGRP: Setting up the symmetry group for a 
 base centered orthorhombic supercell.


 Subroutine GETGRP returns: Found  1 space group operations
 (whereof  1 operations were pure point group operations)
 out of a pool of  8 trial point group operations.


The static configuration has the point symmetry C_1 .


Analysis of symmetry for dynamics (positions and initial velocities):
=====================================================================
 Subroutine PRICEL returns:
 Original cell was already a primitive cell.
 

 Routine SETGRP: Setting up the symmetry group for a 
 base centered orthorhombic supercell.


 Subroutine GETGRP returns: Found  1 space group operations
 (whereof  1 operations were pure point group operations)
 out of a pool of  8 trial point group operations.


The dynamic configuration has the point symmetry C_1 .


 Subroutine INISYM returns: Found  1 space group operations
 (whereof  1 operations are pure point group operations),
 and found     1 'primitive' translations

 
 
 KPOINTS: gamma-point-only calculation. no periodi

Automatic generation of k-mesh.
Space group operators:
 irot       det(A)        alpha          n_x          n_y          n_z        tau_x        tau_y        tau_z
    1     1.000000     0.000000     1.000000     0.000000     0.000000     0.000000     0.000000     0.000000
 
 Subroutine IBZKPT returns following result:
 ===========================================
 
 Found      1 irreducible k-points:
 
 Following reciprocal coordinates:
            Coordinates               Weight
  0.000000  0.000000  0.000000      1.000000
 
 Following cartesian coordinates:
            Coordinates               Weight
  0.000000  0.000000  0.000000      1.000000
 


--------------------------------------------------------------------------------------------------------




 Dimension of arrays:
   k-points           NKPTS =      1   k-points in BZ     NKDIM =      1   number of bands    NBANDS=    476
   number of dos      NEDOS =    301   number of ions     NIONS =     72
   non local maximal  LDIM  =      6   non local SUM 2l+1 LMDIM =     18
   total plane-waves  NPLWV = 314928
   max r-space proj   IRMAX =   1817   max aug-charges    IRDMAX=   5248
   dimension x,y,z NGX =    54 NGY =   54 NGZ =  108
   dimension x,y,z NGXF=   108 NGYF=  108 NGZF=  216
   support grid    NGXF=   108 NGYF=  108 NGZF=  216
   ions per type =              36  36
   NGX,Y,Z   is equivalent  to a cutoff of   8.91,  8.91,  8.68 a.u.
   NGXF,Y,Z  is equivalent  to a cutoff of  17.81, 17.81, 17.36 a.u.

 SYSTEM =  "Millerite NiS"                         
 POSCAR =  Type_036 Type_136                       

 Startparameter for this run:
   NWRITE =      2    write-flag & timer
   PREC   = normal    normal or accurate (medium, high low for compatibility)
   ISTART =      0    job   : 0-new  1-cont  2-samecut
   ICHARG =      2    charge: 1-file 2-atom 10-const
   ISPIN  =      1    spin polarized calculation?
   LNONCOLLINEAR =      F non collinear calculations
   LSORBIT =      F    spin-orbit coupling
   INIWAV =      1    electr: 0-lowe 1-rand  2-diag
   LASPH  =      F    aspherical Exc in radial PAW
   METAGGA=      F    non-selfconsistent MetaGGA calc.

 Electronic Relaxation 1
   ENCUT  =  450.0 eV  33.07 Ry    5.75 a.u.  17.43 17.43 35.78*2*pi/ulx,y,z
   ENINI  =  450.0     initial cutoff
   ENAUG  =  703.4 eV  augmentation charge cutoff
   NELM   =    100;   NELMIN=  2; NELMDL= -5     # of ELM steps 
   EDIFF  = 0.1E-03   stopping-criterion for ELM
   LREAL  =      T    real-space projection
   NLSPLINE    = F    spline interpolate recip. space projectors
   LCOMPAT=      F    compatible to vasp.4.4
   GGA_COMPAT  = T    GGA compatible to vasp.4.4-vasp.4.6
   LMAXPAW     = -100 max onsite density
   LMAXMIX     =    2 max onsite mixed and CHGCAR
   VOSKOWN=      0    Vosko Wilk Nusair interpolation
   ROPT   =   -0.00050  -0.00050
 Ionic relaxation
   EDIFFG = 0.1E-02   stopping-criterion for IOM
   NSW    =      0    number of steps for IOM
   NBLOCK =      1;   KBLOCK =      1    inner block; outer block 
   IBRION =     -1    ionic relax: 0-MD 1-quasi-New 2-CG
   NFREE  =      0    steps in history (QN), initial steepest desc. (CG)
   ISIF   =      2    stress and relaxation
   IWAVPR =     10    prediction:  0-non 1-charg 2-wave 3-comb
   ISYM   =      2    0-nonsym 1-usesym 2-fastsym
   LCORR  =      T    Harris-Foulkes like correction to forces

   POTIM  = 0.5000    time-step for ionic-motion
   TEIN   =    0.0    initial temperature
   TEBEG  =    0.0;   TEEND  =   0.0 temperature during run
   SMASS  =  -3.00    Nose mass-parameter (am)
   estimated Nose-frequenzy (Omega)   =  0.10E-29 period in steps =****** mass=  -0.232E-26a.u.
   SCALEE = 1.0000    scale energy and forces
   NPACO  =    256;   APACO  = 16.0  distance and # of slots for P.C.
   PSTRESS=    0.0 pullay stress

  Mass of Ions in am
   POMASS =  58.69 32.07
  Ionic Valenz
   ZVAL   =  16.00  6.00
  Atomic Wigner-Seitz radii
   RWIGS  =  -1.00 -1.00
  virtual crystal weights 
   VCA    =   1.00  1.00
   NELECT =     792.0000    total number of electrons
   NUPDOWN=      -1.0000    fix difference up-down

 DOS related values:
   EMIN   =  10.00;   EMAX   =-10.00  energy-range for DOS
   EFERMI =   0.00
   ISMEAR =     0;   SIGMA  =   0.20  broadening in eV -4-tet -1-fermi 0-gaus

 Electronic relaxation 2 (details)
   IALGO  =     38    algorithm
   LDIAG  =      T    sub-space diagonalisation (order eigenvalues)
   LSUBROT=      F    optimize rotation matrix (better conditioning)
   TURBO    =      0    0=normal 1=particle mesh
   IRESTART =      0    0=no restart 2=restart with 2 vectors
   NREBOOT  =      0    no. of reboots
   NMIN     =      0    reboot dimension
   EREF     =   0.00    reference energy to select bands
   IMIX   =      4    mixing-type and parameters
     AMIX     =   0.40;   BMIX     =  1.00
     AMIX_MAG =   1.60;   BMIX_MAG =  1.00
     AMIN     =   0.10
     WC   =   100.;   INIMIX=   1;  MIXPRE=   1;  MAXMIX= -45

 Intra band minimization:
   WEIMIN = 0.0000     energy-eigenvalue tresh-hold
   EBREAK =  0.53E-07  absolut break condition
   DEPER  =   0.30     relativ break condition  

   TIME   =   0.40     timestep for ELM

  volume/ion in A,a.u.               =      27.29       184.17
  Fermi-wavevector in a.u.,A,eV,Ry     =   1.209289  2.285225 19.896891  1.462380
  Thomas-Fermi vector in A             =   2.344871
 
 Write flags
   LWAVE        =      F    write WAVECAR
   LDOWNSAMPLE  =      F    k-point downsampling of WAVECAR
   LCHARG       =      F    write CHGCAR
   LVTOT        =      F    write LOCPOT, total local potential
   LVHAR        =      F    write LOCPOT, Hartree potential only
   LELF         =      F    write electronic localiz. function (ELF)
   LORBIT       =      0    0 simple, 1 ext, 2 COOP (PROOUT), +10 PAW based schemes


 Dipole corrections
   LMONO  =      F    monopole corrections only (constant potential shift)
   LDIPOL =      F    correct potential (dipole corrections)
   IDIPOL =      0    1-x, 2-y, 3-z, 4-all directions 
   EPSILON=  1.0000000 bulk dielectric constant

 Exchange correlation treatment:
   GGA     =    --    GGA type
   LEXCH   =     8    internal setting for exchange type
   VOSKOWN=      0    Vosko Wilk Nusair interpolation
   LHFCALC =     F    Hartree Fock is set to
   LHFONE  =     F    Hartree Fock one center treatment
   AEXX    =    0.0000 exact exchange contribution

 Linear response parameters
   LEPSILON=     F    determine dielectric tensor
   LRPA    =     F    only Hartree local field effects (RPA)
   LNABLA  =     F    use nabla operator in PAW spheres
   LVEL    =     F    velocity operator in full k-point grid
   LINTERFAST=   F  fast interpolation
   KINTER  =     0    interpolate to denser k-point grid
   CSHIFT  =0.1000    complex shift for real part using Kramers Kronig
   OMEGAMAX=  -1.0    maximum frequency
   DEG_THRESHOLD= 0.2000000E-02 threshold for treating states as degnerate
   RTIME   =   -0.100 relaxation time in fs
  (WPLASMAI=    0.000 imaginary part of plasma frequency in eV, 0.658/RTIME)
   DFIELD  = 0.0000000 0.0000000 0.0000000 field for delta impulse in time
 
 Orbital magnetization related:
   ORBITALMAG=     F  switch on orbital magnetization
   LCHIMAG   =     F  perturbation theory with respect to B field
   DQ        =  0.001000  dq finite difference perturbation B field
   LLRAUG    =     F  two centre corrections for induced B field



--------------------------------------------------------------------------------------------------------


 Static calculation
 charge density and potential will be updated during run
 non-spin polarized calculation
 Variant of blocked Davidson
 Davidson routine will perform the subspace rotation
 perform sub-space diagonalisation
    after iterative eigenvector-optimisation
 modified Broyden-mixing scheme, WC =      100.0
 initial mixing is a Kerker type mixing with AMIX =  0.4000 and BMIX =      1.0000
 Hartree-type preconditioning will be used
 using additional bands           80
 real space projection scheme for non local part
 use partial core corrections
 calculate Harris-corrections to forces 
   (improved forces if not selfconsistent)
 use gradient corrections 
 use of overlap-Matrix (Vanderbilt PP)
 Gauss-broadening in eV      SIGMA  =   0.20


--------------------------------------------------------------------------------------------------------


  energy-cutoff  :      450.00
  volume of cell :     1964.98
      direct lattice vectors                 reciprocal lattice vectors
    10.079732985  0.000000000  0.000000000     0.099208977 -0.037612667  0.000000000
     3.573298043  9.425102554  0.000000000     0.000000000  0.106099641  0.000000000
     0.000000000  0.000000000 20.683503555     0.000000000  0.000000000  0.048347708

  length of vectors
    10.079732985 10.079732985 20.683503555     0.106099641  0.106099641  0.048347708


 
 k-points in units of 2pi/SCALE and weight: gamma-point-only calculation. no periodi
   0.00000000  0.00000000  0.00000000       1.000
 
 k-points in reciprocal lattice and weights: gamma-point-only calculation. no periodi
   0.00000000  0.00000000  0.00000000       1.000
 
 position of ions in fractional coordinates (direct lattice) 
   0.39705889  0.79495179  0.11816221
   0.54732740  0.64468328  0.24509923
   0.69759592  0.49441477  0.37203626
   0.11381506  0.41152895  0.16047455
   0.26408357  0.26126044  0.28741157
   0.41435209  0.11099193  0.41434860
   0.99302434  0.59503164  0.09392492
   0.10423661  0.80498963  0.44613044
   0.70544938  0.21242288  0.13788443
   0.83057123  0.02810612  0.20278689
   0.98083974  0.87783760  0.32972391
   0.36344804  0.55269631  0.10414480
   0.50762556  0.42017912  0.21156171
   0.65789407  0.26991061  0.33849873
   0.78324315  0.11530682  0.44697093
   0.07411322  0.18702480  0.12693702
   0.22438173  0.03675628  0.25387405
   0.37465024  0.88648777  0.38081107
   0.43329021  0.72154132  0.46420936
   0.07315189  0.36284803  0.03979456
   0.62553989  0.84785655  0.07894678
   0.79086939  0.80360196  0.16924937
   0.94113790  0.65333345  0.29618639
   0.02605103  0.16071267  0.41647499
   0.59063962  0.59423356  0.07148028
   0.73212972  0.45988096  0.17802418
   0.88239823  0.30961245  0.30496121
   0.29861738  0.22672664  0.09339950
   0.44888589  0.07645813  0.22033653
   0.59915440  0.92618961  0.34727355
   0.77216239  0.79864427  0.42117792
   0.01537355  0.84330380  0.13571184
   0.16564206  0.69303529  0.26264887
   0.20332016  0.57313612  0.38414353
   0.45484091  0.47106898  0.41817058
   0.76841554  0.00218576  0.07189334
   0.99231739  0.01079754  0.47707507
   0.58579929  0.40599939  0.10847175
   0.73606780  0.25573088  0.23540877
   0.88633632  0.10546237  0.36234580
   0.17380144  0.15129145  0.03830902
   0.30255546  0.02257655  0.15078409
   0.45282397  0.87230804  0.27772112
   0.60309249  0.72203953  0.40465814
   0.01931163  0.63915371  0.19309643
   0.15556174  0.49326815  0.29746874
   0.32776205  0.34707075  0.40722578
   0.86904312  0.78942223  0.06615941
   0.48314989  0.78230558  0.02790688
   0.63635413  0.69187455  0.15117717
   0.78662264  0.54160604  0.27811420
   0.90950210  0.37312235  0.39604473
   0.21437949  0.45261296  0.07615060
   0.35311030  0.30845172  0.19348951
   0.50337881  0.15818320  0.32042654
   0.63877449  0.00871989  0.43519816
   0.06986647  0.92502888  0.23580185
   0.22013498  0.77476037  0.36273888
   0.28773607  0.62249931  0.47173199
   0.91959796  0.07529739  0.10886483
   0.21278802  0.75928941  0.08834460
   0.35047896  0.64131972  0.19388260
   0.50074747  0.49105121  0.32081962
   0.66205114  0.33455353  0.43383089
   0.06723513  0.25789688  0.23619494
   0.21750365  0.10762837  0.36313196
   0.39455581  0.94233335  0.47251631
   0.91696662  0.40816539  0.10925791
   0.60390639  0.00595161  0.01489878
   0.63372279  0.02474256  0.15157025
   0.78399130  0.87447404  0.27850728
   0.98077083  0.70755824  0.39268992
 
 position of ions in cartesian coordinates  (Angst):
   6.84284727  7.49250216  2.44400841
   7.82055957  6.07620602  5.06951082
   8.79827187  4.65990987  7.69501320
   2.61774103  3.87870260  3.31917588
   3.59545332  2.46240645  5.94467827
   4.57316563  1.04611031  8.57018066
  12.13564560  5.60823420  1.94269638
   3.92714512  7.58710985  9.22754058
   7.86979163  2.00210746  2.85193317
   8.47236777  0.26490303  4.19434334
  13.02337811  8.27370944  6.81984575
   5.63840786  5.20921945  2.15407938
   6.61815533  3.96023131  4.37583732
   7.59586763  2.54393517  7.00133973
   8.30690751  1.08677865  9.24492486
   1.41533679  1.76272788  2.62550239
   2.39304909  0.34643175  5.25100480
   6.94405943  8.35523815  7.87650718
   6.94573179  6.80060093  9.60147600
   2.03391571  3.41987992  0.82309095
   9.33491925  7.99113495  1.63289601
  10.84326157  7.57403088  3.50066986
  11.82097387  6.15773473  6.12617225
   0.83686173  1.51473339  8.61416201
   8.07686328  5.60071221  1.47846260
   9.02296381  4.33442525  3.68216384
  10.00067611  2.91812910  6.30766623
   3.82014527  2.13692182  1.93182891
   4.79785756  0.72062568  4.55733130
   9.34886790  8.72943210  7.18283371
  10.63698472  7.52730415  8.71143500
   3.16833706  7.94822481  2.80699637
   4.14604937  6.53192867  5.43249877
   4.09739907  5.40186668  7.94543401
   6.26794475  4.43987340  8.64923261
   7.75323379  0.02060100  1.48700618
  10.04087712  0.10176794  9.86758391
   7.35545727  3.82658588  2.24357581
   8.33316957  2.41028974  4.86907821
   9.31088186  0.99399361  7.49458060
   2.29248158  1.42593740  0.79236480
   3.13035102  0.21278632  3.11874328
   7.68136137  8.22159274  5.74424567
   8.65907366  6.80529659  8.36974806
   2.47854282  6.02408930  3.99391074
   3.33061495  4.64910289  6.15269579
   4.54394120  3.27117741  8.42285583
  11.58056351  7.44038545  1.36840835
   7.66543287  7.37331027  0.57721210
   8.88655367  6.52098863  3.12687357
   9.86426598  5.10469248  5.75237598
  10.50081564  3.51671641  8.19159253
   3.77820899  4.26592352  1.57506125
   4.66144743  2.90718906  4.00204105
   5.63915973  1.49089292  6.62754344
   6.46983502  0.08218583  9.00142272
   4.00963923  8.71849205  4.87720851
   4.98735153  7.30219590  7.50271091
   5.12467830  5.86711985  9.75707020
   9.53836187  0.70968563  2.25170612
   4.85801382  7.15638055  1.82727585
   5.82436086  6.04450411  4.01017134
   6.80207315  4.62820798  6.63567375
   7.86875820  3.15320132  8.97314277
   1.59925462  2.43070455  4.88533882
   2.57696691  1.01440841  7.51084121
   7.34425507  8.88158842  9.77329285
  10.70127530  3.84700069  2.25983643
   6.10848206  0.05609453  0.30815892
   6.47616906  0.23320113  3.13500389
  11.02717939  8.24200754  5.76050627
  12.41422458  6.66880894  8.12220344
 


--------------------------------------------------------------------------------------------------------


 use parallel FFT for orbitals z direction half grid
 k-point  1 :   0.0000 0.0000 0.0000  plane waves:   21301

 maximum and minimum number of plane-waves per node :      3554     3548

 maximum number of plane-waves:     21301
 maximum index in each direction: 
   IXMAX=   17   IYMAX=   17   IZMAX=   35
   IXMIN=  -17   IYMIN=  -17   IZMIN=    0


 real space projection operators:
  total allocation   :      11157.72 KBytes
  max/ min on nodes  :       1864.58       1850.44


 parallel 3D FFT for wavefunctions:
    minimum data exchange during FFTs selected (reduces bandwidth)
 parallel 3D FFT for charge:
    minimum data exchange during FFTs selected (reduces bandwidth)


 total amount of memory used by VASP MPI-rank0    68406. kBytes
=======================================================================

   base      :      30000. kBytes
   nonlr-proj:       2291. kBytes
   fftplans  :       8265. kBytes
   grid      :      13942. kBytes
   one-center:         93. kBytes
   wavefun   :      13815. kBytes
 
     INWAV:  cpu time    0.0000: real time    0.0000
 Broyden mixing: mesh for mixing (old mesh)
   NGX = 35   NGY = 35   NGZ = 71
  (NGX  =108   NGY  =108   NGZ  =216)
  gives a total of  86975 points

 initial charge density was supplied:
 charge density of overlapping atoms calculated
 number of electron     792.0000000 magnetization 
 keeping initial charge density in first step


--------------------------------------------------------------------------------------------------------


 Maximum index for non-local projection operator          302
 Maximum index for augmentation-charges          471 (set IRDMAX)


--------------------------------------------------------------------------------------------------------


 First call to EWALD:  gamma=   0.142
 Maximum number of real-space cells 3x 3x 2
 Maximum number of reciprocal cells 2x 2x 4

    FEWALD:  cpu time    0.0052: real time    0.0052


--------------------------------------- Iteration      1(   1)  ---------------------------------------


    POTLOK:  cpu time    0.2563: real time    0.2574
    SETDIJ:  cpu time    0.0175: real time    0.0175
     EDDAV:  cpu time    6.8244: real time    6.8307
       DOS:  cpu time    0.0015: real time    0.0015
    --------------------------------------------
      LOOP:  cpu time    7.0997: real time    7.1071

 eigenvalue-minimisations  :  1160
 total energy-change (2. order) : 0.9936077E+04  (-0.5132553E+05)
 number of electron     792.0000000 magnetization 
 augmentation part      792.0000000 magnetization 

 Free energy of the ion-electron system (eV)
  ---------------------------------------------------
  alpha Z        PSCENC =      1893.09323658
  Ewald energy   TEWEN  =    224774.28893170
  -Hartree energ DENC   =   -346952.06198591
  -exchange      EXHF   =         0.00000000
  -V(xc)+E(xc)   XCENC  =      3681.68725767
  PAW double counting   =    112729.53333415  -117641.51188735
  entropy T*S    EENTRO =        -0.27781924
  eigenvalues    EBANDS =     -4551.27869550
  atomic energy  EATOM  =    136002.60505376
  Solvation  Ediel_sol  =         0.00000000
  ---------------------------------------------------
  free energy    TOTEN  =      9936.07742586 eV

  energy without entropy =     9936.35524510  energy(sigma->0) =     9936.21633548


--------------------------------------------------------------------------------------------------------




--------------------------------------- Iteration      1(   2)  ---------------------------------------


     EDDAV:  cpu time    6.1394: real time    6.1410
       DOS:  cpu time    0.0012: real time    0.0011
    --------------------------------------------
      LOOP:  cpu time    6.1405: real time    6.1421

 eigenvalue-minimisations  :  1004
 total energy-change (2. order) :-0.9322864E+04  (-0.9004031E+04)
 number of electron     792.0000000 magnetization 
 augmentation part      792.0000000 magnetization 

 Free energy of the ion-electron system (eV)
  ---------------------------------------------------
  alpha Z        PSCENC =      1893.09323658
  Ewald energy   TEWEN  =    224774.28893170
  -Hartree energ DENC   =   -346952.06198591
  -exchange      EXHF   =         0.00000000
  -V(xc)+E(xc)   XCENC  =      3681.68725767
  PAW double counting   =    112729.53333415  -117641.51188735
  entropy T*S    EENTRO =        -0.65756161
  eigenvalues    EBANDS =    -13873.76288129
  atomic energy  EATOM  =    136002.60505376
  Solvation  Ediel_sol  =         0.00000000
  ---------------------------------------------------
  free energy    TOTEN  =       613.21349770 eV

  energy without entropy =      613.87105931  energy(sigma->0) =      613.54227851


--------------------------------------------------------------------------------------------------------




--------------------------------------- Iteration      1(   3)  ---------------------------------------


     EDDAV:  cpu time    6.4980: real time    6.5035
       DOS:  cpu time    0.0013: real time    0.0013
    --------------------------------------------
      LOOP:  cpu time    6.4993: real time    6.5048

 eigenvalue-minimisations  :  1088
 total energy-change (2. order) :-0.9520857E+03  (-0.9051602E+03)
 number of electron     792.0000000 magnetization 
 augmentation part      792.0000000 magnetization 

 Free energy of the ion-electron system (eV)
  ---------------------------------------------------
  alpha Z        PSCENC =      1893.09323658
  Ewald energy   TEWEN  =    224774.28893170
  -Hartree energ DENC   =   -346952.06198591
  -exchange      EXHF   =         0.00000000
  -V(xc)+E(xc)   XCENC  =      3681.68725767
  PAW double counting   =    112729.53333415  -117641.51188735
  entropy T*S    EENTRO =        -1.04400090
  eigenvalues    EBANDS =    -14825.46211708
  atomic energy  EATOM  =    136002.60505376
  Solvation  Ediel_sol  =         0.00000000
  ---------------------------------------------------
  free energy    TOTEN  =      -338.87217738 eV

  energy without entropy =     -337.82817648  energy(sigma->0) =     -338.35017693


--------------------------------------------------------------------------------------------------------




--------------------------------------- Iteration      1(   4)  ---------------------------------------


     EDDAV:  cpu time    6.9129: real time    6.9139
       DOS:  cpu time    0.0012: real time    0.0012
    --------------------------------------------
      LOOP:  cpu time    6.9141: real time    6.9152

 eigenvalue-minimisations  :  1128
 total energy-change (2. order) :-0.5754225E+02  (-0.5694008E+02)
 number of electron     792.0000000 magnetization 
 augmentation part      792.0000000 magnetization 

 Free energy of the ion-electron system (eV)
  ---------------------------------------------------
  alpha Z        PSCENC =      1893.09323658
  Ewald energy   TEWEN  =    224774.28893170
  -Hartree energ DENC   =   -346952.06198591
  -exchange      EXHF   =         0.00000000
  -V(xc)+E(xc)   XCENC  =      3681.68725767
  PAW double counting   =    112729.53333415  -117641.51188735
  entropy T*S    EENTRO =        -1.08479685
  eigenvalues    EBANDS =    -14882.96356759
  atomic energy  EATOM  =    136002.60505376
  Solvation  Ediel_sol  =         0.00000000
  ---------------------------------------------------
  free energy    TOTEN  =      -396.41442384 eV

  energy without entropy =     -395.32962699  energy(sigma->0) =     -395.87202541


--------------------------------------------------------------------------------------------------------




--------------------------------------- Iteration      1(   5)  ---------------------------------------


     EDDAV:  cpu time    7.1268: real time    7.1291
       DOS:  cpu time    0.0013: real time    0.0013
    CHARGE:  cpu time    0.2179: real time    0.2180
    MIXING:  cpu time    0.0076: real time    0.0077
    --------------------------------------------
      LOOP:  cpu time    7.3537: real time    7.3561

 eigenvalue-minimisations  :  1216
 total energy-change (2. order) :-0.2034142E+01  (-0.2031395E+01)
 number of electron     791.9999796 magnetization 
 augmentation part      286.8965284 magnetization 

 Broyden mixing:
  rms(total) = 0.96463E+01    rms(broyden)= 0.96369E+01
  rms(prec ) = 0.99829E+01
  weight for this iteration     100.00

 Free energy of the ion-electron system (eV)
  ---------------------------------------------------
  alpha Z        PSCENC =      1893.09323658
  Ewald energy   TEWEN  =    224774.28893170
  -Hartree energ DENC   =   -346952.06198591
  -exchange      EXHF   =         0.00000000
  -V(xc)+E(xc)   XCENC  =      3681.68725767
  PAW double counting   =    112729.53333415  -117641.51188735
  entropy T*S    EENTRO =        -1.07560244
  eigenvalues    EBANDS =    -14885.00690412
  atomic energy  EATOM  =    136002.60505376
  Solvation  Ediel_sol  =         0.00000000
  ---------------------------------------------------
  free energy    TOTEN  =      -398.44856597 eV

  energy without entropy =     -397.37296352  energy(sigma->0) =     -397.91076474


--------------------------------------------------------------------------------------------------------




--------------------------------------- Iteration      1(   6)  ---------------------------------------


    POTLOK:  cpu time    0.2453: real time    0.2453
    SETDIJ:  cpu time    0.0171: real time    0.0171
     EDDAV:  cpu time    6.9617: real time    6.9631
       DOS:  cpu time    0.0011: real time    0.0011
    CHARGE:  cpu time    0.2059: real time    0.2059
    MIXING:  cpu time    0.0105: real time    0.0105
    --------------------------------------------
      LOOP:  cpu time    7.4417: real time    7.4430

 eigenvalue-minimisations  :  1184
 total energy-change (2. order) :-0.6613993E+02  (-0.9108457E+02)
 number of electron     791.9999820 magnetization 
 augmentation part      344.9610968 magnetization 

 Broyden mixing:
  rms(total) = 0.15638E+02    rms(broyden)= 0.15636E+02
  rms(prec ) = 0.16245E+02
  weight for this iteration     100.00

 eigenvalues of (default mixing * dielectric matrix)
  average eigenvalue GAMMA=   0.2468
  0.2468

 Free energy of the ion-electron system (eV)
  ---------------------------------------------------
  alpha Z        PSCENC =      1893.09323658
  Ewald energy   TEWEN  =    224774.28893170
  -Hartree energ DENC   =   -344244.47754721
  -exchange      EXHF   =         0.00000000
  -V(xc)+E(xc)   XCENC  =      3608.33746249
  PAW double counting   =    117555.83191794  -122238.57014120
  entropy T*S    EENTRO =        -0.92038734
  eigenvalues    EBANDS =    -17814.77702299
  atomic energy  EATOM  =    136002.60505376
  Solvation  Ediel_sol  =         0.00000000
  ---------------------------------------------------
  free energy    TOTEN  =      -464.58849628 eV

  energy without entropy =     -463.66810894  energy(sigma->0) =     -464.12830261


--------------------------------------------------------------------------------------------------------




--------------------------------------- Iteration      1(   7)  ---------------------------------------


    POTLOK:  cpu time    0.3157: real time    0.3158
    SETDIJ:  cpu time    0.0359: real time    0.0359
     EDDAV:  cpu time    6.5137: real time    6.5143
       DOS:  cpu time    0.0010: real time    0.0010
    CHARGE:  cpu time    0.2089: real time    0.2089
    MIXING:  cpu time    0.0093: real time    0.0093
    --------------------------------------------
      LOOP:  cpu time    7.0846: real time    7.0854

 eigenvalue-minimisations  :  1064
 total energy-change (2. order) : 0.9464613E+02  (-0.2026847E+02)
 number of electron     791.9999767 magnetization 
 augmentation part      330.8761787 magnetization 

 Broyden mixing:
  rms(total) = 0.70410E+01    rms(broyden)= 0.70398E+01
  rms(prec ) = 0.72833E+01
  weight for this iteration     100.00

 eigenvalues of (default mixing * dielectric matrix)
  average eigenvalue GAMMA=   0.4766
  0.4766  0.4766

 Free energy of the ion-electron system (eV)
  ---------------------------------------------------
  alpha Z        PSCENC =      1893.09323658
  Ewald energy   TEWEN  =    224774.28893170
  -Hartree energ DENC   =   -345380.42408174
  -exchange      EXHF   =         0.00000000
  -V(xc)+E(xc)   XCENC  =      3633.58363489
  PAW double counting   =    121957.73144641  -126776.58889425
  entropy T*S    EENTRO =        -0.81750626
  eigenvalues    EBANDS =    -16473.41419197
  atomic energy  EATOM  =    136002.60505376
  Solvation  Ediel_sol  =         0.00000000
  ---------------------------------------------------
  free energy    TOTEN  =      -369.94237089 eV

  energy without entropy =     -369.12486463  energy(sigma->0) =     -369.53361776


--------------------------------------------------------------------------------------------------------




--------------------------------------- Iteration      1(   8)  ---------------------------------------


    POTLOK:  cpu time    0.2498: real time    0.2498
    SETDIJ:  cpu time    0.0171: real time    0.0171
     EDDAV:  cpu time    7.3856: real time    7.3898
       DOS:  cpu time    0.0011: real time    0.0011
    CHARGE:  cpu time    0.2119: real time    0.2119
    MIXING:  cpu time    0.0086: real time    0.0086
    --------------------------------------------
      LOOP:  cpu time    7.8740: real time    7.8782

 eigenvalue-minimisations  :  1288
 total energy-change (2. order) :-0.4822157E+02  (-0.2196535E+02)
 number of electron     791.9999878 magnetization 
 augmentation part      306.5167425 magnetization 

 Broyden mixing:
  rms(total) = 0.12466E+02    rms(broyden)= 0.12465E+02
  rms(prec ) = 0.14079E+02
  weight for this iteration     100.00

 eigenvalues of (default mixing * dielectric matrix)
  average eigenvalue GAMMA=   0.4902
  0.8257  0.4528  0.1920

 Free energy of the ion-electron system (eV)
  ---------------------------------------------------
  alpha Z        PSCENC =      1893.09323658
  Ewald energy   TEWEN  =    224774.28893170
  -Hartree energ DENC   =   -346117.65880556
  -exchange      EXHF   =         0.00000000
  -V(xc)+E(xc)   XCENC  =      3658.64249530
  PAW double counting   =    128530.54881323  -133484.22679123
  entropy T*S    EENTRO =        -1.06249179
  eigenvalues    EBANDS =    -15674.39438632
  atomic energy  EATOM  =    136002.60505376
  Solvation  Ediel_sol  =         0.00000000
  ---------------------------------------------------
  free energy    TOTEN  =      -418.16394433 eV

  energy without entropy =     -417.10145254  energy(sigma->0) =     -417.63269843


--------------------------------------------------------------------------------------------------------




--------------------------------------- Iteration      1(   9)  ---------------------------------------


    POTLOK:  cpu time    0.2449: real time    0.2449
    SETDIJ:  cpu time    0.0172: real time    0.0172
     EDDAV:  cpu time    7.5185: real time    7.5198
       DOS:  cpu time    0.0012: real time    0.0012
    CHARGE:  cpu time    0.2109: real time    0.2109
    MIXING:  cpu time    0.0090: real time    0.0090
    --------------------------------------------
      LOOP:  cpu time    8.0017: real time    8.0029

 eigenvalue-minimisations  :  1272
 total energy-change (2. order) : 0.3965292E+02  (-0.1300792E+02)
 number of electron     791.9999757 magnetization 
 augmentation part      306.0872483 magnetization 

 Broyden mixing:
  rms(total) = 0.63612E+01    rms(broyden)= 0.63563E+01
  rms(prec ) = 0.67272E+01
  weight for this iteration     100.00

 eigenvalues of (default mixing * dielectric matrix)
  average eigenvalue GAMMA=   0.6058
  1.4915  0.3921  0.3921  0.1476

 Free energy of the ion-electron system (eV)
  ---------------------------------------------------
  alpha Z        PSCENC =      1893.09323658
  Ewald energy   TEWEN  =    224774.28893170
  -Hartree energ DENC   =   -346257.81942328
  -exchange      EXHF   =         0.00000000
  -V(xc)+E(xc)   XCENC  =      3657.10926733
  PAW double counting   =    132192.96889914  -137165.79432409
  entropy T*S    EENTRO =        -1.08591662
  eigenvalues    EBANDS =    -15473.87674420
  atomic energy  EATOM  =    136002.60505376
  Solvation  Ediel_sol  =         0.00000000
  ---------------------------------------------------
  free energy    TOTEN  =      -378.51101968 eV

  energy without entropy =     -377.42510306  energy(sigma->0) =     -377.96806137


--------------------------------------------------------------------------------------------------------




--------------------------------------- Iteration      1(  10)  ---------------------------------------


    POTLOK:  cpu time    0.2424: real time    0.2424
    SETDIJ:  cpu time    0.0173: real time    0.0173
     EDDAV:  cpu time    7.6222: real time    7.6244
       DOS:  cpu time    0.0012: real time    0.0012
    CHARGE:  cpu time    0.2110: real time    0.2110
    MIXING:  cpu time    0.0097: real time    0.0097
    --------------------------------------------
      LOOP:  cpu time    8.1038: real time    8.1059

 eigenvalue-minimisations  :  1336
 total energy-change (2. order) : 0.1916443E+01  (-0.5772926E+01)
 number of electron     791.9999734 magnetization 
 augmentation part      306.3877766 magnetization 

 Broyden mixing:
  rms(total) = 0.54154E+01    rms(broyden)= 0.54132E+01
  rms(prec ) = 0.59647E+01
  weight for this iteration     100.00

 eigenvalues of (default mixing * dielectric matrix)
  average eigenvalue GAMMA=   0.6309
  1.8844  0.4038  0.4038  0.2977  0.1646

 Free energy of the ion-electron system (eV)
  ---------------------------------------------------
  alpha Z        PSCENC =      1893.09323658
  Ewald energy   TEWEN  =    224774.28893170
  -Hartree energ DENC   =   -346213.90661458
  -exchange      EXHF   =         0.00000000
  -V(xc)+E(xc)   XCENC  =      3654.69039402
  PAW double counting   =    137566.92423095  -142571.78586929
  entropy T*S    EENTRO =        -1.02632791
  eigenvalues    EBANDS =    -15481.47761149
  atomic energy  EATOM  =    136002.60505376
  Solvation  Ediel_sol  =         0.00000000
  ---------------------------------------------------
  free energy    TOTEN  =      -376.59457626 eV

  energy without entropy =     -375.56824836  energy(sigma->0) =     -376.08141231


--------------------------------------------------------------------------------------------------------




--------------------------------------- Iteration      1(  11)  ---------------------------------------


    POTLOK:  cpu time    0.2447: real time    0.2456
    SETDIJ:  cpu time    0.0172: real time    0.0172
     EDDAV:  cpu time    7.6296: real time    7.6306
       DOS:  cpu time    0.0013: real time    0.0013
    CHARGE:  cpu time    0.2201: real time    0.2201
    MIXING:  cpu time    0.0106: real time    0.0106
    --------------------------------------------
      LOOP:  cpu time    8.1235: real time    8.1254

 eigenvalue-minimisations  :  1288
 total energy-change (2. order) :-0.9820685E+01  (-0.5653012E+01)
 number of electron     791.9999777 magnetization 
 augmentation part      307.5897889 magnetization 

 Broyden mixing:
  rms(total) = 0.73457E+01    rms(broyden)= 0.73417E+01
  rms(prec ) = 0.84132E+01
  weight for this iteration     100.00

 eigenvalues of (default mixing * dielectric matrix)
  average eigenvalue GAMMA=   0.6693
  2.3819  0.4604  0.4604  0.4041  0.1740  0.1348

 Free energy of the ion-electron system (eV)
  ---------------------------------------------------
  alpha Z        PSCENC =      1893.09323658
  Ewald energy   TEWEN  =    224774.28893170
  -Hartree energ DENC   =   -346111.51631278
  -exchange      EXHF   =         0.00000000
  -V(xc)+E(xc)   XCENC  =      3651.76527092
  PAW double counting   =    139893.44816426  -144904.46104544
  entropy T*S    EENTRO =        -0.99130542
  eigenvalues    EBANDS =    -15584.64725460
  atomic energy  EATOM  =    136002.60505376
  Solvation  Ediel_sol  =         0.00000000
  ---------------------------------------------------
  free energy    TOTEN  =      -386.41526104 eV

  energy without entropy =     -385.42395561  energy(sigma->0) =     -385.91960832


--------------------------------------------------------------------------------------------------------




--------------------------------------- Iteration      1(  12)  ---------------------------------------


    POTLOK:  cpu time    0.2445: real time    0.2445
    SETDIJ:  cpu time    0.0171: real time    0.0171
     EDDAV:  cpu time    7.4669: real time    7.4678
       DOS:  cpu time    0.0015: real time    0.0015
    CHARGE:  cpu time    0.2152: real time    0.2152
    MIXING:  cpu time    0.0111: real time    0.0111
    --------------------------------------------
      LOOP:  cpu time    7.9563: real time    7.9572

 eigenvalue-minimisations  :  1304
 total energy-change (2. order) : 0.7705378E+01  (-0.4551489E+01)
 number of electron     791.9999769 magnetization 
 augmentation part      311.3363988 magnetization 

 Broyden mixing:
  rms(total) = 0.61161E+01    rms(broyden)= 0.61136E+01
  rms(prec ) = 0.71333E+01
  weight for this iteration     100.00

 eigenvalues of (default mixing * dielectric matrix)
  average eigenvalue GAMMA=   0.6038
  2.4420  0.4634  0.4634  0.4156  0.1835  0.1293  0.1293

 Free energy of the ion-electron system (eV)
  ---------------------------------------------------
  alpha Z        PSCENC =      1893.09323658
  Ewald energy   TEWEN  =    224774.28893170
  -Hartree energ DENC   =   -345994.35758758
  -exchange      EXHF   =         0.00000000
  -V(xc)+E(xc)   XCENC  =      3648.79172150
  PAW double counting   =    142511.40613423  -147532.82375044
  entropy T*S    EENTRO =        -1.04357025
  eigenvalues    EBANDS =    -15680.67005246
  atomic energy  EATOM  =    136002.60505376
  Solvation  Ediel_sol  =         0.00000000
  ---------------------------------------------------
  free energy    TOTEN  =      -378.70988296 eV

  energy without entropy =     -377.66631271  energy(sigma->0) =     -378.18809784


--------------------------------------------------------------------------------------------------------




--------------------------------------- Iteration      1(  13)  ---------------------------------------


    POTLOK:  cpu time    0.2446: real time    0.2446
    SETDIJ:  cpu time    0.0173: real time    0.0173
     EDDAV:  cpu time    7.5097: real time    7.5116
       DOS:  cpu time    0.0017: real time    0.0016
    CHARGE:  cpu time    0.2604: real time    0.2605
    MIXING:  cpu time    0.0115: real time    0.0115
    --------------------------------------------
      LOOP:  cpu time    8.0450: real time    8.0470

 eigenvalue-minimisations  :  1288
 total energy-change (2. order) : 0.1602947E+02  (-0.2261211E+01)
 number of electron     791.9999768 magnetization 
 augmentation part      314.4900233 magnetization 

 Broyden mixing:
  rms(total) = 0.34162E+01    rms(broyden)= 0.34139E+01
  rms(prec ) = 0.39201E+01
  weight for this iteration     100.00

 eigenvalues of (default mixing * dielectric matrix)
  average eigenvalue GAMMA=   0.5484
  2.3647  0.4501  0.4501  0.4047  0.2647  0.1684  0.1684  0.1165

 Free energy of the ion-electron system (eV)
  ---------------------------------------------------
  alpha Z        PSCENC =      1893.09323658
  Ewald energy   TEWEN  =    224774.28893170
  -Hartree energ DENC   =   -345984.07671602
  -exchange      EXHF   =         0.00000000
  -V(xc)+E(xc)   XCENC  =      3648.25542829
  PAW double counting   =    142849.59536773  -147871.87180025
  entropy T*S    EENTRO =        -0.98895767
  eigenvalues    EBANDS =    -15673.58096033
  atomic energy  EATOM  =    136002.60505376
  Solvation  Ediel_sol  =         0.00000000
  ---------------------------------------------------
  free energy    TOTEN  =      -362.68041622 eV

  energy without entropy =     -361.69145855  energy(sigma->0) =     -362.18593738


--------------------------------------------------------------------------------------------------------




--------------------------------------- Iteration      1(  14)  ---------------------------------------


    POTLOK:  cpu time    0.2444: real time    0.2444
    SETDIJ:  cpu time    0.0172: real time    0.0172
     EDDAV:  cpu time    7.5322: real time    7.5330
       DOS:  cpu time    0.0013: real time    0.0013
    CHARGE:  cpu time    0.2118: real time    0.2120
    MIXING:  cpu time    0.0119: real time    0.0119
    --------------------------------------------
      LOOP:  cpu time    8.0189: real time    8.0198

 eigenvalue-minimisations  :  1320
 total energy-change (2. order) : 0.3589784E+01  (-0.1313732E+01)
 number of electron     791.9999765 magnetization 
 augmentation part      314.0485183 magnetization 

 Broyden mixing:
  rms(total) = 0.27142E+01    rms(broyden)= 0.27124E+01
  rms(prec ) = 0.31662E+01
  weight for this iteration     100.00

 eigenvalues of (default mixing * dielectric matrix)
  average eigenvalue GAMMA=   0.5254
  2.2006  0.4886  0.4886  0.4829  0.4363  0.1916  0.1916  0.1416  0.1063

 Free energy of the ion-electron system (eV)
  ---------------------------------------------------
  alpha Z        PSCENC =      1893.09323658
  Ewald energy   TEWEN  =    224774.28893170
  -Hartree energ DENC   =   -346023.58451178
  -exchange      EXHF   =         0.00000000
  -V(xc)+E(xc)   XCENC  =      3649.13886339
  PAW double counting   =    142490.89218211  -147512.70477664
  entropy T*S    EENTRO =        -0.84777724
  eigenvalues    EBANDS =    -15631.97183446
  atomic energy  EATOM  =    136002.60505376
  Solvation  Ediel_sol  =         0.00000000
  ---------------------------------------------------
  free energy    TOTEN  =      -359.09063259 eV

  energy without entropy =     -358.24285534  energy(sigma->0) =     -358.66674396


--------------------------------------------------------------------------------------------------------




--------------------------------------- Iteration      1(  15)  ---------------------------------------


    POTLOK:  cpu time    0.2479: real time    0.2479
    SETDIJ:  cpu time    0.0173: real time    0.0173
     EDDAV:  cpu time    7.4959: real time    7.4969
       DOS:  cpu time    0.0013: real time    0.0013
    CHARGE:  cpu time    0.4535: real time    0.4536
    MIXING:  cpu time    0.0138: real time    0.0138
    --------------------------------------------
      LOOP:  cpu time    8.2297: real time    8.2307

 eigenvalue-minimisations  :  1312
 total energy-change (2. order) : 0.3722443E+01  (-0.6905118E+00)
 number of electron     791.9999765 magnetization 
 augmentation part      312.9628125 magnetization 

 Broyden mixing:
  rms(total) = 0.22471E+01    rms(broyden)= 0.22462E+01
  rms(prec ) = 0.25457E+01
  weight for this iteration     100.00

 eigenvalues of (default mixing * dielectric matrix)
  average eigenvalue GAMMA=   0.4864
  2.1683  0.5160  0.5160  0.4060  0.4060  0.2504  0.2172  0.1416  0.1416  0.1014

 Free energy of the ion-electron system (eV)
  ---------------------------------------------------
  alpha Z        PSCENC =      1893.09323658
  Ewald energy   TEWEN  =    224774.28893170
  -Hartree energ DENC   =   -346079.09324591
  -exchange      EXHF   =         0.00000000
  -V(xc)+E(xc)   XCENC  =      3650.77239703
  PAW double counting   =    141693.14882114  -146712.34381239
  entropy T*S    EENTRO =        -0.96828053
  eigenvalues    EBANDS =    -15576.87129064
  atomic energy  EATOM  =    136002.60505376
  Solvation  Ediel_sol  =         0.00000000
  ---------------------------------------------------
  free energy    TOTEN  =      -355.36818926 eV

  energy without entropy =     -354.39990873  energy(sigma->0) =     -354.88404900


--------------------------------------------------------------------------------------------------------




--------------------------------------- Iteration      1(  16)  ---------------------------------------


    POTLOK:  cpu time    0.2465: real time    0.2466
    SETDIJ:  cpu time    0.0173: real time    0.0173
     EDDAV:  cpu time    7.3897: real time    7.3955
       DOS:  cpu time    0.0012: real time    0.0011
    CHARGE:  cpu time    0.2116: real time    0.2116
    MIXING:  cpu time    0.0121: real time    0.0121
    --------------------------------------------
      LOOP:  cpu time    7.8784: real time    7.8842

 eigenvalue-minimisations  :  1296
 total energy-change (2. order) : 0.1077148E+01  (-0.2571430E+00)
 number of electron     791.9999770 magnetization 
 augmentation part      312.5558262 magnetization 

 Broyden mixing:
  rms(total) = 0.19436E+01    rms(broyden)= 0.19433E+01
  rms(prec ) = 0.21973E+01
  weight for this iteration     100.00

 eigenvalues of (default mixing * dielectric matrix)
  average eigenvalue GAMMA=   0.4859
  2.1613  0.5996  0.5996  0.4323  0.4323  0.3615  0.2022  0.1593  0.1593  0.1352
  0.1024

 Free energy of the ion-electron system (eV)
  ---------------------------------------------------
  alpha Z        PSCENC =      1893.09323658
  Ewald energy   TEWEN  =    224774.28893170
  -Hartree energ DENC   =   -346091.57091699
  -exchange      EXHF   =         0.00000000
  -V(xc)+E(xc)   XCENC  =      3650.94732056
  PAW double counting   =    141521.02193701  -146538.61192215
  entropy T*S    EENTRO =        -0.94447781
  eigenvalues    EBANDS =    -15565.12020440
  atomic energy  EATOM  =    136002.60505376
  Solvation  Ediel_sol  =         0.00000000
  ---------------------------------------------------
  free energy    TOTEN  =      -354.29104175 eV

  energy without entropy =     -353.34656393  energy(sigma->0) =     -353.81880284


--------------------------------------------------------------------------------------------------------




--------------------------------------- Iteration      1(  17)  ---------------------------------------


    POTLOK:  cpu time    0.2453: real time    0.2455
    SETDIJ:  cpu time    0.0170: real time    0.0170
     EDDAV:  cpu time    7.4580: real time    7.4623
       DOS:  cpu time    0.0012: real time    0.0012
    CHARGE:  cpu time    0.3959: real time    0.3960
    MIXING:  cpu time    0.0256: real time    0.0256
    --------------------------------------------
      LOOP:  cpu time    8.1431: real time    8.1476

 eigenvalue-minimisations  :  1312
 total energy-change (2. order) : 0.5811500E+00  (-0.4812147E-01)
 number of electron     791.9999772 magnetization 
 augmentation part      312.4264083 magnetization 

 Broyden mixing:
  rms(total) = 0.18402E+01    rms(broyden)= 0.18402E+01
  rms(prec ) = 0.20730E+01
  weight for this iteration     100.00

 eigenvalues of (default mixing * dielectric matrix)
  average eigenvalue GAMMA=   0.4503
  2.1585  0.6046  0.6046  0.4320  0.4320  0.3616  0.2014  0.1571  0.1571  0.1309
  0.1028  0.0604

 Free energy of the ion-electron system (eV)
  ---------------------------------------------------
  alpha Z        PSCENC =      1893.09323658
  Ewald energy   TEWEN  =    224774.28893170
  -Hartree energ DENC   =   -346091.58236501
  -exchange      EXHF   =         0.00000000
  -V(xc)+E(xc)   XCENC  =      3651.08263538
  PAW double counting   =    141348.66590278  -146364.36452034
  entropy T*S    EENTRO =        -0.95862676
  eigenvalues    EBANDS =    -15566.54013984
  atomic energy  EATOM  =    136002.60505376
  Solvation  Ediel_sol  =         0.00000000
  ---------------------------------------------------
  free energy    TOTEN  =      -353.70989176 eV

  energy without entropy =     -352.75126500  energy(sigma->0) =     -353.23057838


--------------------------------------------------------------------------------------------------------




--------------------------------------- Iteration      1(  18)  ---------------------------------------


    POTLOK:  cpu time    0.2750: real time    0.2753
    SETDIJ:  cpu time    0.0171: real time    0.0171
     EDDAV:  cpu time    6.1786: real time    6.1794
       DOS:  cpu time    0.0012: real time    0.0012
    CHARGE:  cpu time    0.2112: real time    0.2112
    MIXING:  cpu time    0.0142: real time    0.0142
    --------------------------------------------
      LOOP:  cpu time    6.6973: real time    6.6983

 eigenvalue-minimisations  :  1024
 total energy-change (2. order) : 0.7630939E-01  (-0.1005787E-01)
 number of electron     791.9999772 magnetization 
 augmentation part      312.3772601 magnetization 

 Broyden mixing:
  rms(total) = 0.18262E+01    rms(broyden)= 0.18262E+01
  rms(prec ) = 0.20587E+01
  weight for this iteration     100.00

 eigenvalues of (default mixing * dielectric matrix)
  average eigenvalue GAMMA=   0.4711
  2.1580  0.6764  0.6764  0.4592  0.4592  0.3263  0.3263  0.2993  0.2026  0.1510
  0.1510  0.1358  0.1022

 Free energy of the ion-electron system (eV)
  ---------------------------------------------------
  alpha Z        PSCENC =      1893.09323658
  Ewald energy   TEWEN  =    224774.28893170
  -Hartree energ DENC   =   -346092.84217259
  -exchange      EXHF   =         0.00000000
  -V(xc)+E(xc)   XCENC  =      3651.10530656
  PAW double counting   =    141317.44655226  -146332.82017818
  entropy T*S    EENTRO =        -0.95835948
  eigenvalues    EBANDS =    -15565.55195298
  atomic energy  EATOM  =    136002.60505376
  Solvation  Ediel_sol  =         0.00000000
  ---------------------------------------------------
  free energy    TOTEN  =      -353.63358237 eV

  energy without entropy =     -352.67522289  energy(sigma->0) =     -353.15440263


--------------------------------------------------------------------------------------------------------




--------------------------------------- Iteration      1(  19)  ---------------------------------------


    POTLOK:  cpu time    0.2436: real time    0.2436
    SETDIJ:  cpu time    0.0178: real time    0.0178
     EDDAV:  cpu time    8.4055: real time    8.4115
       DOS:  cpu time    0.0012: real time    0.0012
    CHARGE:  cpu time    0.2103: real time    0.2103
    MIXING:  cpu time    0.0131: real time    0.0131
    --------------------------------------------
      LOOP:  cpu time    8.8915: real time    8.8974

 eigenvalue-minimisations  :  1520
 total energy-change (2. order) : 0.4949313E+00  (-0.3580752E-02)
 number of electron     791.9999773 magnetization 
 augmentation part      312.3443688 magnetization 

 Broyden mixing:
  rms(total) = 0.17408E+01    rms(broyden)= 0.17408E+01
  rms(prec ) = 0.19636E+01
  weight for this iteration     100.00

 eigenvalues of (default mixing * dielectric matrix)
  average eigenvalue GAMMA=   0.5302
  2.1652  0.9991  0.9991  0.5285  0.5285  0.4579  0.4579  0.3591  0.2019  0.1021
  0.1679  0.1679  0.1439  0.1439

 Free energy of the ion-electron system (eV)
  ---------------------------------------------------
  alpha Z        PSCENC =      1893.09323658
  Ewald energy   TEWEN  =    224774.28893170
  -Hartree energ DENC   =   -346100.02470606
  -exchange      EXHF   =         0.00000000
  -V(xc)+E(xc)   XCENC  =      3651.18182010
  PAW double counting   =    141130.32705837  -146143.39718695
  entropy T*S    EENTRO =        -0.96075578
  eigenvalues    EBANDS =    -15560.25210275
  atomic energy  EATOM  =    136002.60505376
  Solvation  Ediel_sol  =         0.00000000
  ---------------------------------------------------
  free energy    TOTEN  =      -353.13865104 eV

  energy without entropy =     -352.17789526  energy(sigma->0) =     -352.65827315


--------------------------------------------------------------------------------------------------------




--------------------------------------- Iteration      1(  20)  ---------------------------------------


    POTLOK:  cpu time    0.2470: real time    0.2470
    SETDIJ:  cpu time    0.0175: real time    0.0175
     EDDAV:  cpu time    7.7730: real time    7.7743
       DOS:  cpu time    0.0012: real time    0.0012
    CHARGE:  cpu time    0.2123: real time    0.2123
    MIXING:  cpu time    0.0138: real time    0.0138
    --------------------------------------------
      LOOP:  cpu time    8.2649: real time    8.2661

 eigenvalue-minimisations  :  1312
 total energy-change (2. order) : 0.6532710E+00  (-0.2279296E-01)
 number of electron     791.9999776 magnetization 
 augmentation part      312.3467236 magnetization 

 Broyden mixing:
  rms(total) = 0.16099E+01    rms(broyden)= 0.16098E+01
  rms(prec ) = 0.18145E+01
  weight for this iteration     100.00

 eigenvalues of (default mixing * dielectric matrix)
  average eigenvalue GAMMA=   0.6200
  2.1722  1.6753  1.6753  0.6730  0.6730  0.4783  0.4783  0.3648  0.1021  0.1996
  0.1820  0.1820  0.1530  0.1530  0.1381

 Free energy of the ion-electron system (eV)
  ---------------------------------------------------
  alpha Z        PSCENC =      1893.09323658
  Ewald energy   TEWEN  =    224774.28893170
  -Hartree energ DENC   =   -346107.34236793
  -exchange      EXHF   =         0.00000000
  -V(xc)+E(xc)   XCENC  =      3651.24668041
  PAW double counting   =    140916.46243122  -145926.58474221
  entropy T*S    EENTRO =        -0.96765922
  eigenvalues    EBANDS =    -15555.28694437
  atomic energy  EATOM  =    136002.60505376
  Solvation  Ediel_sol  =         0.00000000
  ---------------------------------------------------
  free energy    TOTEN  =      -352.48538007 eV

  energy without entropy =     -351.51772085  energy(sigma->0) =     -352.00155046


--------------------------------------------------------------------------------------------------------




--------------------------------------- Iteration      1(  21)  ---------------------------------------


    POTLOK:  cpu time    0.2467: real time    0.2467
    SETDIJ:  cpu time    0.0180: real time    0.0180
     EDDAV:  cpu time    7.9671: real time    7.9687
       DOS:  cpu time    0.0012: real time    0.0012
    CHARGE:  cpu time    0.2124: real time    0.2124
    MIXING:  cpu time    0.0149: real time    0.0149
    --------------------------------------------
      LOOP:  cpu time    8.4603: real time    8.4620

 eigenvalue-minimisations  :  1408
 total energy-change (2. order) : 0.2400727E+01  (-0.1708879E+00)
 number of electron     791.9999784 magnetization 
 augmentation part      312.2573054 magnetization 

 Broyden mixing:
  rms(total) = 0.82729E+00    rms(broyden)= 0.82675E+00
  rms(prec ) = 0.90146E+00
  weight for this iteration     100.00

 eigenvalues of (default mixing * dielectric matrix)
  average eigenvalue GAMMA=   0.6140
  2.1665  1.8075  1.8075  0.6561  0.6561  0.4747  0.4747  0.3419  0.3162  0.2253
  0.1021  0.1767  0.1625  0.1625  0.1545  0.1392

 Free energy of the ion-electron system (eV)
  ---------------------------------------------------
  alpha Z        PSCENC =      1893.09323658
  Ewald energy   TEWEN  =    224774.28893170
  -Hartree energ DENC   =   -346138.41180888
  -exchange      EXHF   =         0.00000000
  -V(xc)+E(xc)   XCENC  =      3651.67691924
  PAW double counting   =    139839.98651208  -144835.82338495
  entropy T*S    EENTRO =        -0.99325925
  eigenvalues    EBANDS =    -15536.50685378
  atomic energy  EATOM  =    136002.60505376
  Solvation  Ediel_sol  =         0.00000000
  ---------------------------------------------------
  free energy    TOTEN  =      -350.08465351 eV

  energy without entropy =     -349.09139426  energy(sigma->0) =     -349.58802388


--------------------------------------------------------------------------------------------------------




--------------------------------------- Iteration      1(  22)  ---------------------------------------


    POTLOK:  cpu time    0.3391: real time    0.3391
    SETDIJ:  cpu time    0.0360: real time    0.0360
     EDDAV:  cpu time    7.4962: real time    7.4975
       DOS:  cpu time    0.0012: real time    0.0012
    CHARGE:  cpu time    0.2139: real time    0.2139
    MIXING:  cpu time    0.0149: real time    0.0149
    --------------------------------------------
      LOOP:  cpu time    8.1012: real time    8.1025

 eigenvalue-minimisations  :  1304
 total energy-change (2. order) : 0.2296350E+00  (-0.1280689E+00)
 number of electron     791.9999792 magnetization 
 augmentation part      312.0612783 magnetization 

 Broyden mixing:
  rms(total) = 0.60653E+00    rms(broyden)= 0.60623E+00
  rms(prec ) = 0.63071E+00
  weight for this iteration     100.00

 eigenvalues of (default mixing * dielectric matrix)
  average eigenvalue GAMMA=   0.5990
  2.1650  1.8590  1.8590  0.6012  0.6012  0.4649  0.4649  0.4080  0.4080  0.2708
  0.1021  0.1856  0.1856  0.1551  0.1551  0.1583  0.1389

 Free energy of the ion-electron system (eV)
  ---------------------------------------------------
  alpha Z        PSCENC =      1893.09323658
  Ewald energy   TEWEN  =    224774.28893170
  -Hartree energ DENC   =   -346153.86736687
  -exchange      EXHF   =         0.00000000
  -V(xc)+E(xc)   XCENC  =      3651.84786818
  PAW double counting   =    139445.40984483  -144435.82324779
  entropy T*S    EENTRO =        -1.02964327
  eigenvalues    EBANDS =    -15526.37969558
  atomic energy  EATOM  =    136002.60505376
  Solvation  Ediel_sol  =         0.00000000
  ---------------------------------------------------
  free energy    TOTEN  =      -349.85501847 eV

  energy without entropy =     -348.82537520  energy(sigma->0) =     -349.34019684


--------------------------------------------------------------------------------------------------------




--------------------------------------- Iteration      1(  23)  ---------------------------------------


    POTLOK:  cpu time    0.2502: real time    0.2502
    SETDIJ:  cpu time    0.0171: real time    0.0171
     EDDAV:  cpu time    7.1988: real time    7.2052
       DOS:  cpu time    0.0012: real time    0.0012
    CHARGE:  cpu time    0.2147: real time    0.2148
    MIXING:  cpu time    0.0164: real time    0.0164
    --------------------------------------------
      LOOP:  cpu time    7.6985: real time    7.7049

 eigenvalue-minimisations  :  1248
 total energy-change (2. order) : 0.3064886E-01  (-0.1851359E-01)
 number of electron     791.9999791 magnetization 
 augmentation part      312.0639593 magnetization 

 Broyden mixing:
  rms(total) = 0.56335E+00    rms(broyden)= 0.56330E+00
  rms(prec ) = 0.58398E+00
  weight for this iteration     100.00

 eigenvalues of (default mixing * dielectric matrix)
  average eigenvalue GAMMA=   0.6198
  2.1523  1.9219  1.9219  0.6419  0.6419  0.6377  0.6377  0.4790  0.4790  0.3660
  0.1021  0.1930  0.1885  0.1885  0.1579  0.1579  0.1509  0.1390

 Free energy of the ion-electron system (eV)
  ---------------------------------------------------
  alpha Z        PSCENC =      1893.09323658
  Ewald energy   TEWEN  =    224774.28893170
  -Hartree energ DENC   =   -346156.78559396
  -exchange      EXHF   =         0.00000000
  -V(xc)+E(xc)   XCENC  =      3651.85475974
  PAW double counting   =    139350.94700250  -144340.00212076
  entropy T*S    EENTRO =        -1.04022472
  eigenvalues    EBANDS =    -15524.78541445
  atomic energy  EATOM  =    136002.60505376
  Solvation  Ediel_sol  =         0.00000000
  ---------------------------------------------------
  free energy    TOTEN  =      -349.82436961 eV

  energy without entropy =     -348.78414489  energy(sigma->0) =     -349.30425725


--------------------------------------------------------------------------------------------------------




--------------------------------------- Iteration      1(  24)  ---------------------------------------


    POTLOK:  cpu time    0.2503: real time    0.2503
    SETDIJ:  cpu time    0.0172: real time    0.0172
     EDDAV:  cpu time    7.4224: real time    7.4255
       DOS:  cpu time    0.0012: real time    0.0012
    CHARGE:  cpu time    0.2126: real time    0.2126
    MIXING:  cpu time    0.0188: real time    0.0188
    --------------------------------------------
      LOOP:  cpu time    7.9225: real time    7.9256

 eigenvalue-minimisations  :  1248
 total energy-change (2. order) : 0.4123556E-01  (-0.1013133E-01)
 number of electron     791.9999792 magnetization 
 augmentation part      312.0660208 magnetization 

 Broyden mixing:
  rms(total) = 0.48237E+00    rms(broyden)= 0.48229E+00
  rms(prec ) = 0.49831E+00
  weight for this iteration     100.00

 eigenvalues of (default mixing * dielectric matrix)
  average eigenvalue GAMMA=   0.6328
  2.1575  1.9489  1.9489  0.8784  0.8784  0.7604  0.6113  0.4772  0.4772  0.3666
  0.2411  0.2124  0.1021  0.1803  0.1803  0.1563  0.1563  0.1388  0.1505

 Free energy of the ion-electron system (eV)
  ---------------------------------------------------
  alpha Z        PSCENC =      1893.09323658
  Ewald energy   TEWEN  =    224774.28893170
  -Hartree energ DENC   =   -346163.53944545
  -exchange      EXHF   =         0.00000000
  -V(xc)+E(xc)   XCENC  =      3651.87860699
  PAW double counting   =    139117.71534722  -144103.89769007
  entropy T*S    EENTRO =        -1.03933372
  eigenvalues    EBANDS =    -15520.88784106
  atomic energy  EATOM  =    136002.60505376
  Solvation  Ediel_sol  =         0.00000000
  ---------------------------------------------------
  free energy    TOTEN  =      -349.78313405 eV

  energy without entropy =     -348.74380034  energy(sigma->0) =     -349.26346719


--------------------------------------------------------------------------------------------------------




--------------------------------------- Iteration      1(  25)  ---------------------------------------


    POTLOK:  cpu time    0.2511: real time    0.2513
    SETDIJ:  cpu time    0.0171: real time    0.0171
     EDDAV:  cpu time    6.4335: real time    6.4341
       DOS:  cpu time    0.0013: real time    0.0013
    CHARGE:  cpu time    0.2160: real time    0.2160
    MIXING:  cpu time    0.0178: real time    0.0188
    --------------------------------------------
      LOOP:  cpu time    6.9367: real time    6.9386

 eigenvalue-minimisations  :  1080
 total energy-change (2. order) : 0.1555590E-01  (-0.1918741E-01)
 number of electron     791.9999789 magnetization 
 augmentation part      312.1920338 magnetization 

 Broyden mixing:
  rms(total) = 0.39535E+00    rms(broyden)= 0.39515E+00
  rms(prec ) = 0.41532E+00
  weight for this iteration     100.00

 eigenvalues of (default mixing * dielectric matrix)
  average eigenvalue GAMMA=   0.6571
  1.9857  1.9857  1.5995  1.5995  1.0755  1.0755  0.4760  0.4760  0.5227  0.5227
  0.3743  0.2068  0.1021  0.1846  0.1846  0.1719  0.1561  0.1561  0.1389  0.1487

 Free energy of the ion-electron system (eV)
  ---------------------------------------------------
  alpha Z        PSCENC =      1893.09323658
  Ewald energy   TEWEN  =    224774.28893170
  -Hartree energ DENC   =   -346162.87926668
  -exchange      EXHF   =         0.00000000
  -V(xc)+E(xc)   XCENC  =      3651.79952140
  PAW double counting   =    139086.21952287  -144072.10919930
  entropy T*S    EENTRO =        -1.02496962
  eigenvalues    EBANDS =    -15521.76040885
  atomic energy  EATOM  =    136002.60505376
  Solvation  Ediel_sol  =         0.00000000
  ---------------------------------------------------
  free energy    TOTEN  =      -349.76757815 eV

[...]
    FORCOR:  cpu time    0.3388: real time    0.3389
    FORHAR:  cpu time    0.1513: real time    0.1513
    MIXING:  cpu time    0.0302: real time    0.0302
    OFIELD:  cpu time    0.0001: real time    0.0001

  FORCE on cell =-STRESS in cart. coord.  units (eV):
  Direction    XX          YY          ZZ          XY          YZ          ZX
  --------------------------------------------------------------------------------------
  Alpha Z  1893.09324  1893.09324  1893.09324
  Ewald  273560.70083276762.74009************ -1189.80581  -647.70211  1709.09863
  Hartree309814.13777311918.92982************  -945.30591  -428.78216  1154.98507
  E(xc)   -5053.28594 -5050.90120 -5057.28057    -0.51690    -0.74002     1.35306
  Local  ************************588004.60408  2129.73761  1056.65245 -2811.11617
  n-local  -620.11009  -607.08959  -618.18499    -2.10389    -0.10511     3.17699
  augment  5799.42670  5770.71986  5806.09455     1.19232     4.24305   -18.34316
  Kinetic 11101.77977 11047.99993 11157.25588     3.47367    11.95125   -35.76861
  Fock        0.00000     0.00000     0.00000     0.00000     0.00000     0.00000
  -------------------------------------------------------------------------------------
  Total      86.03562    90.59654   114.29443    -3.32891    -4.48264     3.38581
  in kB      70.15032    73.86913    93.19152    -2.71427    -3.65498     2.76067
  external pressure =       79.07 kB  Pullay stress =        0.00 kB


 VOLUME and BASIS-vectors are now :
 -----------------------------------------------------------------------------
  energy-cutoff  :      450.00
  volume of cell :     1964.98
      direct lattice vectors                 reciprocal lattice vectors
    10.079732985  0.000000000  0.000000000     0.099208977 -0.037612667  0.000000000
     3.573298043  9.425102554  0.000000000     0.000000000  0.106099641  0.000000000
     0.000000000  0.000000000 20.683503555     0.000000000  0.000000000  0.048347708

  length of vectors
    10.079732985 10.079732985 20.683503555     0.106099641  0.106099641  0.048347708


 FORCES acting on ions
    electron-ion (+dipol)            ewald-force                    non-local-force                 convergence-correction
 -----------------------------------------------------------------------------------------------
   0.436E+03 -.628E+03 0.335E+04   -.439E+03 0.633E+03 -.335E+04   0.241E+01 -.418E+01 0.233E+01   0.228E-01 0.670E-02 -.183E-01
   0.952E+01 -.452E+03 -.212E+03   -.105E+02 0.453E+03 0.213E+03   0.102E+01 -.142E+01 -.102E+01   -.141E-01 0.151E-01 -.105E+00
   -.492E+03 -.412E+03 -.354E+04   0.493E+03 0.416E+03 0.354E+04   -.192E+01 -.371E+01 -.449E+00   0.527E-01 -.115E+00 -.420E-01
   -.974E+02 -.557E+02 0.163E+04   0.973E+02 0.541E+02 -.162E+04   0.359E+00 0.389E+00 -.295E+01   -.598E-02 -.864E-01 -.208E-02
   0.911E+02 -.434E+03 -.137E+04   -.919E+02 0.434E+03 0.137E+04   0.845E+00 0.109E+00 0.296E+00   -.403E-01 0.121E-01 -.123E+00
   0.171E+03 -.714E+03 -.460E+04   -.172E+03 0.715E+03 0.460E+04   0.734E+00 -.967E+00 -.218E+01   -.143E-01 0.567E-01 -.144E+00
   0.454E+02 -.262E+03 0.450E+04   -.474E+02 0.260E+03 -.450E+04   0.177E+01 0.171E+01 0.355E+01   -.132E-01 0.140E-02 -.754E-02
   0.205E+03 -.897E+02 -.521E+04   -.207E+03 0.969E+02 0.521E+04   0.891E+00 -.780E+01 -.431E+01   0.187E-02 0.427E-01 -.411E-01
   0.117E+03 -.351E+03 0.348E+04   -.118E+03 0.350E+03 -.349E+04   0.429E+00 0.454E+00 0.414E+01   0.415E-01 -.414E-01 -.511E-01
   -.234E+03 -.219E+03 0.678E+03   0.235E+03 0.217E+03 -.674E+03   -.788E+00 0.846E+00 -.280E+01   0.163E-01 0.854E-01 -.109E+00
   -.372E+02 -.488E+03 -.205E+04   0.373E+02 0.491E+03 0.205E+04   0.382E+00 -.269E+01 0.408E+00   0.654E-01 0.440E-01 -.104E+00
   0.331E+03 0.229E+03 0.426E+04   -.333E+03 -.230E+03 -.427E+04   0.230E+01 0.644E+00 0.222E+01   0.551E-01 -.619E-01 -.373E-01
   0.504E+03 0.251E+03 0.821E+03   -.506E+03 -.249E+03 -.820E+03   0.177E+01 -.126E+01 -.167E+01   -.879E-02 -.992E-01 -.138E+00
   0.340E+03 0.312E+03 -.214E+04   -.342E+03 -.314E+03 0.214E+04   0.251E+01 0.732E+00 0.692E+00   0.459E-01 -.850E-01 -.856E-01
   0.174E+03 -.981E+02 -.517E+04   -.177E+03 0.948E+02 0.518E+04   0.194E+01 0.366E+01 -.239E+01   0.118E+00 0.482E-01 0.258E-02
   0.533E+03 0.602E+03 0.314E+04   -.536E+03 -.603E+03 -.314E+04   0.168E+01 0.468E+00 0.137E+00   -.484E-01 -.274E-01 0.251E-01
   0.390E+03 0.251E+03 -.798E+02   -.392E+03 -.251E+03 0.793E+02   0.135E+01 0.161E+00 0.510E+00   -.383E-01 0.461E-01 -.824E-01
   0.331E+03 -.347E+02 -.299E+04   -.333E+03 0.348E+02 0.299E+04   0.190E+01 0.231E+00 0.106E+01   -.118E+00 0.172E-01 -.210E+00
   -.288E+03 0.220E+03 -.541E+04   0.285E+03 -.222E+03 0.541E+04   0.329E+01 0.118E+01 0.240E-01   -.638E-01 -.316E-01 0.311E-01
   0.356E+03 -.299E+02 0.588E+04   -.358E+03 0.279E+02 -.589E+04   0.158E+01 0.296E+01 0.577E+01   -.426E-01 -.250E-01 -.211E-01
   0.308E+03 -.162E+03 0.463E+04   -.311E+03 0.163E+03 -.464E+04   0.267E+01 -.211E+01 0.534E+01   0.115E-01 -.290E-01 0.470E-01
   0.320E+03 0.306E+03 0.165E+04   -.320E+03 -.307E+03 -.165E+04   0.927E-01 0.238E+00 -.339E+01   0.239E-01 0.732E-01 -.445E-01
   0.496E+03 0.539E+03 -.136E+04   -.500E+03 -.541E+03 0.136E+04   0.318E+01 0.181E+01 -.570E+00   0.719E-01 -.358E-02 -.102E+00
   -.617E+03 -.444E+03 -.446E+04   0.622E+03 0.443E+03 0.446E+04   -.366E+01 0.166E+01 -.143E+01   -.675E-01 0.975E-02 -.364E-01
   -.195E+03 0.544E+03 0.522E+04   0.193E+03 -.545E+03 -.522E+04   0.285E+01 -.427E+00 0.372E+01   -.776E-03 -.734E-01 -.225E-01
   -.538E+03 0.159E+03 0.198E+04   0.540E+03 -.158E+03 -.198E+04   -.178E+01 -.884E+00 -.179E+01   -.953E-02 -.106E+00 -.122E+00
   -.606E+03 0.757E+02 -.126E+04   0.608E+03 -.754E+02 0.126E+04   -.322E+01 -.845E+00 0.164E+01   0.424E-01 -.880E-01 -.621E-01
   -.876E+03 0.468E+03 0.433E+04   0.877E+03 -.469E+03 -.433E+04   0.121E+01 0.589E+00 0.106E+01   -.989E-02 -.155E-01 0.541E-01
   -.285E+03 0.121E+03 0.971E+03   0.285E+03 -.121E+03 -.970E+03   0.304E+00 -.579E+00 -.182E+00   -.176E-02 0.438E-01 -.752E-01
   -.182E+03 0.660E+02 -.207E+04   0.183E+03 -.665E+02 0.207E+04   -.166E+01 0.553E+00 0.276E+01   -.149E-01 0.848E-01 -.238E+00
   -.149E+03 0.578E+03 -.479E+04   0.148E+03 -.580E+03 0.479E+04   0.143E+01 0.144E+01 -.355E-01   0.775E-01 0.466E-01 -.644E-01
   -.808E+03 -.715E+02 0.332E+04   0.813E+03 0.712E+02 -.332E+04   -.494E+01 0.385E+00 0.358E+00   -.248E-01 0.104E+00 0.317E-02
   -.520E+03 0.126E+03 -.575E+02   0.523E+03 -.125E+03 0.554E+02   -.242E+01 -.679E+00 0.126E+01   -.260E-01 0.291E-01 -.360E-01
   0.442E+03 0.689E+03 -.356E+04   -.443E+03 -.694E+03 0.356E+04   0.144E+01 0.479E+01 0.265E+01   -.342E-01 0.504E-01 -.938E-01
   0.107E+03 0.327E+03 -.448E+04   -.109E+03 -.329E+03 0.448E+04   0.128E+01 0.224E+01 -.332E+01   -.248E-01 -.365E-01 -.244E-01
   -.287E+03 -.493E+03 0.530E+04   0.288E+03 0.499E+03 -.531E+04   0.148E+00 -.535E+01 0.981E+01   0.928E-01 0.972E-01 0.927E-01
   -.823E+02 -.351E+02 -.216E+04   0.836E+02 0.350E+02 0.217E+04   -.562E+00 -.124E+00 -.151E+01   -.219E-02 0.273E-01 -.176E-02
   0.849E+02 0.194E+03 0.175E+04   -.850E+02 -.195E+03 -.175E+04   -.859E+00 0.243E+01 0.321E+01   0.160E-01 -.321E-01 -.209E-01
   -.477E+02 0.801E+02 0.780E+02   0.479E+02 -.813E+02 -.763E+02   0.154E-01 0.122E+01 -.493E+00   0.486E-02 -.401E-01 -.706E-01
   -.377E+02 0.632E+02 -.891E+03   0.363E+02 -.660E+02 0.886E+03   0.927E+00 0.182E+01 0.128E+01   0.237E-01 -.274E-02 -.440E-02
   0.812E+02 0.445E+03 0.220E+04   -.817E+02 -.448E+03 -.221E+04   0.143E+00 0.113E+01 0.675E+00   -.162E-01 -.183E-02 0.307E-01
   0.560E+02 0.131E+03 0.112E+04   -.557E+02 -.133E+03 -.112E+04   -.170E+00 0.172E+01 0.789E+00   -.196E-01 0.350E-01 -.900E-02
   0.345E+02 0.101E+03 -.131E+03   -.349E+02 -.104E+03 0.130E+03   0.312E+00 0.234E+01 0.481E+00   -.100E-01 0.360E-01 -.254E-01
   -.144E+03 0.185E+03 -.149E+04   0.145E+03 -.187E+03 0.149E+04   -.732E+00 0.132E+01 -.118E+01   -.403E-01 -.124E-01 -.428E-01
   -.334E+02 0.931E+02 0.472E+03   0.341E+02 -.938E+02 -.470E+03   -.935E+00 0.106E+01 -.179E+01   0.718E-02 -.752E-03 -.625E-02
   0.661E+02 0.253E+03 -.485E+03   -.666E+02 -.255E+03 0.485E+03   0.443E+00 0.682E+00 0.479E+00   -.187E-02 -.134E-01 -.308E-01
   0.264E+03 0.918E+02 -.163E+04   -.266E+03 -.926E+02 0.163E+04   0.129E+01 0.126E+00 0.796E+00   -.238E-01 0.266E-01 -.280E-01
   -.112E+03 0.981E+02 0.214E+04   0.113E+03 -.102E+03 -.215E+04   -.103E+01 0.255E+01 0.527E+01   0.200E-02 0.284E-01 -.394E-02
   0.204E+03 -.150E+03 0.232E+04   -.207E+03 0.151E+03 -.233E+04   0.225E+01 0.510E+00 0.152E+01   0.436E-02 -.299E-01 -.247E-02
   -.742E+02 -.330E+02 0.813E+03   0.759E+02 0.332E+02 -.810E+03   -.112E+01 0.183E+00 -.296E+00   0.354E-03 -.349E-02 -.530E-01
   -.153E+03 -.821E+02 -.297E+03   0.155E+03 0.840E+02 0.296E+03   -.194E+01 -.162E+01 -.297E-01   0.336E-01 -.176E-01 -.407E-01
   -.356E+03 -.230E+03 -.171E+04   0.361E+03 0.233E+03 0.171E+04   -.283E+01 -.130E+01 -.263E-01   0.215E-01 -.474E-01 0.470E-02
   -.347E+03 -.127E+03 0.190E+04   0.349E+03 0.129E+03 -.190E+04   -.814E+00 -.611E+00 0.953E+00   0.221E-01 -.134E-01 0.236E-02
   -.107E+03 -.609E+02 0.572E+03   0.109E+03 0.622E+02 -.573E+03   -.212E+01 -.189E+01 0.836E+00   -.149E-01 -.171E-01 -.198E-01
   -.605E+02 -.121E+03 -.626E+03   0.623E+02 0.123E+03 0.626E+03   -.182E+01 -.205E+01 -.602E+00   0.414E-02 0.111E-03 -.694E-01
   -.364E+01 -.105E+03 -.196E+04   0.556E+01 0.105E+03 0.196E+04   -.140E+01 0.533E+00 -.952E+00   0.455E-01 0.690E-01 -.638E-02
   -.171E+03 -.132E+03 0.200E+03   0.173E+03 0.134E+03 -.200E+03   -.198E+01 -.197E+01 0.648E+00   -.137E-01 0.198E-01 -.185E-01
   -.188E+03 -.771E+02 -.899E+03   0.191E+03 0.795E+02 0.897E+03   -.183E+01 -.536E+00 -.663E+00   -.282E-01 0.169E-01 -.287E-01
   0.178E+03 0.194E+03 -.221E+04   -.179E+03 -.195E+03 0.221E+04   0.561E+00 0.117E+01 -.323E+01   -.461E-01 0.461E-02 0.212E-01
   -.320E+03 -.112E+03 0.164E+04   0.323E+03 0.113E+03 -.164E+04   -.152E+00 -.419E+00 0.313E+01   -.200E-01 0.307E-01 0.887E-02
   0.760E+02 -.167E+03 0.182E+04   -.778E+02 0.169E+03 -.183E+04   0.123E+01 -.533E+00 0.363E+01   -.269E-02 0.420E-02 -.507E-02
   0.138E+03 -.141E+03 0.430E+03   -.139E+03 0.143E+03 -.427E+03   0.207E+01 -.130E+01 0.330E+00   -.231E-01 -.258E-03 -.292E-01
   0.185E+03 -.996E+02 -.593E+03   -.189E+03 0.102E+03 0.592E+03   0.479E+01 -.202E+01 -.172E+01   -.278E-01 -.135E-01 -.350E-01
   -.746E+02 -.299E+02 -.207E+04   0.749E+02 0.304E+02 0.207E+04   -.202E+00 0.107E+00 -.226E+01   0.327E-01 -.425E-01 0.234E-01
   0.130E+03 -.491E+02 0.461E+02   -.133E+03 0.505E+02 -.461E+02   0.266E+01 -.161E+01 -.300E+00   0.912E-02 -.188E-01 -.419E-01
   0.109E+03 -.179E+03 -.116E+04   -.112E+03 0.180E+03 0.116E+04   0.352E+01 -.124E+01 -.132E+01   -.514E-01 0.124E-01 -.511E-01
   0.306E+01 -.214E+03 -.225E+04   -.520E+01 0.216E+03 0.225E+04   0.123E+01 -.576E+00 -.162E+01   -.329E-01 0.262E-02 0.193E-01
   0.354E+03 0.101E+02 0.144E+04   -.358E+03 -.942E+01 -.144E+04   0.279E+01 0.182E+00 0.195E+01   -.195E-01 -.372E-01 0.350E-02
   0.159E+03 -.278E+03 0.223E+04   -.159E+03 0.280E+03 -.223E+04   -.772E+00 0.146E+00 0.140E+01   0.299E-01 0.110E-01 0.126E-01
   0.304E+03 -.176E+03 0.908E+03   -.308E+03 0.179E+03 -.906E+03   0.257E+01 -.223E+01 0.219E+00   0.410E-01 0.315E-01 -.182E-01
   0.153E+03 -.615E+02 -.296E+03   -.156E+03 0.625E+02 0.296E+03   0.258E+01 -.976E+00 -.866E+00   0.226E-01 0.271E-01 -.455E-01
   0.204E+03 0.306E+03 -.161E+04   -.208E+03 -.306E+03 0.161E+04   0.244E+01 -.229E+00 -.476E+00   0.896E-01 -.204E-01 -.464E-01
 -----------------------------------------------------------------------------------------------
   -.319E+02 0.767E+01 -.269E+02   0.284E-12 -.216E-11 -.978E-11   0.319E+02 -.763E+01 0.295E+02   0.134E+00 0.737E-02 -.262E+01
 
 
 POSITION                                       TOTAL-FORCE (eV/Angst)
 -----------------------------------------------------------------------------------
      6.84285      7.49250      2.44401        -0.573913      0.664244      1.915643
      7.82056      6.07621      5.06951        -0.007752     -0.199836      0.199589
      8.79827      4.65991      7.69501        -0.680904      0.412638     -0.389090
      2.61774      3.87870      3.31918         0.258215     -1.303666      2.361581
      3.59545      2.46241      5.94468         0.056274     -0.528948      0.277668
      4.57317      1.04611      8.57018         0.019356      0.187713     -0.134452
     12.13565      5.60823      1.94270        -0.237514     -0.223833     -0.635676
      3.92715      7.58711      9.22754        -0.344594     -0.540182      1.073701
      7.86979      2.00211      2.85193        -0.222301     -0.191751     -0.719955
      8.47237      0.26490      4.19434         0.463706     -1.107350      1.291870
     13.02338      8.27371      6.81985         0.583708      0.307845     -0.903676
      5.63841      5.20922      2.15408        -0.119047     -0.657639     -1.007466
      6.61816      3.96023      4.37584        -0.176590      0.157792     -0.161767
      7.59587      2.54394      7.00134         0.049735     -0.599075     -1.505435
      8.30691      1.08678      9.24492        -1.090454      0.453396      1.102814
      1.41534      1.76273      2.62550        -0.957578     -0.774067      1.924932
      2.39305      0.34643      5.25100         0.136008      0.123637     -0.032087
      6.94406      8.35524      7.87651        -0.465265      0.334879     -3.009617
      6.94573      6.80060      9.60148         0.923482     -0.507113      0.547880
      2.03392      3.41988      0.82309        -0.425927      0.963675     -1.765808
      9.33492      7.99113      1.63290        -0.049901     -1.016580      0.357913
     10.84326      7.57403      3.50067         0.185494     -0.230749      0.625952
     11.82097      6.15773      6.12617        -0.946759     -0.134728     -1.152592
      0.83686      1.51473      8.61416         0.704548      0.579905      0.818020
      8.07686      5.60071      1.47846         0.496743     -1.207181     -0.628651
      9.02296      4.33443      3.68216         0.215289     -0.091402     -0.152937
     10.00068      2.91813      6.30767        -0.337212     -0.566896     -1.708287
      3.82015      2.13692      1.93183         1.843323     -0.756664      1.586191
      4.79786      0.72063      4.55733        -0.179200     -0.051890      0.140904
      9.34887      8.72943      7.18283        -0.645875      0.137483     -2.009366
     10.63698      7.52730      8.71144        -0.090883     -0.842843      1.014140
      3.16834      7.94822      2.80700        -0.023817      0.207668      0.450907
      4.14605      6.53193      5.43250         0.609634      0.590513     -0.884360
      4.09740      5.40187      7.94543         0.067998     -1.025992      1.195625
      6.26794      4.43987      8.64923        -0.402168      0.255769      1.228470
      7.75323      0.02060      1.48701         1.015333      0.889745     -0.769381
     10.04088      0.10177      9.86758         0.736814     -0.281678      2.451678
      7.35546      3.82659      2.24358        -1.026423      0.456612     -1.648173
      8.33317      2.41029      4.86908         0.262054     -0.103456      1.081763
      9.31088      0.99399      7.49458        -0.519283     -0.971989     -3.603195
      2.29248      1.42594      0.79236        -0.388738     -2.211888     -3.530991
      3.13035      0.21279      3.11874         0.154893      0.094577      0.284586
      7.68136      8.22159      5.74425        -0.078162     -0.050572     -0.366727
      8.65907      6.80530      8.36975         0.979485     -1.261677      0.195750
      2.47854      6.02409      3.99391        -0.220284      0.402284      0.389445
      3.33061      4.64910      6.15270        -0.128974     -0.681652      0.167778
      4.54394      3.27118      8.42286        -0.910407     -0.665252      0.937427
     11.58056      7.44039      1.36841         0.083455     -1.298246     -2.097506
      7.66543      7.37331      0.57721        -0.540924      0.975413     -3.700178
      8.88655      6.52099      3.12687         0.557528      0.347438      2.542314
      9.86427      5.10469      5.75238         0.117515      0.259814     -0.244136
     10.50082      3.51672      8.19159         2.512571      1.779223      2.149409
      3.77821      4.26592      1.57506         1.360909      0.960269     -1.760472
      4.66145      2.90719      4.00204         0.123030     -0.566486      0.093305
      5.63916      1.49089      6.62754        -0.035119     -0.151053     -1.120690
      6.46984      0.08219      9.00142         0.561232      0.245446      2.118952
      4.00964      8.71849      4.87721         0.059691     -0.171419      0.244074
      4.98735      7.30220      7.50271         1.322927      1.878242     -2.797016
      5.12468      5.86712      9.75707        -0.402235     -0.407690      3.608974
      9.53836      0.70969      2.25171         2.394975      0.890492      0.167944
      4.85801      7.15638      1.82728        -0.587677      0.816290     -2.254082
      5.82436      6.04450      4.01017         0.598199      0.594197      2.812791
      6.80207      4.62821      6.63567         0.356362      0.683525     -2.268823
      7.86876      3.15320      8.97314         0.142930      0.597959      2.641155
      1.59925      2.43070      4.88534        -0.188230     -0.247367     -0.386177
      2.57697      1.01441      7.51084         0.187845      0.092098     -0.708898
      7.34426      8.88159      9.77329        -0.935488      1.015236      3.644759
     10.70128      3.84700      2.25984        -1.103259      0.834794      0.158353
      6.10848      0.05609      0.30816        -1.624212      2.169434     -3.197311
      6.47617      0.23320      3.13500        -1.490311      0.545091      2.194882
     11.02718      8.24201      5.76051         0.069215      0.121568     -0.315635
     12.41422      6.66881      8.12220        -2.053097     -0.398094      1.571473
 -----------------------------------------------------------------------------------
    total drift:                                0.126945      0.044126     -0.024939


--------------------------------------------------------------------------------------------------------



  FREE ENERGIE OF THE ION-ELECTRON SYSTEM (eV)
  ---------------------------------------------------
  free  energy   TOTEN  =      -349.72904704 eV

  energy  without entropy=     -348.69290388  energy(sigma->0) =     -349.21097546
 


--------------------------------------------------------------------------------------------------------


    POTLOK:  cpu time    0.2671: real time    0.2673


--------------------------------------------------------------------------------------------------------


     LOOP+:  cpu time  289.3047: real time  289.4141
    4ORBIT:  cpu time    0.0000: real time    0.0000

 total amount of memory used by VASP MPI-rank0    68406. kBytes
=======================================================================

   base      :      30000. kBytes
   nonlr-proj:       2291. kBytes
   fftplans  :       8265. kBytes
   grid      :      13942. kBytes
   one-center:         93. kBytes
   wavefun   :      13815. kBytes
 
  
  
 General timing and accounting informations for this job:
 ========================================================
  
                  Total CPU time used (sec):      292.054
                            User time (sec):      291.675
                          System time (sec):        0.379
                         Elapsed time (sec):      292.411
  
                   Maximum memory used (kb):      187632.
                   Average memory used (kb):           0.
  
                          Minor page faults:       120561
                          Major page faults:            0
                 Voluntary context switches:          241
