       N       E                     dE             d eps       ncg     rms          rms(c)
DAV:   1     0.888679111725E+04    0.88868E+04   -0.50604E+05  1176   0.154E+03
DAV:   2     0.483577056562E+03   -0.84032E+04   -0.81100E+04  1020   0.490E+02
DAV:   3    -0.349471728836E+03   -0.83305E+03   -0.80165E+03  1104   0.163E+02
DAV:   4    -0.392308042364E+03   -0.42836E+02   -0.42366E+02  1096   0.352E+01
DAV:   5    -0.393860752203E+03   -0.15527E+01   -0.15505E+01  1168   0.703E+00    0.987E+01
DAV:   6    -0.461016746987E+03   -0.67156E+02   -0.99071E+02  1184   0.127E+02    0.159E+02
DAV:   7    -0.358375328960E+03    0.10264E+03   -0.19681E+02  1104   0.716E+01    0.666E+01
DAV:   8    -0.381810682716E+03   -0.23435E+02   -0.22282E+02  1320   0.776E+01    0.106E+02
DAV:   9    -0.361444185943E+03    0.20366E+02   -0.96243E+01  1216   0.507E+01    0.536E+01
DAV:  10    -0.379106593533E+03   -0.17662E+02   -0.83064E+01  1320   0.587E+01    0.961E+01
DAV:  11    -0.358299612224E+03    0.20807E+02   -0.71843E+01  1312   0.415E+01    0.439E+01
DAV:  12    -0.349299781015E+03    0.89998E+01   -0.23276E+01  1296   0.314E+01    0.301E+01
DAV:  13    -0.349212224027E+03    0.87557E-01   -0.19247E+01  1312   0.287E+01    0.375E+01
DAV:  14    -0.344700804703E+03    0.45114E+01   -0.13656E+01  1320   0.199E+01    0.194E+01
DAV:  15    -0.343599005386E+03    0.11018E+01   -0.27929E+00  1312   0.108E+01    0.152E+01
DAV:  16    -0.343059768199E+03    0.53924E+00   -0.12564E+00  1296   0.713E+00    0.122E+01
DAV:  17    -0.342710617571E+03    0.34915E+00   -0.67545E-01  1312   0.550E+00    0.105E+01
DAV:  18    -0.342483637143E+03    0.22698E+00   -0.46618E-01  1288   0.400E+00    0.902E+00
DAV:  19    -0.342283416118E+03    0.20022E+00   -0.35220E-01  1304   0.403E+00    0.772E+00
DAV:  20    -0.342035212169E+03    0.24820E+00   -0.43119E-01  1360   0.432E+00    0.546E+00
DAV:  21    -0.341911546015E+03    0.12367E+00   -0.28920E-01  1312   0.331E+00    0.291E+00
DAV:  22    -0.341893650227E+03    0.17896E-01   -0.11608E-01  1248   0.169E+00    0.234E+00
DAV:  23    -0.341884088453E+03    0.95618E-02   -0.59512E-02  1200   0.158E+00    0.199E+00
DAV:  24    -0.341879165936E+03    0.49225E-02   -0.39799E-02  1288   0.125E+00    0.178E+00
DAV:  25    -0.341871280402E+03    0.78855E-02   -0.45091E-02  1304   0.153E+00    0.144E+00
DAV:  26    -0.341866289714E+03    0.49907E-02   -0.32568E-02  1280   0.111E+00    0.992E-01
DAV:  27    -0.341863643300E+03    0.26464E-02   -0.15841E-02  1296   0.912E-01    0.658E-01
DAV:  28    -0.341862739569E+03    0.90373E-03   -0.50572E-03  1288   0.448E-01    0.505E-01
DAV:  29    -0.341862499844E+03    0.23972E-03   -0.20674E-03  1160   0.323E-01    0.425E-01
DAV:  30    -0.341862450843E+03    0.49001E-04   -0.10559E-03  1048   0.214E-01    0.299E-01
DAV:  31    -0.341862582699E+03   -0.13186E-03   -0.89735E-04  1032   0.238E-01    0.228E-01
DAV:  32    -0.341863023066E+03   -0.44037E-03   -0.79964E-04   952   0.194E-01    0.143E-01
DAV:  33    -0.341863163610E+03   -0.14054E-03   -0.41881E-04   840   0.146E-01    0.793E-02
DAV:  34    -0.341863598828E+03   -0.43522E-03   -0.13729E-04   584   0.813E-02    0.770E-02
DAV:  35    -0.341863864650E+03   -0.26582E-03   -0.12233E-04   584   0.834E-02    0.530E-02
DAV:  36    -0.341864554041E+03   -0.68939E-03   -0.11700E-04   640   0.587E-02    0.574E-02
DAV:  37    -0.341864973314E+03   -0.41927E-03   -0.11240E-04   600   0.689E-02    0.462E-02
DAV:  38    -0.341865440310E+03   -0.46700E-03   -0.96814E-05   600   0.461E-02    0.374E-02
DAV:  39    -0.341865825358E+03   -0.38505E-03   -0.75452E-05   632   0.507E-02    0.474E-02
DAV:  40    -0.341866166944E+03   -0.34159E-03   -0.70254E-05   592   0.365E-02    0.315E-02
DAV:  41    -0.341866340560E+03   -0.17362E-03   -0.36242E-05   584   0.295E-02    0.329E-02
DAV:  42    -0.341866524605E+03   -0.18405E-03   -0.31826E-05   576   0.255E-02    0.156E-02
DAV:  43    -0.341866584067E+03   -0.59462E-04   -0.16506E-05   592   0.148E-02
   1 F= -.34186658E+03 E0= -.34132367E+03  d E =-.108583E+01
