LAMMPS data file via write_data, version 5 Jun 2019, timestep = 50

104 atoms
2 atom types

0.0000000000000000e+00 1.1256463038200000e+01 xlo xhi
0.0000000000000000e+00 1.0062820337100000e+01 ylo yhi
0.0000000000000000e+00 2.2883649387500000e+01 zlo zhi
5.0445621212000002e+00 0.0000000000000000e+00 0.0000000000000000e+00 xy xz yz

Masses

1 58.71
2 32.06

Atoms # atomic

1 1 5.3522814389000004e+00 4.8178807436000000e+00 6.6478400576999999e+00 0 0 0
2 1 5.9359508115999997e+00 3.8723794831000009e+00 9.5838980191999994e+00 0 0 0
3 1 6.0757501846900279e+00 3.1152711302572618e+00 1.1967061055768111e+01 0 0 0
4 1 1.3337039262322443e+00 2.0102761111450560e+00 2.0638106809601409e+00 0 0 0
5 1 2.2463310649000001e+00 7.3197197650000023e-01 3.7117820962999999e+00 0 0 0
6 1 8.6298345620685890e-01 5.6309143517075311e-01 1.1441507104848107e+01 0 0 0
7 1 4.7686120527000000e+00 3.3545316644000001e+00 2.9360579615000000e+00 0 0 0
8 1 5.3522814304999997e+00 2.4090304139000001e+00 5.8721159229000000e+00 0 0 0
9 1 5.9359508195000004e+00 1.4635291635000003e+00 8.8081738844000004e+00 0 0 0
10 1 1.8774643416000001e+00 3.7383591286000000e+00 5.8721159229000000e+00 0 0 0
11 1 2.4611337306999999e+00 2.7928578782000000e+00 8.8081738844000004e+00 0 0 0
12 1 3.1175185881325245e+00 1.9090980227385996e+00 1.1388439221799894e+01 0 0 0
13 1 6.9220263192000004e+00 4.6838603892000004e+00 2.9360579615000000e+00 0 0 0
14 1 1.0980512958000002e+01 4.8178807436000000e+00 6.6478400576999999e+00 0 0 0
15 1 1.1564182330700000e+01 3.8723794831000009e+00 9.5838980191999994e+00 0 0 0
16 1 7.8745625839999995e+00 7.3197197650000023e-01 3.7117820962999999e+00 0 0 0
17 1 9.9786754326876608e+00 4.3070292903249472e+00 5.0414545697873936e-01 0 0 0
18 1 1.0396843571800000e+01 3.3545316644000001e+00 2.9360579615000000e+00 0 0 0
19 1 1.0980512949600000e+01 2.4090304139000001e+00 5.8721159229000000e+00 0 0 0
20 1 1.1564182338599998e+01 1.4635291635000003e+00 8.8081738844000004e+00 0 0 0
21 1 7.5056958608000004e+00 3.7383591286000000e+00 5.8721159229000000e+00 0 0 0
22 1 8.0893652498000002e+00 2.7928578782000000e+00 8.8081738844000004e+00 0 0 0
23 1 8.9122555995823607e+00 1.5718723450992498e+00 1.0815235580558516e+01 0 0 0
24 1 1.2550257838300000e+01 4.6838603892000004e+00 2.9360579615000000e+00 0 0 0
25 1 7.8745624993999996e+00 9.8492909121000007e+00 6.6478400576999999e+00 0 0 0
26 1 8.4582318722000007e+00 8.9037896516000004e+00 9.5838980191999994e+00 0 0 0
27 1 8.4069688453937541e+00 8.8237190274357697e+00 1.1911569959289315e+01 0 0 0
28 1 3.8767908949171876e+00 7.2221374676015584e+00 2.0329944368637971e+00 0 0 0
29 1 4.7686121254999998e+00 5.7633821449999996e+00 3.7117820962999999e+00 0 0 0
30 1 3.3360143361923016e+00 5.4685290234982720e+00 1.0995797272173041e+01 0 0 0
31 1 2.6849150900153487e+00 1.5270404531359633e-01 1.2154443292908492e+00 0 1 0
32 1 7.2908931133000001e+00 8.3859418329000004e+00 2.9360579615000000e+00 0 0 0
33 1 7.8745624910999998e+00 7.4404405823999999e+00 5.8721159229000000e+00 0 0 0
34 1 8.4582318800999996e+00 6.4949393320000004e+00 8.8081738844000004e+00 0 0 0
35 1 4.3997454021999998e+00 8.7697692971999999e+00 5.8721159229000000e+00 0 0 0
36 1 4.9834147912000004e+00 7.8242680467000003e+00 8.8081738844000004e+00 0 0 0
37 1 9.4443073797999997e+00 9.7152705577000003e+00 2.9360579615000000e+00 0 0 0
38 1 5.0673677423686652e+00 5.1489618966039536e+00 1.2232714873763615e+00 0 0 0
39 1 1.3502794018600001e+01 9.8492909121000007e+00 6.6478400576999999e+00 0 0 0
40 1 1.4086463391300001e+01 8.9037896516000004e+00 9.5838980191999994e+00 0 0 0
41 1 1.4994128991454746e+01 7.9366112268760478e+00 1.1661915032011885e+01 0 0 0
42 1 9.8403378672913604e+00 6.7042653042255429e+00 1.3823596349992637e+00 0 0 0
43 1 1.0396843644600001e+01 5.7633821449999996e+00 3.7117820962999999e+00 0 0 0
44 1 1.1924680226352454e+01 8.3019412391374630e+00 8.6471939905359885e-01 0 0 0
45 1 1.2919124632400001e+01 8.3859418329000004e+00 2.9360579615000000e+00 0 0 0
46 1 1.3502794010200001e+01 7.4404405823999999e+00 5.8721159229000000e+00 0 0 0
47 1 1.4086463399199998e+01 6.4949393320000004e+00 8.8081738844000004e+00 0 0 0
48 1 1.0027976921300001e+01 8.7697692971999999e+00 5.8721159229000000e+00 0 0 0
49 1 1.0611646310399999e+01 7.8242680467000003e+00 8.8081738844000004e+00 0 0 0
50 1 1.1245866142974755e+01 6.6681954898251661e+00 1.0894848710869873e+01 0 0 0
51 1 1.5072538898900000e+01 9.7152705577000003e+00 2.9360579615000000e+00 0 0 0
52 1 1.2054161768850614e+01 5.5197261521325194e+00 4.9112068062022929e-01 0 0 0
53 2 1.6618955858000000e+00 1.6787142544000002e+00 7.0115334672999987e+00 0 0 0
54 2 2.2455649697999998e+00 7.3321299390000005e-01 9.9475914286999991e+00 0 0 0
55 2 6.1783305578575822e+00 3.4805367968518954e+00 1.4508153886408377e+00 0 0 0
56 2 6.7064575583000003e+00 2.6242155049000000e+00 4.0754755058000001e+00 0 0 0
57 2 4.8673922930937437e+00 4.6764830700954585e+00 1.2063266377775919e+01 0 0 0
58 2 2.2660380538187623e+00 3.6851461558705680e+00 1.0654439472159073e+01 0 0 0
59 2 7.2901269369000010e+00 4.7460538113000004e+00 7.9993114563000001e+00 0 0 0
60 2 3.5686623784117466e+00 1.6494567815945385e+00 2.3474393433137370e+00 0 0 0
61 2 4.1841765742000003e+00 6.6014504409999997e-01 5.0632534948999997e+00 0 0 0
62 2 3.3269403372980775e+00 5.0528900556988177e+00 2.3455491234079666e+00 0 0 0
63 2 3.9643806934000003e+00 3.9988377890000004e+00 5.0632534948999997e+00 0 0 0
64 2 4.5480500711999996e+00 3.0533365386000000e+00 7.9993114563000001e+00 0 0 0
65 2 5.0262496307739957e+00 2.1195539538221650e+00 1.0553445046280078e+01 0 0 0
66 2 7.2901271048999998e+00 1.6787142544000002e+00 7.0115334672999987e+00 0 0 0
67 2 7.8203266397906184e+00 6.6050098584656025e-01 9.3313718434645629e+00 0 0 0
68 2 1.1751019704699997e+01 3.5697167653999999e+00 1.1394175444000001e+00 0 0 0
69 2 1.2334689077400000e+01 2.6242155049000000e+00 4.0754755058000001e+00 0 0 0
70 2 1.1239665253980240e+01 4.7512257660663346e+00 1.1474921686370841e+01 0 0 0
71 2 7.6900965842503144e+00 3.3270569269063475e+00 1.0750995088936355e+01 0 0 0
72 2 1.2918358456000000e+01 4.7460538113000004e+00 7.9993114563000001e+00 0 0 0
73 2 9.3495710023737395e+00 1.5768385098499875e+00 2.5349121966755912e+00 0 0 0
74 2 9.8124080933000002e+00 6.6014504409999997e-01 5.0632534948999997e+00 0 0 0
75 2 9.0089428397999995e+00 4.9443390494999999e+00 2.1271955334000001e+00 0 0 0
76 2 9.5926122126000006e+00 3.9988377890000004e+00 5.0632534948999997e+00 0 0 0
77 2 1.0176281590300000e+01 3.0533365386000000e+00 7.9993114563000001e+00 0 0 0
78 2 1.0916981248523719e+01 2.1071701970790300e+00 1.0672507395210305e+01 0 0 0
79 2 4.1841766464000001e+00 6.7101244228999999e+00 7.0115334672999987e+00 0 0 0
80 2 4.7500637072770431e+00 5.8046101657180245e+00 9.5008008444209384e+00 0 0 0
81 2 8.7298200988614383e+00 8.4518569298944204e+00 1.3924169157203676e+00 0 0 0
82 2 9.2287386188999996e+00 7.6556256734000003e+00 4.0754755058000001e+00 0 0 0
83 2 2.5068587222210197e+00 4.1571834823715109e-01 1.2673624301107846e+01 0 1 0
84 2 5.0673725841679031e+00 8.9511206026148571e+00 1.0522368647200476e+01 0 0 0
85 2 9.8124079974999994e+00 9.7774639798000003e+00 7.9993114563000001e+00 0 0 0
86 2 6.1227882621000003e+00 6.6370564732000004e+00 2.1271955334000001e+00 0 0 0
87 2 6.7064576347999996e+00 5.6915552127000000e+00 5.0632534948999997e+00 0 0 0
88 2 5.9029923812999998e+00 9.9757492181000007e+00 2.1271955334000001e+00 0 0 0
89 2 6.4866617540000027e+00 9.0302479576000003e+00 5.0632534948999997e+00 0 0 0
90 2 7.0703311317999997e+00 8.0847467071000008e+00 7.9993114563000001e+00 0 0 0
91 2 7.8376510755268782e+00 7.2634518209999488e+00 1.0673139373765109e+01 0 0 0
92 2 9.8124081655000008e+00 6.7101244228999999e+00 7.0115334672999987e+00 0 0 0
93 2 1.0353253215658833e+01 5.7162668426794969e+00 9.2975029783036565e+00 0 0 0
94 2 1.4011058480458098e+01 8.7984743423172684e+00 1.2497604840100476e+00 0 0 0
95 2 1.4856970137999999e+01 7.6556256734000003e+00 4.0754755058000001e+00 0 0 0
96 2 1.3990524880828541e+01 9.7279475698391327e+00 1.1584649846982620e+01 0 0 0
97 2 1.0160671110178733e+01 8.4784496202010420e+00 1.0787247054570468e+01 0 0 0
98 2 1.5440639516599999e+01 9.7774639798000003e+00 7.9993114563000001e+00 0 0 0
99 2 1.1751019781200000e+01 6.6370564732000004e+00 2.1271955334000001e+00 0 0 0
100 2 1.2334689153899999e+01 5.6915552127000000e+00 5.0632534948999997e+00 0 0 0
101 2 1.1522534867248332e+01 9.8180266945118486e+00 2.3206899144626951e+00 0 0 0
102 2 1.2114893273100002e+01 9.0302479576000003e+00 5.0632534948999997e+00 0 0 0
103 2 1.2698562650900000e+01 8.0847467071000008e+00 7.9993114563000001e+00 0 0 0
104 2 1.3282232034900000e+01 7.1392454466000022e+00 1.0935369417800000e+01 0 0 0

Velocities

1 0.0000000000000000e+00 0.0000000000000000e+00 0.0000000000000000e+00
2 0.0000000000000000e+00 0.0000000000000000e+00 0.0000000000000000e+00
3 0.0000000000000000e+00 0.0000000000000000e+00 0.0000000000000000e+00
4 0.0000000000000000e+00 0.0000000000000000e+00 0.0000000000000000e+00
5 0.0000000000000000e+00 0.0000000000000000e+00 0.0000000000000000e+00
6 0.0000000000000000e+00 0.0000000000000000e+00 0.0000000000000000e+00
7 0.0000000000000000e+00 0.0000000000000000e+00 0.0000000000000000e+00
8 0.0000000000000000e+00 0.0000000000000000e+00 0.0000000000000000e+00
9 0.0000000000000000e+00 0.0000000000000000e+00 0.0000000000000000e+00
10 0.0000000000000000e+00 0.0000000000000000e+00 0.0000000000000000e+00
11 0.0000000000000000e+00 0.0000000000000000e+00 0.0000000000000000e+00
12 0.0000000000000000e+00 0.0000000000000000e+00 0.0000000000000000e+00
13 0.0000000000000000e+00 0.0000000000000000e+00 0.0000000000000000e+00
14 0.0000000000000000e+00 0.0000000000000000e+00 0.0000000000000000e+00
15 0.0000000000000000e+00 0.0000000000000000e+00 0.0000000000000000e+00
16 0.0000000000000000e+00 0.0000000000000000e+00 0.0000000000000000e+00
17 0.0000000000000000e+00 0.0000000000000000e+00 0.0000000000000000e+00
18 0.0000000000000000e+00 0.0000000000000000e+00 0.0000000000000000e+00
19 0.0000000000000000e+00 0.0000000000000000e+00 0.0000000000000000e+00
20 0.0000000000000000e+00 0.0000000000000000e+00 0.0000000000000000e+00
21 0.0000000000000000e+00 0.0000000000000000e+00 0.0000000000000000e+00
22 0.0000000000000000e+00 0.0000000000000000e+00 0.0000000000000000e+00
23 0.0000000000000000e+00 0.0000000000000000e+00 0.0000000000000000e+00
24 0.0000000000000000e+00 0.0000000000000000e+00 0.0000000000000000e+00
25 0.0000000000000000e+00 0.0000000000000000e+00 0.0000000000000000e+00
26 0.0000000000000000e+00 0.0000000000000000e+00 0.0000000000000000e+00
27 0.0000000000000000e+00 0.0000000000000000e+00 0.0000000000000000e+00
28 0.0000000000000000e+00 0.0000000000000000e+00 0.0000000000000000e+00
29 0.0000000000000000e+00 0.0000000000000000e+00 0.0000000000000000e+00
30 0.0000000000000000e+00 0.0000000000000000e+00 0.0000000000000000e+00
31 0.0000000000000000e+00 0.0000000000000000e+00 0.0000000000000000e+00
32 0.0000000000000000e+00 0.0000000000000000e+00 0.0000000000000000e+00
33 0.0000000000000000e+00 0.0000000000000000e+00 0.0000000000000000e+00
34 0.0000000000000000e+00 0.0000000000000000e+00 0.0000000000000000e+00
35 0.0000000000000000e+00 0.0000000000000000e+00 0.0000000000000000e+00
36 0.0000000000000000e+00 0.0000000000000000e+00 0.0000000000000000e+00
37 0.0000000000000000e+00 0.0000000000000000e+00 0.0000000000000000e+00
38 0.0000000000000000e+00 0.0000000000000000e+00 0.0000000000000000e+00
39 0.0000000000000000e+00 0.0000000000000000e+00 0.0000000000000000e+00
40 0.0000000000000000e+00 0.0000000000000000e+00 0.0000000000000000e+00
41 0.0000000000000000e+00 0.0000000000000000e+00 0.0000000000000000e+00
42 0.0000000000000000e+00 0.0000000000000000e+00 0.0000000000000000e+00
43 0.0000000000000000e+00 0.0000000000000000e+00 0.0000000000000000e+00
44 0.0000000000000000e+00 0.0000000000000000e+00 0.0000000000000000e+00
45 0.0000000000000000e+00 0.0000000000000000e+00 0.0000000000000000e+00
46 0.0000000000000000e+00 0.0000000000000000e+00 0.0000000000000000e+00
47 0.0000000000000000e+00 0.0000000000000000e+00 0.0000000000000000e+00
48 0.0000000000000000e+00 0.0000000000000000e+00 0.0000000000000000e+00
49 0.0000000000000000e+00 0.0000000000000000e+00 0.0000000000000000e+00
50 0.0000000000000000e+00 0.0000000000000000e+00 0.0000000000000000e+00
51 0.0000000000000000e+00 0.0000000000000000e+00 0.0000000000000000e+00
52 0.0000000000000000e+00 0.0000000000000000e+00 0.0000000000000000e+00
53 0.0000000000000000e+00 0.0000000000000000e+00 0.0000000000000000e+00
54 0.0000000000000000e+00 0.0000000000000000e+00 0.0000000000000000e+00
55 0.0000000000000000e+00 0.0000000000000000e+00 0.0000000000000000e+00
56 0.0000000000000000e+00 0.0000000000000000e+00 0.0000000000000000e+00
57 0.0000000000000000e+00 0.0000000000000000e+00 0.0000000000000000e+00
58 0.0000000000000000e+00 0.0000000000000000e+00 0.0000000000000000e+00
59 0.0000000000000000e+00 0.0000000000000000e+00 0.0000000000000000e+00
60 0.0000000000000000e+00 0.0000000000000000e+00 0.0000000000000000e+00
61 0.0000000000000000e+00 0.0000000000000000e+00 0.0000000000000000e+00
62 0.0000000000000000e+00 0.0000000000000000e+00 0.0000000000000000e+00
63 0.0000000000000000e+00 0.0000000000000000e+00 0.0000000000000000e+00
64 0.0000000000000000e+00 0.0000000000000000e+00 0.0000000000000000e+00
65 0.0000000000000000e+00 0.0000000000000000e+00 0.0000000000000000e+00
66 0.0000000000000000e+00 0.0000000000000000e+00 0.0000000000000000e+00
67 0.0000000000000000e+00 0.0000000000000000e+00 0.0000000000000000e+00
68 0.0000000000000000e+00 0.0000000000000000e+00 0.0000000000000000e+00
69 0.0000000000000000e+00 0.0000000000000000e+00 0.0000000000000000e+00
70 0.0000000000000000e+00 0.0000000000000000e+00 0.0000000000000000e+00
71 0.0000000000000000e+00 0.0000000000000000e+00 0.0000000000000000e+00
72 0.0000000000000000e+00 0.0000000000000000e+00 0.0000000000000000e+00
73 0.0000000000000000e+00 0.0000000000000000e+00 0.0000000000000000e+00
74 0.0000000000000000e+00 0.0000000000000000e+00 0.0000000000000000e+00
75 0.0000000000000000e+00 0.0000000000000000e+00 0.0000000000000000e+00
76 0.0000000000000000e+00 0.0000000000000000e+00 0.0000000000000000e+00
77 0.0000000000000000e+00 0.0000000000000000e+00 0.0000000000000000e+00
78 0.0000000000000000e+00 0.0000000000000000e+00 0.0000000000000000e+00
79 0.0000000000000000e+00 0.0000000000000000e+00 0.0000000000000000e+00
80 0.0000000000000000e+00 0.0000000000000000e+00 0.0000000000000000e+00
81 0.0000000000000000e+00 0.0000000000000000e+00 0.0000000000000000e+00
82 0.0000000000000000e+00 0.0000000000000000e+00 0.0000000000000000e+00
83 0.0000000000000000e+00 0.0000000000000000e+00 0.0000000000000000e+00
84 0.0000000000000000e+00 0.0000000000000000e+00 0.0000000000000000e+00
85 0.0000000000000000e+00 0.0000000000000000e+00 0.0000000000000000e+00
86 0.0000000000000000e+00 0.0000000000000000e+00 0.0000000000000000e+00
87 0.0000000000000000e+00 0.0000000000000000e+00 0.0000000000000000e+00
88 0.0000000000000000e+00 0.0000000000000000e+00 0.0000000000000000e+00
89 0.0000000000000000e+00 0.0000000000000000e+00 0.0000000000000000e+00
90 0.0000000000000000e+00 0.0000000000000000e+00 0.0000000000000000e+00
91 0.0000000000000000e+00 0.0000000000000000e+00 0.0000000000000000e+00
92 0.0000000000000000e+00 0.0000000000000000e+00 0.0000000000000000e+00
93 0.0000000000000000e+00 0.0000000000000000e+00 0.0000000000000000e+00
94 0.0000000000000000e+00 0.0000000000000000e+00 0.0000000000000000e+00
95 0.0000000000000000e+00 0.0000000000000000e+00 0.0000000000000000e+00
96 0.0000000000000000e+00 0.0000000000000000e+00 0.0000000000000000e+00
97 0.0000000000000000e+00 0.0000000000000000e+00 0.0000000000000000e+00
98 0.0000000000000000e+00 0.0000000000000000e+00 0.0000000000000000e+00
99 0.0000000000000000e+00 0.0000000000000000e+00 0.0000000000000000e+00
100 0.0000000000000000e+00 0.0000000000000000e+00 0.0000000000000000e+00
101 0.0000000000000000e+00 0.0000000000000000e+00 0.0000000000000000e+00
102 0.0000000000000000e+00 0.0000000000000000e+00 0.0000000000000000e+00
103 0.0000000000000000e+00 0.0000000000000000e+00 0.0000000000000000e+00
104 0.0000000000000000e+00 0.0000000000000000e+00 0.0000000000000000e+00
