  60  60   0   0
  0.3182702E+02  0.9578410E-09  0.1125646E-08  0.1771136E-08  0.5000000E-15
  1.000000000000000E-004
  CAR 
 "Millerite NiS"                         
      9.97335479    -67.12749502  301      0.57093657      1.00000000
    -67.127  0.0000E+00  0.0000E+00
    -66.870  0.0000E+00  0.0000E+00
    -66.613  0.0000E+00  0.0000E+00
    -66.356  0.0000E+00  0.0000E+00
    -66.099  0.0000E+00  0.0000E+00
    -65.842  0.0000E+00  0.0000E+00
    -65.585  0.0000E+00  0.0000E+00
    -65.328  0.0000E+00  0.0000E+00
    -65.071  0.0000E+00  0.0000E+00
    -64.814  0.0000E+00  0.0000E+00
    -64.557  0.3591E-09  0.9228E-10
    -64.300  0.1893E-04  0.4866E-05
    -64.043  0.5118E-01  0.1316E-01
    -63.786  0.8833E+01  0.2283E+01
    -63.529  0.1277E+03  0.3510E+02
    -63.272  0.2210E+03  0.9190E+02
    -63.015  0.8711E+02  0.1143E+03
    -62.758  0.9149E+02  0.1378E+03
    -62.501  0.8581E+02  0.1599E+03
    -62.244  0.3359E+02  0.1685E+03
    -61.987  0.3090E+02  0.1764E+03
    -61.730  0.1306E+02  0.1798E+03
    -61.473  0.8210E+00  0.1800E+03
    -61.216  0.3867E-02  0.1800E+03
    -60.959  0.8798E-06  0.1800E+03
    -60.702  0.8264E-11  0.1800E+03
    -60.445  0.0000E+00  0.1800E+03
    -60.188  0.0000E+00  0.1800E+03
    -59.931  0.0000E+00  0.1800E+03
    -59.674  0.0000E+00  0.1800E+03
    -59.417  0.0000E+00  0.1800E+03
    -59.160  0.0000E+00  0.1800E+03
    -58.903  0.0000E+00  0.1800E+03
    -58.646  0.0000E+00  0.1800E+03
    -58.389  0.0000E+00  0.1800E+03
    -58.132  0.0000E+00  0.1800E+03
    -57.875  0.0000E+00  0.1800E+03
    -57.618  0.0000E+00  0.1800E+03
    -57.361  0.0000E+00  0.1800E+03
    -57.104  0.0000E+00  0.1800E+03
    -56.847  0.0000E+00  0.1800E+03
    -56.590  0.0000E+00  0.1800E+03
    -56.333  0.0000E+00  0.1800E+03
    -56.076  0.0000E+00  0.1800E+03
    -55.819  0.0000E+00  0.1800E+03
    -55.562  0.0000E+00  0.1800E+03
    -55.305  0.0000E+00  0.1800E+03
    -55.048  0.0000E+00  0.1800E+03
    -54.791  0.0000E+00  0.1800E+03
    -54.534  0.0000E+00  0.1800E+03
    -54.277  0.0000E+00  0.1800E+03
    -54.020  0.0000E+00  0.1800E+03
    -53.763  0.0000E+00  0.1800E+03
    -53.506  0.0000E+00  0.1800E+03
    -53.249  0.0000E+00  0.1800E+03
    -52.992  0.0000E+00  0.1800E+03
    -52.735  0.0000E+00  0.1800E+03
    -52.478  0.0000E+00  0.1800E+03
    -52.221  0.0000E+00  0.1800E+03
    -51.964  0.0000E+00  0.1800E+03
    -51.707  0.0000E+00  0.1800E+03
    -51.450  0.0000E+00  0.1800E+03
    -51.193  0.0000E+00  0.1800E+03
    -50.936  0.0000E+00  0.1800E+03
    -50.679  0.0000E+00  0.1800E+03
    -50.422  0.0000E+00  0.1800E+03
    -50.165  0.0000E+00  0.1800E+03
    -49.908  0.0000E+00  0.1800E+03
    -49.651  0.0000E+00  0.1800E+03
    -49.394  0.0000E+00  0.1800E+03
    -49.137  0.0000E+00  0.1800E+03
    -48.880  0.0000E+00  0.1800E+03
    -48.623  0.0000E+00  0.1800E+03
    -48.366  0.0000E+00  0.1800E+03
    -48.109  0.0000E+00  0.1800E+03
    -47.852  0.0000E+00  0.1800E+03
    -47.595  0.0000E+00  0.1800E+03
    -47.338  0.0000E+00  0.1800E+03
    -47.081  0.0000E+00  0.1800E+03
    -46.824  0.0000E+00  0.1800E+03
    -46.567  0.0000E+00  0.1800E+03
    -46.310  0.0000E+00  0.1800E+03
    -46.053  0.0000E+00  0.1800E+03
    -45.796  0.0000E+00  0.1800E+03
    -45.539  0.0000E+00  0.1800E+03
    -45.282  0.0000E+00  0.1800E+03
    -45.025  0.0000E+00  0.1800E+03
    -44.768  0.0000E+00  0.1800E+03
    -44.511  0.0000E+00  0.1800E+03
    -44.254  0.0000E+00  0.1800E+03
    -43.997  0.0000E+00  0.1800E+03
    -43.740  0.0000E+00  0.1800E+03
    -43.483  0.0000E+00  0.1800E+03
    -43.226  0.0000E+00  0.1800E+03
    -42.969  0.0000E+00  0.1800E+03
    -42.712  0.0000E+00  0.1800E+03
    -42.455  0.0000E+00  0.1800E+03
    -42.198  0.0000E+00  0.1800E+03
    -41.941  0.0000E+00  0.1800E+03
    -41.684  0.0000E+00  0.1800E+03
    -41.427  0.0000E+00  0.1800E+03
    -41.170  0.0000E+00  0.1800E+03
    -40.913  0.0000E+00  0.1800E+03
    -40.656  0.0000E+00  0.1800E+03
    -40.399  0.0000E+00  0.1800E+03
    -40.142  0.0000E+00  0.1800E+03
    -39.885  0.0000E+00  0.1800E+03
    -39.628  0.0000E+00  0.1800E+03
    -39.371  0.0000E+00  0.1800E+03
    -39.114  0.0000E+00  0.1800E+03
    -38.857  0.0000E+00  0.1800E+03
    -38.600  0.0000E+00  0.1800E+03
    -38.343  0.0000E+00  0.1800E+03
    -38.086  0.0000E+00  0.1800E+03
    -37.829  0.0000E+00  0.1800E+03
    -37.572  0.0000E+00  0.1800E+03
    -37.315  0.0000E+00  0.1800E+03
    -37.058  0.0000E+00  0.1800E+03
    -36.801  0.0000E+00  0.1800E+03
    -36.544  0.0000E+00  0.1800E+03
    -36.287  0.0000E+00  0.1800E+03
    -36.030  0.0000E+00  0.1800E+03
    -35.773  0.0000E+00  0.1800E+03
    -35.516  0.0000E+00  0.1800E+03
    -35.259  0.0000E+00  0.1800E+03
    -35.002  0.0000E+00  0.1800E+03
    -34.745  0.0000E+00  0.1800E+03
    -34.488  0.0000E+00  0.1800E+03
    -34.231  0.0000E+00  0.1800E+03
    -33.974  0.0000E+00  0.1800E+03
    -33.717  0.0000E+00  0.1800E+03
    -33.460  0.0000E+00  0.1800E+03
    -33.203  0.0000E+00  0.1800E+03
    -32.946  0.0000E+00  0.1800E+03
    -32.689  0.0000E+00  0.1800E+03
    -32.432  0.0000E+00  0.1800E+03
    -32.175  0.0000E+00  0.1800E+03
    -31.918  0.0000E+00  0.1800E+03
    -31.661  0.0000E+00  0.1800E+03
    -31.404  0.0000E+00  0.1800E+03
    -31.147  0.0000E+00  0.1800E+03
    -30.890  0.0000E+00  0.1800E+03
    -30.633  0.0000E+00  0.1800E+03
    -30.376  0.0000E+00  0.1800E+03
    -30.119  0.0000E+00  0.1800E+03
    -29.862  0.0000E+00  0.1800E+03
    -29.605  0.0000E+00  0.1800E+03
    -29.348  0.0000E+00  0.1800E+03
    -29.091  0.0000E+00  0.1800E+03
    -28.834  0.0000E+00  0.1800E+03
    -28.577  0.0000E+00  0.1800E+03
    -28.320  0.0000E+00  0.1800E+03
    -28.063  0.0000E+00  0.1800E+03
    -27.806  0.0000E+00  0.1800E+03
    -27.549  0.0000E+00  0.1800E+03
    -27.292  0.0000E+00  0.1800E+03
    -27.035  0.0000E+00  0.1800E+03
    -26.778  0.0000E+00  0.1800E+03
    -26.521  0.0000E+00  0.1800E+03
    -26.264  0.0000E+00  0.1800E+03
    -26.007  0.0000E+00  0.1800E+03
    -25.750  0.0000E+00  0.1800E+03
    -25.493  0.0000E+00  0.1800E+03
    -25.236  0.0000E+00  0.1800E+03
    -24.979  0.0000E+00  0.1800E+03
    -24.722  0.0000E+00  0.1800E+03
    -24.465  0.0000E+00  0.1800E+03
    -24.208  0.0000E+00  0.1800E+03
    -23.951  0.0000E+00  0.1800E+03
    -23.694  0.0000E+00  0.1800E+03
    -23.437  0.0000E+00  0.1800E+03
    -23.180  0.0000E+00  0.1800E+03
    -22.923  0.0000E+00  0.1800E+03
    -22.666  0.0000E+00  0.1800E+03
    -22.409  0.0000E+00  0.1800E+03
    -22.152  0.0000E+00  0.1800E+03
    -21.895  0.0000E+00  0.1800E+03
    -21.638  0.0000E+00  0.1800E+03
    -21.381  0.0000E+00  0.1800E+03
    -21.124  0.0000E+00  0.1800E+03
    -20.867  0.0000E+00  0.1800E+03
    -20.610  0.0000E+00  0.1800E+03
    -20.353  0.0000E+00  0.1800E+03
    -20.096  0.0000E+00  0.1800E+03
    -19.839  0.0000E+00  0.1800E+03
    -19.582  0.0000E+00  0.1800E+03
    -19.325  0.0000E+00  0.1800E+03
    -19.068  0.0000E+00  0.1800E+03
    -18.811  0.0000E+00  0.1800E+03
    -18.554  0.0000E+00  0.1800E+03
    -18.297  0.0000E+00  0.1800E+03
    -18.040  0.0000E+00  0.1800E+03
    -17.783  0.0000E+00  0.1800E+03
    -17.526  0.0000E+00  0.1800E+03
    -17.269  0.0000E+00  0.1800E+03
    -17.012  0.0000E+00  0.1800E+03
    -16.755  0.0000E+00  0.1800E+03
    -16.498  0.0000E+00  0.1800E+03
    -16.241  0.0000E+00  0.1800E+03
    -15.984  0.0000E+00  0.1800E+03
    -15.727  0.2808E-13  0.1800E+03
    -15.470  0.9656E-08  0.1800E+03
    -15.213  0.1320E-03  0.1800E+03
    -14.956  0.7733E-01  0.1800E+03
    -14.699  0.2294E+01  0.1806E+03
    -14.442  0.4677E+01  0.1818E+03
    -14.185  0.2202E+01  0.1824E+03
    -13.928  0.1233E+02  0.1855E+03
    -13.671  0.1340E+02  0.1890E+03
    -13.414  0.1586E+02  0.1931E+03
    -13.157  0.2553E+02  0.1996E+03
    -12.900  0.2622E+02  0.2064E+03
    -12.643  0.3037E+02  0.2142E+03
    -12.386  0.2558E+02  0.2207E+03
    -12.129  0.2539E+02  0.2273E+03
    -11.872  0.1602E+02  0.2314E+03
    -11.615  0.1279E+02  0.2347E+03
    -11.358  0.1054E+02  0.2374E+03
    -11.101  0.8782E+01  0.2396E+03
    -10.844  0.1377E+01  0.2400E+03
    -10.587  0.1713E-01  0.2400E+03
    -10.330  0.1118E-04  0.2400E+03
    -10.073  0.3141E-09  0.2400E+03
     -9.816  0.0000E+00  0.2400E+03
     -9.559  0.0000E+00  0.2400E+03
     -9.302  0.0000E+00  0.2400E+03
     -9.045  0.0000E+00  0.2400E+03
     -8.788  0.0000E+00  0.2400E+03
     -8.531  0.0000E+00  0.2400E+03
     -8.274  0.0000E+00  0.2400E+03
     -8.017  0.0000E+00  0.2400E+03
     -7.760  0.0000E+00  0.2400E+03
     -7.503  0.2134E-12  0.2400E+03
     -7.246  0.4596E-07  0.2400E+03
     -6.989  0.3984E-03  0.2400E+03
     -6.732  0.1528E+00  0.2400E+03
     -6.475  0.3635E+01  0.2410E+03
     -6.218  0.1543E+02  0.2449E+03
     -5.961  0.2314E+02  0.2509E+03
     -5.704  0.1946E+02  0.2559E+03
     -5.447  0.3217E+02  0.2642E+03
     -5.190  0.4100E+02  0.2747E+03
     -4.933  0.3719E+02  0.2843E+03
     -4.676  0.3684E+02  0.2937E+03
     -4.419  0.3641E+02  0.3031E+03
     -4.162  0.3656E+02  0.3125E+03
     -3.905  0.4302E+02  0.3235E+03
     -3.648  0.5474E+02  0.3376E+03
     -3.391  0.5795E+02  0.3525E+03
     -3.134  0.5902E+02  0.3677E+03
     -2.877  0.5224E+02  0.3811E+03
     -2.620  0.4654E+02  0.3930E+03
     -2.363  0.4436E+02  0.4044E+03
     -2.106  0.4775E+02  0.4167E+03
     -1.849  0.5162E+02  0.4300E+03
     -1.592  0.7245E+02  0.4486E+03
     -1.335  0.1013E+03  0.4746E+03
     -1.078  0.1287E+03  0.5077E+03
     -0.821  0.1304E+03  0.5412E+03
     -0.564  0.1163E+03  0.5711E+03
     -0.307  0.1101E+03  0.5994E+03
     -0.050  0.8710E+02  0.6218E+03
      0.207  0.7142E+02  0.6402E+03
      0.464  0.5777E+02  0.6550E+03
      0.721  0.4462E+02  0.6665E+03
      0.978  0.4706E+02  0.6786E+03
      1.235  0.4837E+02  0.6910E+03
      1.492  0.5338E+02  0.7047E+03
      1.749  0.4666E+02  0.7167E+03
      2.006  0.2797E+02  0.7239E+03
      2.263  0.9378E+01  0.7263E+03
      2.520  0.5636E+01  0.7278E+03
      2.777  0.1711E+01  0.7282E+03
      3.034  0.8356E+01  0.7304E+03
      3.291  0.1160E+02  0.7333E+03
      3.548  0.2891E+01  0.7341E+03
      3.805  0.6028E+01  0.7356E+03
      4.062  0.9124E+01  0.7380E+03
      4.319  0.9145E+01  0.7403E+03
      4.576  0.1889E+02  0.7452E+03
      4.833  0.1730E+02  0.7496E+03
      5.090  0.1464E+02  0.7534E+03
      5.347  0.1943E+02  0.7584E+03
      5.604  0.2893E+02  0.7658E+03
      5.861  0.2933E+02  0.7734E+03
      6.118  0.3874E+02  0.7833E+03
      6.375  0.4331E+02  0.7944E+03
      6.632  0.1966E+02  0.7995E+03
      6.889  0.1949E+01  0.8000E+03
      7.146  0.1801E-01  0.8000E+03
      7.403  0.8896E-05  0.8000E+03
      7.660  0.1908E-09  0.8000E+03
      7.917  0.0000E+00  0.8000E+03
      8.174  0.0000E+00  0.8000E+03
      8.431  0.0000E+00  0.8000E+03
      8.688  0.0000E+00  0.8000E+03
      8.945  0.0000E+00  0.8000E+03
      9.202  0.0000E+00  0.8000E+03
      9.459  0.0000E+00  0.8000E+03
      9.716  0.0000E+00  0.8000E+03
      9.973  0.0000E+00  0.8000E+03
