<?xml version="1.0" encoding="ISO-8859-1"?>
<modeling>
 <generator>
  <i name="program" type="string">vasp </i>
  <i name="version" type="string">5.4.4.18Apr17-6-g9f103f2a35  </i>
  <i name="subversion" type="string">(build Aug 13 2019 17:33:20) gamma-only         parallel </i>
  <i name="platform" type="string">LinuxIFC </i>
  <i name="date" type="string">2020 05 12 </i>
  <i name="time" type="string">02:09:16 </i>
 </generator>
 <incar>
  <i type="string" name="SYSTEM">"Millerite NiS"</i>
  <i type="string" name="PREC">normal</i>
  <i type="int" name="NSIM">     4</i>
  <i type="int" name="NELM">   100</i>
  <i name="ENCUT">    450.00000000</i>
  <i type="string" name="LREAL">A</i>
  <i type="int" name="ISMEAR">     0</i>
  <i type="int" name="NWRITE">     2</i>
  <i type="logical" name="LWAVE"> F  </i>
  <i type="logical" name="LCHARG"> F  </i>
  <v type="int" name="KPOINT_BSE">    -1     0     0     0</v>
  <i type="int" name="NELM">   100</i>
 </incar>
 <structure name="primitive_cell" >
  <crystal>
   <varray name="basis" >
    <v>      16.88469405       0.00000000       0.00000000 </v>
    <v>       0.00000000       9.57841000       0.00000000 </v>
    <v>       0.00000000       0.00000000      16.65464569 </v>
   </varray>
   <i name="volume">   2693.53123734 </i>
   <varray name="rec_basis" >
    <v>       0.05922524       0.00000000       0.00000000 </v>
    <v>       0.00000000       0.10440146       0.00000000 </v>
    <v>       0.00000000       0.00000000       0.06004331 </v>
   </varray>
  </crystal>
  <varray name="positions" >
   <v>      -0.21995370       0.14529696       0.12347080 </v>
   <v>      -0.18194740       0.29089479       0.04058636 </v>
   <v>      -0.19003390      -0.00541020       0.03938100 </v>
   <v>      -0.18308251      -0.02237144       0.21014309 </v>
   <v>      -0.35339478       0.14529696       0.12175764 </v>
   <v>      -0.17350917       0.31749655       0.21757398 </v>
   <v>      -0.09651243       0.00037666       0.11799595 </v>
   <v>      -0.09239943       0.28981471       0.12433217 </v>
   <v>      -0.23259449       0.41946401       0.12219505 </v>
   <v>      -0.22909211      -0.14942883       0.11902526 </v>
   <v>      -0.33297509       0.14486271       0.28659298 </v>
   <v>      -0.06835591       0.00236894       0.26130308 </v>
   <v>      -0.00853880       0.14529696       0.18349304 </v>
   <v>      -0.40270525       0.01319396       0.22247530 </v>
   <v>      -0.40270525       0.27739996       0.22247530 </v>
   <v>      -0.40683433       0.37582312       0.09255714 </v>
   <v>      -0.34336694       0.47708196       0.18377980 </v>
   <v>      -0.34336694      -0.18648804       0.18377980 </v>
   <v>      -0.05245321       0.27867408       0.26974771 </v>
   <v>      -0.23027726      -0.48680604       0.25334300 </v>
   <v>      -0.23027726      -0.22260004       0.25334300 </v>
   <v>      -0.46891755       0.14288690       0.09121201 </v>
   <v>      -0.03326170      -0.17808949       0.08387238 </v>
   <v>      -0.03268288       0.46887098       0.08402460 </v>
   <v>      -0.18096679      -0.35470304       0.15262534 </v>
   <v>      -0.04402101       0.12972789       0.35715171 </v>
   <v>      -0.30523199      -0.20742945       0.34710177 </v>
   <v>      -0.30342879      -0.49745759       0.34878500 </v>
   <v>       0.48420507       0.31351196       0.15291210 </v>
   <v>       0.48420507      -0.02291804       0.15291210 </v>
   <v>       0.00148905       0.47708196       0.24551520 </v>
   <v>       0.00148905      -0.18648804       0.24551520 </v>
   <v>      -0.47356118       0.00696948       0.32431612 </v>
   <v>      -0.04752570      -0.35470304       0.15433850 </v>
   <v>       0.46975828       0.14529696       0.24694159 </v>
   <v>       0.06173747       0.08222365       0.30537191 </v>
   <v>      -0.47989990       0.29837167       0.32093203 </v>
   <v>      -0.14920795      -0.35447841       0.31298222 </v>
   <v>      -0.42957248      -0.36682124       0.16072683 </v>
   <v>      -0.35781373      -0.35470304       0.27780929 </v>
   <v>       0.12490229       0.14529696       0.18520619 </v>
   <v>       0.08001077      -0.48680604       0.12987220 </v>
   <v>       0.08001077      -0.22260004       0.12987220 </v>
   <v>       0.45192728       0.43947342       0.05664627 </v>
   <v>       0.14036382      -0.03132518       0.10625013 </v>
   <v>       0.14164140       0.32424727       0.11063293 </v>
   <v>       0.11662002       0.27487786       0.28870241 </v>
   <v>       0.39146791       0.14425589       0.12854152 </v>
   <v>      -0.02489668      -0.35491343       0.31778340 </v>
   <v>       0.17121756       0.14833309       0.04731139 </v>
   <v>       0.46640962      -0.17307563       0.32855101 </v>
   <v>       0.42486675      -0.48680604       0.19160760 </v>
   <v>       0.42486675      -0.22260004       0.19160760 </v>
   <v>       0.47417723      -0.35470304       0.09088994 </v>
   <v>      -0.49125482      -0.35470304       0.27609614 </v>
   <v>       0.11228288       0.49819088       0.29243820 </v>
   <v>       0.11214118      -0.21380964       0.29514735 </v>
   <v>       0.45917643       0.47764181       0.33432717 </v>
   <v>       0.17391704      -0.02291804       0.27638290 </v>
   <v>       0.11178301      -0.35456021       0.03796623 </v>
   <v>       0.32827329       0.15098891       0.23578072 </v>
   <v>       0.25243876       0.01319396       0.16073990 </v>
   <v>       0.25243876       0.27739996       0.16073990 </v>
   <v>       0.08039251      -0.36069356       0.37887010 </v>
   <v>       0.16388920      -0.35470304       0.21436074 </v>
   <v>       0.28878277       0.14597063       0.06367841 </v>
   <v>       0.34804276       0.49056211       0.28969417 </v>
   <v>       0.35158076      -0.21323601       0.29702435 </v>
   <v>       0.31177707       0.47708196       0.12204440 </v>
   <v>       0.31177707      -0.18648804       0.12204440 </v>
   <v>       0.35753397      -0.35464193       0.06291284 </v>
   <v>       0.21574931      -0.34603447       0.09921466 </v>
   <v>       0.29553851      -0.02610629       0.29736639 </v>
   <v>       0.29733028      -0.35470304       0.21607389 </v>
  </varray>
 </structure>
 <varray name="primitive_index" >
  <v type="int" >        1 </v>
  <v type="int" >       51 </v>
  <v type="int" >       65 </v>
  <v type="int" >       66 </v>
  <v type="int" >       42 </v>
  <v type="int" >       52 </v>
  <v type="int" >       13 </v>
  <v type="int" >       26 </v>
  <v type="int" >       24 </v>
  <v type="int" >       36 </v>
  <v type="int" >       43 </v>
  <v type="int" >       14 </v>
  <v type="int" >       39 </v>
  <v type="int" >       19 </v>
  <v type="int" >       32 </v>
  <v type="int" >       31 </v>
  <v type="int" >       71 </v>
  <v type="int" >       61 </v>
  <v type="int" >       27 </v>
  <v type="int" >       25 </v>
  <v type="int" >       37 </v>
  <v type="int" >       18 </v>
  <v type="int" >       58 </v>
  <v type="int" >       68 </v>
  <v type="int" >       49 </v>
  <v type="int" >       38 </v>
  <v type="int" >       62 </v>
  <v type="int" >       72 </v>
  <v type="int" >       55 </v>
  <v type="int" >       69 </v>
  <v type="int" >       67 </v>
  <v type="int" >       57 </v>
  <v type="int" >       70 </v>
  <v type="int" >        6 </v>
  <v type="int" >        5 </v>
  <v type="int" >       10 </v>
  <v type="int" >       56 </v>
  <v type="int" >       50 </v>
  <v type="int" >       11 </v>
  <v type="int" >       12 </v>
  <v type="int" >        9 </v>
  <v type="int" >       20 </v>
  <v type="int" >       33 </v>
  <v type="int" >       15 </v>
  <v type="int" >       73 </v>
  <v type="int" >       59 </v>
  <v type="int" >       60 </v>
  <v type="int" >        4 </v>
  <v type="int" >        7 </v>
  <v type="int" >        8 </v>
  <v type="int" >       30 </v>
  <v type="int" >       16 </v>
  <v type="int" >       29 </v>
  <v type="int" >       40 </v>
  <v type="int" >       41 </v>
  <v type="int" >       21 </v>
  <v type="int" >       34 </v>
  <v type="int" >       17 </v>
  <v type="int" >       74 </v>
  <v type="int" >       44 </v>
  <v type="int" >       48 </v>
  <v type="int" >       22 </v>
  <v type="int" >       35 </v>
  <v type="int" >       46 </v>
  <v type="int" >       45 </v>
  <v type="int" >       47 </v>
  <v type="int" >       64 </v>
  <v type="int" >       54 </v>
  <v type="int" >       63 </v>
  <v type="int" >       53 </v>
  <v type="int" >       28 </v>
  <v type="int" >        2 </v>
  <v type="int" >       23 </v>
  <v type="int" >        3 </v>
 </varray>
 <kpoints>
  <generation param="Gamma">
   <v type="int" name="divisions">       1        1        1 </v>
   <v name="usershift">      0.00000000       0.00000000       0.00000000 </v>
   <v name="genvec1">      1.00000000       0.00000000       0.00000000 </v>
   <v name="genvec2">      0.00000000       1.00000000       0.00000000 </v>
   <v name="genvec3">      0.00000000       0.00000000       1.00000000 </v>
   <v name="shift">      0.00000000       0.00000000       0.00000000 </v>
  </generation>
  <varray name="kpointlist" >
   <v>       0.00000000       0.00000000       0.00000000 </v>
  </varray>
  <varray name="weights" >
   <v>       1.00000000 </v>
  </varray>
 </kpoints>
 <parameters>
  <separator name="general" >
   <i type="string" name="SYSTEM">"Millerite NiS"</i>
   <i type="logical" name="LCOMPAT"> F  </i>
  </separator>
  <separator name="electronic" >
   <i type="string" name="PREC">normal</i>
   <i name="ENMAX">    450.00000000</i>
   <i name="ENAUG">    703.44300000</i>
   <i name="EDIFF">      0.00010000</i>
   <i type="int" name="IALGO">    38</i>
   <i type="int" name="IWAVPR">    10</i>
   <i type="int" name="NBANDS">   488</i>
   <i name="NELECT">    814.00000000</i>
   <i type="int" name="TURBO">     0</i>
   <i type="int" name="IRESTART">     0</i>
   <i type="int" name="NREBOOT">     0</i>
   <i type="int" name="NMIN">     0</i>
   <i name="EREF">      0.00000000</i>
   <separator name="electronic smearing" >
    <i type="int" name="ISMEAR">     0</i>
    <i name="SIGMA">      0.20000000</i>
    <i name="KSPACING">      0.50000000</i>
    <i type="logical" name="KGAMMA"> T  </i>
   </separator>
   <separator name="electronic projectors" >
    <i type="logical" name="LREAL"> T  </i>
    <v name="ROPT">     -0.00050000     -0.00050000</v>
    <i type="int" name="LMAXPAW">  -100</i>
    <i type="int" name="LMAXMIX">     2</i>
    <i type="logical" name="NLSPLINE"> F  </i>
   </separator>
   <separator name="electronic startup" >
    <i type="int" name="ISTART">     0</i>
    <i type="int" name="ICHARG">     2</i>
    <i type="int" name="INIWAV">     1</i>
   </separator>
   <separator name="electronic spin" >
    <i type="int" name="ISPIN">     1</i>
    <i type="logical" name="LNONCOLLINEAR"> F  </i>
    <v name="MAGMOM">      1.00000000      1.00000000      1.00000000      1.00000000      1.00000000      1.00000000      1.00000000      1.00000000      1.00000000      1.00000000      1.00000000      1.00000000      1.00000000      1.00000000      1.00000000      1.00000000      1.00000000      1.00000000      1.00000000      1.00000000
      1.00000000      1.00000000      1.00000000      1.00000000      1.00000000      1.00000000      1.00000000      1.00000000      1.00000000      1.00000000      1.00000000      1.00000000      1.00000000      1.00000000      1.00000000      1.00000000      1.00000000      1.00000000      1.00000000      1.00000000
      1.00000000      1.00000000      1.00000000      1.00000000      1.00000000      1.00000000      1.00000000      1.00000000      1.00000000      1.00000000      1.00000000      1.00000000      1.00000000      1.00000000      1.00000000      1.00000000      1.00000000      1.00000000      1.00000000      1.00000000
      1.00000000      1.00000000      1.00000000      1.00000000      1.00000000      1.00000000      1.00000000      1.00000000      1.00000000      1.00000000      1.00000000      1.00000000      1.00000000      1.00000000</v>
    <i name="NUPDOWN">     -1.00000000</i>
    <i type="logical" name="LSORBIT"> F  </i>
    <v name="SAXIS">      0.00000000      0.00000000      1.00000000</v>
    <i type="logical" name="LSPIRAL"> F  </i>
    <v name="QSPIRAL">      0.00000000      0.00000000      0.00000000</v>
    <i type="logical" name="LZEROZ"> F  </i>
   </separator>
   <separator name="electronic exchange-correlation" >
    <i type="logical" name="LASPH"> F  </i>
    <i type="logical" name="LMETAGGA"> F  </i>
   </separator>
   <separator name="electronic convergence" >
    <i type="int" name="NELM">   100</i>
    <i type="int" name="NELMDL">    -5</i>
    <i type="int" name="NELMIN">     2</i>
    <i name="ENINI">    450.00000000</i>
    <separator name="electronic convergence detail" >
     <i type="logical" name="LDIAG"> T  </i>
     <i type="logical" name="LSUBROT"> F  </i>
     <i name="WEIMIN">      0.00000000</i>
     <i name="EBREAK">      0.00000005</i>
     <i name="DEPER">      0.30000000</i>
     <i type="int" name="NRMM">     4</i>
     <i name="TIME">      0.40000000</i>
    </separator>
   </separator>
   <separator name="electronic mixer" >
    <i name="AMIX">      0.40000000</i>
    <i name="BMIX">      1.00000000</i>
    <i name="AMIN">      0.10000000</i>
    <i name="AMIX_MAG">      1.60000000</i>
    <i name="BMIX_MAG">      1.00000000</i>
    <separator name="electronic mixer details" >
     <i type="int" name="IMIX">     4</i>
     <i type="logical" name="MIXFIRST"> F  </i>
     <i type="int" name="MAXMIX">   -45</i>
     <i name="WC">    100.00000000</i>
     <i type="int" name="INIMIX">     1</i>
     <i type="int" name="MIXPRE">     1</i>
     <i type="int" name="MREMOVE">     5</i>
    </separator>
   </separator>
   <separator name="electronic dipolcorrection" >
    <i type="logical" name="LDIPOL"> F  </i>
    <i type="logical" name="LMONO"> F  </i>
    <i type="int" name="IDIPOL">     0</i>
    <i name="EPSILON">      1.00000000</i>
    <v name="DIPOL">   -100.00000000   -100.00000000   -100.00000000</v>
    <i name="EFIELD">      0.00000000</i>
   </separator>
  </separator>
  <separator name="grids" >
   <i type="int" name="NGX">    90</i>
   <i type="int" name="NGY">    50</i>
   <i type="int" name="NGZ">    90</i>
   <i type="int" name="NGXF">   180</i>
   <i type="int" name="NGYF">   100</i>
   <i type="int" name="NGZF">   180</i>
   <i type="logical" name="ADDGRID"> F  </i>
  </separator>
  <separator name="ionic" >
   <i type="int" name="NSW">     0</i>
   <i type="int" name="IBRION">    -1</i>
   <i type="int" name="MDALGO">     0</i>
   <i type="int" name="ISIF">     2</i>
   <i name="PSTRESS">      0.00000000</i>
   <i name="EDIFFG">      0.00100000</i>
   <i type="int" name="NFREE">     0</i>
   <i name="POTIM">      0.50000000</i>
   <i name="SMASS">     -3.00000000</i>
   <i name="SCALEE">      1.00000000</i>
  </separator>
  <separator name="ionic md" >
   <i name="TEBEG">      0.00010000</i>
   <i name="TEEND">      0.00010000</i>
   <i type="int" name="NBLOCK">     1</i>
   <i type="int" name="KBLOCK">     1</i>
   <i type="int" name="NPACO">   256</i>
   <i name="APACO">     16.00000000</i>
  </separator>
  <separator name="symmetry" >
   <i type="int" name="ISYM">     2</i>
   <i name="SYMPREC">      0.00001000</i>
  </separator>
  <separator name="dos" >
   <i type="int" name="LORBIT">     0</i>
   <v name="RWIGS">     -1.00000000     -1.00000000</v>
   <i type="int" name="NEDOS">   301</i>
   <i name="EMIN">     10.00000000</i>
   <i name="EMAX">    -10.00000000</i>
   <i name="EFERMI">      0.00000000</i>
  </separator>
  <separator name="writing" >
   <i type="int" name="NWRITE">     2</i>
   <i type="logical" name="LWAVE"> F  </i>
   <i type="logical" name="LDOWNSAMPLE"> F  </i>
   <i type="logical" name="LCHARG"> F  </i>
   <i type="logical" name="LPARD"> F  </i>
   <i type="logical" name="LVTOT"> F  </i>
   <i type="logical" name="LVHAR"> F  </i>
   <i type="logical" name="LELF"> F  </i>
   <i type="logical" name="LOPTICS"> F  </i>
   <v name="STM">      0.00000000      0.00000000      0.00000000      0.00000000      0.00000000      0.00000000      0.00000000</v>
  </separator>
  <separator name="performance" >
   <i type="int" name="NPAR">     2</i>
   <i type="int" name="NSIM">     4</i>
   <i type="int" name="NBLK">    -1</i>
   <i type="logical" name="LPLANE"> T  </i>
   <i type="logical" name="LSCALAPACK"> T  </i>
   <i type="logical" name="LSCAAWARE"> F  </i>
   <i type="logical" name="LSCALU"> F  </i>
   <i type="logical" name="LASYNC"> F  </i>
   <i type="logical" name="LORBITALREAL"> F  </i>
  </separator>
  <separator name="miscellaneous" >
   <i type="int" name="IDIOT">     3</i>
   <i type="int" name="ISPECIAL">     0</i>
   <i type="logical" name="LMUSIC"> F  </i>
   <v name="POMASS">     58.69000000     32.06600000</v>
   <v name="DARWINR">      0.00000000      0.00000000</v>
   <v name="DARWINV">      1.00000000      1.00000000</v>
   <i type="logical" name="LCORR"> T  </i>
  </separator>
  <i type="logical" name="GGA_COMPAT"> T  </i>
  <i type="logical" name="LBERRY"> F  </i>
  <i type="int" name="ICORELEVEL">     0</i>
  <i type="logical" name="LDAU"> F  </i>
  <i type="int" name="I_CONSTRAINED_M">     0</i>
  <separator name="electronic exchange-correlation" >
   <i type="string" name="GGA">--</i>
   <i type="int" name="VOSKOWN">     0</i>
   <i type="logical" name="LHFCALC"> F  </i>
   <i type="string" name="PRECFOCK"></i>
   <i type="logical" name="LSYMGRAD"> F  </i>
   <i type="logical" name="LHFONE"> F  </i>
   <i type="logical" name="LRHFCALC"> F  </i>
   <i type="logical" name="LTHOMAS"> F  </i>
   <i type="logical" name="LMODELHF"> F  </i>
   <i name="ENCUT4O">     -1.00000000</i>
   <i type="int" name="EXXOEP">     0</i>
   <i type="int" name="FOURORBIT">     0</i>
   <i name="AEXX">      0.00000000</i>
   <i name="HFALPHA">      0.00000000</i>
   <i name="MCALPHA">      0.00000000</i>
   <i name="ALDAX">      1.00000000</i>
   <i name="AGGAX">      1.00000000</i>
   <i name="ALDAC">      1.00000000</i>
   <i name="AGGAC">      1.00000000</i>
   <i type="int" name="NKREDX">     1</i>
   <i type="int" name="NKREDY">     1</i>
   <i type="int" name="NKREDZ">     1</i>
   <i type="logical" name="SHIFTRED"> F  </i>
   <i type="logical" name="ODDONLY"> F  </i>
   <i type="logical" name="EVENONLY"> F  </i>
   <i type="int" name="LMAXFOCK">     0</i>
   <i type="int" name="NMAXFOCKAE">     0</i>
   <i type="logical" name="LFOCKAEDFT"> F  </i>
   <i name="HFSCREEN">      0.00000000</i>
   <i name="HFSCREENC">      0.00000000</i>
   <i type="int" name="NBANDSGWLOW">     0</i>
  </separator>
  <separator name="vdW DFT" >
   <i type="logical" name="LUSE_VDW"> F  </i>
   <i name="Zab_VDW">     -0.84910000</i>
   <i name="PARAM1">      0.12340000</i>
   <i name="PARAM2">      1.00000000</i>
   <i name="PARAM3">      0.00000000</i>
  </separator>
  <separator name="model GW" >
   <i type="int" name="MODEL_GW">     0</i>
   <i name="MODEL_EPS0">     21.83944246</i>
   <i name="MODEL_ALPHA">      1.00000000</i>
  </separator>
  <separator name="linear response parameters" >
   <i type="logical" name="LEPSILON"> F  </i>
   <i type="logical" name="LRPA"> F  </i>
   <i type="logical" name="LNABLA"> F  </i>
   <i type="logical" name="LVEL"> F  </i>
   <i type="int" name="KINTER">     0</i>
   <i name="CSHIFT">      0.10000000</i>
   <i name="OMEGAMAX">     -1.00000000</i>
   <i name="DEG_THRESHOLD">      0.00200000</i>
   <i name="RTIME">     -0.10000000</i>
   <i name="WPLASMAI">      0.00000000</i>
   <v name="DFIELD">      0.00000000      0.00000000      0.00000000</v>
   <v name="WPLASMA">      0.00000000      0.00000000      0.00000000      0.00000000      0.00000000      0.00000000      0.00000000      0.00000000      0.00000000</v>
  </separator>
  <separator name="orbital magnetization" >
   <i type="logical" name="NUCIND"> F  </i>
   <v name="MAGPOS">      0.00000000      0.00000000      0.00000000</v>
   <i type="logical" name="LNICSALL"> T  </i>
   <i type="logical" name="ORBITALMAG"> F  </i>
   <i type="logical" name="LMAGBLOCH"> F  </i>
   <i type="logical" name="LCHIMAG"> F  </i>
   <i type="logical" name="LGAUGE"> T  </i>
   <i type="int" name="MAGATOM">     0</i>
   <v name="MAGDIPOL">      0.00000000      0.00000000      0.00000000</v>
   <v name="AVECCONST">      0.00000000      0.00000000      0.00000000</v>
  </separator>
  <separator name="response functions" >
   <i type="logical" name="LADDER"> F  </i>
   <i type="logical" name="LRPAFORCE"> F  </i>
   <i type="logical" name="LFXC"> F  </i>
   <i type="logical" name="LHARTREE"> T  </i>
   <i type="int" name="IBSE">     0</i>
   <v type="int" name="KPOINT">    -1     0     0     0</v>
   <i type="logical" name="LTCTE"> F  </i>
   <i type="logical" name="LTETE"> F  </i>
   <i type="logical" name="LTRIPLET"> F  </i>
   <i type="logical" name="LFXCEPS"> F  </i>
   <i type="logical" name="LFXHEG"> F  </i>
   <i type="int" name="NATURALO">     2</i>
   <i type="logical" name="L2ORDER"> F  </i>
   <i type="logical" name="LMP2LT"> F  </i>
   <i type="logical" name="LUSEW"> F  </i>
   <i name="ENCUTGW">     -2.00000000</i>
   <i name="ENCUTGWSOFT">     -2.00000000</i>
   <i name="ENCUTLF">     -1.00000000</i>
   <i type="int" name="LMAXMP2">    -1</i>
   <i name="SCISSOR">      0.00000000</i>
   <i type="int" name="NOMEGA">     0</i>
   <i type="int" name="NOMEGAR">     0</i>
   <i type="int" name="NBANDSGW">    -1</i>
   <i type="int" name="NBANDSO">    -1</i>
   <i type="int" name="NBANDSV">    -1</i>
   <i type="int" name="NELM">   100</i>
   <i type="int" name="NELMHF">     1</i>
   <i type="int" name="DIM">     3</i>
   <i type="int" name="ANTIRES">     0</i>
   <i name="OMEGAMAX">    -30.00000000</i>
   <i name="OMEGAMIN">    -30.00000000</i>
   <i name="OMEGATL">   -200.00000000</i>
   <i type="int" name="OMEGAGRID">   140</i>
   <i name="CSHIFT">     -0.10000000</i>
   <i type="logical" name="SELFENERGY"> F  </i>
   <i type="logical" name="LSPECTRAL"> F  </i>
   <i type="logical" name="LSPECTRALGW"> F  </i>
   <i type="logical" name="LSINGLES"> F  </i>
   <i type="logical" name="LFERMIGW"> F  </i>
   <i type="logical" name="ODDONLYGW"> F  </i>
   <i type="logical" name="EVENONLYGW"> F  </i>
   <i type="int" name="NKREDLFX">     1</i>
   <i type="int" name="NKREDLFY">     1</i>
   <i type="int" name="NKREDLFZ">     1</i>
   <i type="int" name="MAXMEM">  2800</i>
   <i type="int" name="TELESCOPE">     0</i>
   <i type="int" name="TAUPAR">     1</i>
   <i type="int" name="OMEGAPAR">    -1</i>
   <i name="LAMBDA">      1.00000000</i>
  </separator>
  <separator name="External order field" >
   <i name="OFIELD_KAPPA">      0.00000000</i>
   <v name="OFIELD_K">      0.00000000      0.00000000      0.00000000</v>
   <i name="OFIELD_Q6_NEAR">      0.00000000</i>
   <i name="OFIELD_Q6_FAR">      0.00000000</i>
   <i name="OFIELD_A">      0.00000000</i>
  </separator>
 </parameters>
 <atominfo>
  <atoms>      74 </atoms>
  <types>       2 </types>
  <array name="atoms" >
   <dimension dim="1">ion</dimension>
   <field type="string">element</field>
   <field type="int">atomtype</field>
   <set>
    <rc><c>Ni</c><c>   1</c></rc>
    <rc><c>Ni</c><c>   1</c></rc>
    <rc><c>Ni</c><c>   1</c></rc>
    <rc><c>Ni</c><c>   1</c></rc>
    <rc><c>Ni</c><c>   1</c></rc>
    <rc><c>Ni</c><c>   1</c></rc>
    <rc><c>Ni</c><c>   1</c></rc>
    <rc><c>Ni</c><c>   1</c></rc>
    <rc><c>Ni</c><c>   1</c></rc>
    <rc><c>Ni</c><c>   1</c></rc>
    <rc><c>Ni</c><c>   1</c></rc>
    <rc><c>Ni</c><c>   1</c></rc>
    <rc><c>Ni</c><c>   1</c></rc>
    <rc><c>Ni</c><c>   1</c></rc>
    <rc><c>Ni</c><c>   1</c></rc>
    <rc><c>Ni</c><c>   1</c></rc>
    <rc><c>Ni</c><c>   1</c></rc>
    <rc><c>Ni</c><c>   1</c></rc>
    <rc><c>Ni</c><c>   1</c></rc>
    <rc><c>Ni</c><c>   1</c></rc>
    <rc><c>Ni</c><c>   1</c></rc>
    <rc><c>Ni</c><c>   1</c></rc>
    <rc><c>Ni</c><c>   1</c></rc>
    <rc><c>Ni</c><c>   1</c></rc>
    <rc><c>Ni</c><c>   1</c></rc>
    <rc><c>Ni</c><c>   1</c></rc>
    <rc><c>Ni</c><c>   1</c></rc>
    <rc><c>Ni</c><c>   1</c></rc>
    <rc><c>Ni</c><c>   1</c></rc>
    <rc><c>Ni</c><c>   1</c></rc>
    <rc><c>Ni</c><c>   1</c></rc>
    <rc><c>Ni</c><c>   1</c></rc>
    <rc><c>Ni</c><c>   1</c></rc>
    <rc><c>Ni</c><c>   1</c></rc>
    <rc><c>Ni</c><c>   1</c></rc>
    <rc><c>Ni</c><c>   1</c></rc>
    <rc><c>Ni</c><c>   1</c></rc>
    <rc><c>S </c><c>   2</c></rc>
    <rc><c>S </c><c>   2</c></rc>
    <rc><c>S </c><c>   2</c></rc>
    <rc><c>S </c><c>   2</c></rc>
    <rc><c>S </c><c>   2</c></rc>
    <rc><c>S </c><c>   2</c></rc>
    <rc><c>S </c><c>   2</c></rc>
    <rc><c>S </c><c>   2</c></rc>
    <rc><c>S </c><c>   2</c></rc>
    <rc><c>S </c><c>   2</c></rc>
    <rc><c>S </c><c>   2</c></rc>
    <rc><c>S </c><c>   2</c></rc>
    <rc><c>S </c><c>   2</c></rc>
    <rc><c>S </c><c>   2</c></rc>
    <rc><c>S </c><c>   2</c></rc>
    <rc><c>S </c><c>   2</c></rc>
    <rc><c>S </c><c>   2</c></rc>
    <rc><c>S </c><c>   2</c></rc>
    <rc><c>S </c><c>   2</c></rc>
    <rc><c>S </c><c>   2</c></rc>
    <rc><c>S </c><c>   2</c></rc>
    <rc><c>S </c><c>   2</c></rc>
    <rc><c>S </c><c>   2</c></rc>
    <rc><c>S </c><c>   2</c></rc>
    <rc><c>S </c><c>   2</c></rc>
    <rc><c>S </c><c>   2</c></rc>
    <rc><c>S </c><c>   2</c></rc>
    <rc><c>S </c><c>   2</c></rc>
    <rc><c>S </c><c>   2</c></rc>
    <rc><c>S </c><c>   2</c></rc>
    <rc><c>S </c><c>   2</c></rc>
    <rc><c>S </c><c>   2</c></rc>
    <rc><c>S </c><c>   2</c></rc>
    <rc><c>S </c><c>   2</c></rc>
    <rc><c>S </c><c>   2</c></rc>
    <rc><c>S </c><c>   2</c></rc>
    <rc><c>S </c><c>   2</c></rc>
   </set>
  </array>
  <array name="atomtypes" >
   <dimension dim="1">type</dimension>
   <field type="int">atomspertype</field>
   <field type="string">element</field>
   <field>mass</field>
   <field>valence</field>
   <field type="string">pseudopotential</field>
   <set>
    <rc><c>  37</c><c>Ni</c><c>     58.69000000</c><c>     16.00000000</c><c>  PAW_PBE Ni_pv 06Sep2000               </c></rc>
    <rc><c>  37</c><c>S </c><c>     32.06600000</c><c>      6.00000000</c><c>  PAW_PBE S 06Sep2000                   </c></rc>
   </set>
  </array>
 </atominfo>
 <structure name="initialpos" >
  <crystal>
   <varray name="basis" >
    <v>      16.88469405       0.00000000       0.00000000 </v>
    <v>       0.00000000       9.57841000       0.00000000 </v>
    <v>       0.00000000       0.00000000      16.65464569 </v>
   </varray>
   <i name="volume">   2693.53123734 </i>
   <varray name="rec_basis" >
    <v>       0.05922524       0.00000000       0.00000000 </v>
    <v>       0.00000000       0.10440146       0.00000000 </v>
    <v>       0.00000000       0.00000000       0.06004331 </v>
   </varray>
  </crystal>
  <varray name="positions" >
   <v>       0.78004630       0.14529696       0.12347080 </v>
   <v>       0.21574931       0.65396553       0.09921466 </v>
   <v>       0.29733028       0.64529696       0.21607389 </v>
   <v>       0.39146791       0.14425589       0.12854152 </v>
   <v>       0.46975828       0.14529696       0.24694159 </v>
   <v>       0.95247430       0.64529696       0.15433850 </v>
   <v>       0.97510332       0.64508657       0.31778340 </v>
   <v>       0.17121756       0.14833309       0.04731139 </v>
   <v>       0.12490229       0.14529696       0.18520619 </v>
   <v>       0.06173747       0.08222365       0.30537191 </v>
   <v>       0.57042752       0.63317876       0.16072683 </v>
   <v>       0.64218627       0.64529696       0.27780929 </v>
   <v>       0.90348757       0.00037666       0.11799595 </v>
   <v>       0.93164409       0.00236894       0.26130308 </v>
   <v>       0.45192728       0.43947342       0.05664627 </v>
   <v>       0.42486675       0.51319396       0.19160760 </v>
   <v>       0.45917643       0.47764181       0.33432717 </v>
   <v>       0.53108245       0.14288690       0.09121201 </v>
   <v>       0.59729475       0.01319396       0.22247530 </v>
   <v>       0.08001077       0.51319396       0.12987220 </v>
   <v>       0.11228288       0.49819088       0.29243820 </v>
   <v>       0.25243876       0.01319396       0.16073990 </v>
   <v>       0.29553851       0.97389371       0.29736639 </v>
   <v>       0.76740551       0.41946401       0.12219505 </v>
   <v>       0.76972274       0.51319396       0.25334300 </v>
   <v>       0.90760057       0.28981471       0.12433217 </v>
   <v>       0.94754679       0.27867408       0.26974771 </v>
   <v>       0.35753397       0.64535807       0.06291284 </v>
   <v>       0.42486675       0.77739996       0.19160760 </v>
   <v>       0.46640962       0.82692437       0.32855101 </v>
   <v>       0.59316567       0.37582312       0.09255714 </v>
   <v>       0.59729475       0.27739996       0.22247530 </v>
   <v>       0.08001077       0.77739996       0.12987220 </v>
   <v>       0.11214118       0.78619036       0.29514735 </v>
   <v>       0.25243876       0.27739996       0.16073990 </v>
   <v>       0.77090789       0.85057117       0.11902526 </v>
   <v>       0.76972274       0.77739996       0.25334300 </v>
   <v>       0.95597899       0.12972789       0.35715171 </v>
   <v>       0.99146120       0.14529696       0.18349304 </v>
   <v>       0.47417723       0.64529696       0.09088994 </v>
   <v>       0.50874518       0.64529696       0.27609614 </v>
   <v>       0.64660522       0.14529696       0.12175764 </v>
   <v>       0.66702491       0.14486271       0.28659298 </v>
   <v>       0.11178301       0.64543979       0.03796623 </v>
   <v>       0.16388920       0.64529696       0.21436074 </v>
   <v>       0.08039251       0.63930644       0.37887010 </v>
   <v>       0.28878277       0.14597063       0.06367841 </v>
   <v>       0.32827329       0.15098891       0.23578072 </v>
   <v>       0.81903321       0.64529696       0.15262534 </v>
   <v>       0.85079205       0.64552159       0.31298222 </v>
   <v>       0.81805260       0.29089479       0.04058636 </v>
   <v>       0.82649083       0.31749655       0.21757398 </v>
   <v>       0.31177707       0.81351196       0.12204440 </v>
   <v>       0.35158076       0.78676399       0.29702435 </v>
   <v>       0.48420507       0.31351196       0.15291210 </v>
   <v>       0.52010010       0.29837167       0.32093203 </v>
   <v>       0.00148905       0.81351196       0.24551520 </v>
   <v>       0.96673830       0.82191051       0.08387238 </v>
   <v>       0.14164140       0.32424727       0.11063293 </v>
   <v>       0.11662002       0.27487786       0.28870241 </v>
   <v>       0.65663306       0.81351196       0.18377980 </v>
   <v>       0.69476801       0.79257055       0.34710177 </v>
   <v>       0.31177707       0.47708196       0.12204440 </v>
   <v>       0.34804276       0.49056211       0.28969417 </v>
   <v>       0.80996610       0.99458980       0.03938100 </v>
   <v>       0.81691749       0.97762856       0.21014309 </v>
   <v>       0.00148905       0.47708196       0.24551520 </v>
   <v>       0.96731712       0.46887098       0.08402460 </v>
   <v>       0.48420507       0.97708196       0.15291210 </v>
   <v>       0.52643882       0.00696948       0.32431612 </v>
   <v>       0.65663306       0.47708196       0.18377980 </v>
   <v>       0.69657121       0.50254241       0.34878500 </v>
   <v>       0.14036382       0.96867482       0.10625013 </v>
   <v>       0.17391704       0.97708196       0.27638290 </v>
  </varray>
 </structure>
 <calculation>
  <scstep>
   <time name="dav">    9.45    9.45</time>
   <time name="total">    9.83    9.83</time>
   <energy>
    <i name="alphaZ">   1458.83996183 </i>
    <i name="ewald"> 168527.04375741 </i>
    <i name="hartreedc">-292138.27821984 </i>
    <i name="XCdc">   3784.83807878 </i>
    <i name="pawpsdc"> 115860.90926010 </i>
    <i name="pawaedc">-120909.33166199 </i>
    <i name="eentropy">     -0.39135815 </i>
    <i name="bandstr">  -7212.00393374 </i>
    <i name="atom"> 139780.45519414 </i>
    <i name="e_fr_energy">   9152.08107854 </i>
    <i name="e_wo_entrp">   9152.47243669 </i>
    <i name="e_0_energy">   9152.27675762 </i>
   </energy>
  </scstep>
  <scstep>
   <time name="dav">    8.31    8.31</time>
   <time name="total">    8.31    8.31</time>
   <energy>
    <i name="e_fr_energy">    500.24690906 </i>
    <i name="e_wo_entrp">    500.97882348 </i>
    <i name="e_0_energy">    500.61286627 </i>
   </energy>
  </scstep>
  <scstep>
   <time name="dav">    9.01    9.01</time>
   <time name="total">    9.01    9.01</time>
   <energy>
    <i name="e_fr_energy">   -357.91609371 </i>
    <i name="e_wo_entrp">   -356.80186935 </i>
    <i name="e_0_energy">   -357.35898153 </i>
   </energy>
  </scstep>
  <scstep>
   <time name="dav">    8.90    8.90</time>
   <time name="total">    8.90    8.91</time>
   <energy>
    <i name="e_fr_energy">   -402.18085266 </i>
    <i name="e_wo_entrp">   -401.06361297 </i>
    <i name="e_0_energy">   -401.62223281 </i>
   </energy>
  </scstep>
  <scstep>
   <time name="dav">    9.84    9.84</time>
   <time name="total">   10.15   10.15</time>
   <energy>
    <i name="e_fr_energy">   -403.95778970 </i>
    <i name="e_wo_entrp">   -402.84288732 </i>
    <i name="e_0_energy">   -403.40033851 </i>
   </energy>
  </scstep>
  <scstep>
   <time name="dav">    9.39    9.39</time>
   <time name="total">   10.31   10.32</time>
   <energy>
    <i name="e_fr_energy">   -471.42073111 </i>
    <i name="e_wo_entrp">   -470.60190924 </i>
    <i name="e_0_energy">   -471.01132018 </i>
   </energy>
  </scstep>
  <scstep>
   <time name="dav">    8.77    8.77</time>
   <time name="total">    9.44    9.44</time>
   <energy>
    <i name="e_fr_energy">   -369.42631463 </i>
    <i name="e_wo_entrp">   -368.49539847 </i>
    <i name="e_0_energy">   -368.96085655 </i>
   </energy>
  </scstep>
  <scstep>
   <time name="dav">   10.37   10.37</time>
   <time name="total">   11.04   11.04</time>
   <energy>
    <i name="e_fr_energy">   -377.13035404 </i>
    <i name="e_wo_entrp">   -375.93565835 </i>
    <i name="e_0_energy">   -376.53300619 </i>
   </energy>
  </scstep>
  <scstep>
   <time name="dav">   10.07   10.08</time>
   <time name="total">   10.75   10.75</time>
   <energy>
    <i name="e_fr_energy">   -377.48117907 </i>
    <i name="e_wo_entrp">   -376.44068542 </i>
    <i name="e_0_energy">   -376.96093224 </i>
   </energy>
  </scstep>
  <scstep>
   <time name="dav">   10.27   10.27</time>
   <time name="total">   10.94   10.94</time>
   <energy>
    <i name="e_fr_energy">   -401.78889371 </i>
    <i name="e_wo_entrp">   -400.70342703 </i>
    <i name="e_0_energy">   -401.24616037 </i>
   </energy>
  </scstep>
  <scstep>
   <time name="dav">   10.20   10.21</time>
   <time name="total">   10.88   10.88</time>
   <energy>
    <i name="e_fr_energy">   -373.08665583 </i>
    <i name="e_wo_entrp">   -372.03508363 </i>
    <i name="e_0_energy">   -372.56086973 </i>
   </energy>
  </scstep>
  <scstep>
   <time name="dav">   10.19   10.19</time>
   <time name="total">   10.87   10.87</time>
   <energy>
    <i name="e_fr_energy">   -360.36115828 </i>
    <i name="e_wo_entrp">   -359.24561624 </i>
    <i name="e_0_energy">   -359.80338726 </i>
   </energy>
  </scstep>
  <scstep>
   <time name="dav">   10.25   10.25</time>
   <time name="total">   10.93   10.93</time>
   <energy>
    <i name="e_fr_energy">   -362.17565938 </i>
    <i name="e_wo_entrp">   -361.00159602 </i>
    <i name="e_0_energy">   -361.58862770 </i>
   </energy>
  </scstep>
  <scstep>
   <time name="dav">   10.32   10.32</time>
   <time name="total">   11.00   11.00</time>
   <energy>
    <i name="e_fr_energy">   -355.74420387 </i>
    <i name="e_wo_entrp">   -354.62920024 </i>
    <i name="e_0_energy">   -355.18670205 </i>
   </energy>
  </scstep>
  <scstep>
   <time name="dav">   10.32   10.32</time>
   <time name="total">   11.00   11.01</time>
   <energy>
    <i name="e_fr_energy">   -353.98634665 </i>
    <i name="e_wo_entrp">   -352.88576824 </i>
    <i name="e_0_energy">   -353.43605744 </i>
   </energy>
  </scstep>
  <scstep>
   <time name="dav">   10.29   10.29</time>
   <time name="total">   10.97   10.97</time>
   <energy>
    <i name="e_fr_energy">   -353.48666283 </i>
    <i name="e_wo_entrp">   -352.38140840 </i>
    <i name="e_0_energy">   -352.93403562 </i>
   </energy>
  </scstep>
  <scstep>
   <time name="dav">   10.26   10.26</time>
   <time name="total">   10.95   10.95</time>
   <energy>
    <i name="e_fr_energy">   -352.91272036 </i>
    <i name="e_wo_entrp">   -351.80280517 </i>
    <i name="e_0_energy">   -352.35776276 </i>
   </energy>
  </scstep>
  <scstep>
   <time name="dav">   10.30   10.30</time>
   <time name="total">   11.00   11.00</time>
   <energy>
    <i name="e_fr_energy">   -352.63460191 </i>
    <i name="e_wo_entrp">   -351.50484281 </i>
    <i name="e_0_energy">   -352.06972236 </i>
   </energy>
  </scstep>
  <scstep>
   <time name="dav">   10.55   10.55</time>
   <time name="total">   11.24   11.24</time>
   <energy>
    <i name="e_fr_energy">   -352.17127390 </i>
    <i name="e_wo_entrp">   -351.03495374 </i>
    <i name="e_0_energy">   -351.60311382 </i>
   </energy>
  </scstep>
  <scstep>
   <time name="dav">   10.14   10.14</time>
   <time name="total">   10.87   10.87</time>
   <energy>
    <i name="e_fr_energy">   -351.87979415 </i>
    <i name="e_wo_entrp">   -350.75353034 </i>
    <i name="e_0_energy">   -351.31666224 </i>
   </energy>
  </scstep>
  <scstep>
   <time name="dav">   10.23   10.24</time>
   <time name="total">   10.93   10.93</time>
   <energy>
    <i name="e_fr_energy">   -351.64809406 </i>
    <i name="e_wo_entrp">   -350.52094493 </i>
    <i name="e_0_energy">   -351.08451950 </i>
   </energy>
  </scstep>
  <scstep>
   <time name="dav">   10.22   10.23</time>
   <time name="total">   10.93   10.93</time>
   <energy>
    <i name="e_fr_energy">   -351.64189443 </i>
    <i name="e_wo_entrp">   -350.51837712 </i>
    <i name="e_0_energy">   -351.08013577 </i>
   </energy>
  </scstep>
  <scstep>
   <time name="dav">    9.97    9.97</time>
   <time name="total">   10.67   10.67</time>
   <energy>
    <i name="e_fr_energy">   -351.60589473 </i>
    <i name="e_wo_entrp">   -350.47945611 </i>
    <i name="e_0_energy">   -351.04267542 </i>
   </energy>
  </scstep>
  <scstep>
   <time name="dav">   10.03   10.03</time>
   <time name="total">   10.72   10.72</time>
   <energy>
    <i name="e_fr_energy">   -351.62654431 </i>
    <i name="e_wo_entrp">   -350.50191709 </i>
    <i name="e_0_energy">   -351.06423070 </i>
   </energy>
  </scstep>
  <scstep>
   <time name="dav">    9.88    9.88</time>
   <time name="total">   10.57   10.57</time>
   <energy>
    <i name="e_fr_energy">   -351.58474715 </i>
    <i name="e_wo_entrp">   -350.46328682 </i>
    <i name="e_0_energy">   -351.02401699 </i>
   </energy>
  </scstep>
  <scstep>
   <time name="dav">   10.12   10.12</time>
   <time name="total">   10.81   10.81</time>
   <energy>
    <i name="e_fr_energy">   -351.58626870 </i>
    <i name="e_wo_entrp">   -350.46502973 </i>
    <i name="e_0_energy">   -351.02564922 </i>
   </energy>
  </scstep>
  <scstep>
   <time name="dav">   10.38   10.38</time>
   <time name="total">   11.09   11.09</time>
   <energy>
    <i name="e_fr_energy">   -351.56856980 </i>
    <i name="e_wo_entrp">   -350.44696410 </i>
    <i name="e_0_energy">   -351.00776695 </i>
   </energy>
  </scstep>
  <scstep>
   <time name="dav">   10.18   10.18</time>
   <time name="total">   10.88   10.88</time>
   <energy>
    <i name="e_fr_energy">   -351.56845557 </i>
    <i name="e_wo_entrp">   -350.44916370 </i>
    <i name="e_0_energy">   -351.00880963 </i>
   </energy>
  </scstep>
  <scstep>
   <time name="dav">   10.19   10.20</time>
   <time name="total">   10.89   10.90</time>
   <energy>
    <i name="e_fr_energy">   -351.56621367 </i>
    <i name="e_wo_entrp">   -350.44706872 </i>
    <i name="e_0_energy">   -351.00664120 </i>
   </energy>
  </scstep>
  <scstep>
   <time name="dav">   10.05   10.05</time>
   <time name="total">   10.75   10.75</time>
   <energy>
    <i name="e_fr_energy">   -351.56650406 </i>
    <i name="e_wo_entrp">   -350.44603258 </i>
    <i name="e_0_energy">   -351.00626832 </i>
   </energy>
  </scstep>
  <scstep>
   <time name="dav">    9.19    9.19</time>
   <time name="total">    9.89    9.90</time>
   <energy>
    <i name="e_fr_energy">   -351.56618719 </i>
    <i name="e_wo_entrp">   -350.44723522 </i>
    <i name="e_0_energy">   -351.00671120 </i>
   </energy>
  </scstep>
  <scstep>
   <time name="dav">    9.03    9.04</time>
   <time name="total">    9.74    9.75</time>
   <energy>
    <i name="e_fr_energy">   -351.56632524 </i>
    <i name="e_wo_entrp">   -350.44587041 </i>
    <i name="e_0_energy">   -351.00609782 </i>
   </energy>
  </scstep>
  <scstep>
   <time name="dav">    8.57    8.57</time>
   <time name="total">    9.53    9.53</time>
   <energy>
    <i name="e_fr_energy">   -351.56636947 </i>
    <i name="e_wo_entrp">   -350.44670362 </i>
    <i name="e_0_energy">   -351.00653654 </i>
   </energy>
  </scstep>
  <scstep>
   <time name="dav">    7.45    7.45</time>
   <time name="total">    8.16    8.16</time>
   <energy>
    <i name="e_fr_energy">   -351.56659845 </i>
    <i name="e_wo_entrp">   -350.44665126 </i>
    <i name="e_0_energy">   -351.00662485 </i>
   </energy>
  </scstep>
  <scstep>
   <time name="dav">    6.41    6.41</time>
   <time name="total">    7.12    7.13</time>
   <energy>
    <i name="e_fr_energy">   -351.56681527 </i>
    <i name="e_wo_entrp">   -350.44704324 </i>
    <i name="e_0_energy">   -351.00692926 </i>
   </energy>
  </scstep>
  <scstep>
   <time name="dav">    5.73    5.73</time>
   <time name="total">    6.68    6.69</time>
   <energy>
    <i name="e_fr_energy">   -351.56717116 </i>
    <i name="e_wo_entrp">   -350.44743568 </i>
    <i name="e_0_energy">   -351.00730342 </i>
   </energy>
  </scstep>
  <scstep>
   <time name="dav">    5.76    5.76</time>
   <time name="total">    6.49    6.49</time>
   <energy>
    <i name="e_fr_energy">   -351.56738644 </i>
    <i name="e_wo_entrp">   -350.44767075 </i>
    <i name="e_0_energy">   -351.00752859 </i>
   </energy>
  </scstep>
  <scstep>
   <time name="dav">    5.85    5.85</time>
   <time name="total">    6.57    6.57</time>
   <energy>
    <i name="e_fr_energy">   -351.56787706 </i>
    <i name="e_wo_entrp">   -350.44817675 </i>
    <i name="e_0_energy">   -351.00802691 </i>
   </energy>
  </scstep>
  <scstep>
   <time name="dav">    5.82    5.82</time>
   <time name="total">    6.55    6.55</time>
   <energy>
    <i name="e_fr_energy">   -351.56819990 </i>
    <i name="e_wo_entrp">   -350.44846954 </i>
    <i name="e_0_energy">   -351.00833472 </i>
   </energy>
  </scstep>
  <scstep>
   <time name="dav">    5.71    5.71</time>
   <time name="total">    6.46    6.46</time>
   <energy>
    <i name="e_fr_energy">   -351.56854621 </i>
    <i name="e_wo_entrp">   -350.44861650 </i>
    <i name="e_0_energy">   -351.00858135 </i>
   </energy>
  </scstep>
  <scstep>
   <time name="dav">    5.71    5.72</time>
   <time name="total">    6.66    6.66</time>
   <energy>
    <i name="e_fr_energy">   -351.56882886 </i>
    <i name="e_wo_entrp">   -350.44901370 </i>
    <i name="e_0_energy">   -351.00892128 </i>
   </energy>
  </scstep>
  <scstep>
   <time name="dav">    5.87    5.87</time>
   <time name="total">    6.62    6.62</time>
   <energy>
    <i name="e_fr_energy">   -351.56923393 </i>
    <i name="e_wo_entrp">   -350.44939113 </i>
    <i name="e_0_energy">   -351.00931253 </i>
   </energy>
  </scstep>
  <scstep>
   <time name="dav">    5.67    5.68</time>
   <time name="total">    6.43    6.43</time>
   <energy>
    <i name="e_fr_energy">   -351.56950713 </i>
    <i name="e_wo_entrp">   -350.44968414 </i>
    <i name="e_0_energy">   -351.00959563 </i>
   </energy>
  </scstep>
  <scstep>
   <time name="dav">    5.68    5.68</time>
   <time name="total">    6.45    6.45</time>
   <energy>
    <i name="e_fr_energy">   -351.56969025 </i>
    <i name="e_wo_entrp">   -350.44981810 </i>
    <i name="e_0_energy">   -351.00975417 </i>
   </energy>
  </scstep>
  <scstep>
   <time name="dav">    5.70    5.70</time>
   <time name="total">    6.07    6.07</time>
   <energy>
    <i name="alphaZ">   1458.83996183 </i>
    <i name="ewald"> 168527.04375741 </i>
    <i name="hartreedc">-291491.20500328 </i>
    <i name="XCdc">   3755.04242307 </i>
    <i name="pawpsdc"> 144724.03249388 </i>
    <i name="pawaedc">-149856.24915810 </i>
    <i name="eentropy">     -1.11985677 </i>
    <i name="bandstr"> -17248.40957664 </i>
    <i name="atom"> 139780.45519414 </i>
    <i name="e_fr_energy">   -351.56976446 </i>
    <i name="e_wo_entrp">   -350.44990769 </i>
    <i name="e_0_energy">   -351.00983607 </i>
   </energy>
  </scstep>
  <structure>
   <crystal>
    <varray name="basis" >
     <v>      16.88469405       0.00000000       0.00000000 </v>
     <v>       0.00000000       9.57841000       0.00000000 </v>
     <v>       0.00000000       0.00000000      16.65464569 </v>
    </varray>
    <i name="volume">   2693.53123734 </i>
    <varray name="rec_basis" >
     <v>       0.05922524       0.00000000       0.00000000 </v>
     <v>       0.00000000       0.10440146       0.00000000 </v>
     <v>       0.00000000       0.00000000       0.06004331 </v>
    </varray>
   </crystal>
   <varray name="positions" >
    <v>       0.78004630       0.14529696       0.12347080 </v>
    <v>       0.21574931       0.65396553       0.09921466 </v>
    <v>       0.29733028       0.64529696       0.21607389 </v>
    <v>       0.39146791       0.14425589       0.12854152 </v>
    <v>       0.46975828       0.14529696       0.24694159 </v>
    <v>       0.95247430       0.64529696       0.15433850 </v>
    <v>       0.97510332       0.64508657       0.31778340 </v>
    <v>       0.17121756       0.14833309       0.04731139 </v>
    <v>       0.12490229       0.14529696       0.18520619 </v>
    <v>       0.06173747       0.08222365       0.30537191 </v>
    <v>       0.57042752       0.63317876       0.16072683 </v>
    <v>       0.64218627       0.64529696       0.27780929 </v>
    <v>       0.90348757       0.00037666       0.11799595 </v>
    <v>       0.93164409       0.00236894       0.26130308 </v>
    <v>       0.45192728       0.43947342       0.05664627 </v>
    <v>       0.42486675       0.51319396       0.19160760 </v>
    <v>       0.45917643       0.47764181       0.33432717 </v>
    <v>       0.53108245       0.14288690       0.09121201 </v>
    <v>       0.59729475       0.01319396       0.22247530 </v>
    <v>       0.08001077       0.51319396       0.12987220 </v>
    <v>       0.11228288       0.49819088       0.29243820 </v>
    <v>       0.25243876       0.01319396       0.16073990 </v>
    <v>       0.29553851       0.97389371       0.29736639 </v>
    <v>       0.76740551       0.41946401       0.12219505 </v>
    <v>       0.76972274       0.51319396       0.25334300 </v>
    <v>       0.90760057       0.28981471       0.12433217 </v>
    <v>       0.94754679       0.27867408       0.26974771 </v>
    <v>       0.35753397       0.64535807       0.06291284 </v>
    <v>       0.42486675       0.77739996       0.19160760 </v>
    <v>       0.46640962       0.82692437       0.32855101 </v>
    <v>       0.59316567       0.37582312       0.09255714 </v>
    <v>       0.59729475       0.27739996       0.22247530 </v>
    <v>       0.08001077       0.77739996       0.12987220 </v>
    <v>       0.11214118       0.78619036       0.29514735 </v>
    <v>       0.25243876       0.27739996       0.16073990 </v>
    <v>       0.77090789       0.85057117       0.11902526 </v>
    <v>       0.76972274       0.77739996       0.25334300 </v>
    <v>       0.95597899       0.12972789       0.35715171 </v>
    <v>       0.99146120       0.14529696       0.18349304 </v>
    <v>       0.47417723       0.64529696       0.09088994 </v>
    <v>       0.50874518       0.64529696       0.27609614 </v>
    <v>       0.64660522       0.14529696       0.12175764 </v>
    <v>       0.66702491       0.14486271       0.28659298 </v>
    <v>       0.11178301       0.64543979       0.03796623 </v>
    <v>       0.16388920       0.64529696       0.21436074 </v>
    <v>       0.08039251       0.63930644       0.37887010 </v>
    <v>       0.28878277       0.14597063       0.06367841 </v>
    <v>       0.32827329       0.15098891       0.23578072 </v>
    <v>       0.81903321       0.64529696       0.15262534 </v>
    <v>       0.85079205       0.64552159       0.31298222 </v>
    <v>       0.81805260       0.29089479       0.04058636 </v>
    <v>       0.82649083       0.31749655       0.21757398 </v>
    <v>       0.31177707       0.81351196       0.12204440 </v>
    <v>       0.35158076       0.78676399       0.29702435 </v>
    <v>       0.48420507       0.31351196       0.15291210 </v>
    <v>       0.52010010       0.29837167       0.32093203 </v>
    <v>       0.00148905       0.81351196       0.24551520 </v>
    <v>       0.96673830       0.82191051       0.08387238 </v>
    <v>       0.14164140       0.32424727       0.11063293 </v>
    <v>       0.11662002       0.27487786       0.28870241 </v>
    <v>       0.65663306       0.81351196       0.18377980 </v>
    <v>       0.69476801       0.79257055       0.34710177 </v>
    <v>       0.31177707       0.47708196       0.12204440 </v>
    <v>       0.34804276       0.49056211       0.28969417 </v>
    <v>       0.80996610       0.99458980       0.03938100 </v>
    <v>       0.81691749       0.97762856       0.21014309 </v>
    <v>       0.00148905       0.47708196       0.24551520 </v>
    <v>       0.96731712       0.46887098       0.08402460 </v>
    <v>       0.48420507       0.97708196       0.15291210 </v>
    <v>       0.52643882       0.00696948       0.32431612 </v>
    <v>       0.65663306       0.47708196       0.18377980 </v>
    <v>       0.69657121       0.50254241       0.34878500 </v>
    <v>       0.14036382       0.96867482       0.10625013 </v>
    <v>       0.17391704       0.97708196       0.27638290 </v>
   </varray>
  </structure>
  <varray name="forces" >
   <v>      -0.13005814       0.18854279       1.34657585 </v>
   <v>       1.11865622      -0.03621222      -0.36856091 </v>
   <v>      -0.39031688       0.10138726      -0.17551975 </v>
   <v>       0.64766522      -0.05526020      -0.78695592 </v>
   <v>      -1.22491083      -0.25828151      -0.71525309 </v>
   <v>      -0.49245821       0.05003187       1.88767647 </v>
   <v>      -1.52937771      -0.02999567       0.41842810 </v>
   <v>      -0.86181187       0.11613066      -1.98131241 </v>
   <v>      -0.64593935       0.01166996       0.29674885 </v>
   <v>       0.76089908      -0.65910031       0.51665928 </v>
   <v>       0.55373122       0.46484697      -0.43403626 </v>
   <v>      -0.84055025       0.27652472      -1.17184519 </v>
   <v>       1.27372511       0.78688876       0.08880187 </v>
   <v>      -0.15383208      -0.72532089      -0.28585169 </v>
   <v>      -0.26132850      -0.45899056      -0.67300402 </v>
   <v>       0.17163897       0.08890596      -0.30316449 </v>
   <v>       0.41299765       0.09958901       0.76773613 </v>
   <v>      -0.42427058       0.11046254      -1.84756672 </v>
   <v>      -0.05179026      -1.01271602      -2.05709697 </v>
   <v>       0.09873237      -0.41757880       1.50388063 </v>
   <v>       1.09935876      -1.51899785      -0.02366718 </v>
   <v>       0.29684518      -0.70661300       0.16041165 </v>
   <v>      -0.39515587       0.09875035       1.22117530 </v>
   <v>      -0.66180385       1.31357260      -0.12490272 </v>
   <v>       1.05630954       0.16977344      -1.35784659 </v>
   <v>       0.91667156      -0.56707953      -0.04209886 </v>
   <v>      -1.25903164       1.19667407      -0.45054832 </v>
   <v>      -0.32721722       0.02733806      -1.74342142 </v>
   <v>       0.36222907       0.14329786      -1.07477176 </v>
   <v>      -0.00840660      -0.42307183       0.83360527 </v>
   <v>       0.18948046       0.25746045      -0.93878812 </v>
   <v>       0.09500350       0.39529332      -0.47016734 </v>
   <v>      -0.14359964       0.57334945       1.53517889 </v>
   <v>       1.07278682       1.23334810       0.13525452 </v>
   <v>       0.83138928       0.81381152       0.56917256 </v>
   <v>      -0.72593074      -1.06625668      -0.18907975 </v>
   <v>       0.56690225      -0.13015630      -1.35437212 </v>
   <v>      -1.16925043      -0.03918255       4.17566783 </v>
   <v>       0.63651445      -1.01447924      -2.43745323 </v>
   <v>       1.25600596       0.82857461      -2.93150008 </v>
   <v>       1.26765419       0.15814762       1.06692881 </v>
   <v>       1.60030295       0.50405226      -0.91783524 </v>
   <v>       2.84292136      -0.05237903       2.79138236 </v>
   <v>       0.18268020      -0.07565738      -3.87516711 </v>
   <v>       1.34336918      -0.12444077       0.07799408 </v>
   <v>       0.66948134       0.08758765       4.37069196 </v>
   <v>       1.69427761      -0.09595757      -3.09520486 </v>
   <v>       0.80585579       1.00956390       2.40146460 </v>
   <v>       0.41686604      -0.40457635      -1.48883557 </v>
   <v>       0.83254108      -0.03212371       2.61302812 </v>
   <v>      -0.17077152       0.83736187      -3.77377178 </v>
   <v>      -0.72906529      -0.78570681       2.43617178 </v>
   <v>      -0.97709397       1.42852822      -0.17385855 </v>
   <v>      -1.15042806       0.74670968       1.82097627 </v>
   <v>      -1.01969109       0.81052137      -0.60831864 </v>
   <v>       0.22017593       0.20256437       2.69908869 </v>
   <v>      -1.24950741       1.41863074      -0.85521645 </v>
   <v>      -0.41142973       0.74392864      -2.57014873 </v>
   <v>      -0.71843110       0.87147200      -1.05196612 </v>
   <v>       1.66955733       0.87288238       1.47785818 </v>
   <v>      -0.85919722       0.56915506      -0.91560471 </v>
   <v>      -0.48727480       1.29032268       3.82068767 </v>
   <v>      -0.91248228      -1.45739609      -0.52823596 </v>
   <v>      -1.87416732      -1.81872206       1.95436420 </v>
   <v>      -0.46424234      -0.78626486      -3.92577885 </v>
   <v>      -0.49506068       0.57647997       2.44076014 </v>
   <v>      -1.27064268      -0.89221678      -0.92960599 </v>
   <v>      -0.43985463      -0.73840088      -2.73877956 </v>
   <v>      -1.20476348      -1.49526882      -0.13208258 </v>
   <v>       0.32752811      -0.17893041       2.80460934 </v>
   <v>      -0.08862139      -1.02142774      -0.35526067 </v>
   <v>      -0.45048266      -1.27864761       3.88907042 </v>
   <v>      -0.85109163      -0.98104497      -1.42981009 </v>
   <v>       0.23058612      -0.13567772       1.18221655 </v>
  </varray>
  <varray name="stress" >
   <v>      72.24821816       0.29162356       1.30453293 </v>
   <v>       0.29162323      71.97647902      -1.43249980 </v>
   <v>       1.30453288      -1.43249962      87.32418596 </v>
  </varray>
  <energy>
   <i name="e_fr_energy">   -351.56976446 </i>
   <i name="e_wo_entrp">   -351.00983607 </i>
   <i name="e_0_energy">     -1.11985677 </i>
  </energy>
  <time name="totalsc">  434.54  434.64</time>
  <eigenvalues>
   <array>
    <dimension dim="1">band</dimension>
    <dimension dim="2">kpoint</dimension>
    <dimension dim="3">spin</dimension>
    <field>eigene</field>
    <field>occ</field>
    <set>
     <set comment="spin 1">
      <set comment="kpoint 1">
       <r>  -65.1249    1.0000 </r>
       <r>  -65.0842    1.0000 </r>
       <r>  -65.0731    1.0000 </r>
       <r>  -64.9545    1.0000 </r>
       <r>  -64.9526    1.0000 </r>
       <r>  -64.9061    1.0000 </r>
       <r>  -64.8987    1.0000 </r>
       <r>  -64.8904    1.0000 </r>
       <r>  -64.8855    1.0000 </r>
       <r>  -64.8832    1.0000 </r>
       <r>  -64.8794    1.0000 </r>
       <r>  -64.8650    1.0000 </r>
       <r>  -64.8644    1.0000 </r>
       <r>  -64.8418    1.0000 </r>
       <r>  -64.8375    1.0000 </r>
       <r>  -64.8297    1.0000 </r>
       <r>  -64.8116    1.0000 </r>
       <r>  -64.7983    1.0000 </r>
       <r>  -64.7788    1.0000 </r>
       <r>  -64.7581    1.0000 </r>
       <r>  -64.7554    1.0000 </r>
       <r>  -64.7409    1.0000 </r>
       <r>  -64.7251    1.0000 </r>
       <r>  -64.7181    1.0000 </r>
       <r>  -64.7130    1.0000 </r>
       <r>  -64.6993    1.0000 </r>
       <r>  -64.6991    1.0000 </r>
       <r>  -64.6953    1.0000 </r>
       <r>  -64.6889    1.0000 </r>
       <r>  -64.6737    1.0000 </r>
       <r>  -64.6713    1.0000 </r>
       <r>  -64.6698    1.0000 </r>
       <r>  -64.6677    1.0000 </r>
       <r>  -64.6502    1.0000 </r>
       <r>  -64.6377    1.0000 </r>
       <r>  -64.6277    1.0000 </r>
       <r>  -64.6262    1.0000 </r>
       <r>  -64.6135    1.0000 </r>
       <r>  -64.6135    1.0000 </r>
       <r>  -64.5914    1.0000 </r>
       <r>  -64.5655    1.0000 </r>
       <r>  -64.5642    1.0000 </r>
       <r>  -64.5601    1.0000 </r>
       <r>  -64.5452    1.0000 </r>
       <r>  -64.5428    1.0000 </r>
       <r>  -64.5285    1.0000 </r>
       <r>  -64.5280    1.0000 </r>
       <r>  -64.5189    1.0000 </r>
       <r>  -64.5106    1.0000 </r>
       <r>  -64.5093    1.0000 </r>
       <r>  -64.5045    1.0000 </r>
       <r>  -64.4971    1.0000 </r>
       <r>  -64.4962    1.0000 </r>
       <r>  -64.4894    1.0000 </r>
       <r>  -64.4791    1.0000 </r>
       <r>  -64.4790    1.0000 </r>
       <r>  -64.4774    1.0000 </r>
       <r>  -64.4630    1.0000 </r>
       <r>  -64.4452    1.0000 </r>
       <r>  -64.4403    1.0000 </r>
       <r>  -64.4303    1.0000 </r>
       <r>  -64.4215    1.0000 </r>
       <r>  -64.4205    1.0000 </r>
       <r>  -64.4188    1.0000 </r>
       <r>  -64.4165    1.0000 </r>
       <r>  -64.4118    1.0000 </r>
       <r>  -64.3890    1.0000 </r>
       <r>  -64.3875    1.0000 </r>
       <r>  -64.3866    1.0000 </r>
       <r>  -64.3863    1.0000 </r>
       <r>  -64.3773    1.0000 </r>
       <r>  -64.3679    1.0000 </r>
       <r>  -64.3538    1.0000 </r>
       <r>  -64.3467    1.0000 </r>
       <r>  -64.3464    1.0000 </r>
       <r>  -64.3402    1.0000 </r>
       <r>  -64.3165    1.0000 </r>
       <r>  -64.3026    1.0000 </r>
       <r>  -64.2955    1.0000 </r>
       <r>  -64.2564    1.0000 </r>
       <r>  -64.2562    1.0000 </r>
       <r>  -64.2428    1.0000 </r>
       <r>  -64.2207    1.0000 </r>
       <r>  -64.2166    1.0000 </r>
       <r>  -64.2156    1.0000 </r>
       <r>  -64.2069    1.0000 </r>
       <r>  -64.1981    1.0000 </r>
       <r>  -64.1535    1.0000 </r>
       <r>  -64.1452    1.0000 </r>
       <r>  -64.1413    1.0000 </r>
       <r>  -64.1217    1.0000 </r>
       <r>  -64.1062    1.0000 </r>
       <r>  -64.0868    1.0000 </r>
       <r>  -64.0798    1.0000 </r>
       <r>  -64.0792    1.0000 </r>
       <r>  -64.0599    1.0000 </r>
       <r>  -63.9880    1.0000 </r>
       <r>  -63.9580    1.0000 </r>
       <r>  -63.9263    1.0000 </r>
       <r>  -63.9036    1.0000 </r>
       <r>  -63.8542    1.0000 </r>
       <r>  -63.8362    1.0000 </r>
       <r>  -63.8335    1.0000 </r>
       <r>  -63.8064    1.0000 </r>
       <r>  -63.7211    1.0000 </r>
       <r>  -63.6983    1.0000 </r>
       <r>  -63.6892    1.0000 </r>
       <r>  -63.6483    1.0000 </r>
       <r>  -63.5665    1.0000 </r>
       <r>  -63.5412    1.0000 </r>
       <r>  -63.5141    1.0000 </r>
       <r>  -16.5661    1.0000 </r>
       <r>  -16.3794    1.0000 </r>
       <r>  -16.0678    1.0000 </r>
       <r>  -15.8804    1.0000 </r>
       <r>  -15.7176    1.0000 </r>
       <r>  -15.5339    1.0000 </r>
       <r>  -15.4916    1.0000 </r>
       <r>  -15.3358    1.0000 </r>
       <r>  -15.2671    1.0000 </r>
       <r>  -15.2309    1.0000 </r>
       <r>  -15.0478    1.0000 </r>
       <r>  -15.0311    1.0000 </r>
       <r>  -14.9266    1.0000 </r>
       <r>  -14.8306    1.0000 </r>
       <r>  -14.7781    1.0000 </r>
       <r>  -14.7315    1.0000 </r>
       <r>  -14.6353    1.0000 </r>
       <r>  -14.4915    1.0000 </r>
       <r>  -14.4343    1.0000 </r>
       <r>  -14.4157    1.0000 </r>
       <r>  -14.3883    1.0000 </r>
       <r>  -14.3073    1.0000 </r>
       <r>  -14.2115    1.0000 </r>
       <r>  -14.1728    1.0000 </r>
       <r>  -13.9782    1.0000 </r>
       <r>  -13.9271    1.0000 </r>
       <r>  -13.8318    1.0000 </r>
       <r>  -13.8150    1.0000 </r>
       <r>  -13.7548    1.0000 </r>
       <r>  -13.6886    1.0000 </r>
       <r>  -13.5883    1.0000 </r>
       <r>  -13.5346    1.0000 </r>
       <r>  -13.4424    1.0000 </r>
       <r>  -13.3428    1.0000 </r>
       <r>  -13.1678    1.0000 </r>
       <r>  -13.0131    1.0000 </r>
       <r>  -12.8546    1.0000 </r>
       <r>   -8.4351    1.0000 </r>
       <r>   -8.3583    1.0000 </r>
       <r>   -8.1245    1.0000 </r>
       <r>   -8.0126    1.0000 </r>
       <r>   -7.9185    1.0000 </r>
       <r>   -7.8534    1.0000 </r>
       <r>   -7.8179    1.0000 </r>
       <r>   -7.7515    1.0000 </r>
       <r>   -7.7114    1.0000 </r>
       <r>   -7.6163    1.0000 </r>
       <r>   -7.6093    1.0000 </r>
       <r>   -7.4994    1.0000 </r>
       <r>   -7.4641    1.0000 </r>
       <r>   -7.4086    1.0000 </r>
       <r>   -7.3562    1.0000 </r>
       <r>   -7.3051    1.0000 </r>
       <r>   -7.2500    1.0000 </r>
       <r>   -7.2096    1.0000 </r>
       <r>   -7.1815    1.0000 </r>
       <r>   -7.0859    1.0000 </r>
       <r>   -7.0562    1.0000 </r>
       <r>   -7.0089    1.0000 </r>
       <r>   -6.9500    1.0000 </r>
       <r>   -6.8947    1.0000 </r>
       <r>   -6.8023    1.0000 </r>
       <r>   -6.7712    1.0000 </r>
       <r>   -6.7374    1.0000 </r>
       <r>   -6.7050    1.0000 </r>
       <r>   -6.6713    1.0000 </r>
       <r>   -6.6159    1.0000 </r>
       <r>   -6.5883    1.0000 </r>
       <r>   -6.5309    1.0000 </r>
       <r>   -6.4906    1.0000 </r>
       <r>   -6.4204    1.0000 </r>
       <r>   -6.3951    1.0000 </r>
       <r>   -6.3745    1.0000 </r>
       <r>   -6.2529    1.0000 </r>
       <r>   -6.2357    1.0000 </r>
       <r>   -6.2225    1.0000 </r>
       <r>   -6.2009    1.0000 </r>
       <r>   -6.1622    1.0000 </r>
       <r>   -6.1071    1.0000 </r>
       <r>   -6.0377    1.0000 </r>
       <r>   -6.0290    1.0000 </r>
       <r>   -6.0087    1.0000 </r>
       <r>   -5.9351    1.0000 </r>
       <r>   -5.9264    1.0000 </r>
       <r>   -5.8769    1.0000 </r>
       <r>   -5.8121    1.0000 </r>
       <r>   -5.8016    1.0000 </r>
       <r>   -5.7667    1.0000 </r>
       <r>   -5.6933    1.0000 </r>
       <r>   -5.6809    1.0000 </r>
       <r>   -5.6519    1.0000 </r>
       <r>   -5.6167    1.0000 </r>
       <r>   -5.5718    1.0000 </r>
       <r>   -5.5514    1.0000 </r>
       <r>   -5.5262    1.0000 </r>
       <r>   -5.4653    1.0000 </r>
       <r>   -5.4362    1.0000 </r>
       <r>   -5.4060    1.0000 </r>
       <r>   -5.3885    1.0000 </r>
       <r>   -5.3789    1.0000 </r>
       <r>   -5.3241    1.0000 </r>
       <r>   -5.3026    1.0000 </r>
       <r>   -5.2737    1.0000 </r>
       <r>   -5.2453    1.0000 </r>
       <r>   -5.2059    1.0000 </r>
       <r>   -5.1827    1.0000 </r>
       <r>   -5.1652    1.0000 </r>
       <r>   -5.1362    1.0000 </r>
       <r>   -5.0959    1.0000 </r>
       <r>   -5.0674    1.0000 </r>
       <r>   -5.0336    1.0000 </r>
       <r>   -5.0007    1.0000 </r>
       <r>   -4.9929    1.0000 </r>
       <r>   -4.9832    1.0000 </r>
       <r>   -4.9568    1.0000 </r>
       <r>   -4.9339    1.0000 </r>
       <r>   -4.9209    1.0000 </r>
       <r>   -4.8560    1.0000 </r>
       <r>   -4.8110    1.0000 </r>
       <r>   -4.7789    1.0000 </r>
       <r>   -4.7217    1.0000 </r>
       <r>   -4.7137    1.0000 </r>
       <r>   -4.6653    1.0000 </r>
       <r>   -4.6365    1.0000 </r>
       <r>   -4.5872    1.0000 </r>
       <r>   -4.5488    1.0000 </r>
       <r>   -4.5099    1.0000 </r>
       <r>   -4.4993    1.0000 </r>
       <r>   -4.4598    1.0000 </r>
       <r>   -4.4369    1.0000 </r>
       <r>   -4.3580    1.0000 </r>
       <r>   -4.2995    1.0000 </r>
       <r>   -4.2928    1.0000 </r>
       <r>   -4.2796    1.0000 </r>
       <r>   -4.2420    1.0000 </r>
       <r>   -4.1561    1.0000 </r>
       <r>   -4.0950    1.0000 </r>
       <r>   -4.0448    1.0000 </r>
       <r>   -3.9990    1.0000 </r>
       <r>   -3.9834    1.0000 </r>
       <r>   -3.9314    1.0000 </r>
       <r>   -3.8889    1.0000 </r>
       <r>   -3.8584    1.0000 </r>
       <r>   -3.8154    1.0000 </r>
       <r>   -3.7641    1.0000 </r>
       <r>   -3.7175    1.0000 </r>
       <r>   -3.6528    1.0000 </r>
       <r>   -3.6295    1.0000 </r>
       <r>   -3.6082    1.0000 </r>
       <r>   -3.5583    1.0000 </r>
       <r>   -3.5382    1.0000 </r>
       <r>   -3.5313    1.0000 </r>
       <r>   -3.4910    1.0000 </r>
       <r>   -3.4816    1.0000 </r>
       <r>   -3.3989    1.0000 </r>
       <r>   -3.3815    1.0000 </r>
       <r>   -3.3562    1.0000 </r>
       <r>   -3.3281    1.0000 </r>
       <r>   -3.3000    1.0000 </r>
       <r>   -3.2812    1.0000 </r>
       <r>   -3.2168    1.0000 </r>
       <r>   -3.2004    1.0000 </r>
       <r>   -3.1653    1.0000 </r>
       <r>   -3.1406    1.0000 </r>
       <r>   -3.1235    1.0000 </r>
       <r>   -3.0952    1.0000 </r>
       <r>   -3.0741    1.0000 </r>
       <r>   -3.0499    1.0000 </r>
       <r>   -3.0075    1.0000 </r>
       <r>   -2.9877    1.0000 </r>
       <r>   -2.9750    1.0000 </r>
       <r>   -2.9453    1.0000 </r>
       <r>   -2.9400    1.0000 </r>
       <r>   -2.9242    1.0000 </r>
       <r>   -2.8812    1.0000 </r>
       <r>   -2.8525    1.0000 </r>
       <r>   -2.8368    1.0000 </r>
       <r>   -2.8311    1.0000 </r>
       <r>   -2.8240    1.0000 </r>
       <r>   -2.7627    1.0000 </r>
       <r>   -2.7600    1.0000 </r>
       <r>   -2.7386    1.0000 </r>
       <r>   -2.7246    1.0000 </r>
       <r>   -2.6990    1.0000 </r>
       <r>   -2.6946    1.0000 </r>
       <r>   -2.6708    1.0000 </r>
       <r>   -2.6493    1.0000 </r>
       <r>   -2.6354    1.0000 </r>
       <r>   -2.6245    1.0000 </r>
       <r>   -2.6096    1.0000 </r>
       <r>   -2.5945    1.0000 </r>
       <r>   -2.5752    1.0000 </r>
       <r>   -2.5576    1.0000 </r>
       <r>   -2.5500    1.0000 </r>
       <r>   -2.5300    1.0000 </r>
       <r>   -2.4951    1.0000 </r>
       <r>   -2.4717    1.0000 </r>
       <r>   -2.4352    1.0000 </r>
       <r>   -2.4257    1.0000 </r>
       <r>   -2.4183    1.0000 </r>
       <r>   -2.3987    1.0000 </r>
       <r>   -2.3848    1.0000 </r>
       <r>   -2.3709    1.0000 </r>
       <r>   -2.3614    1.0000 </r>
       <r>   -2.3316    1.0000 </r>
       <r>   -2.3232    1.0000 </r>
       <r>   -2.3167    1.0000 </r>
       <r>   -2.3030    1.0000 </r>
       <r>   -2.2870    1.0000 </r>
       <r>   -2.2704    1.0000 </r>
       <r>   -2.2660    1.0000 </r>
       <r>   -2.2361    1.0000 </r>
       <r>   -2.2346    1.0000 </r>
       <r>   -2.2107    1.0000 </r>
       <r>   -2.1913    1.0000 </r>
       <r>   -2.1739    1.0000 </r>
       <r>   -2.1695    1.0000 </r>
       <r>   -2.1638    1.0000 </r>
       <r>   -2.1226    1.0000 </r>
       <r>   -2.1186    1.0000 </r>
       <r>   -2.0982    1.0000 </r>
       <r>   -2.0824    1.0000 </r>
       <r>   -2.0549    1.0000 </r>
       <r>   -2.0547    1.0000 </r>
       <r>   -2.0469    1.0000 </r>
       <r>   -2.0233    1.0000 </r>
       <r>   -2.0152    1.0000 </r>
       <r>   -1.9868    1.0000 </r>
       <r>   -1.9816    1.0000 </r>
       <r>   -1.9696    1.0000 </r>
       <r>   -1.9488    1.0000 </r>
       <r>   -1.9288    1.0000 </r>
       <r>   -1.9214    1.0000 </r>
       <r>   -1.9043    1.0000 </r>
       <r>   -1.8948    1.0000 </r>
       <r>   -1.8745    1.0000 </r>
       <r>   -1.8668    1.0000 </r>
       <r>   -1.8550    1.0000 </r>
       <r>   -1.8336    1.0000 </r>
       <r>   -1.7928    1.0000 </r>
       <r>   -1.7727    1.0000 </r>
       <r>   -1.7669    1.0000 </r>
       <r>   -1.7375    1.0000 </r>
       <r>   -1.7221    1.0000 </r>
       <r>   -1.6975    1.0000 </r>
       <r>   -1.6805    1.0000 </r>
       <r>   -1.6465    1.0000 </r>
       <r>   -1.6350    1.0000 </r>
       <r>   -1.6198    1.0000 </r>
       <r>   -1.6026    1.0000 </r>
       <r>   -1.5881    1.0000 </r>
       <r>   -1.5589    1.0000 </r>
       <r>   -1.5379    1.0000 </r>
       <r>   -1.4993    1.0000 </r>
       <r>   -1.4804    1.0000 </r>
       <r>   -1.4413    1.0000 </r>
       <r>   -1.4329    1.0000 </r>
       <r>   -1.4067    1.0000 </r>
       <r>   -1.3778    1.0000 </r>
       <r>   -1.3522    1.0000 </r>
       <r>   -1.3336    1.0000 </r>
       <r>   -1.3296    1.0000 </r>
       <r>   -1.2946    1.0000 </r>
       <r>   -1.2662    1.0000 </r>
       <r>   -1.2461    1.0000 </r>
       <r>   -1.2173    1.0000 </r>
       <r>   -1.2035    1.0000 </r>
       <r>   -1.1732    1.0000 </r>
       <r>   -1.1374    1.0000 </r>
       <r>   -1.1325    1.0000 </r>
       <r>   -1.0861    1.0000 </r>
       <r>   -1.0634    1.0000 </r>
       <r>   -1.0505    1.0000 </r>
       <r>   -1.0142    1.0000 </r>
       <r>   -0.9766    1.0000 </r>
       <r>   -0.9554    1.0000 </r>
       <r>   -0.9375    1.0000 </r>
       <r>   -0.8874    1.0000 </r>
       <r>   -0.8359    1.0000 </r>
       <r>   -0.8193    1.0000 </r>
       <r>   -0.7895    1.0000 </r>
       <r>   -0.7577    0.9999 </r>
       <r>   -0.6861    0.9995 </r>
       <r>   -0.6671    0.9993 </r>
       <r>   -0.6231    0.9979 </r>
       <r>   -0.6150    0.9975 </r>
       <r>   -0.5703    0.9936 </r>
       <r>   -0.5497    0.9905 </r>
       <r>   -0.4974    0.9759 </r>
       <r>   -0.4519    0.9509 </r>
       <r>   -0.3816    0.8763 </r>
       <r>   -0.3747    0.8660 </r>
       <r>   -0.3509    0.8262 </r>
       <r>   -0.2911    0.6973 </r>
       <r>   -0.2786    0.6657 </r>
       <r>   -0.2542    0.6009 </r>
       <r>   -0.2050    0.4633 </r>
       <r>   -0.1636    0.3502 </r>
       <r>   -0.1184    0.2405 </r>
       <r>   -0.0958    0.1937 </r>
       <r>   -0.0522    0.1205 </r>
       <r>   -0.0237    0.0847 </r>
       <r>    0.0189    0.0469 </r>
       <r>    0.0377    0.0353 </r>
       <r>    0.1058    0.0110 </r>
       <r>    0.1302    0.0069 </r>
       <r>    0.1556    0.0041 </r>
       <r>    0.1728    0.0029 </r>
       <r>    0.1980    0.0016 </r>
       <r>    0.2388    0.0006 </r>
       <r>    0.2996    0.0001 </r>
       <r>    0.4253    0.0000 </r>
       <r>    0.4400    0.0000 </r>
       <r>    0.5590    0.0000 </r>
       <r>    0.5752    0.0000 </r>
       <r>    0.6408    0.0000 </r>
       <r>    0.7115    0.0000 </r>
       <r>    0.7456    0.0000 </r>
       <r>    0.8084    0.0000 </r>
       <r>    0.8204    0.0000 </r>
       <r>    0.9034    0.0000 </r>
       <r>    0.9260    0.0000 </r>
       <r>    0.9852    0.0000 </r>
       <r>    1.0435    0.0000 </r>
       <r>    1.0779    0.0000 </r>
       <r>    1.0808    0.0000 </r>
       <r>    1.1173    0.0000 </r>
       <r>    1.1816    0.0000 </r>
       <r>    1.2163    0.0000 </r>
       <r>    1.2811    0.0000 </r>
       <r>    1.3299    0.0000 </r>
       <r>    1.3666    0.0000 </r>
       <r>    1.4852    0.0000 </r>
       <r>    1.8212    0.0000 </r>
       <r>    2.5529    0.0000 </r>
       <r>    2.9453    0.0000 </r>
       <r>    3.0876    0.0000 </r>
       <r>    3.2119    0.0000 </r>
       <r>    3.4415    0.0000 </r>
       <r>    3.6028    0.0000 </r>
       <r>    3.6989    0.0000 </r>
       <r>    3.7836    0.0000 </r>
       <r>    3.8817    0.0000 </r>
       <r>    4.0523    0.0000 </r>
       <r>    4.0957    0.0000 </r>
       <r>    4.1230    0.0000 </r>
       <r>    4.2104    0.0000 </r>
       <r>    4.2607    0.0000 </r>
       <r>    4.3004    0.0000 </r>
       <r>    4.3657    0.0000 </r>
       <r>    4.4088    0.0000 </r>
       <r>    4.5404    0.0000 </r>
       <r>    4.6229    0.0000 </r>
       <r>    4.6622    0.0000 </r>
       <r>    4.7671    0.0000 </r>
       <r>    4.7812    0.0000 </r>
       <r>    4.8291    0.0000 </r>
       <r>    4.8792    0.0000 </r>
       <r>    4.9180    0.0000 </r>
       <r>    4.9826    0.0000 </r>
       <r>    5.0044    0.0000 </r>
       <r>    5.0750    0.0000 </r>
       <r>    5.1044    0.0000 </r>
       <r>    5.1090    0.0000 </r>
       <r>    5.1703    0.0000 </r>
       <r>    5.2322    0.0000 </r>
       <r>    5.2552    0.0000 </r>
       <r>    5.3287    0.0000 </r>
       <r>    5.3483    0.0000 </r>
       <r>    5.3733    0.0000 </r>
       <r>    5.4173    0.0000 </r>
       <r>    5.4505    0.0000 </r>
       <r>    5.5235    0.0000 </r>
       <r>    5.5723    0.0000 </r>
       <r>    5.5935    0.0000 </r>
       <r>    5.6369    0.0000 </r>
       <r>    5.6956    0.0000 </r>
      </set>
     </set>
    </set>
   </array>
  </eigenvalues>
  <separator name="orbital magnetization" >
   <v name="MAGDIPOLOUT">      0.00000000      0.00000000      0.00000000</v>
  </separator>
  <dos>
   <i name="efermi">     -0.21803850 </i>
   <total>
    <array>
     <dimension dim="1">gridpoints</dimension>
     <dimension dim="2">spin</dimension>
     <field>energy</field>
     <field>total</field>
     <field>integrated</field>
     <set>
      <set comment="spin 1">
       <r>   -68.6660     0.0000     0.0000 </r>
       <r>   -68.4063     0.0000     0.0000 </r>
       <r>   -68.1466     0.0000     0.0000 </r>
       <r>   -67.8869     0.0000     0.0000 </r>
       <r>   -67.6273     0.0000     0.0000 </r>
       <r>   -67.3676     0.0000     0.0000 </r>
       <r>   -67.1079     0.0000     0.0000 </r>
       <r>   -66.8482     0.0000     0.0000 </r>
       <r>   -66.5886     0.0000     0.0000 </r>
       <r>   -66.3289     0.0000     0.0000 </r>
       <r>   -66.0692     0.0000     0.0000 </r>
       <r>   -65.8095     0.0000     0.0000 </r>
       <r>   -65.5499     0.0172     0.0045 </r>
       <r>   -65.2902     2.2456     0.5876 </r>
       <r>   -65.0305    31.6726     8.8122 </r>
       <r>   -64.7708   129.2743    42.3816 </r>
       <r>   -64.5112   225.3483   100.8990 </r>
       <r>   -64.2515   222.2418   158.6097 </r>
       <r>   -63.9918   126.1791   191.3753 </r>
       <r>   -63.7321    67.9408   209.0179 </r>
       <r>   -63.4724    40.4433   219.5200 </r>
       <r>   -63.2128     9.2826   221.9305 </r>
       <r>   -62.9531     0.2673   221.9999 </r>
       <r>   -62.6934     0.0005   222.0000 </r>
       <r>   -62.4337     0.0000   222.0000 </r>
       <r>   -62.1741     0.0000   222.0000 </r>
       <r>   -61.9144     0.0000   222.0000 </r>
       <r>   -61.6547     0.0000   222.0000 </r>
       <r>   -61.3950     0.0000   222.0000 </r>
       <r>   -61.1354     0.0000   222.0000 </r>
       <r>   -60.8757     0.0000   222.0000 </r>
       <r>   -60.6160     0.0000   222.0000 </r>
       <r>   -60.3563     0.0000   222.0000 </r>
       <r>   -60.0967     0.0000   222.0000 </r>
       <r>   -59.8370     0.0000   222.0000 </r>
       <r>   -59.5773     0.0000   222.0000 </r>
       <r>   -59.3176     0.0000   222.0000 </r>
       <r>   -59.0580     0.0000   222.0000 </r>
       <r>   -58.7983     0.0000   222.0000 </r>
       <r>   -58.5386     0.0000   222.0000 </r>
       <r>   -58.2789     0.0000   222.0000 </r>
       <r>   -58.0193     0.0000   222.0000 </r>
       <r>   -57.7596     0.0000   222.0000 </r>
       <r>   -57.4999     0.0000   222.0000 </r>
       <r>   -57.2402     0.0000   222.0000 </r>
       <r>   -56.9806     0.0000   222.0000 </r>
       <r>   -56.7209     0.0000   222.0000 </r>
       <r>   -56.4612     0.0000   222.0000 </r>
       <r>   -56.2015     0.0000   222.0000 </r>
       <r>   -55.9419     0.0000   222.0000 </r>
       <r>   -55.6822     0.0000   222.0000 </r>
       <r>   -55.4225     0.0000   222.0000 </r>
       <r>   -55.1628     0.0000   222.0000 </r>
       <r>   -54.9032     0.0000   222.0000 </r>
       <r>   -54.6435     0.0000   222.0000 </r>
       <r>   -54.3838     0.0000   222.0000 </r>
       <r>   -54.1241     0.0000   222.0000 </r>
       <r>   -53.8645     0.0000   222.0000 </r>
       <r>   -53.6048     0.0000   222.0000 </r>
       <r>   -53.3451     0.0000   222.0000 </r>
       <r>   -53.0854     0.0000   222.0000 </r>
       <r>   -52.8258     0.0000   222.0000 </r>
       <r>   -52.5661     0.0000   222.0000 </r>
       <r>   -52.3064     0.0000   222.0000 </r>
       <r>   -52.0467     0.0000   222.0000 </r>
       <r>   -51.7871     0.0000   222.0000 </r>
       <r>   -51.5274     0.0000   222.0000 </r>
       <r>   -51.2677     0.0000   222.0000 </r>
       <r>   -51.0080     0.0000   222.0000 </r>
       <r>   -50.7484     0.0000   222.0000 </r>
       <r>   -50.4887     0.0000   222.0000 </r>
       <r>   -50.2290     0.0000   222.0000 </r>
       <r>   -49.9693     0.0000   222.0000 </r>
       <r>   -49.7097     0.0000   222.0000 </r>
       <r>   -49.4500     0.0000   222.0000 </r>
       <r>   -49.1903     0.0000   222.0000 </r>
       <r>   -48.9306     0.0000   222.0000 </r>
       <r>   -48.6710     0.0000   222.0000 </r>
       <r>   -48.4113     0.0000   222.0000 </r>
       <r>   -48.1516     0.0000   222.0000 </r>
       <r>   -47.8919     0.0000   222.0000 </r>
       <r>   -47.6322     0.0000   222.0000 </r>
       <r>   -47.3726     0.0000   222.0000 </r>
       <r>   -47.1129     0.0000   222.0000 </r>
       <r>   -46.8532     0.0000   222.0000 </r>
       <r>   -46.5935     0.0000   222.0000 </r>
       <r>   -46.3339     0.0000   222.0000 </r>
       <r>   -46.0742     0.0000   222.0000 </r>
       <r>   -45.8145     0.0000   222.0000 </r>
       <r>   -45.5548     0.0000   222.0000 </r>
       <r>   -45.2952     0.0000   222.0000 </r>
       <r>   -45.0355     0.0000   222.0000 </r>
       <r>   -44.7758     0.0000   222.0000 </r>
       <r>   -44.5161     0.0000   222.0000 </r>
       <r>   -44.2565     0.0000   222.0000 </r>
       <r>   -43.9968     0.0000   222.0000 </r>
       <r>   -43.7371     0.0000   222.0000 </r>
       <r>   -43.4774     0.0000   222.0000 </r>
       <r>   -43.2178     0.0000   222.0000 </r>
       <r>   -42.9581     0.0000   222.0000 </r>
       <r>   -42.6984     0.0000   222.0000 </r>
       <r>   -42.4387     0.0000   222.0000 </r>
       <r>   -42.1791     0.0000   222.0000 </r>
       <r>   -41.9194     0.0000   222.0000 </r>
       <r>   -41.6597     0.0000   222.0000 </r>
       <r>   -41.4000     0.0000   222.0000 </r>
       <r>   -41.1404     0.0000   222.0000 </r>
       <r>   -40.8807     0.0000   222.0000 </r>
       <r>   -40.6210     0.0000   222.0000 </r>
       <r>   -40.3613     0.0000   222.0000 </r>
       <r>   -40.1017     0.0000   222.0000 </r>
       <r>   -39.8420     0.0000   222.0000 </r>
       <r>   -39.5823     0.0000   222.0000 </r>
       <r>   -39.3226     0.0000   222.0000 </r>
       <r>   -39.0630     0.0000   222.0000 </r>
       <r>   -38.8033     0.0000   222.0000 </r>
       <r>   -38.5436     0.0000   222.0000 </r>
       <r>   -38.2839     0.0000   222.0000 </r>
       <r>   -38.0243     0.0000   222.0000 </r>
       <r>   -37.7646     0.0000   222.0000 </r>
       <r>   -37.5049     0.0000   222.0000 </r>
       <r>   -37.2452     0.0000   222.0000 </r>
       <r>   -36.9856     0.0000   222.0000 </r>
       <r>   -36.7259     0.0000   222.0000 </r>
       <r>   -36.4662     0.0000   222.0000 </r>
       <r>   -36.2065     0.0000   222.0000 </r>
       <r>   -35.9469     0.0000   222.0000 </r>
       <r>   -35.6872     0.0000   222.0000 </r>
       <r>   -35.4275     0.0000   222.0000 </r>
       <r>   -35.1678     0.0000   222.0000 </r>
       <r>   -34.9082     0.0000   222.0000 </r>
       <r>   -34.6485     0.0000   222.0000 </r>
       <r>   -34.3888     0.0000   222.0000 </r>
       <r>   -34.1291     0.0000   222.0000 </r>
       <r>   -33.8695     0.0000   222.0000 </r>
       <r>   -33.6098     0.0000   222.0000 </r>
       <r>   -33.3501     0.0000   222.0000 </r>
       <r>   -33.0904     0.0000   222.0000 </r>
       <r>   -32.8308     0.0000   222.0000 </r>
       <r>   -32.5711     0.0000   222.0000 </r>
       <r>   -32.3114     0.0000   222.0000 </r>
       <r>   -32.0517     0.0000   222.0000 </r>
       <r>   -31.7920     0.0000   222.0000 </r>
       <r>   -31.5324     0.0000   222.0000 </r>
       <r>   -31.2727     0.0000   222.0000 </r>
       <r>   -31.0130     0.0000   222.0000 </r>
       <r>   -30.7533     0.0000   222.0000 </r>
       <r>   -30.4937     0.0000   222.0000 </r>
       <r>   -30.2340     0.0000   222.0000 </r>
       <r>   -29.9743     0.0000   222.0000 </r>
       <r>   -29.7146     0.0000   222.0000 </r>
       <r>   -29.4550     0.0000   222.0000 </r>
       <r>   -29.1953     0.0000   222.0000 </r>
       <r>   -28.9356     0.0000   222.0000 </r>
       <r>   -28.6759     0.0000   222.0000 </r>
       <r>   -28.4163     0.0000   222.0000 </r>
       <r>   -28.1566     0.0000   222.0000 </r>
       <r>   -27.8969     0.0000   222.0000 </r>
       <r>   -27.6372     0.0000   222.0000 </r>
       <r>   -27.3776     0.0000   222.0000 </r>
       <r>   -27.1179     0.0000   222.0000 </r>
       <r>   -26.8582     0.0000   222.0000 </r>
       <r>   -26.5985     0.0000   222.0000 </r>
       <r>   -26.3389     0.0000   222.0000 </r>
       <r>   -26.0792     0.0000   222.0000 </r>
       <r>   -25.8195     0.0000   222.0000 </r>
       <r>   -25.5598     0.0000   222.0000 </r>
       <r>   -25.3002     0.0000   222.0000 </r>
       <r>   -25.0405     0.0000   222.0000 </r>
       <r>   -24.7808     0.0000   222.0000 </r>
       <r>   -24.5211     0.0000   222.0000 </r>
       <r>   -24.2615     0.0000   222.0000 </r>
       <r>   -24.0018     0.0000   222.0000 </r>
       <r>   -23.7421     0.0000   222.0000 </r>
       <r>   -23.4824     0.0000   222.0000 </r>
       <r>   -23.2228     0.0000   222.0000 </r>
       <r>   -22.9631     0.0000   222.0000 </r>
       <r>   -22.7034     0.0000   222.0000 </r>
       <r>   -22.4437     0.0000   222.0000 </r>
       <r>   -22.1841     0.0000   222.0000 </r>
       <r>   -21.9244     0.0000   222.0000 </r>
       <r>   -21.6647     0.0000   222.0000 </r>
       <r>   -21.4050     0.0000   222.0000 </r>
       <r>   -21.1454     0.0000   222.0000 </r>
       <r>   -20.8857     0.0000   222.0000 </r>
       <r>   -20.6260     0.0000   222.0000 </r>
       <r>   -20.3663     0.0000   222.0000 </r>
       <r>   -20.1067     0.0000   222.0000 </r>
       <r>   -19.8470     0.0000   222.0000 </r>
       <r>   -19.5873     0.0000   222.0000 </r>
       <r>   -19.3276     0.0000   222.0000 </r>
       <r>   -19.0680     0.0000   222.0000 </r>
       <r>   -18.8083     0.0000   222.0000 </r>
       <r>   -18.5486     0.0000   222.0000 </r>
       <r>   -18.2889     0.0000   222.0000 </r>
       <r>   -18.0293     0.0000   222.0000 </r>
       <r>   -17.7696     0.0000   222.0000 </r>
       <r>   -17.5099     0.0000   222.0000 </r>
       <r>   -17.2502     0.0000   222.0000 </r>
       <r>   -16.9906     0.0104   222.0027 </r>
       <r>   -16.7309     0.9787   222.2568 </r>
       <r>   -16.4712     6.7827   224.0181 </r>
       <r>   -16.2115     7.9461   226.0816 </r>
       <r>   -15.9518     8.5436   228.3001 </r>
       <r>   -15.6922    11.8837   231.3860 </r>
       <r>   -15.4325    16.6410   235.7073 </r>
       <r>   -15.1728    21.6420   241.3272 </r>
       <r>   -14.9131    23.5502   247.4426 </r>
       <r>   -14.6535    26.0420   254.2051 </r>
       <r>   -14.3938    28.3803   261.5748 </r>
       <r>   -14.1341    27.5360   268.7252 </r>
       <r>   -13.8744    23.6171   274.8580 </r>
       <r>   -13.6148    29.2682   282.4582 </r>
       <r>   -13.3551    22.3669   288.2663 </r>
       <r>   -13.0954    14.1612   291.9436 </r>
       <r>   -12.8357    11.2973   294.8773 </r>
       <r>   -12.5761     4.1276   295.9491 </r>
       <r>   -12.3164     0.1955   295.9999 </r>
       <r>   -12.0567     0.0005   296.0000 </r>
       <r>   -11.7970     0.0000   296.0000 </r>
       <r>   -11.5374     0.0000   296.0000 </r>
       <r>   -11.2777     0.0000   296.0000 </r>
       <r>   -11.0180     0.0000   296.0000 </r>
       <r>   -10.7583     0.0000   296.0000 </r>
       <r>   -10.4987     0.0000   296.0000 </r>
       <r>   -10.2390     0.0000   296.0000 </r>
       <r>    -9.9793     0.0000   296.0000 </r>
       <r>    -9.7196     0.0000   296.0000 </r>
       <r>    -9.4600     0.0000   296.0000 </r>
       <r>    -9.2003     0.0000   296.0000 </r>
       <r>    -8.9406     0.0015   296.0004 </r>
       <r>    -8.6809     0.4021   296.1048 </r>
       <r>    -8.4213     6.4304   297.7746 </r>
       <r>    -8.1616    12.4347   301.0036 </r>
       <r>    -7.9019    20.7086   306.3811 </r>
       <r>    -7.6422    32.7437   314.8839 </r>
       <r>    -7.3826    35.7319   324.1626 </r>
       <r>    -7.1229    38.9405   334.2745 </r>
       <r>    -6.8632    38.0501   344.1551 </r>
       <r>    -6.6035    44.0335   355.5896 </r>
       <r>    -6.3439    44.8853   367.2452 </r>
       <r>    -6.0842    49.3924   380.0712 </r>
       <r>    -5.8245    51.8193   393.5274 </r>
       <r>    -5.5648    56.0860   408.0915 </r>
       <r>    -5.3052    64.5309   424.8486 </r>
       <r>    -5.0455    70.8343   443.2426 </r>
       <r>    -4.7858    65.8189   460.3341 </r>
       <r>    -4.5261    55.3361   474.7035 </r>
       <r>    -4.2665    51.1840   487.9948 </r>
       <r>    -4.0068    44.6446   499.5879 </r>
       <r>    -3.7471    47.7509   511.9876 </r>
       <r>    -3.4874    57.1920   526.8390 </r>
       <r>    -3.2278    65.4317   543.8300 </r>
       <r>    -2.9681    78.4962   564.2135 </r>
       <r>    -2.7084    97.8735   589.6289 </r>
       <r>    -2.4487   112.4685   618.8342 </r>
       <r>    -2.1891   126.1073   651.5811 </r>
       <r>    -1.9294   128.4472   684.9357 </r>
       <r>    -1.6697   109.6623   713.4123 </r>
       <r>    -1.4100    89.9617   736.7732 </r>
       <r>    -1.1504    82.4315   758.1786 </r>
       <r>    -0.8907    69.7139   776.2816 </r>
       <r>    -0.6310    57.7446   791.2765 </r>
       <r>    -0.3713    54.6415   805.4655 </r>
       <r>    -0.1116    55.7790   819.9500 </r>
       <r>     0.1480    55.6686   834.4057 </r>
       <r>     0.4077    41.9931   845.3103 </r>
       <r>     0.6674    33.9262   854.1201 </r>
       <r>     0.9271    41.3520   864.8582 </r>
       <r>     1.1867    45.9994   876.8031 </r>
       <r>     1.4464    32.9414   885.3572 </r>
       <r>     1.7061    11.2157   888.2696 </r>
       <r>     1.9658     5.4799   889.6926 </r>
       <r>     2.2254     1.2465   890.0163 </r>
       <r>     2.4851     2.3734   890.6326 </r>
       <r>     2.7448     5.2561   891.9975 </r>
       <r>     3.0045     7.8021   894.0235 </r>
       <r>     3.2641    12.5434   897.2807 </r>
       <r>     3.5238    11.5506   900.2801 </r>
       <r>     3.7835    17.4991   904.8242 </r>
       <r>     4.0432    21.3041   910.3564 </r>
       <r>     4.3028    31.5463   918.5482 </r>
       <r>     4.5625    29.0527   926.0925 </r>
       <r>     4.8222    33.7094   934.8460 </r>
       <r>     5.0819    44.5213   946.4071 </r>
       <r>     5.3415    47.8106   958.8223 </r>
       <r>     5.6012    43.7621   970.1862 </r>
       <r>     5.8609    20.5428   975.5207 </r>
       <r>     6.1206     1.8319   975.9964 </r>
       <r>     6.3802     0.0139   976.0000 </r>
       <r>     6.6399     0.0000   976.0000 </r>
       <r>     6.8996     0.0000   976.0000 </r>
       <r>     7.1593     0.0000   976.0000 </r>
       <r>     7.4189     0.0000   976.0000 </r>
       <r>     7.6786     0.0000   976.0000 </r>
       <r>     7.9383     0.0000   976.0000 </r>
       <r>     8.1980     0.0000   976.0000 </r>
       <r>     8.4576     0.0000   976.0000 </r>
       <r>     8.7173     0.0000   976.0000 </r>
       <r>     8.9770     0.0000   976.0000 </r>
       <r>     9.2367     0.0000   976.0000 </r>
      </set>
     </set>
    </array>
   </total>
  </dos>
 </calculation>
 <structure name="finalpos" >
  <crystal>
   <varray name="basis" >
    <v>      16.88469405       0.00000000       0.00000000 </v>
    <v>       0.00000000       9.57841000       0.00000000 </v>
    <v>       0.00000000       0.00000000      16.65464569 </v>
   </varray>
   <i name="volume">   2693.53123734 </i>
   <varray name="rec_basis" >
    <v>       0.05922524       0.00000000       0.00000000 </v>
    <v>       0.00000000       0.10440146       0.00000000 </v>
    <v>       0.00000000       0.00000000       0.06004331 </v>
   </varray>
  </crystal>
  <varray name="positions" >
   <v>       0.78004630       0.14529696       0.12347080 </v>
   <v>       0.21574931       0.65396553       0.09921466 </v>
   <v>       0.29733028       0.64529696       0.21607389 </v>
   <v>       0.39146791       0.14425589       0.12854152 </v>
   <v>       0.46975828       0.14529696       0.24694159 </v>
   <v>       0.95247430       0.64529696       0.15433850 </v>
   <v>       0.97510332       0.64508657       0.31778340 </v>
   <v>       0.17121756       0.14833309       0.04731139 </v>
   <v>       0.12490229       0.14529696       0.18520619 </v>
   <v>       0.06173747       0.08222365       0.30537191 </v>
   <v>       0.57042752       0.63317876       0.16072683 </v>
   <v>       0.64218627       0.64529696       0.27780929 </v>
   <v>       0.90348757       0.00037666       0.11799595 </v>
   <v>       0.93164409       0.00236894       0.26130308 </v>
   <v>       0.45192728       0.43947342       0.05664627 </v>
   <v>       0.42486675       0.51319396       0.19160760 </v>
   <v>       0.45917643       0.47764181       0.33432717 </v>
   <v>       0.53108245       0.14288690       0.09121201 </v>
   <v>       0.59729475       0.01319396       0.22247530 </v>
   <v>       0.08001077       0.51319396       0.12987220 </v>
   <v>       0.11228288       0.49819088       0.29243820 </v>
   <v>       0.25243876       0.01319396       0.16073990 </v>
   <v>       0.29553851       0.97389371       0.29736639 </v>
   <v>       0.76740551       0.41946401       0.12219505 </v>
   <v>       0.76972274       0.51319396       0.25334300 </v>
   <v>       0.90760057       0.28981471       0.12433217 </v>
   <v>       0.94754679       0.27867408       0.26974771 </v>
   <v>       0.35753397       0.64535807       0.06291284 </v>
   <v>       0.42486675       0.77739996       0.19160760 </v>
   <v>       0.46640962       0.82692437       0.32855101 </v>
   <v>       0.59316567       0.37582312       0.09255714 </v>
   <v>       0.59729475       0.27739996       0.22247530 </v>
   <v>       0.08001077       0.77739996       0.12987220 </v>
   <v>       0.11214118       0.78619036       0.29514735 </v>
   <v>       0.25243876       0.27739996       0.16073990 </v>
   <v>       0.77090789       0.85057117       0.11902526 </v>
   <v>       0.76972274       0.77739996       0.25334300 </v>
   <v>       0.95597899       0.12972789       0.35715171 </v>
   <v>       0.99146120       0.14529696       0.18349304 </v>
   <v>       0.47417723       0.64529696       0.09088994 </v>
   <v>       0.50874518       0.64529696       0.27609614 </v>
   <v>       0.64660522       0.14529696       0.12175764 </v>
   <v>       0.66702491       0.14486271       0.28659298 </v>
   <v>       0.11178301       0.64543979       0.03796623 </v>
   <v>       0.16388920       0.64529696       0.21436074 </v>
   <v>       0.08039251       0.63930644       0.37887010 </v>
   <v>       0.28878277       0.14597063       0.06367841 </v>
   <v>       0.32827329       0.15098891       0.23578072 </v>
   <v>       0.81903321       0.64529696       0.15262534 </v>
   <v>       0.85079205       0.64552159       0.31298222 </v>
   <v>       0.81805260       0.29089479       0.04058636 </v>
   <v>       0.82649083       0.31749655       0.21757398 </v>
   <v>       0.31177707       0.81351196       0.12204440 </v>
   <v>       0.35158076       0.78676399       0.29702435 </v>
   <v>       0.48420507       0.31351196       0.15291210 </v>
   <v>       0.52010010       0.29837167       0.32093203 </v>
   <v>       0.00148905       0.81351196       0.24551520 </v>
   <v>       0.96673830       0.82191051       0.08387238 </v>
   <v>       0.14164140       0.32424727       0.11063293 </v>
   <v>       0.11662002       0.27487786       0.28870241 </v>
   <v>       0.65663306       0.81351196       0.18377980 </v>
   <v>       0.69476801       0.79257055       0.34710177 </v>
   <v>       0.31177707       0.47708196       0.12204440 </v>
   <v>       0.34804276       0.49056211       0.28969417 </v>
   <v>       0.80996610       0.99458980       0.03938100 </v>
   <v>       0.81691749       0.97762856       0.21014309 </v>
   <v>       0.00148905       0.47708196       0.24551520 </v>
   <v>       0.96731712       0.46887098       0.08402460 </v>
   <v>       0.48420507       0.97708196       0.15291210 </v>
   <v>       0.52643882       0.00696948       0.32431612 </v>
   <v>       0.65663306       0.47708196       0.18377980 </v>
   <v>       0.69657121       0.50254241       0.34878500 </v>
   <v>       0.14036382       0.96867482       0.10625013 </v>
   <v>       0.17391704       0.97708196       0.27638290 </v>
  </varray>
 </structure>
</modeling>
