 vasp.6.1.0 28Jan20 (build Mar 31 2020 17:42:31) gamma-only                     
  
 executed on             LinuxIFC date 2020.04.12  17:41:10
 running on   48 total cores
 distrk:  each k-point on   48 cores,    1 groups
 distr:  one band on NCORE=   6 cores,    8 groups


--------------------------------------------------------------------------------------------------------


 INCAR:
 POTCAR:    PAW_PBE Ni_pv 06Sep2000               
 POTCAR:    PAW_PBE S 06Sep2000                   
 POTCAR:    PAW_PBE Ni_pv 06Sep2000               
   VRHFIN =Ni:                                                                                      
   LEXCH  = PE                                                                                      
   EATOM  =  3501.1230 eV,  257.3253 Ry                                                             
                                                                                                    
   TITEL  = PAW_PBE Ni_pv 06Sep2000                                                                 
   LULTRA =        F    use ultrasoft PP ?                                                          
   IUNSCR =        1    unscreen: 0-lin 1-nonlin 2-no                                               
   RPACOR =    1.500    partial core radius                                                         
   POMASS =   58.690; ZVAL   =   16.000    mass and valenz                                          
   RCORE  =    2.000    outmost cutoff radius                                                       
   RWIGS  =    2.000; RWIGS  =    1.058    wigner-seitz radius (au A)                               
   ENMAX  =  367.986; ENMIN  =  275.989 eV                                                          
   RCLOC  =    1.301    cutoff for local pot                                                        
   LCOR   =        T    correct aug charges                                                         
   LPAW   =        T    paw PP                                                                      
   EAUG   =  703.443                                                                                
   DEXC   =    0.000                                                                                
   RMAX   =    2.041    core radius for proj-oper                                                   
   RAUG   =    1.300    factor for augmentation sphere                                              
   RDEP   =    2.103    radius for radial grids                                                     
   RDEPT  =    1.618    core radius for aug-charge                                                  
                                                                                                    
   Atomic configuration                                                                             
    8 entries                                                                                       
     n  l   j            E        occ.                                                              
     1  0  0.50     -8206.4253   2.0000                                                             
     2  0  0.50      -976.1748   2.0000                                                             
     2  1  1.50      -839.0571   6.0000                                                             
     3  0  0.50      -105.9991   2.0000                                                             
     3  1  1.50       -66.4603   6.0000                                                             
     3  2  2.50        -4.6458   9.0000                                                             
     4  0  0.50        -4.4926   1.0000                                                             
     4  3  2.50        -1.3606   0.0000                                                             
   Description                                                                                      
     l       E           TYP  RCUT    TYP  RCUT                                                     
     1    -66.4602962     23  1.700                                                                 
     1     -1.3605826     23  1.700                                                                 
     2     -4.6457867     23  2.000                                                                 
     2     -6.0063693     23  2.000                                                                 
     0     -4.4925576     23  1.900                                                                 
     0     16.3626226     23  1.900                                                                 
  local pseudopotential read in
  partial core-charges read in
  partial kinetic energy density read in
  atomic valenz-charges read in
  non local Contribution for L=           1  read in
    real space projection operators read in
  non local Contribution for L=           1  read in
    real space projection operators read in
  non local Contribution for L=           2  read in
    real space projection operators read in
  non local Contribution for L=           2  read in
    real space projection operators read in
  non local Contribution for L=           0  read in
    real space projection operators read in
  non local Contribution for L=           0  read in
    real space projection operators read in
    PAW grid and wavefunctions read in
 
   number of l-projection  operators is LMAX  =           6
   number of lm-projection operators is LMMAX =          18
 
 POTCAR:    PAW_PBE S 06Sep2000                   
   VRHFIN =S : s2p4                                                                                 
   LEXCH  = PE                                                                                      
   EATOM  =   276.8230 eV,   20.3459 Ry                                                             
                                                                                                    
   TITEL  = PAW_PBE S 06Sep2000                                                                     
   LULTRA =        F    use ultrasoft PP ?                                                          
   IUNSCR =        1    unscreen: 0-lin 1-nonlin 2-no                                               
   RPACOR =    1.500    partial core radius                                                         
   POMASS =   32.066; ZVAL   =    6.000    mass and valenz                                          
   RCORE  =    1.900    outmost cutoff radius                                                       
   RWIGS  =    2.200; RWIGS  =    1.164    wigner-seitz radius (au A)                               
   ENMAX  =  258.689; ENMIN  =  194.016 eV                                                          
   ICORE  =        2    local potential                                                             
   LCOR   =        T    correct aug charges                                                         
   LPAW   =        T    paw PP                                                                      
   EAUG   =  335.092                                                                                
   DEXC   =    0.000                                                                                
   RMAX   =    1.942    core radius for proj-oper                                                   
   RAUG   =    1.300    factor for augmentation sphere                                              
   RDEP   =    1.954    radius for radial grids                                                     
   RDEPT  =    1.744    core radius for aug-charge                                                  
                                                                                                    
   Atomic configuration                                                                             
    6 entries                                                                                       
     n  l   j            E        occ.                                                              
     1  0  0.50     -2405.8406   2.0000                                                             
     2  0  0.50      -211.7007   2.0000                                                             
     2  1  1.50      -156.4958   6.0000                                                             
     3  0  0.50       -17.2562   2.0000                                                             
     3  1  0.50        -7.0085   4.0000                                                             
     3  2  1.50        -6.8029   0.0000                                                             
   Description                                                                                      
     l       E           TYP  RCUT    TYP  RCUT                                                     
     0    -17.2561641     23  1.900                                                                 
     0    -15.8743224     23  1.900                                                                 
     1     -7.0085400     23  1.900                                                                 
     1     -2.7779785     23  1.900                                                                 
     2     -6.8029130     23  1.900                                                                 
  local pseudopotential read in
  partial core-charges read in
  partial kinetic energy density read in
  atomic valenz-charges read in
  non local Contribution for L=           0  read in
    real space projection operators read in
  non local Contribution for L=           0  read in
    real space projection operators read in
  non local Contribution for L=           1  read in
    real space projection operators read in
  non local Contribution for L=           1  read in
    real space projection operators read in
    PAW grid and wavefunctions read in
 
   number of l-projection  operators is LMAX  =           4
   number of lm-projection operators is LMMAX =           8
 
 Optimization of the real space projectors (new method)

 maximal supplied QI-value         = 18.90
 optimisation between [QCUT,QGAM] = [ 10.77, 21.73] = [ 32.49,132.25] Ry 
 Optimized for a Real-space Cutoff    1.38 Angstroem

   l    n(q)    QCUT    max X(q) W(low)/X(q) W(high)/X(q)  e(spline) 
   1      8    10.771     2.836    0.40E-04    0.29E-04    0.12E-06
   1      8    10.771     4.023    0.10E-03    0.48E-04    0.29E-06
   2      8    10.771    73.368    0.42E-03    0.97E-04    0.44E-06
   2      8    10.771    69.010    0.42E-03    0.99E-04    0.45E-06
   0      9    10.771    54.797    0.10E-03    0.56E-04    0.74E-07
   0      9    10.771    24.266    0.89E-04    0.49E-04    0.67E-07
 Optimization of the real space projectors (new method)

 maximal supplied QI-value         = 19.84
 optimisation between [QCUT,QGAM] = [ 10.71, 21.63] = [ 32.15,130.99] Ry 
 Optimized for a Real-space Cutoff    1.19 Angstroem

   l    n(q)    QCUT    max X(q) W(low)/X(q) W(high)/X(q)  e(spline) 
   0      8    10.715   187.594    0.41E-03    0.53E-04    0.66E-07
   0      8    10.715   164.243    0.41E-03    0.53E-04    0.65E-07
   1      7    10.715    67.533    0.19E-03    0.59E-03    0.68E-07
   1      7    10.715    50.729    0.19E-03    0.58E-03    0.67E-07
  PAW_PBE Ni_pv 06Sep2000               :
 energy of atom  1       EATOM=-3501.1230
 kinetic energy error for atom=    0.0925 (will be added to EATOM!!)
  PAW_PBE S 06Sep2000                   :
 energy of atom  2       EATOM= -276.8230
 kinetic energy error for atom=    0.0033 (will be added to EATOM!!)
 
 
 POSCAR: Structure 32 made from -211-7.xsd file
  positions in direct lattice
  No initial velocities read in
 exchange correlation table for  LEXCH =        8
   RHO(1)=    0.500       N(1)  =     2000
   RHO(2)=  100.500       N(2)  =     4000
 


--------------------------------------------------------------------------------------------------------


 ion  position               nearest neighbor table
   1  0.247  0.945  0.000-  41 2.25  49 2.36  61 2.36
   2  0.397  0.795  0.127-  42 2.25  49 2.26  61 2.26  50 2.36  62 2.36  13 2.53  26 2.53
   3  0.547  0.645  0.254-  43 2.25  62 2.26  50 2.26  63 2.36  51 2.36  27 2.53  14 2.53
   4  0.698  0.494  0.381-  44 2.25  51 2.26  63 2.26  52 2.36  64 2.36  15 2.53  28 2.53
   5  0.848  0.344  0.508-  64 2.26  52 2.26  16 2.53  25 2.53
   6  0.114  0.412  0.169-  45 2.25  68 2.26  53 2.26  65 2.36  54 2.36  29 2.53  17 2.53
   7  0.264  0.261  0.296-  46 2.25  65 2.26  54 2.26  55 2.36  66 2.36  18 2.53  30 2.53
   8  0.414  0.111  0.423-  47 2.25  55 2.26  66 2.26  56 2.36  67 2.36  31 2.53  19 2.53
   9  0.131  0.728  0.465-  37 2.25  72 2.26  58 2.26  59 2.36  21 2.53  35 2.53
  10  0.680  0.178  0.085-  38 2.25  69 2.26  70 2.36  60 2.36  22 2.53  36 2.53
  11  0.831  0.028  0.212-  39 2.25  60 2.26  70 2.26  57 2.36  71 2.36  23 2.53  33 2.53
  12  0.981  0.878  0.338-  40 2.25  57 2.26  71 2.26  58 2.36  72 2.36  34 2.53  24 2.53
  13  0.357  0.570  0.093-  53 2.25  61 2.26  62 2.36  38 2.36   2 2.53  26 2.53
  14  0.508  0.420  0.220-  54 2.25  62 2.26  38 2.26  39 2.36  63 2.36  27 2.53   3 2.53
  15  0.658  0.270  0.347-  55 2.25  63 2.26  39 2.26  64 2.36  40 2.36   4 2.53  28 2.53
  16  0.808  0.120  0.474-  56 2.25  40 2.26  64 2.26  37 2.36   5 2.53  25 2.53
  17  0.074  0.187  0.136-  60 2.25  68 2.26  41 2.26  42 2.36  65 2.36   6 2.53  29 2.53
  18  0.224  0.037  0.263-  57 2.25  42 2.26  65 2.26  66 2.36  43 2.36   7 2.53  30 2.53
  19  0.375  0.886  0.390-  58 2.25  66 2.26  43 2.26  44 2.36  67 2.36  31 2.53   8 2.53
  20  0.525  0.736  0.517-  59 2.25  67 2.26  44 2.26  32 2.53
  21  0.091  0.503  0.432-  52 2.25  72 2.26  46 2.26  47 2.36  35 2.53   9 2.53
  22  0.641  0.954  0.051-  49 2.25  69 2.26  48 2.36  70 2.36  36 2.53  10 2.53
  23  0.791  0.804  0.178-  50 2.25  70 2.26  48 2.26  71 2.36  45 2.36  11 2.53  33 2.53
  24  0.941  0.653  0.305-  51 2.25  71 2.26  45 2.26  46 2.36  72 2.36  34 2.53  12 2.53
  25  0.033  0.159  0.441-  66 2.25  40 2.26  52 2.26  37 2.36  16 2.53   5 2.53
  26  0.582  0.610  0.060-  49 2.26  50 2.36  38 2.36   2 2.53  13 2.53
  27  0.732  0.460  0.187-  68 2.25  50 2.26  38 2.26  51 2.36  39 2.36  14 2.53   3 2.53
  28  0.882  0.310  0.314-  65 2.25  39 2.26  51 2.26  40 2.36  52 2.36   4 2.53  15 2.53
  29  0.299  0.227  0.102-  69 2.25  53 2.26  41 2.26  54 2.36  42 2.36   6 2.53  17 2.53
  30  0.449  0.076  0.229-  70 2.25  42 2.26  54 2.26  55 2.36  43 2.36  18 2.53   7 2.53
  31  0.599  0.926  0.356-  71 2.25  55 2.26  43 2.26  56 2.36  44 2.36   8 2.53  19 2.53
  32  0.749  0.776  0.483-  72 2.25  56 2.26  44 2.26  20 2.53
  33  0.015  0.843  0.144-  61 2.25  48 2.26  60 2.26  45 2.36  57 2.36  23 2.53  11 2.53
  34  0.166  0.693  0.271-  62 2.25  57 2.26  45 2.26  46 2.36  58 2.36  12 2.53  24 2.53
  35  0.316  0.543  0.398-  63 2.25  58 2.26  46 2.26  47 2.36  59 2.36  21 2.53   9 2.53
  36  0.865  0.994  0.018-  60 2.36  48 2.36  22 2.53  10 2.53
  37  0.037  0.955  0.498-   9 2.25  16 2.36  25 2.36
  38  0.586  0.406  0.117-  10 2.25  14 2.26  27 2.26  26 2.36  13 2.36
  39  0.736  0.256  0.244-  11 2.25  28 2.26  15 2.26  14 2.36  27 2.36
  40  0.886  0.105  0.371-  12 2.25  25 2.26  16 2.26  15 2.36  28 2.36
  41  0.152  0.173  0.033-   1 2.25  17 2.26  29 2.26
  42  0.303  0.023  0.160-   2 2.25  30 2.26  18 2.26  17 2.36  29 2.36
  43  0.453  0.872  0.286-   3 2.25  19 2.26  31 2.26  18 2.36  30 2.36
  44  0.603  0.722  0.413-   4 2.25  20 2.26  32 2.26  31 2.36  19 2.36
  45  0.019  0.639  0.202-   6 2.25  24 2.26  34 2.26  23 2.36  33 2.36
  46  0.170  0.489  0.329-   7 2.25  35 2.26  21 2.26  34 2.36  24 2.36
  47  0.320  0.339  0.456-   8 2.25  35 2.36  21 2.36
  48  0.869  0.789  0.075-  33 2.26  23 2.26  22 2.36  36 2.36
  49  0.486  0.842  0.033-  22 2.25   2 2.26  26 2.26   1 2.36
  50  0.636  0.692  0.160-  23 2.25  27 2.26   3 2.26   2 2.36  26 2.36
  51  0.787  0.542  0.287-  24 2.25   4 2.26  28 2.26  27 2.36   3 2.36
  52  0.937  0.391  0.414-  21 2.25   5 2.26  25 2.26   4 2.36  28 2.36
  53  0.203  0.459  0.075-  13 2.25  29 2.26   6 2.26
  54  0.353  0.308  0.202-  14 2.25   7 2.26  30 2.26  29 2.36   6 2.36
  55  0.503  0.158  0.329-  15 2.25   8 2.26  31 2.26   7 2.36  30 2.36
  56  0.654  0.008  0.456-  16 2.25  32 2.26  31 2.36   8 2.36
  57  0.070  0.925  0.245-  18 2.25  34 2.26  12 2.26  11 2.36  33 2.36
  58  0.220  0.775  0.372-  19 2.25   9 2.26  35 2.26  34 2.36  12 2.36
  59  0.370  0.624  0.498-  20 2.25  35 2.36   9 2.36
  60  0.920  0.075  0.118-  17 2.25  11 2.26  33 2.26  36 2.36  10 2.36
  61  0.200  0.792  0.076-  33 2.25  13 2.26   2 2.26   1 2.36
  62  0.350  0.641  0.203-  34 2.25  14 2.26   3 2.26  13 2.36   2 2.36
  63  0.501  0.491  0.330-  35 2.25   4 2.26  15 2.26   3 2.36  14 2.36
  64  0.651  0.341  0.457-   5 2.26  16 2.26  15 2.36   4 2.36
  65  0.067  0.258  0.245-  28 2.25   7 2.26  18 2.26   6 2.36  17 2.36
  66  0.218  0.108  0.372-  25 2.25  19 2.26   8 2.26  18 2.36   7 2.36
  67  0.368  0.957  0.499-  20 2.26  19 2.36   8 2.36
  68  0.917  0.408  0.118-  27 2.25  17 2.26   6 2.26
  69  0.483  0.175  0.033-  29 2.25  10 2.26  22 2.26
  70  0.634  0.025  0.160-  30 2.25  11 2.26  23 2.26  10 2.36  22 2.36
  71  0.784  0.874  0.287-  31 2.25  24 2.26  12 2.26  23 2.36  11 2.36
  72  0.934  0.724  0.414-  32 2.25   9 2.26  21 2.26  12 2.36  24 2.36
 
  LATTYP: Found a base centered orthorhombic cell.
 ALAT       =    11.4527836704
 B/A-ratio  =     1.4485816945
 C/A-ratio  =     1.8059804630
  
  Lattice vectors:
  
 A1 = (   9.4251025535,   3.5732980427,   0.0000000000)
 A2 = (   0.0000000000, -10.0797329849,   0.0000000000)
 A3 = (   0.0000000000,   0.0000000000, -20.6835035552)


Analysis of symmetry for initial positions (statically):
=====================================================================
 Subroutine PRICEL returns:
 Original cell was already a primitive cell.
 

 Routine SETGRP: Setting up the symmetry group for a 
 base centered orthorhombic supercell.


 Subroutine GETGRP returns: Found  1 space group operations
 (whereof  1 operations were pure point group operations)
 out of a pool of  8 trial point group operations.


The static configuration has the point symmetry C_1 .


Analysis of symmetry for dynamics (positions and initial velocities):
=====================================================================
 Subroutine PRICEL returns:
 Original cell was already a primitive cell.
 

 Routine SETGRP: Setting up the symmetry group for a 
 base centered orthorhombic supercell.


 Subroutine GETGRP returns: Found  1 space group operations
 (whereof  1 operations were pure point group operations)
 out of a pool of  8 trial point group operations.


The dynamic configuration has the point symmetry C_1 .


 Subroutine INISYM returns: Found  1 space group operations
 (whereof  1 operations are pure point group operations),
 and found     1 'primitive' translations


----------------------------------------------------------------------------------------

                                     Primitive cell                                     

  volume of cell :    1964.9849

  direct lattice vectors                    reciprocal lattice vectors
     9.425102554  3.573298043  0.000000000     0.106099641  0.000000000  0.000000000
     0.000000000 10.079732985  0.000000000    -0.037612667  0.099208977  0.000000000
     0.000000000  0.000000000 20.683503555     0.000000000  0.000000000  0.048347708

  length of vectors
    10.079732985 10.079732985 20.683503555     0.106099641  0.106099641  0.048347708

  position of ions in fractional coordinates (direct lattice)
     0.246790380  0.945220301  0.000000000
     0.397058892  0.794951789  0.126937024
     0.547327404  0.644683277  0.253874049
     0.697595917  0.494414764  0.380811073
     0.847864429  0.344146252  0.507748097
     0.113815063  0.411528951  0.169249366
     0.264083575  0.261260439  0.296186390
     0.414352088  0.110991927  0.423123414
     0.131108258  0.727569089  0.465435756
     0.680302721  0.178374626  0.084624683
     0.830571234  0.028106114  0.211561707
     0.980839746  0.877837602  0.338498732
     0.357357049  0.570447632  0.093399501
     0.507625562  0.420179119  0.220336525
     0.657894074  0.269910607  0.347273550
     0.808162587  0.119642094  0.474210574
     0.074113220  0.187024794  0.135711842
     0.224381733  0.036756282  0.262648867
     0.374650245  0.886487769  0.389585891
     0.524918757  0.736219257  0.516522915
     0.091406416  0.503064932  0.431898232
     0.640600879  0.953870469  0.051087159
     0.790869391  0.803601957  0.178024184
     0.941137903  0.653333444  0.304961208
     0.032666744  0.159343937  0.440673050
     0.581861207  0.610149474  0.059861977
     0.732129719  0.459880962  0.186799002
     0.882398232  0.309612449  0.313736026
     0.298617378  0.226726637  0.102174319
     0.448885890  0.076458124  0.229111343
     0.599154402  0.926189612  0.356048368
     0.749422915  0.775921099  0.482985392
     0.015373548  0.843303799  0.144486660
     0.165642061  0.693035287  0.271423685
     0.315910573  0.542766774  0.398360709
     0.865105036  0.993572312  0.017549636
     0.036604831  0.955193850  0.498057640
     0.585799294  0.405999387  0.117246567
     0.736067806  0.255730875  0.244183592
     0.886336318  0.105462363  0.371120616
     0.152286952  0.172845062  0.032621884
     0.302555464  0.022576550  0.159558909
     0.452823977  0.872308037  0.286495933
     0.603092489  0.722039525  0.413432957
     0.019311635  0.639153712  0.201871250
     0.169580148  0.488885200  0.328808274
     0.319848660  0.338616688  0.455745299
     0.869043123  0.789422225  0.074934226
     0.486085617  0.842143064  0.033014966
     0.636354129  0.691874552  0.159951990
     0.786622642  0.541606039  0.286889015
     0.936891154  0.391337527  0.413826039
     0.202841788  0.458720227  0.075327307
     0.353110300  0.308451714  0.202264332
     0.503378812  0.158183202  0.329201356
     0.653647325  0.007914689  0.456138380
     0.069866471  0.925028877  0.244576673
     0.220134983  0.774760364  0.371513698
     0.370403496  0.624491852  0.498450722
     0.919597958  0.075297389  0.117639649
     0.200210452  0.791588228  0.075720389
     0.350478965  0.641319716  0.202657413
     0.500747477  0.491051204  0.329594438
     0.651015990  0.340782691  0.456531462
     0.067235136  0.257896879  0.244969755
     0.217503648  0.107628366  0.371906779
     0.367772160  0.957359854  0.498843804
     0.916966623  0.408165391  0.118032731
     0.483454282  0.175011066  0.033408048
     0.633722794  0.024742554  0.160345072
     0.783991306  0.874474041  0.287282096
     0.934259819  0.724205529  0.414219121

  ion indices of the primitive-cell ions
   primitive index   ion index
                 1           1
                 2           2
                 3           3
                 4           4
                 5           5
                 6           6
                 7           7
                 8           8
                 9           9
                10          10
                11          11
                12          12
                13          13
                14          14
                15          15
                16          16
                17          17
                18          18
                19          19
                20          20
                21          21
                22          22
                23          23
                24          24
                25          25
                26          26
                27          27
                28          28
                29          29
                30          30
                31          31
                32          32
                33          33
                34          34
                35          35
                36          36
                37          37
                38          38
                39          39
                40          40
                41          41
                42          42
                43          43
                44          44
                45          45
                46          46
                47          47
                48          48
                49          49
                50          50
                51          51
                52          52
                53          53
                54          54
                55          55
                56          56
                57          57
                58          58
                59          59
                60          60
                61          61
                62          62
                63          63
                64          64
                65          65
                66          66
                67          67
                68          68
                69          69
                70          70
                71          71
                72          72

----------------------------------------------------------------------------------------

 
 
 KPOINTS: gamma-point-only calculation. no periodi

Automatic generation of k-mesh.
Space group operators:
 irot       det(A)        alpha          n_x          n_y          n_z        tau_x        tau_y        tau_z
    1     1.000000     0.000000     1.000000     0.000000     0.000000     0.000000     0.000000     0.000000
 
 Subroutine IBZKPT returns following result:
 ===========================================
 
 Found      1 irreducible k-points:
 
 Following reciprocal coordinates:
            Coordinates               Weight
  0.000000  0.000000  0.000000      1.000000
 
 Following cartesian coordinates:
            Coordinates               Weight
  0.000000  0.000000  0.000000      1.000000
 


--------------------------------------------------------------------------------------------------------




 Dimension of arrays:
   k-points           NKPTS =      1   k-points in BZ     NKDIM =      1   number of bands    NBANDS=    480
   number of dos      NEDOS =    301   number of ions     NIONS =     72
   non local maximal  LDIM  =      6   non local SUM 2l+1 LMDIM =     18
   total plane-waves  NPLWV = 314928
   max r-space proj   IRMAX =   1817   max aug-charges    IRDMAX=   5248
   dimension x,y,z NGX =    54 NGY =   54 NGZ =  108
   dimension x,y,z NGXF=   108 NGYF=  108 NGZF=  216
   support grid    NGXF=   108 NGYF=  108 NGZF=  216
   ions per type =              36  36
   NGX,Y,Z   is equivalent  to a cutoff of   8.91,  8.91,  8.68 a.u.
   NGXF,Y,Z  is equivalent  to a cutoff of  17.81, 17.81, 17.36 a.u.

 SYSTEM =  "Millerite NiS"                         
 POSCAR =  Structure 32 made from -211-7.xsd file  

 Startparameter for this run:
   NWRITE =      2    write-flag & timer
   PREC   = normal    normal or accurate (medium, high low for compatibility)
   ISTART =      0    job   : 0-new  1-cont  2-samecut
   ICHARG =      2    charge: 1-file 2-atom 10-const
   ISPIN  =      1    spin polarized calculation?
   LNONCOLLINEAR =      F non collinear calculations
   LSORBIT =      F    spin-orbit coupling
   INIWAV =      1    electr: 0-lowe 1-rand  2-diag
   LASPH  =      F    aspherical Exc in radial PAW
   METAGGA=      F    non-selfconsistent MetaGGA calc.

 Electronic Relaxation 1
   ENCUT  =  450.0 eV  33.07 Ry    5.75 a.u.  17.43 17.43 35.78*2*pi/ulx,y,z
   ENINI  =  450.0     initial cutoff
   ENAUG  =  703.4 eV  augmentation charge cutoff
   NELM   =    100;   NELMIN=  2; NELMDL= -5     # of ELM steps 
   EDIFF  = 0.1E-03   stopping-criterion for ELM
   LREAL  =      T    real-space projection
   NLSPLINE    = F    spline interpolate recip. space projectors
   LCOMPAT=      F    compatible to vasp.4.4
   GGA_COMPAT  = T    GGA compatible to vasp.4.4-vasp.4.6
   LMAXPAW     = -100 max onsite density
   LMAXMIX     =    2 max onsite mixed and CHGCAR
   VOSKOWN=      0    Vosko Wilk Nusair interpolation
   ROPT   =   -0.00050  -0.00050
 Ionic relaxation
   EDIFFG = 0.1E-02   stopping-criterion for IOM
   NSW    =      0    number of steps for IOM
   NBLOCK =      1;   KBLOCK =      1    inner block; outer block 
   IBRION =     -1    ionic relax: 0-MD 1-quasi-New 2-CG
   NFREE  =      0    steps in history (QN), initial steepest desc. (CG)
   ISIF   =      2    stress and relaxation
   IWAVPR =     10    prediction:  0-non 1-charg 2-wave 3-comb
   ISYM   =      2    0-nonsym 1-usesym 2-fastsym
   LCORR  =      T    Harris-Foulkes like correction to forces

   POTIM  = 0.5000    time-step for ionic-motion
   TEIN   =    0.0    initial temperature
   TEBEG  =    0.0;   TEEND  =   0.0 temperature during run
   SMASS  =  -3.00    Nose mass-parameter (am)
   estimated Nose-frequenzy (Omega)   =  0.10E-29 period in steps = 0.13E+47 mass=  -0.232E-26a.u.
   SCALEE = 1.0000    scale energy and forces
   NPACO  =    256;   APACO  = 16.0  distance and # of slots for P.C.
   PSTRESS=    0.0 pullay stress

  Mass of Ions in am
   POMASS =  58.69 32.07
  Ionic Valenz
   ZVAL   =  16.00  6.00
  Atomic Wigner-Seitz radii
   RWIGS  =  -1.00 -1.00
  virtual crystal weights 
   VCA    =   1.00  1.00
   NELECT =     792.0000    total number of electrons
   NUPDOWN=      -1.0000    fix difference up-down

 DOS related values:
   EMIN   =  10.00;   EMAX   =-10.00  energy-range for DOS
   EFERMI =   0.00
   ISMEAR =     0;   SIGMA  =   0.20  broadening in eV -4-tet -1-fermi 0-gaus

 Electronic relaxation 2 (details)
   IALGO  =     38    algorithm
   LDIAG  =      T    sub-space diagonalisation (order eigenvalues)
   LSUBROT=      F    optimize rotation matrix (better conditioning)
   TURBO    =      0    0=normal 1=particle mesh
   IRESTART =      0    0=no restart 2=restart with 2 vectors
   NREBOOT  =      0    no. of reboots
   NMIN     =      0    reboot dimension
   EREF     =   0.00    reference energy to select bands
   IMIX   =      4    mixing-type and parameters
     AMIX     =   0.40;   BMIX     =  1.00
     AMIX_MAG =   1.60;   BMIX_MAG =  1.00
     AMIN     =   0.10
     WC   =   100.;   INIMIX=   1;  MIXPRE=   1;  MAXMIX= -45

 Intra band minimization:
   WEIMIN = 0.0000     energy-eigenvalue tresh-hold
   EBREAK =  0.52E-07  absolut break condition
   DEPER  =   0.30     relativ break condition  

   TIME   =   0.40     timestep for ELM

  volume/ion in A,a.u.               =      27.29       184.17
  Fermi-wavevector in a.u.,A,eV,Ry     =   1.209289  2.285225 19.896891  1.462380
  Thomas-Fermi vector in A             =   2.344871
 
 Write flags
   LWAVE        =      F    write WAVECAR
   LDOWNSAMPLE  =      F    k-point downsampling of WAVECAR
   LCHARG       =      F    write CHGCAR
   LVTOT        =      F    write LOCPOT, total local potential
   LVHAR        =      F    write LOCPOT, Hartree potential only
   LELF         =      F    write electronic localiz. function (ELF)
   LORBIT       =      0    0 simple, 1 ext, 2 COOP (PROOUT), +10 PAW based schemes


 Dipole corrections
   LMONO  =      F    monopole corrections only (constant potential shift)
   LDIPOL =      F    correct potential (dipole corrections)
   IDIPOL =      0    1-x, 2-y, 3-z, 4-all directions 
   EPSILON=  1.0000000 bulk dielectric constant

 Exchange correlation treatment:
   GGA     =    --    GGA type
   LEXCH   =     8    internal setting for exchange type
   VOSKOWN=      0    Vosko Wilk Nusair interpolation
   LHFCALC =     F    Hartree Fock is set to
   LHFONE  =     F    Hartree Fock one center treatment
   AEXX    =    0.0000 exact exchange contribution

 Linear response parameters
   LEPSILON=     F    determine dielectric tensor
   LRPA    =     F    only Hartree local field effects (RPA)
   LNABLA  =     F    use nabla operator in PAW spheres
   LVEL    =     F    velocity operator in full k-point grid
   LINTERFAST=   F  fast interpolation
   KINTER  =     0    interpolate to denser k-point grid
   CSHIFT  =0.1000    complex shift for real part using Kramers Kronig
   OMEGAMAX=  -1.0    maximum frequency
   DEG_THRESHOLD= 0.2000000E-02 threshold for treating states as degnerate
   RTIME   =   -0.100 relaxation time in fs
  (WPLASMAI=    0.000 imaginary part of plasma frequency in eV, 0.658/RTIME)
   DFIELD  = 0.0000000 0.0000000 0.0000000 field for delta impulse in time
 
 Orbital magnetization related:
   ORBITALMAG=     F  switch on orbital magnetization
   LCHIMAG   =     F  perturbation theory with respect to B field
   DQ        =  0.001000  dq finite difference perturbation B field
   LLRAUG    =     F  two centre corrections for induced B field



--------------------------------------------------------------------------------------------------------


 Static calculation
 charge density and potential will be updated during run
 non-spin polarized calculation
 Variant of blocked Davidson
 Davidson routine will perform the subspace rotation
 perform sub-space diagonalisation
    after iterative eigenvector-optimisation
 modified Broyden-mixing scheme, WC =      100.0
 initial mixing is a Kerker type mixing with AMIX =  0.4000 and BMIX =      1.0000
 Hartree-type preconditioning will be used
 using additional bands           84
 real space projection scheme for non local part
 use partial core corrections
 calculate Harris-corrections to forces 
   (improved forces if not selfconsistent)
 use gradient corrections 
 use of overlap-Matrix (Vanderbilt PP)
 Gauss-broadening in eV      SIGMA  =   0.20


--------------------------------------------------------------------------------------------------------


  energy-cutoff  :      450.00
  volume of cell :     1964.98
      direct lattice vectors                 reciprocal lattice vectors
     9.425102554  3.573298043  0.000000000     0.106099641  0.000000000  0.000000000
     0.000000000 10.079732985  0.000000000    -0.037612667  0.099208977  0.000000000
     0.000000000  0.000000000 20.683503555     0.000000000  0.000000000  0.048347708

  length of vectors
    10.079732985 10.079732985 20.683503555     0.106099641  0.106099641  0.048347708


 
 k-points in units of 2pi/SCALE and weight: gamma-point-only calculation. no periodi
   0.00000000  0.00000000  0.00000000       1.000
 
 k-points in reciprocal lattice and weights: gamma-point-only calculation. no periodi
   0.00000000  0.00000000  0.00000000       1.000
 
 position of ions in fractional coordinates (direct lattice) 
   0.24679038  0.94522030  0.00000000
   0.39705889  0.79495179  0.12693702
   0.54732740  0.64468328  0.25387405
   0.69759592  0.49441476  0.38081107
   0.84786443  0.34414625  0.50774810
   0.11381506  0.41152895  0.16924937
   0.26408358  0.26126044  0.29618639
   0.41435209  0.11099193  0.42312341
   0.13110826  0.72756909  0.46543576
   0.68030272  0.17837463  0.08462468
   0.83057123  0.02810611  0.21156171
   0.98083975  0.87783760  0.33849873
   0.35735705  0.57044763  0.09339950
   0.50762556  0.42017912  0.22033653
   0.65789407  0.26991061  0.34727355
   0.80816259  0.11964209  0.47421057
   0.07411322  0.18702479  0.13571184
   0.22438173  0.03675628  0.26264887
   0.37465024  0.88648777  0.38958589
   0.52491876  0.73621926  0.51652292
   0.09140642  0.50306493  0.43189823
   0.64060088  0.95387047  0.05108716
   0.79086939  0.80360196  0.17802418
   0.94113790  0.65333344  0.30496121
   0.03266674  0.15934394  0.44067305
   0.58186121  0.61014947  0.05986198
   0.73212972  0.45988096  0.18679900
   0.88239823  0.30961245  0.31373603
   0.29861738  0.22672664  0.10217432
   0.44888589  0.07645812  0.22911134
   0.59915440  0.92618961  0.35604837
   0.74942291  0.77592110  0.48298539
   0.01537355  0.84330380  0.14448666
   0.16564206  0.69303529  0.27142369
   0.31591057  0.54276677  0.39836071
   0.86510504  0.99357231  0.01754964
   0.03660483  0.95519385  0.49805764
   0.58579929  0.40599939  0.11724657
   0.73606781  0.25573087  0.24418359
   0.88633632  0.10546236  0.37112062
   0.15228695  0.17284506  0.03262188
   0.30255546  0.02257655  0.15955891
   0.45282398  0.87230804  0.28649593
   0.60309249  0.72203952  0.41343296
   0.01931164  0.63915371  0.20187125
   0.16958015  0.48888520  0.32880827
   0.31984866  0.33861669  0.45574530
   0.86904312  0.78942223  0.07493423
   0.48608562  0.84214306  0.03301497
   0.63635413  0.69187455  0.15995199
   0.78662264  0.54160604  0.28688901
   0.93689115  0.39133753  0.41382604
   0.20284179  0.45872023  0.07532731
   0.35311030  0.30845171  0.20226433
   0.50337881  0.15818320  0.32920136
   0.65364733  0.00791469  0.45613838
   0.06986647  0.92502888  0.24457667
   0.22013498  0.77476036  0.37151370
   0.37040350  0.62449185  0.49845072
   0.91959796  0.07529739  0.11763965
   0.20021045  0.79158823  0.07572039
   0.35047897  0.64131972  0.20265741
   0.50074748  0.49105120  0.32959444
   0.65101599  0.34078269  0.45653146
   0.06723514  0.25789688  0.24496975
   0.21750365  0.10762837  0.37190678
   0.36777216  0.95735985  0.49884380
   0.91696662  0.40816539  0.11803273
   0.48345428  0.17501107  0.03340805
   0.63372279  0.02474255  0.16034507
   0.78399131  0.87447404  0.28728210
   0.93425982  0.72420553  0.41421912
 
 position of ions in cartesian coordinates  (Angst):
   2.32602464 10.40942383  0.00000000
   3.74232078  9.43171153  2.62550239
   5.15861691  8.45399923  5.25100480
   6.57491306  7.47628693  7.87650718
   7.99120919  6.49857463 10.50200957
   1.07271864  4.55479708  3.50066986
   2.48901478  3.57708479  6.12617225
   3.90531092  2.59937249  8.75167464
   1.23570878  7.80219103  9.62684211
   6.41192291  4.22889298  1.75033493
   7.82821906  3.25118069  4.37583732
   9.24451519 12.35320138  7.00133973
   3.36812684  7.02690306  1.93182891
   4.78442298  6.04919075  4.55733130
   6.20071912  5.07147846  7.18283371
   7.61701526  4.09376615  9.80833609
   0.69852470  2.14998861  2.80699637
   2.11482084  1.17227632  5.43249877
   3.53111698 10.27429699  8.05800116
   4.94741312  9.29658470 10.68350355
   0.86151484  5.39738256  8.93316862
   6.03772898 11.90381750  1.05666143
   7.45402512 10.92610520  3.68216384
   8.87032125  9.94839289  6.30766623
   0.30788741  1.72287235  9.11466260
   5.48410155  8.22930729  1.23815541
   6.90039768  7.25159499  3.86365782
   8.31669383  6.27388269  6.48916021
   2.81449941  3.35239285  2.11332289
   4.23079555  2.37468055  4.73882528
   5.64709168 11.47670123  7.36432769
   7.06338783 10.49898893  9.98983007
   0.14489727  8.55521139  2.98849035
   1.56119341  7.57749909  5.61399275
   2.97748955  6.59978679  8.23949514
   8.15370368 13.10622174  0.36298796
   0.34500429  9.75889893 10.30157697
   5.52121842  6.18560088  2.42506979
   6.93751456  5.20788859  5.05057219
   8.35381069  4.23017629  7.67607458
   1.43532014  2.28639874  0.67473485
   2.85161628  1.30868644  3.30023726
   4.26791242 10.41070712  5.92573965
   5.68420856  9.43299483  8.55124204
   0.18201414  6.51150498  4.17540472
   1.59831029  5.53379269  6.80090710
   3.01460642  4.55608039  9.42640951
   8.19082056 11.06251533  1.54990233
   4.58140679 10.22550600  0.68286517
   5.99770293  9.24779371  3.30836755
   7.41399907  8.27008140  5.93386996
   8.83029521  7.29236911  8.55937235
   1.91180465  5.34859157  1.55803262
   3.32810079  4.37087926  4.18353503
   4.74439693  3.39316696  6.80903742
   6.16069307  2.41545466  9.43453980
   0.65849865  9.57369781  5.05870249
   2.07479479  8.59598550  7.68420489
   3.49109094  7.61827321 10.30970728
   8.66730506  4.04497516  2.43320010
   1.88700404  8.69440959  1.56616294
   3.30330019  7.71669729  4.19166532
   4.71959632  6.73898500  6.81716773
   6.13589247  5.76127269  9.44267012
   0.63369805  2.83978286  5.06683280
   2.04999419  1.86207055  7.69233519
   3.46629032 10.96409124 10.31783759
   8.64250446  7.39079319  2.44133041
   4.55660619  3.49159105  0.69099548
   5.97290232  2.51387876  3.31649787
   7.38919846 11.61589943  5.94200025
   8.80549461 10.63818714  8.56750266
 


--------------------------------------------------------------------------------------------------------


 use parallel FFT for orbitals z direction half grid
 k-point   1 :   0.0000 0.0000 0.0000  plane waves:   21301

 maximum and minimum number of plane-waves per node :      3554     3548

 maximum number of plane-waves:     21301
 maximum index in each direction: 
   IXMAX=   17   IYMAX=   17   IZMAX=   35
   IXMIN=  -17   IYMIN=  -17   IZMIN=    0


 real space projection operators:
  total allocation   :      11162.30 KBytes
  max/ min on nodes  :       1862.77       1857.31


 parallel 3D FFT for wavefunctions:
    minimum data exchange during FFTs selected (reduces bandwidth)
 parallel 3D FFT for charge:
    minimum data exchange during FFTs selected (reduces bandwidth)


 total amount of memory used by VASP MPI-rank0    45301. kBytes
=======================================================================

   base      :      30000. kBytes
   nonlr-proj:       2287. kBytes
   fftplans  :       3383. kBytes
   grid      :       6052. kBytes
   one-center:         93. kBytes
   wavefun   :       3486. kBytes
 
     INWAV:  cpu time    0.0000: real time    0.0000
 Broyden mixing: mesh for mixing (old mesh)
   NGX = 35   NGY = 35   NGZ = 71
  (NGX  =108   NGY  =108   NGZ  =216)
  gives a total of  86975 points

 initial charge density was supplied:
 charge density of overlapping atoms calculated
 number of electron     792.0000000 magnetization 
 keeping initial charge density in first step


--------------------------------------------------------------------------------------------------------


 Maximum index for non-local projection operator          301
 Maximum index for augmentation-charges          468 (set IRDMAX)


--------------------------------------------------------------------------------------------------------


 First call to EWALD:  gamma=   0.142
 Maximum number of real-space cells 3x 3x 2
 Maximum number of reciprocal cells 2x 2x 4

    FEWALD:  cpu time    0.0055: real time    0.0056


--------------------------------------- Iteration      1(   1)  ---------------------------------------


    POTLOK:  cpu time    0.0473: real time    0.0491
    SETDIJ:  cpu time    0.0054: real time    0.0081
     EDDAV:  cpu time    2.0304: real time    2.0385
       DOS:  cpu time    0.0008: real time    0.0008
    --------------------------------------------
      LOOP:  cpu time    2.0839: real time    2.0965

 eigenvalue-minimisations  :  1168
 total energy-change (2. order) : 0.9708310E+04  (-0.5086653E+05)
 number of electron     792.0000000 magnetization 
 augmentation part      792.0000000 magnetization 

 Free energy of the ion-electron system (eV)
  ---------------------------------------------------
  alpha Z        PSCENC =      1893.09323658
  Ewald energy   TEWEN  =    169768.01761702
  -Hartree energ DENC   =   -292328.55671121
  -exchange      EXHF   =         0.00000000
  -V(xc)+E(xc)   XCENC  =      3653.28980689
  PAW double counting   =    112729.53333415  -117641.51188735
  entropy T*S    EENTRO =        -0.33411442
  eigenvalues    EBANDS =     -4367.82674429
  atomic energy  EATOM  =    136002.60505376
  Solvation  Ediel_sol  =         0.00000000
  ---------------------------------------------------
  free energy    TOTEN  =      9708.30959113 eV

  energy without entropy =     9708.64370555  energy(sigma->0) =     9708.47664834


--------------------------------------------------------------------------------------------------------




--------------------------------------- Iteration      1(   2)  ---------------------------------------


     EDDAV:  cpu time    1.8027: real time    1.8077
       DOS:  cpu time    0.0005: real time    0.0005
    --------------------------------------------
      LOOP:  cpu time    1.8033: real time    1.8083

 eigenvalue-minimisations  :  1024
 total energy-change (2. order) :-0.9128901E+04  (-0.8789604E+04)
 number of electron     792.0000000 magnetization 
 augmentation part      792.0000000 magnetization 

 Free energy of the ion-electron system (eV)
  ---------------------------------------------------
  alpha Z        PSCENC =      1893.09323658
  Ewald energy   TEWEN  =    169768.01761702
  -Hartree energ DENC   =   -292328.55671121
  -exchange      EXHF   =         0.00000000
  -V(xc)+E(xc)   XCENC  =      3653.28980689
  PAW double counting   =    112729.53333415  -117641.51188735
  entropy T*S    EENTRO =        -0.86067898
  eigenvalues    EBANDS =    -13496.20099696
  atomic energy  EATOM  =    136002.60505376
  Solvation  Ediel_sol  =         0.00000000
  ---------------------------------------------------
  free energy    TOTEN  =       579.40877391 eV

  energy without entropy =      580.26945288  energy(sigma->0) =      579.83911339


--------------------------------------------------------------------------------------------------------




--------------------------------------- Iteration      1(   3)  ---------------------------------------


     EDDAV:  cpu time    1.8949: real time    1.9006
       DOS:  cpu time    0.0006: real time    0.0006
    --------------------------------------------
      LOOP:  cpu time    1.8955: real time    1.9011

 eigenvalue-minimisations  :  1096
 total energy-change (2. order) :-0.9256419E+03  (-0.8755632E+03)
 number of electron     792.0000000 magnetization 
 augmentation part      792.0000000 magnetization 

 Free energy of the ion-electron system (eV)
  ---------------------------------------------------
  alpha Z        PSCENC =      1893.09323658
  Ewald energy   TEWEN  =    169768.01761702
  -Hartree energ DENC   =   -292328.55671121
  -exchange      EXHF   =         0.00000000
  -V(xc)+E(xc)   XCENC  =      3653.28980689
  PAW double counting   =    112729.53333415  -117641.51188735
  entropy T*S    EENTRO =        -1.14312808
  eigenvalues    EBANDS =    -14421.56046452
  atomic energy  EATOM  =    136002.60505376
  Solvation  Ediel_sol  =         0.00000000
  ---------------------------------------------------
  free energy    TOTEN  =      -346.23314276 eV

  energy without entropy =     -345.09001468  energy(sigma->0) =     -345.66157872


--------------------------------------------------------------------------------------------------------




--------------------------------------- Iteration      1(   4)  ---------------------------------------


     EDDAV:  cpu time    1.9519: real time    1.9585
       DOS:  cpu time    0.0007: real time    0.0007
    --------------------------------------------
      LOOP:  cpu time    1.9526: real time    1.9592

 eigenvalue-minimisations  :  1120
 total energy-change (2. order) :-0.5914040E+02  (-0.5845291E+02)
 number of electron     792.0000000 magnetization 
 augmentation part      792.0000000 magnetization 

 Free energy of the ion-electron system (eV)
  ---------------------------------------------------
  alpha Z        PSCENC =      1893.09323658
  Ewald energy   TEWEN  =    169768.01761702
  -Hartree energ DENC   =   -292328.55671121
  -exchange      EXHF   =         0.00000000
  -V(xc)+E(xc)   XCENC  =      3653.28980689
  PAW double counting   =    112729.53333415  -117641.51188735
  entropy T*S    EENTRO =        -1.15955315
  eigenvalues    EBANDS =    -14480.68443864
  atomic energy  EATOM  =    136002.60505376
  Solvation  Ediel_sol  =         0.00000000
  ---------------------------------------------------
  free energy    TOTEN  =      -405.37354195 eV

  energy without entropy =     -404.21398880  energy(sigma->0) =     -404.79376538


--------------------------------------------------------------------------------------------------------




--------------------------------------- Iteration      1(   5)  ---------------------------------------


     EDDAV:  cpu time    2.0327: real time    2.0386
       DOS:  cpu time    0.0006: real time    0.0006
    CHARGE:  cpu time    0.0397: real time    0.0399
    MIXING:  cpu time    0.0024: real time    0.0027
    --------------------------------------------
      LOOP:  cpu time    2.0754: real time    2.0817

 eigenvalue-minimisations  :  1200
 total energy-change (2. order) :-0.2182514E+01  (-0.2178735E+01)
 number of electron     792.0000106 magnetization 
 augmentation part      286.2407100 magnetization 

 Broyden mixing:
  rms(total) = 0.82347E+01    rms(broyden)= 0.82203E+01
  rms(prec ) = 0.86449E+01
  weight for this iteration     100.00

 Free energy of the ion-electron system (eV)
  ---------------------------------------------------
  alpha Z        PSCENC =      1893.09323658
  Ewald energy   TEWEN  =    169768.01761702
  -Hartree energ DENC   =   -292328.55671121
  -exchange      EXHF   =         0.00000000
  -V(xc)+E(xc)   XCENC  =      3653.28980689
  PAW double counting   =    112729.53333415  -117641.51188735
  entropy T*S    EENTRO =        -1.17834383
  eigenvalues    EBANDS =    -14482.84816150
  atomic energy  EATOM  =    136002.60505376
  Solvation  Ediel_sol  =         0.00000000
  ---------------------------------------------------
  free energy    TOTEN  =      -407.55605548 eV

  energy without entropy =     -406.37771166  energy(sigma->0) =     -406.96688357


--------------------------------------------------------------------------------------------------------




--------------------------------------- Iteration      1(   6)  ---------------------------------------


    POTLOK:  cpu time    0.0430: real time    0.0431
    SETDIJ:  cpu time    0.0046: real time    0.0064
     EDDAV:  cpu time    1.9805: real time    1.9853
       DOS:  cpu time    0.0008: real time    0.0008
    CHARGE:  cpu time    0.0381: real time    0.0381
    MIXING:  cpu time    0.0021: real time    0.0021
    --------------------------------------------
      LOOP:  cpu time    2.0690: real time    2.0758

 eigenvalue-minimisations  :  1160
 total energy-change (2. order) :-0.7981465E+02  (-0.9559779E+02)
 number of electron     792.0000121 magnetization 
 augmentation part      352.1975951 magnetization 

 Broyden mixing:
  rms(total) = 0.15660E+02    rms(broyden)= 0.15657E+02
  rms(prec ) = 0.16268E+02
  weight for this iteration     100.00

 eigenvalues of (default mixing * dielectric matrix)
  average eigenvalue GAMMA=   0.2283
  0.2283

 Free energy of the ion-electron system (eV)
  ---------------------------------------------------
  alpha Z        PSCENC =      1893.09323658
  Ewald energy   TEWEN  =    169768.01761702
  -Hartree energ DENC   =   -289574.42383605
  -exchange      EXHF   =         0.00000000
  -V(xc)+E(xc)   XCENC  =      3576.36916345
  PAW double counting   =    114597.66643681  -119269.58352033
  entropy T*S    EENTRO =        -0.99432431
  eigenvalues    EBANDS =    -17480.12053519
  atomic energy  EATOM  =    136002.60505376
  Solvation  Ediel_sol  =         0.00000000
  ---------------------------------------------------
  free energy    TOTEN  =      -487.37070827 eV

  energy without entropy =     -486.37638396  energy(sigma->0) =     -486.87354612


--------------------------------------------------------------------------------------------------------




--------------------------------------- Iteration      1(   7)  ---------------------------------------


    POTLOK:  cpu time    0.0425: real time    0.0426
    SETDIJ:  cpu time    0.0049: real time    0.0049
     EDDAV:  cpu time    1.9695: real time    1.9742
       DOS:  cpu time    0.0006: real time    0.0006
    CHARGE:  cpu time    0.0381: real time    0.0382
    MIXING:  cpu time    0.0019: real time    0.0019
    --------------------------------------------
      LOOP:  cpu time    2.0574: real time    2.0623

 eigenvalue-minimisations  :  1136
 total energy-change (2. order) : 0.1111671E+03  (-0.1758695E+02)
 number of electron     792.0000122 magnetization 
 augmentation part      331.9034991 magnetization 

 Broyden mixing:
  rms(total) = 0.60888E+01    rms(broyden)= 0.60874E+01
  rms(prec ) = 0.63628E+01
  weight for this iteration     100.00

 eigenvalues of (default mixing * dielectric matrix)
  average eigenvalue GAMMA=   0.5172
  0.5172  0.5172

 Free energy of the ion-electron system (eV)
  ---------------------------------------------------
  alpha Z        PSCENC =      1893.09323658
  Ewald energy   TEWEN  =    169768.01761702
  -Hartree energ DENC   =   -290805.87098013
  -exchange      EXHF   =         0.00000000
  -V(xc)+E(xc)   XCENC  =      3605.34190501
  PAW double counting   =    118692.53152055  -123508.95999237
  entropy T*S    EENTRO =        -0.85051762
  eigenvalues    EBANDS =    -16022.11149274
  atomic energy  EATOM  =    136002.60505376
  Solvation  Ediel_sol  =         0.00000000
  ---------------------------------------------------
  free energy    TOTEN  =      -376.20364995 eV

  energy without entropy =     -375.35313233  energy(sigma->0) =     -375.77839114


--------------------------------------------------------------------------------------------------------




--------------------------------------- Iteration      1(   8)  ---------------------------------------


    POTLOK:  cpu time    0.0439: real time    0.0458
    SETDIJ:  cpu time    0.0045: real time    0.0061
     EDDAV:  cpu time    2.2555: real time    2.2624
       DOS:  cpu time    0.0007: real time    0.0007
    CHARGE:  cpu time    0.0379: real time    0.0379
    MIXING:  cpu time    0.0021: real time    0.0021
    --------------------------------------------
      LOOP:  cpu time    2.3446: real time    2.3551

 eigenvalue-minimisations  :  1336
 total energy-change (2. order) :-0.4271614E+02  (-0.1587710E+02)
 number of electron     792.0000042 magnetization 
 augmentation part      303.8133203 magnetization 

 Broyden mixing:
  rms(total) = 0.14515E+02    rms(broyden)= 0.14512E+02
  rms(prec ) = 0.16787E+02
  weight for this iteration     100.00

 eigenvalues of (default mixing * dielectric matrix)
  average eigenvalue GAMMA=   0.4162
  0.6885  0.4558  0.1043

 Free energy of the ion-electron system (eV)
  ---------------------------------------------------
  alpha Z        PSCENC =      1893.09323658
  Ewald energy   TEWEN  =    169768.01761702
  -Hartree energ DENC   =   -291363.00597256
  -exchange      EXHF   =         0.00000000
  -V(xc)+E(xc)   XCENC  =      3628.48109005
  PAW double counting   =    124383.73292420  -129315.21341728
  entropy T*S    EENTRO =        -1.01819918
  eigenvalues    EBANDS =    -15415.61211803
  atomic energy  EATOM  =    136002.60505376
  Solvation  Ediel_sol  =         0.00000000
  ---------------------------------------------------
  free energy    TOTEN  =      -418.91978546 eV

  energy without entropy =     -417.90158627  energy(sigma->0) =     -418.41068586


--------------------------------------------------------------------------------------------------------




--------------------------------------- Iteration      1(   9)  ---------------------------------------


    POTLOK:  cpu time    0.0429: real time    0.0451
    SETDIJ:  cpu time    0.0045: real time    0.0061
     EDDAV:  cpu time    2.0890: real time    2.0940
       DOS:  cpu time    0.0006: real time    0.0006
    CHARGE:  cpu time    0.0383: real time    0.0383
    MIXING:  cpu time    0.0018: real time    0.0018
    --------------------------------------------
      LOOP:  cpu time    2.1771: real time    2.1860

 eigenvalue-minimisations  :  1232
 total energy-change (2. order) : 0.4704854E+02  (-0.8725257E+01)
 number of electron     792.0000140 magnetization 
 augmentation part      307.5909177 magnetization 

 Broyden mixing:
  rms(total) = 0.47364E+01    rms(broyden)= 0.47275E+01
  rms(prec ) = 0.51546E+01
  weight for this iteration     100.00

 eigenvalues of (default mixing * dielectric matrix)
  average eigenvalue GAMMA=   0.4929
  1.1472  0.3689  0.3689  0.0865

 Free energy of the ion-electron system (eV)
  ---------------------------------------------------
  alpha Z        PSCENC =      1893.09323658
  Ewald energy   TEWEN  =    169768.01761702
  -Hartree energ DENC   =   -291532.45825456
  -exchange      EXHF   =         0.00000000
  -V(xc)+E(xc)   XCENC  =      3627.26600576
  PAW double counting   =    125569.48055479  -130507.99812526
  entropy T*S    EENTRO =        -1.01171212
  eigenvalues    EBANDS =    -15190.86561726
  atomic energy  EATOM  =    136002.60505376
  Solvation  Ediel_sol  =         0.00000000
  ---------------------------------------------------
  free energy    TOTEN  =      -371.87124129 eV

  energy without entropy =     -370.85952917  energy(sigma->0) =     -371.36538523


--------------------------------------------------------------------------------------------------------




--------------------------------------- Iteration      1(  10)  ---------------------------------------


    POTLOK:  cpu time    0.0424: real time    0.0425
    SETDIJ:  cpu time    0.0049: real time    0.0049
     EDDAV:  cpu time    2.2204: real time    2.2259
       DOS:  cpu time    0.0006: real time    0.0006
    CHARGE:  cpu time    0.0382: real time    0.0383
    MIXING:  cpu time    0.0019: real time    0.0019
    --------------------------------------------
      LOOP:  cpu time    2.3084: real time    2.3140

 eigenvalue-minimisations  :  1328
 total energy-change (2. order) :-0.9364786E+01  (-0.5181827E+01)
 number of electron     792.0000120 magnetization 
 augmentation part      305.9849286 magnetization 

 Broyden mixing:
  rms(total) = 0.74534E+01    rms(broyden)= 0.74483E+01
  rms(prec ) = 0.84988E+01
  weight for this iteration     100.00

 eigenvalues of (default mixing * dielectric matrix)
  average eigenvalue GAMMA=   0.6031
  1.9629  0.4173  0.4173  0.1088  0.1088

 Free energy of the ion-electron system (eV)
  ---------------------------------------------------
  alpha Z        PSCENC =      1893.09323658
  Ewald energy   TEWEN  =    169768.01761702
  -Hartree energ DENC   =   -291598.55339143
  -exchange      EXHF   =         0.00000000
  -V(xc)+E(xc)   XCENC  =      3626.04885752
  PAW double counting   =    128027.57582399  -132985.68925233
  entropy T*S    EENTRO =        -1.42633773
  eigenvalues    EBANDS =    -15112.90763501
  atomic energy  EATOM  =    136002.60505376
  Solvation  Ediel_sol  =         0.00000000
  ---------------------------------------------------
  free energy    TOTEN  =      -381.23602763 eV

  energy without entropy =     -379.80968991  energy(sigma->0) =     -380.52285877


--------------------------------------------------------------------------------------------------------




--------------------------------------- Iteration      1(  11)  ---------------------------------------


    POTLOK:  cpu time    0.0424: real time    0.0425
    SETDIJ:  cpu time    0.0048: real time    0.0049
     EDDAV:  cpu time    2.2150: real time    2.2203
       DOS:  cpu time    0.0006: real time    0.0006
    CHARGE:  cpu time    0.0395: real time    0.0396
    MIXING:  cpu time    0.0019: real time    0.0019
    --------------------------------------------
      LOOP:  cpu time    2.3043: real time    2.3098

 eigenvalue-minimisations  :  1328
 total energy-change (2. order) : 0.9759659E+01  (-0.4483607E+01)
 number of electron     792.0000113 magnetization 
 augmentation part      311.3321954 magnetization 

 Broyden mixing:
  rms(total) = 0.47784E+01    rms(broyden)= 0.47742E+01
  rms(prec ) = 0.54923E+01
  weight for this iteration     100.00

 eigenvalues of (default mixing * dielectric matrix)
  average eigenvalue GAMMA=   0.5508
  2.0769  0.4154  0.4154  0.1874  0.1166  0.0932

 Free energy of the ion-electron system (eV)
  ---------------------------------------------------
  alpha Z        PSCENC =      1893.09323658
  Ewald energy   TEWEN  =    169768.01761702
  -Hartree energ DENC   =   -291473.53621362
  -exchange      EXHF   =         0.00000000
  -V(xc)+E(xc)   XCENC  =      3622.43548065
  PAW double counting   =    131708.51026758  -136688.72602765
  entropy T*S    EENTRO =        -0.99630833
  eigenvalues    EBANDS =    -15202.87947444
  atomic energy  EATOM  =    136002.60505376
  Solvation  Ediel_sol  =         0.00000000
  ---------------------------------------------------
  free energy    TOTEN  =      -371.47636846 eV

  energy without entropy =     -370.48006013  energy(sigma->0) =     -370.97821429


--------------------------------------------------------------------------------------------------------




--------------------------------------- Iteration      1(  12)  ---------------------------------------


    POTLOK:  cpu time    0.0426: real time    0.0427
    SETDIJ:  cpu time    0.0048: real time    0.0048
     EDDAV:  cpu time    2.1570: real time    2.1623
       DOS:  cpu time    0.0006: real time    0.0006
    CHARGE:  cpu time    0.0395: real time    0.0396
    MIXING:  cpu time    0.0021: real time    0.0021
    --------------------------------------------
      LOOP:  cpu time    2.2466: real time    2.2520

 eigenvalue-minimisations  :  1280
 total energy-change (2. order) : 0.7297809E+01  (-0.2269800E+01)
 number of electron     792.0000127 magnetization 
 augmentation part      313.2874304 magnetization 

 Broyden mixing:
  rms(total) = 0.28009E+01    rms(broyden)= 0.27973E+01
  rms(prec ) = 0.31790E+01
  weight for this iteration     100.00

 eigenvalues of (default mixing * dielectric matrix)
  average eigenvalue GAMMA=   0.5301
  2.0720  0.4267  0.4267  0.4371  0.0989  0.1248  0.1248

 Free energy of the ion-electron system (eV)
  ---------------------------------------------------
  alpha Z        PSCENC =      1893.09323658
  Ewald energy   TEWEN  =    169768.01761702
  -Hartree energ DENC   =   -291454.99271563
  -exchange      EXHF   =         0.00000000
  -V(xc)+E(xc)   XCENC  =      3621.99423436
  PAW double counting   =    132336.09857661  -137321.54846876
  entropy T*S    EENTRO =        -0.92535902
  eigenvalues    EBANDS =    -15208.52073446
  atomic energy  EATOM  =    136002.60505376
  Solvation  Ediel_sol  =         0.00000000
  ---------------------------------------------------
  free energy    TOTEN  =      -364.17855955 eV

  energy without entropy =     -363.25320053  energy(sigma->0) =     -363.71588004


--------------------------------------------------------------------------------------------------------




--------------------------------------- Iteration      1(  13)  ---------------------------------------


    POTLOK:  cpu time    0.0435: real time    0.0452
    SETDIJ:  cpu time    0.0043: real time    0.0061
     EDDAV:  cpu time    2.1056: real time    2.1106
       DOS:  cpu time    0.0006: real time    0.0006
    CHARGE:  cpu time    0.0394: real time    0.0395
    MIXING:  cpu time    0.0021: real time    0.0021
    --------------------------------------------
      LOOP:  cpu time    2.1955: real time    2.2041

 eigenvalue-minimisations  :  1248
 total energy-change (2. order) :-0.1194605E+01  (-0.1388353E+01)
 number of electron     792.0000135 magnetization 
 augmentation part      311.9086488 magnetization 

 Broyden mixing:
  rms(total) = 0.52103E+01    rms(broyden)= 0.52081E+01
  rms(prec ) = 0.61787E+01
  weight for this iteration     100.00

 eigenvalues of (default mixing * dielectric matrix)
  average eigenvalue GAMMA=   0.5016
  2.0977  0.5947  0.4403  0.4403  0.1251  0.1251  0.0998  0.0898

 Free energy of the ion-electron system (eV)
  ---------------------------------------------------
  alpha Z        PSCENC =      1893.09323658
  Ewald energy   TEWEN  =    169768.01761702
  -Hartree energ DENC   =   -291463.53222495
  -exchange      EXHF   =         0.00000000
  -V(xc)+E(xc)   XCENC  =      3622.56516575
  PAW double counting   =    132313.58564821  -137301.48552538
  entropy T*S    EENTRO =        -1.04687607
  eigenvalues    EBANDS =    -15199.17525901
  atomic energy  EATOM  =    136002.60505376
  Solvation  Ediel_sol  =         0.00000000
  ---------------------------------------------------
  free energy    TOTEN  =      -365.37316410 eV

  energy without entropy =     -364.32628803  energy(sigma->0) =     -364.84972607


--------------------------------------------------------------------------------------------------------




--------------------------------------- Iteration      1(  14)  ---------------------------------------


    POTLOK:  cpu time    0.0425: real time    0.0426
    SETDIJ:  cpu time    0.0049: real time    0.0049
     EDDAV:  cpu time    2.1430: real time    2.1495
       DOS:  cpu time    0.0006: real time    0.0006
    CHARGE:  cpu time    0.0400: real time    0.0401
    MIXING:  cpu time    0.0024: real time    0.0024
    --------------------------------------------
      LOOP:  cpu time    2.2335: real time    2.2402

 eigenvalue-minimisations  :  1256
 total energy-change (2. order) : 0.2546795E+01  (-0.2530675E+01)
 number of electron     792.0000133 magnetization 
 augmentation part      313.4811430 magnetization 

 Broyden mixing:
  rms(total) = 0.25640E+01    rms(broyden)= 0.25622E+01
  rms(prec ) = 0.28689E+01
  weight for this iteration     100.00

 eigenvalues of (default mixing * dielectric matrix)
  average eigenvalue GAMMA=   0.4749
  2.0514  0.7176  0.4481  0.4481  0.1705  0.1332  0.1332  0.0950  0.0768

 Free energy of the ion-electron system (eV)
  ---------------------------------------------------
  alpha Z        PSCENC =      1893.09323658
  Ewald energy   TEWEN  =    169768.01761702
  -Hartree energ DENC   =   -291461.22292271
  -exchange      EXHF   =         0.00000000
  -V(xc)+E(xc)   XCENC  =      3622.28228357
  PAW double counting   =    132381.43127872  -137369.75854910
  entropy T*S    EENTRO =        -0.90333948
  eigenvalues    EBANDS =    -15198.37102766
  atomic energy  EATOM  =    136002.60505376
  Solvation  Ediel_sol  =         0.00000000
  ---------------------------------------------------
  free energy    TOTEN  =      -362.82636929 eV

  energy without entropy =     -361.92302982  energy(sigma->0) =     -362.37469956


--------------------------------------------------------------------------------------------------------




--------------------------------------- Iteration      1(  15)  ---------------------------------------


    POTLOK:  cpu time    0.0434: real time    0.0445
    SETDIJ:  cpu time    0.0044: real time    0.0062
     EDDAV:  cpu time    2.1498: real time    2.1549
       DOS:  cpu time    0.0006: real time    0.0006
    CHARGE:  cpu time    0.0395: real time    0.0396
    MIXING:  cpu time    0.0024: real time    0.0024
    --------------------------------------------
      LOOP:  cpu time    2.2401: real time    2.2481

 eigenvalue-minimisations  :  1280
 total energy-change (2. order) : 0.2984184E+01  (-0.3641530E+00)
 number of electron     792.0000118 magnetization 
 augmentation part      313.3757382 magnetization 

 Broyden mixing:
  rms(total) = 0.17597E+01    rms(broyden)= 0.17584E+01
  rms(prec ) = 0.19884E+01
  weight for this iteration     100.00

 eigenvalues of (default mixing * dielectric matrix)
  average eigenvalue GAMMA=   0.4641
  2.0456  0.5913  0.5913  0.4134  0.4134  0.1490  0.1269  0.1269  0.0985  0.0845

 Free energy of the ion-electron system (eV)
  ---------------------------------------------------
  alpha Z        PSCENC =      1893.09323658
  Ewald energy   TEWEN  =    169768.01761702
  -Hartree energ DENC   =   -291479.52638053
  -exchange      EXHF   =         0.00000000
  -V(xc)+E(xc)   XCENC  =      3622.83480169
  PAW double counting   =    132213.00105691  -137202.12572657
  entropy T*S    EENTRO =        -0.88959994
  eigenvalues    EBANDS =    -15176.85224381
  atomic energy  EATOM  =    136002.60505376
  Solvation  Ediel_sol  =         0.00000000
  ---------------------------------------------------
  free energy    TOTEN  =      -359.84218490 eV

  energy without entropy =     -358.95258496  energy(sigma->0) =     -359.39738493


--------------------------------------------------------------------------------------------------------




--------------------------------------- Iteration      1(  16)  ---------------------------------------


    POTLOK:  cpu time    0.0430: real time    0.0432
    SETDIJ:  cpu time    0.0049: real time    0.0049
     EDDAV:  cpu time    2.2086: real time    2.2139
       DOS:  cpu time    0.0007: real time    0.0007
    CHARGE:  cpu time    0.0423: real time    0.0424
    MIXING:  cpu time    0.0025: real time    0.0025
    --------------------------------------------
      LOOP:  cpu time    2.3020: real time    2.3075

 eigenvalue-minimisations  :  1320
 total energy-change (2. order) : 0.3375406E+00  (-0.1633020E+00)
 number of electron     792.0000123 magnetization 
 augmentation part      312.9969472 magnetization 

 Broyden mixing:
  rms(total) = 0.16151E+01    rms(broyden)= 0.16144E+01
  rms(prec ) = 0.18536E+01
  weight for this iteration     100.00

 eigenvalues of (default mixing * dielectric matrix)
  average eigenvalue GAMMA=   0.4688
  2.0295  0.7640  0.7640  0.4186  0.4186  0.1997  0.1292  0.1292  0.1250  0.0965
  0.0830

 Free energy of the ion-electron system (eV)
  ---------------------------------------------------
  alpha Z        PSCENC =      1893.09323658
  Ewald energy   TEWEN  =    169768.01761702
  -Hartree energ DENC   =   -291493.69508608
  -exchange      EXHF   =         0.00000000
  -V(xc)+E(xc)   XCENC  =      3623.10328261
  PAW double counting   =    132095.62800608  -137083.67983333
  entropy T*S    EENTRO =        -0.95712619
  eigenvalues    EBANDS =    -15163.61979473
  atomic energy  EATOM  =    136002.60505376
  Solvation  Ediel_sol  =         0.00000000
  ---------------------------------------------------
  free energy    TOTEN  =      -359.50464428 eV

  energy without entropy =     -358.54751809  energy(sigma->0) =     -359.02608119


--------------------------------------------------------------------------------------------------------




--------------------------------------- Iteration      1(  17)  ---------------------------------------


    POTLOK:  cpu time    0.0427: real time    0.0428
    SETDIJ:  cpu time    0.0048: real time    0.0048
     EDDAV:  cpu time    2.0605: real time    2.0655
       DOS:  cpu time    0.0006: real time    0.0006
    CHARGE:  cpu time    0.0422: real time    0.0423
    MIXING:  cpu time    0.0025: real time    0.0025
    --------------------------------------------
      LOOP:  cpu time    2.1533: real time    2.1585

 eigenvalue-minimisations  :  1200
 total energy-change (2. order) : 0.6501673E+00  (-0.8419575E-01)
 number of electron     792.0000120 magnetization 
 augmentation part      312.7066074 magnetization 

 Broyden mixing:
  rms(total) = 0.13362E+01    rms(broyden)= 0.13358E+01
  rms(prec ) = 0.15154E+01
  weight for this iteration     100.00

 eigenvalues of (default mixing * dielectric matrix)
  average eigenvalue GAMMA=   0.4836
  2.0418  0.8986  0.8986  0.4236  0.4236  0.3935  0.1643  0.1277  0.1277  0.1229
  0.0980  0.0829

 Free energy of the ion-electron system (eV)
  ---------------------------------------------------
  alpha Z        PSCENC =      1893.09323658
  Ewald energy   TEWEN  =    169768.01761702
  -Hartree energ DENC   =   -291508.55885181
  -exchange      EXHF   =         0.00000000
  -V(xc)+E(xc)   XCENC  =      3623.34271581
  PAW double counting   =    131942.76015667  -136929.15044353
  entropy T*S    EENTRO =        -0.91265282
  eigenvalues    EBANDS =    -15150.05130870
  atomic energy  EATOM  =    136002.60505376
  Solvation  Ediel_sol  =         0.00000000
  ---------------------------------------------------
  free energy    TOTEN  =      -358.85447702 eV

  energy without entropy =     -357.94182420  energy(sigma->0) =     -358.39815061


--------------------------------------------------------------------------------------------------------




--------------------------------------- Iteration      1(  18)  ---------------------------------------


    POTLOK:  cpu time    0.0431: real time    0.0432
    SETDIJ:  cpu time    0.0048: real time    0.0048
     EDDAV:  cpu time    2.2081: real time    2.2133
       DOS:  cpu time    0.0006: real time    0.0006
    CHARGE:  cpu time    0.0422: real time    0.0423
    MIXING:  cpu time    0.0026: real time    0.0026
    --------------------------------------------
      LOOP:  cpu time    2.3014: real time    2.3069

 eigenvalue-minimisations  :  1320
 total energy-change (2. order) : 0.2701556E+00  (-0.5080662E-01)
 number of electron     792.0000122 magnetization 
 augmentation part      312.5227661 magnetization 

 Broyden mixing:
  rms(total) = 0.12487E+01    rms(broyden)= 0.12483E+01
  rms(prec ) = 0.14084E+01
  weight for this iteration     100.00

 eigenvalues of (default mixing * dielectric matrix)
  average eigenvalue GAMMA=   0.5032
  2.0493  1.1224  1.1224  0.4957  0.4382  0.4382  0.1752  0.1528  0.1257  0.1257
  0.0828  0.0974  0.1152

 Free energy of the ion-electron system (eV)
  ---------------------------------------------------
  alpha Z        PSCENC =      1893.09323658
  Ewald energy   TEWEN  =    169768.01761702
  -Hartree energ DENC   =   -291514.31299589
  -exchange      EXHF   =         0.00000000
  -V(xc)+E(xc)   XCENC  =      3623.41961309
  PAW double counting   =    131829.83582294  -136814.31703129
  entropy T*S    EENTRO =        -0.95956045
  eigenvalues    EBANDS =    -15145.96607720
  atomic energy  EATOM  =    136002.60505376
  Solvation  Ediel_sol  =         0.00000000
  ---------------------------------------------------
  free energy    TOTEN  =      -358.58432145 eV

  energy without entropy =     -357.62476101  energy(sigma->0) =     -358.10454123


--------------------------------------------------------------------------------------------------------




--------------------------------------- Iteration      1(  19)  ---------------------------------------


    POTLOK:  cpu time    0.0426: real time    0.0429
    SETDIJ:  cpu time    0.0048: real time    0.0049
     EDDAV:  cpu time    2.2003: real time    2.2056
       DOS:  cpu time    0.0006: real time    0.0006
    CHARGE:  cpu time    0.0422: real time    0.0423
    MIXING:  cpu time    0.0028: real time    0.0028
    --------------------------------------------
      LOOP:  cpu time    2.2933: real time    2.2990

 eigenvalue-minimisations  :  1312
 total energy-change (2. order) : 0.3899232E+00  (-0.4343166E-01)
 number of electron     792.0000121 magnetization 
 augmentation part      312.5005220 magnetization 

 Broyden mixing:
  rms(total) = 0.97775E+00    rms(broyden)= 0.97731E+00
  rms(prec ) = 0.11086E+01
  weight for this iteration     100.00

 eigenvalues of (default mixing * dielectric matrix)
  average eigenvalue GAMMA=   0.5003
  2.0483  1.2218  1.2218  0.4990  0.4484  0.4484  0.2681  0.1664  0.1284  0.1284
  0.0829  0.0979  0.1268  0.1169

 Free energy of the ion-electron system (eV)
  ---------------------------------------------------
  alpha Z        PSCENC =      1893.09323658
  Ewald energy   TEWEN  =    169768.01761702
  -Hartree energ DENC   =   -291520.85446494
  -exchange      EXHF   =         0.00000000
  -V(xc)+E(xc)   XCENC  =      3623.41679823
  PAW double counting   =    131664.17039639  -136645.68639426
  entropy T*S    EENTRO =        -0.94488949
  eigenvalues    EBANDS =    -15142.01175149
  atomic energy  EATOM  =    136002.60505376
  Solvation  Ediel_sol  =         0.00000000
  ---------------------------------------------------
  free energy    TOTEN  =      -358.19439822 eV

  energy without entropy =     -357.24950873  energy(sigma->0) =     -357.72195347


--------------------------------------------------------------------------------------------------------




--------------------------------------- Iteration      1(  20)  ---------------------------------------


    POTLOK:  cpu time    0.0438: real time    0.0450
    SETDIJ:  cpu time    0.0050: real time    0.0068
     EDDAV:  cpu time    2.2115: real time    2.2168
       DOS:  cpu time    0.0008: real time    0.0008
    CHARGE:  cpu time    0.0422: real time    0.0423
    MIXING:  cpu time    0.0029: real time    0.0029
    --------------------------------------------
      LOOP:  cpu time    2.3061: real time    2.3145

 eigenvalue-minimisations  :  1320
 total energy-change (2. order) : 0.1331382E+00  (-0.1920832E-01)
 number of electron     792.0000119 magnetization 
 augmentation part      312.4619443 magnetization 

 Broyden mixing:
  rms(total) = 0.86137E+00    rms(broyden)= 0.86118E+00
  rms(prec ) = 0.97414E+00
  weight for this iteration     100.00

 eigenvalues of (default mixing * dielectric matrix)
  average eigenvalue GAMMA=   0.5507
  2.0255  1.5412  1.5412  0.6353  0.6353  0.4306  0.4306  0.1762  0.1666  0.1277
  0.1277  0.0828  0.0977  0.1297  0.1131

 Free energy of the ion-electron system (eV)
  ---------------------------------------------------
  alpha Z        PSCENC =      1893.09323658
  Ewald energy   TEWEN  =    169768.01761702
  -Hartree energ DENC   =   -291523.37807248
  -exchange      EXHF   =         0.00000000
  -V(xc)+E(xc)   XCENC  =      3623.42883359
  PAW double counting   =    131567.91538988  -136548.02408153
  entropy T*S    EENTRO =        -0.96202432
  eigenvalues    EBANDS =    -15140.75721255
  atomic energy  EATOM  =    136002.60505376
  Solvation  Ediel_sol  =         0.00000000
  ---------------------------------------------------
  free energy    TOTEN  =      -358.06126005 eV

  energy without entropy =     -357.09923573  energy(sigma->0) =     -357.58024789


--------------------------------------------------------------------------------------------------------




--------------------------------------- Iteration      1(  21)  ---------------------------------------


    POTLOK:  cpu time    0.0435: real time    0.0446
    SETDIJ:  cpu time    0.0042: real time    0.0060
     EDDAV:  cpu time    2.2861: real time    2.2916
       DOS:  cpu time    0.0006: real time    0.0006
    CHARGE:  cpu time    0.0381: real time    0.0382
    MIXING:  cpu time    0.0028: real time    0.0028
    --------------------------------------------
      LOOP:  cpu time    2.3754: real time    2.3838

 eigenvalue-minimisations  :  1376
 total energy-change (2. order) : 0.2847050E+00  (-0.2094317E-01)
 number of electron     792.0000115 magnetization 
 augmentation part      312.3394550 magnetization 

 Broyden mixing:
  rms(total) = 0.58160E+00    rms(broyden)= 0.58110E+00
  rms(prec ) = 0.65016E+00
  weight for this iteration     100.00

 eigenvalues of (default mixing * dielectric matrix)
  average eigenvalue GAMMA=   0.5586
  2.0381  1.6775  1.6775  0.6998  0.6998  0.4277  0.4277  0.2798  0.1787  0.1543
  0.1277  0.1277  0.0828  0.0978  0.1282  0.1119

 Free energy of the ion-electron system (eV)
  ---------------------------------------------------
  alpha Z        PSCENC =      1893.09323658
  Ewald energy   TEWEN  =    169768.01761702
  -Hartree energ DENC   =   -291541.03870282
  -exchange      EXHF   =         0.00000000
  -V(xc)+E(xc)   XCENC  =      3623.53055896
  PAW double counting   =    131238.38337310  -136214.13844283
  entropy T*S    EENTRO =        -0.97301466
  eigenvalues    EBANDS =    -15127.25623418
  atomic energy  EATOM  =    136002.60505376
  Solvation  Ediel_sol  =         0.00000000
  ---------------------------------------------------
  free energy    TOTEN  =      -357.77655507 eV

  energy without entropy =     -356.80354042  energy(sigma->0) =     -357.29004775


--------------------------------------------------------------------------------------------------------




--------------------------------------- Iteration      1(  22)  ---------------------------------------


    POTLOK:  cpu time    0.0432: real time    0.0433
[...]
    FORCOR:  cpu time    0.0546: real time    0.0549
    FORHAR:  cpu time    0.0243: real time    0.0244
    MIXING:  cpu time    0.0045: real time    0.0045
    OFIELD:  cpu time    0.0001: real time    0.0001

  FORCE on cell =-STRESS in cart. coord.  units (eV):
  Direction    XX          YY          ZZ          XY          YZ          ZX
  --------------------------------------------------------------------------------------
  Alpha Z  1893.09324  1893.09324  1893.09324
  Ewald  219371.36139218404.12216************   786.86035  -357.76157   148.64761
  Hartree256293.81991255417.34579************   764.24407  -253.23208     9.59806
  E(xc)   -5027.05339 -5027.08566 -5031.64672    -0.29688    -0.49091     0.79316
  Local  ************************475084.94430 -1565.21355   594.67649  -130.08796
  n-local  -682.82402  -682.54290  -689.55291    -3.07810    -2.66833     3.51612
  augment  5791.64294  5790.03709  5809.21611     8.54504     7.95940   -12.02114
  Kinetic 10965.25693 10960.95088 11012.97877    13.21383    18.27736   -30.61614
  Fock        0.00000     0.00000     0.00000     0.00000     0.00000     0.00000
  -------------------------------------------------------------------------------------
  Total     -29.18356   -27.73808   -19.75049     4.27476     6.76037   -10.17029
  in kB     -23.79521   -22.61663   -16.10383     3.48549     5.51216    -8.29249
  external pressure =      -20.84 kB  Pullay stress =        0.00 kB


 VOLUME and BASIS-vectors are now :
 -----------------------------------------------------------------------------
  energy-cutoff  :      450.00
  volume of cell :     1964.98
      direct lattice vectors                 reciprocal lattice vectors
     9.425102554  3.573298043  0.000000000     0.106099641  0.000000000  0.000000000
     0.000000000 10.079732985  0.000000000    -0.037612667  0.099208977  0.000000000
     0.000000000  0.000000000 20.683503555     0.000000000  0.000000000  0.048347708

  length of vectors
    10.079732985 10.079732985 20.683503555     0.106099641  0.106099641  0.048347708


 FORCES acting on ions
    electron-ion (+dipol)            ewald-force                    non-local-force                 convergence-correction
 -----------------------------------------------------------------------------------------------
   0.169E+03 0.324E+02 0.474E+04   -.168E+03 -.271E+02 -.473E+04   0.268E+00 -.507E+01 -.952E+01   -.331E+00 0.152E+00 -.203E+00
   0.133E+03 -.267E+03 0.284E+04   -.134E+03 0.268E+03 -.285E+04   0.107E+01 -.112E+01 0.197E+01   -.754E+00 0.625E+00 0.800E+00
   0.110E+03 -.377E+03 0.800E+02   -.111E+03 0.377E+03 -.813E+02   0.116E+01 -.102E+01 0.694E+00   0.616E-01 0.706E-01 0.523E+00
   0.171E+03 -.378E+03 -.282E+04   -.172E+03 0.378E+03 0.282E+04   0.832E+00 -.577E+00 -.460E-01   -.106E+00 0.186E+00 0.103E+00
   0.275E+01 -.435E+03 -.506E+04   -.406E+01 0.428E+03 0.504E+04   0.782E+00 0.682E+01 0.131E+02   -.320E-01 0.133E+00 0.496E-01
   0.337E+03 -.489E+03 0.232E+04   -.339E+03 0.491E+03 -.232E+04   0.210E+01 -.175E+01 0.295E+01   -.645E-01 -.690E-01 0.323E+00
   0.159E+03 -.453E+03 -.943E+03   -.159E+03 0.453E+03 0.943E+03   0.618E+00 -.117E+01 0.212E+00   0.231E-01 0.769E-01 0.257E+00
   0.159E+03 -.555E+03 -.396E+04   -.160E+03 0.556E+03 0.396E+04   0.995E+00 -.155E+01 -.253E+01   0.268E-01 -.152E-01 0.108E+00
   0.604E+02 -.172E+03 -.465E+04   -.592E+02 0.175E+03 0.465E+04   -.987E+00 -.253E+01 -.333E+00   0.911E-01 -.279E+00 0.899E-02
   0.983E+02 -.722E+03 0.388E+04   -.102E+03 0.722E+03 -.389E+04   0.248E+01 0.309E+00 0.230E+01   0.343E+00 -.358E+00 0.109E+00
   0.127E+03 -.429E+03 0.102E+04   -.128E+03 0.430E+03 -.102E+04   0.108E+01 -.764E+00 0.619E+00   0.728E-02 -.644E-01 0.193E+00
   0.133E+03 -.394E+03 -.185E+04   -.133E+03 0.396E+03 0.185E+04   0.586E+00 -.147E+01 0.719E+00   -.789E-01 -.339E-01 0.115E+00
   0.357E+03 0.532E+03 0.407E+04   -.359E+03 -.534E+03 -.407E+04   0.268E+01 0.184E+01 0.126E+01   -.939E+00 -.466E+00 0.427E+00
   0.276E+03 0.427E+03 0.109E+04   -.277E+03 -.427E+03 -.109E+04   0.107E+01 0.251E+00 0.132E+00   0.416E-01 -.149E+00 0.555E+00
   0.345E+03 0.429E+03 -.187E+04   -.346E+03 -.429E+03 0.187E+04   0.895E+00 0.566E+00 0.585E-01   -.103E+00 -.839E-01 0.410E-01
   0.318E+03 0.440E+03 -.451E+04   -.317E+03 -.440E+03 0.451E+04   -.752E+00 0.294E+00 0.739E+00   -.114E+00 -.176E+00 0.335E-01
   0.469E+03 0.139E+03 0.311E+04   -.471E+03 -.138E+03 -.312E+04   0.237E+01 -.703E+00 0.304E+01   -.369E-01 -.400E-01 0.217E+00
   0.295E+03 0.402E+03 0.859E+02   -.296E+03 -.403E+03 -.867E+02   0.111E+01 0.579E+00 0.652E+00   0.102E-01 0.279E-01 0.200E+00
   0.282E+03 0.379E+03 -.279E+04   -.284E+03 -.379E+03 0.279E+04   0.132E+01 -.113E-01 -.160E+01   0.192E+00 0.376E-01 0.236E+00
   0.874E+02 0.236E+03 -.486E+04   -.925E+02 -.232E+03 0.485E+04   0.377E+01 -.322E+01 0.664E+01   -.272E-01 0.514E-01 0.691E-01
   0.661E+02 0.485E+03 -.396E+04   -.638E+02 -.487E+03 0.396E+04   -.236E+01 0.759E+00 0.509E+00   0.952E-01 0.898E-01 0.571E-01
   0.146E+03 0.421E+03 0.447E+04   -.148E+03 -.421E+03 -.447E+04   0.122E+01 -.735E+00 0.142E+01   0.320E+00 0.374E+00 -.484E-01
   0.149E+03 0.590E+03 0.210E+04   -.150E+03 -.590E+03 -.210E+04   0.118E+01 -.102E+00 0.122E+01   0.135E+00 0.234E+00 0.388E+00
   0.245E+03 0.475E+03 -.813E+03   -.246E+03 -.475E+03 0.812E+03   0.104E+01 0.544E+00 0.784E+00   -.178E-01 -.633E-01 0.253E+00
   -.642E+03 -.681E+02 -.380E+04   0.641E+03 0.655E+02 0.380E+04   0.933E+00 0.179E+01 -.492E-01   0.184E+00 0.416E-01 -.295E-01
   -.746E+03 0.239E+03 0.477E+04   0.738E+03 -.236E+03 -.477E+04   0.778E+01 -.321E+01 -.439E+01   0.890E-01 0.880E-01 0.459E-01
   -.597E+03 -.265E+02 0.225E+04   0.601E+03 0.273E+02 -.225E+04   -.334E+01 -.512E+00 0.259E+01   0.331E+00 -.149E+00 0.793E+00
   -.484E+03 -.150E+02 -.780E+03   0.484E+03 0.149E+02 0.779E+03   -.281E+00 -.291E-01 0.177E+01   0.211E-01 0.323E-01 0.502E-01
   -.188E+03 -.250E+03 0.394E+04   0.190E+03 0.252E+03 -.395E+04   -.170E+01 -.121E+01 0.486E+01   -.189E+00 -.737E-01 0.263E+00
   -.450E+03 -.247E+02 0.107E+04   0.451E+03 0.252E+02 -.107E+04   -.711E+00 -.410E+00 0.114E+01   0.921E-01 0.134E-01 0.347E+00
   -.447E+03 -.197E+02 -.182E+04   0.448E+03 0.204E+02 0.182E+04   -.108E+01 -.688E+00 0.467E+00   -.507E-01 -.678E-02 0.172E+00
   -.377E+03 -.487E+02 -.456E+04   0.371E+03 0.509E+02 0.456E+04   0.563E+01 -.167E+01 0.560E+01   -.238E+00 -.130E+00 0.860E-01
   -.486E+03 0.209E+03 0.304E+04   0.487E+03 -.209E+03 -.304E+04   -.108E+01 0.197E+00 0.231E+01   -.236E+00 0.125E+00 0.151E+00
   -.465E+03 0.705E+02 0.177E+03   0.466E+03 -.700E+02 -.178E+03   -.924E+00 -.410E+00 0.862E+00   -.339E-01 -.631E-01 0.274E+00
   -.525E+03 0.190E+03 -.295E+04   0.527E+03 -.192E+03 0.295E+04   -.188E+01 0.104E+01 -.194E+01   -.160E+00 -.104E+00 0.207E+00
   -.427E+03 -.114E+03 0.499E+04   0.420E+03 0.110E+03 -.497E+04   0.702E+01 0.359E+01 -.120E+02   0.803E-01 -.839E-02 -.316E-01
   -.912E+02 0.272E+02 -.184E+04   0.917E+02 -.265E+02 0.185E+04   -.114E+01 0.449E+00 -.385E+01   0.498E-01 -.604E-01 0.467E-01
   -.705E+02 0.103E+03 0.144E+04   0.706E+02 -.104E+03 -.144E+04   -.173E+00 0.188E+01 -.553E-01   0.770E-01 -.393E+00 0.334E+00
   -.382E+02 0.105E+03 0.336E+03   0.383E+02 -.107E+03 -.337E+03   -.100E+00 0.201E+01 0.173E+01   0.244E-01 -.493E-01 0.752E-01
   -.330E+02 0.117E+03 -.756E+03   0.334E+02 -.119E+03 0.754E+03   -.437E+00 0.213E+01 0.200E+01   -.151E-01 -.376E-01 -.655E-02
   0.203E+03 -.180E+03 0.188E+04   -.206E+03 0.182E+03 -.189E+04   0.286E+01 -.312E+01 0.379E+01   -.335E-01 -.627E-01 -.432E-01
   -.832E+01 0.105E+03 0.101E+04   0.912E+01 -.107E+03 -.101E+04   -.808E+00 0.178E+01 0.136E+01   -.508E-01 0.431E-01 0.109E+00
   -.347E+02 0.124E+03 -.466E+02   0.355E+02 -.127E+03 0.458E+02   -.713E+00 0.203E+01 0.797E+00   0.485E-01 0.247E-01 0.114E+00
   -.391E+02 0.117E+03 -.111E+04   0.393E+02 -.118E+03 0.111E+04   0.327E+00 0.155E+01 0.249E+01   -.473E-01 0.361E-01 0.134E+00
   -.280E+02 0.174E+03 0.768E+03   0.284E+02 -.176E+03 -.769E+03   -.373E+00 0.133E+01 0.100E+01   -.325E-01 -.199E-01 0.726E-01
   -.445E+02 0.135E+03 -.419E+03   0.452E+02 -.137E+03 0.417E+03   -.511E+00 0.222E+01 0.147E+01   -.138E-01 -.208E-01 0.176E+00
   -.818E+02 0.436E+02 -.172E+04   0.827E+02 -.431E+02 0.173E+04   -.139E+01 0.383E+00 -.445E+01   -.550E-01 0.154E-01 -.121E-02
   -.169E+03 0.407E+03 0.171E+04   0.171E+03 -.413E+03 -.171E+04   -.274E+01 0.652E+01 0.191E+01   0.718E-01 0.165E+00 0.245E-01
   -.833E+02 -.260E+02 0.183E+04   0.843E+02 0.254E+02 -.183E+04   -.533E+00 -.387E+00 0.109E+01   -.225E+00 0.464E+00 -.173E+00
   -.147E+03 -.107E+03 0.980E+03   0.148E+03 0.110E+03 -.980E+03   -.115E+01 -.263E+01 0.964E-02   0.153E+00 0.209E+00 0.528E+00
   -.900E+02 -.145E+03 -.948E+02   0.912E+02 0.148E+03 0.950E+02   -.114E+01 -.212E+01 -.660E-01   -.510E-02 0.269E-01 0.663E-01
   -.118E+03 -.160E+03 -.120E+04   0.119E+03 0.161E+03 0.120E+04   -.100E+01 -.216E+01 0.166E+01   0.886E-01 0.141E+00 0.389E-02
   0.193E+03 -.112E+03 0.178E+04   -.196E+03 0.113E+03 -.179E+04   0.351E+01 -.115E+01 0.427E+01   -.102E+00 -.644E-01 0.431E-01
   -.464E+02 -.170E+03 0.611E+03   0.477E+02 0.172E+03 -.612E+03   -.135E+01 -.242E+01 0.597E+00   -.331E-01 -.389E-01 0.135E+00
   -.612E+02 -.166E+03 -.514E+03   0.627E+02 0.168E+03 0.515E+03   -.149E+01 -.210E+01 -.622E+00   -.634E-02 -.480E-01 0.846E-01
   0.245E+02 -.123E+03 -.162E+04   -.245E+02 0.124E+03 0.163E+04   0.386E+00 -.125E+01 -.154E+01   -.786E-01 -.621E-01 0.815E-02
   -.732E+02 -.143E+03 0.242E+03   0.747E+02 0.146E+03 -.242E+03   -.137E+01 -.227E+01 0.807E+00   -.658E-01 0.234E-01 0.397E-01
   -.807E+02 -.131E+03 -.844E+03   0.819E+02 0.134E+03 0.844E+03   -.125E+01 -.292E+01 0.217E+00   0.289E-01 -.407E-01 0.992E-01
   -.527E+02 0.158E+03 -.182E+04   0.534E+02 -.160E+03 0.182E+04   -.130E+01 0.166E+01 -.300E+01   0.462E-01 0.660E-01 0.413E-01
   -.632E+02 -.226E+03 0.129E+04   0.643E+02 0.228E+03 -.129E+04   -.168E+01 -.175E+01 -.132E+01   0.162E-01 -.696E-01 0.288E-01
   0.171E+03 0.128E+03 0.161E+04   -.172E+03 -.129E+03 -.162E+04   0.167E+01 0.132E+01 0.107E+01   -.224E+00 0.991E-01 -.334E-03
   0.172E+03 0.130E+02 0.529E+03   -.174E+03 -.129E+02 -.529E+03   0.242E+01 0.188E+00 0.292E-01   -.535E-01 0.733E-03 0.238E+00
   0.175E+03 0.680E+01 -.587E+03   -.177E+03 -.663E+01 0.588E+03   0.198E+01 -.777E-01 -.130E+01   -.359E-01 0.106E-01 0.806E-01
   0.355E+03 0.231E+02 -.166E+04   -.361E+03 -.230E+02 0.166E+04   0.641E+01 -.565E-02 -.226E+01   -.989E-01 0.598E-02 0.191E-01
   0.176E+03 -.399E+02 0.186E+03   -.179E+03 0.400E+02 -.185E+03   0.284E+01 -.834E-01 -.635E+00   -.741E-03 0.254E-01 0.401E-01
   0.160E+03 -.403E+02 -.957E+03   -.162E+03 0.407E+02 0.958E+03   0.201E+01 -.252E+00 -.106E+01   0.665E-01 0.386E-01 0.671E-01
   0.183E+03 -.135E+03 -.190E+04   -.187E+03 0.136E+03 0.190E+04   0.390E+01 -.139E+01 -.376E+01   0.111E+00 -.574E-01 0.431E-01
   0.115E+03 -.134E+03 0.154E+04   -.117E+03 0.135E+03 -.155E+04   0.152E+01 -.161E+01 0.479E+01   0.169E+00 -.490E-01 0.159E+00
   0.158E+03 -.179E+03 0.187E+04   -.158E+03 0.180E+03 -.188E+04   0.188E+01 -.107E+01 0.419E+01   0.173E-01 -.536E-01 -.560E-01
   0.151E+03 -.221E+02 0.846E+03   -.153E+03 0.223E+02 -.846E+03   0.274E+01 -.417E+00 -.244E+00   0.758E-01 0.972E-02 0.143E+00
   0.159E+03 -.479E+01 -.199E+03   -.162E+03 0.468E+01 0.200E+03   0.245E+01 0.507E-01 -.755E+00   -.419E-01 0.205E-01 0.458E-01
   0.145E+03 0.118E+02 -.128E+04   -.147E+03 -.111E+02 0.128E+04   0.276E+01 -.902E+00 -.372E+00   0.525E-01 -.822E-01 0.615E-01
 -----------------------------------------------------------------------------------------------
   -.523E+02 0.159E+02 -.461E+02   0.483E-12 0.496E-12 -.477E-11   0.539E+02 -.159E+02 0.361E+02   -.149E+01 0.243E+00 0.993E+01
 
 
 POSITION                                       TOTAL-FORCE (eV/Angst)
 -----------------------------------------------------------------------------------
      2.32602     10.40942      0.00000         0.155653      0.448222      2.046599
      3.74232      9.43171      2.62550        -0.244915      0.006380     -0.113217
      5.15862      8.45400      5.25100        -0.025140     -0.164098     -0.080382
      6.57491      7.47629      7.87651         0.076010     -0.129074      0.392980
      7.99121      6.49857     10.50201        -0.558152     -0.134307     -1.779243
      1.07272      4.55480      3.50067        -0.122179      0.154795     -0.302427
      2.48901      3.57708      6.12617        -0.008936     -0.228479     -0.103541
      3.90531      2.59937      8.75167         0.006993      0.071790      0.577700
      1.23571      7.80219      9.62684         0.376219      0.806596     -0.465073
      6.41192      4.22889      1.75033        -0.578841     -0.260445      0.229600
      7.82822      3.25118      4.37584        -0.106945      0.048040     -0.018361
      9.24452     12.35320      7.00134         0.056159     -0.202956     -0.066251
      3.36813      7.02690      1.93183        -0.572727     -0.438171      0.367820
      4.78442      6.04919      4.55733        -0.059958      0.128428     -0.030337
      6.20072      5.07148      7.18283         0.331434     -0.013383      0.170373
      7.61702      4.09377      9.80834         0.255074     -0.578162     -0.806346
      0.69852      2.14999      2.80700        -0.133132      0.063946     -0.270582
      2.11482      1.17228      5.43250         0.093127      0.110565      0.062999
      3.53112     10.27430      8.05800         0.043390     -0.058596      0.510867
      4.94741      9.29658     10.68350        -1.337574      0.342236     -1.762052
      0.86151      5.39738      8.93317         0.099517     -0.572474     -0.702321
      6.03773     11.90382      1.05666        -0.471056      0.215652      0.436946
      7.45403     10.92611      3.68216        -0.025565      0.063096     -0.178221
      8.87032      9.94839      6.30767         0.092400      0.014392      0.012036
      0.30789      1.72287      9.11466        -0.287310     -0.804897     -0.427095
      5.48410      8.22931      1.23816        -0.252454      0.190617      1.160270
      6.90040      7.25159      3.86366         0.131882      0.094931     -0.317044
      8.31669      6.27388      6.48916        -0.059267     -0.139091     -0.048584
      2.81450      3.35239      2.11332         0.070187      0.191800     -0.439361
      4.23080      2.37468      4.73883        -0.071356      0.031984     -0.047015
      5.64709     11.47670      7.36433         0.182634      0.054577      0.169634
      7.06339     10.49899      9.98983        -0.662431      0.480184     -1.703422
      0.14490      8.55521      2.98849        -0.187923      0.165439     -0.333921
      1.56119      7.57750      5.61399        -0.061448     -0.051730     -0.030225
      2.97749      6.59979      8.23950        -0.033438     -0.155674      0.505753
      8.15370     13.10622      0.36299         0.240926     -0.582005      2.033163
      0.34500      9.75890     10.30158        -0.625229      1.041410      0.328093
      5.52122      6.18560      2.42507        -0.011610      0.227560     -1.542242
      6.93751      5.20789      5.05057        -0.050041      0.054358      0.055865
      8.35381      4.23018      7.67607        -0.097418      0.279148      0.023901
      1.43532      2.28640      0.67473         0.459357     -1.212646     -0.469140
      2.85162      1.30869      3.30024        -0.059762      0.198229     -0.143930
      4.26791     10.41071      5.92574         0.049114     -0.018648      0.148301
      5.68421      9.43299      8.55124         0.465938      0.150471      1.089894
      0.18201      6.51150      4.17540        -0.011892      0.054983     -0.150869
      1.59831      5.53379      6.80091         0.201256      0.301558      0.108533
      3.01461      4.55608      9.42641        -0.585812      0.834764      0.365877
      8.19082     11.06252      1.54990        -0.786479      0.706384     -1.403440
      4.58141     10.22551      0.68287         0.190247     -0.528891     -0.592925
      5.99770      9.24779      3.30837        -0.102028     -0.209264     -0.031201
      7.41400      8.27008      5.93387         0.050106      0.073399      0.187860
      8.83030      7.29237      8.55937         0.452776     -0.143541      1.583556
      1.91180      5.34859      1.55803         0.796850      0.164895      0.294442
      3.32810      4.37088      4.18354        -0.109867     -0.103705      0.055505
      4.74440      3.39317      6.80904        -0.039308     -0.035640      0.060139
      6.16069      2.41545      9.43454         0.279218     -0.418854      0.709892
      0.65850      9.57370      5.05870         0.052016      0.054247      0.148153
      2.07479      8.59599      7.68420         0.041937     -0.309519      0.003025
      3.49109      7.61827     10.30971        -0.569556     -0.071689      0.124999
      8.66731      4.04498      2.43320        -0.531737      0.292467     -0.927177
      1.88700      8.69441      1.56616         0.528576      0.179612     -0.844281
      3.30330      7.71670      4.19167         0.294357      0.287361      0.102384
      4.71960      6.73898      6.81717         0.113502      0.101895     -0.022196
      6.13589      5.76127      9.44267         0.623492      0.094291      0.667786
      0.63370      2.83978      5.06683         0.042945      0.079325     -0.193674
      2.04999      1.86207      7.69234         0.094064      0.140246      0.139616
      3.46629     10.96409     10.31784         0.431626     -0.421170     -0.579183
      8.64250      7.39079      2.44133         0.058036     -0.175911      0.381851
      4.55661      3.49159      0.69100         1.107116     -0.380733      0.344572
      5.97290      2.51388      3.31650         0.388408     -0.124869      0.204790
      7.38920     11.61590      5.94200         0.134614     -0.038531     -0.023316
      8.80549     10.63819      8.56750         0.374330     -0.293118      1.142817
 -----------------------------------------------------------------------------------
    total drift:                                0.120593      0.194985     -0.070451


--------------------------------------------------------------------------------------------------------



  FREE ENERGIE OF THE ION-ELECTRON SYSTEM (eV)
  ---------------------------------------------------
  free  energy   TOTEN  =      -357.61259071 eV

  energy  without entropy=     -356.61785336  energy(sigma->0) =     -357.11522204
 


--------------------------------------------------------------------------------------------------------


    POTLOK:  cpu time    0.0474: real time    0.0486


--------------------------------------------------------------------------------------------------------


     LOOP+:  cpu time   71.3705: real time   71.6331
    4ORBIT:  cpu time    0.0000: real time    0.0000

 total amount of memory used by VASP MPI-rank0    45301. kBytes
=======================================================================

   base      :      30000. kBytes
   nonlr-proj:       2287. kBytes
   fftplans  :       3383. kBytes
   grid      :       6052. kBytes
   one-center:         93. kBytes
   wavefun   :       3486. kBytes
 
  
  
 General timing and accounting informations for this job:
 ========================================================
  
                  Total CPU time used (sec):       73.455
                            User time (sec):       72.771
                          System time (sec):        0.683
                         Elapsed time (sec):       74.121
  
                   Maximum memory used (kb):      223348.
                   Average memory used (kb):           0.
  
                          Minor page faults:        75856
                          Major page faults:            0
                 Voluntary context switches:         1003
