 vasp.5.4.4.18Apr17-6-g9f103f2a35 (build Aug 13 2019 17:33:20) gamma-only       
  
 executed on             LinuxIFC date 2020.05.12  01:29:31
 running on   12 total cores
 distrk:  each k-point on   12 cores,    1 groups
 distr:  one band on NCORES_PER_BAND=   6 cores,    2 groups


--------------------------------------------------------------------------------------------------------


 INCAR:
 POTCAR:    PAW_PBE Ni_pv 06Sep2000               
 POTCAR:    PAW_PBE S 06Sep2000                   
 POTCAR:    PAW_PBE Ni_pv 06Sep2000               
   VRHFIN =Ni:                                                                  
   LEXCH  = PE                                                                  
   EATOM  =  3501.1230 eV,  257.3253 Ry                                         
                                                                                
   TITEL  = PAW_PBE Ni_pv 06Sep2000                                             
   LULTRA =        F    use ultrasoft PP ?                                      
   IUNSCR =        1    unscreen: 0-lin 1-nonlin 2-no                           
   RPACOR =    1.500    partial core radius                                     
   POMASS =   58.690; ZVAL   =   16.000    mass and valenz                      
   RCORE  =    2.000    outmost cutoff radius                                   
   RWIGS  =    2.000; RWIGS  =    1.058    wigner-seitz radius (au A)           
   ENMAX  =  367.986; ENMIN  =  275.989 eV                                      
   RCLOC  =    1.301    cutoff for local pot                                    
   LCOR   =        T    correct aug charges                                     
   LPAW   =        T    paw PP                                                  
   EAUG   =  703.443                                                            
   DEXC   =    0.000                                                            
   RMAX   =    2.041    core radius for proj-oper                               
   RAUG   =    1.300    factor for augmentation sphere                          
   RDEP   =    2.103    radius for radial grids                                 
   RDEPT  =    1.618    core radius for aug-charge                              
                                                                                
   Atomic configuration                                                         
    8 entries                                                                   
     n  l   j            E        occ.                                          
     1  0  0.50     -8206.4253   2.0000                                         
     2  0  0.50      -976.1748   2.0000                                         
     2  1  1.50      -839.0571   6.0000                                         
     3  0  0.50      -105.9991   2.0000                                         
     3  1  1.50       -66.4603   6.0000                                         
     3  2  2.50        -4.6458   9.0000                                         
     4  0  0.50        -4.4926   1.0000                                         
     4  3  2.50        -1.3606   0.0000                                         
   Description                                                                  
     l       E           TYP  RCUT    TYP  RCUT                                 
     1    -66.4602962     23  1.700                                             
     1     -1.3605826     23  1.700                                             
     2     -4.6457867     23  2.000                                             
     2     -6.0063693     23  2.000                                             
     0     -4.4925576     23  1.900                                             
     0     16.3626226     23  1.900                                             
  local pseudopotential read in
  partial core-charges read in
  partial kinetic energy density read in
  atomic valenz-charges read in
  non local Contribution for L=           1  read in
    real space projection operators read in
  non local Contribution for L=           1  read in
    real space projection operators read in
  non local Contribution for L=           2  read in
    real space projection operators read in
  non local Contribution for L=           2  read in
    real space projection operators read in
  non local Contribution for L=           0  read in
    real space projection operators read in
  non local Contribution for L=           0  read in
    real space projection operators read in
    PAW grid and wavefunctions read in
 
   number of l-projection  operators is LMAX  =           6
   number of lm-projection operators is LMMAX =          18
 
 POTCAR:    PAW_PBE S 06Sep2000                   
   VRHFIN =S : s2p4                                                             
   LEXCH  = PE                                                                  
   EATOM  =   276.8230 eV,   20.3459 Ry                                         
                                                                                
   TITEL  = PAW_PBE S 06Sep2000                                                 
   LULTRA =        F    use ultrasoft PP ?                                      
   IUNSCR =        1    unscreen: 0-lin 1-nonlin 2-no                           
   RPACOR =    1.500    partial core radius                                     
   POMASS =   32.066; ZVAL   =    6.000    mass and valenz                      
   RCORE  =    1.900    outmost cutoff radius                                   
   RWIGS  =    2.200; RWIGS  =    1.164    wigner-seitz radius (au A)           
   ENMAX  =  258.689; ENMIN  =  194.016 eV                                      
   ICORE  =        2    local potential                                         
   LCOR   =        T    correct aug charges                                     
   LPAW   =        T    paw PP                                                  
   EAUG   =  335.092                                                            
   DEXC   =    0.000                                                            
   RMAX   =    1.942    core radius for proj-oper                               
   RAUG   =    1.300    factor for augmentation sphere                          
   RDEP   =    1.954    radius for radial grids                                 
   RDEPT  =    1.744    core radius for aug-charge                              
                                                                                
   Atomic configuration                                                         
    6 entries                                                                   
     n  l   j            E        occ.                                          
     1  0  0.50     -2405.8406   2.0000                                         
     2  0  0.50      -211.7007   2.0000                                         
     2  1  1.50      -156.4958   6.0000                                         
     3  0  0.50       -17.2562   2.0000                                         
     3  1  0.50        -7.0085   4.0000                                         
     3  2  1.50        -6.8029   0.0000                                         
   Description                                                                  
     l       E           TYP  RCUT    TYP  RCUT                                 
     0    -17.2561641     23  1.900                                             
     0    -15.8743224     23  1.900                                             
     1     -7.0085400     23  1.900                                             
     1     -2.7779785     23  1.900                                             
     2     -6.8029130     23  1.900                                             
  local pseudopotential read in
  partial core-charges read in
  partial kinetic energy density read in
  atomic valenz-charges read in
  non local Contribution for L=           0  read in
    real space projection operators read in
  non local Contribution for L=           0  read in
    real space projection operators read in
  non local Contribution for L=           1  read in
    real space projection operators read in
  non local Contribution for L=           1  read in
    real space projection operators read in
    PAW grid and wavefunctions read in
 
   number of l-projection  operators is LMAX  =           4
   number of lm-projection operators is LMMAX =           8
 
 Optimization of the real space projectors (new method)

 maximal supplied QI-value         = 18.90
 optimisation between [QCUT,QGAM] = [ 10.77, 21.73] = [ 32.49,132.25] Ry 
 Optimized for a Real-space Cutoff    1.38 Angstroem

   l    n(q)    QCUT    max X(q) W(low)/X(q) W(high)/X(q)  e(spline) 
   1      8    10.771     2.836    0.40E-04    0.29E-04    0.12E-06
   1      8    10.771     4.023    0.10E-03    0.48E-04    0.29E-06
   2      8    10.771    73.368    0.42E-03    0.97E-04    0.44E-06
   2      8    10.771    69.010    0.42E-03    0.99E-04    0.45E-06
   0      9    10.771    54.797    0.10E-03    0.56E-04    0.74E-07
   0      9    10.771    24.266    0.89E-04    0.49E-04    0.67E-07
 Optimization of the real space projectors (new method)

 maximal supplied QI-value         = 19.84
 optimisation between [QCUT,QGAM] = [ 10.71, 21.63] = [ 32.15,130.99] Ry 
 Optimized for a Real-space Cutoff    1.19 Angstroem

   l    n(q)    QCUT    max X(q) W(low)/X(q) W(high)/X(q)  e(spline) 
   0      8    10.715   187.594    0.41E-03    0.53E-04    0.66E-07
   0      8    10.715   164.243    0.41E-03    0.53E-04    0.65E-07
   1      7    10.715    67.533    0.19E-03    0.59E-03    0.68E-07
   1      7    10.715    50.729    0.19E-03    0.58E-03    0.67E-07
  PAW_PBE Ni_pv 06Sep2000               :
 energy of atom  1       EATOM=-3501.1230
 kinetic energy error for atom=    0.0925 (will be added to EATOM!!)
  PAW_PBE S 06Sep2000                   :
 energy of atom  2       EATOM= -276.8230
 kinetic energy error for atom=    0.0033 (will be added to EATOM!!)
 
 
 POSCAR: Type_037 Type_137                       
  positions in cartesian coordinates
  No initial velocities read in
 exchange correlation table for  LEXCH =        8
   RHO(1)=    0.500       N(1)  =     2000
   RHO(2)=  100.500       N(2)  =     4000
 


--------------------------------------------------------------------------------------------------------


 ion  position               nearest neighbor table
   1  0.780  0.145  0.123-  51 2.08  65 2.11  42 2.25  52 2.36  66 2.36  18 2.37  13 2.40
   2  0.798  0.147  0.282-  52 2.02  66 2.05  43 2.05
   3  0.215  0.669  0.099-  44 2.02  45 2.12  53 2.17   4 2.40  63 2.48  27 2.49
   4  0.297  0.645  0.216-  64 2.13  54 2.14  45 2.25  53 2.26  63 2.26   3 2.40  28 2.53  16 2.53

   5  0.390  0.164  0.130-  47 2.04  48 2.13  55 2.17   6 2.38  69 2.43  30 2.46
   6  0.470  0.145  0.247-  70 2.10  56 2.10  48 2.25  55 2.26  69 2.26   5 2.38  31 2.53  19 2.53

   7  0.952  0.645  0.154-  68 2.07  49 2.14  58 2.15  57 2.16  67 2.24  32 2.53  20 2.53
   8  0.172  0.144  0.046-  47 2.01  73 2.05  59 2.05   9 2.44
   9  0.125  0.145  0.185-  59 2.14  73 2.16  39 2.25  10 2.36  60 2.36  74 2.36   8 2.44  34 2.53
                            22 2.53
  10  0.109  0.145  0.326-  38 2.02  74 2.12  60 2.12   9 2.36
  11  0.569  0.643  0.163-  40 2.00  41 2.14  71 2.15  61 2.23  12 2.28
  12  0.642  0.645  0.278-  62 2.03  72 2.04  71 2.10  41 2.25  61 2.26  11 2.28  37 2.53  24 2.53

  13  0.908  0.040  0.110-  51 2.09  39 2.11  58 2.19  65 2.21  66 2.28  36 2.37   1 2.40
  14  0.946  0.998  0.263-  38 2.07  39 2.08  66 2.14  57 2.14
  15  0.415  0.406  0.064-  55 2.08  63 2.10  16 2.36  27 2.49  40 2.54
  16  0.425  0.513  0.192-  64 2.17  55 2.25  40 2.26  63 2.26  15 2.36  41 2.36  17 2.44   4 2.53
                            28 2.53
  17  0.465  0.466  0.330-  56 2.00  64 2.05  41 2.07  16 2.44
  18  0.698  0.950  0.101-  61 2.02  65 2.06  42 2.09   1 2.37
  19  0.597  0.013  0.222-  70 2.07  43 2.11  61 2.25  69 2.26  42 2.26  31 2.53   6 2.53
  20  0.080  0.513  0.130-  44 2.08  68 2.09  59 2.13  67 2.26  45 2.36   7 2.53  32 2.53
  21  0.102  0.495  0.281-  46 2.00  67 2.09  45 2.10  60 2.13
  22  0.252  0.013  0.161-  73 2.13  47 2.14  53 2.25  48 2.36  74 2.36   9 2.53  34 2.53
  23  0.291  0.981  0.308-  74 2.04  48 2.04  54 2.04
  24  0.770  0.513  0.253-  72 2.03  50 2.03  49 2.07  71 2.25  52 2.25  12 2.53  37 2.53
  25  0.933  0.338  0.139-  51 2.04  68 2.07  67 2.13  52 2.17  39 2.22  26 2.41
  26  0.939  0.263  0.277-  38 2.06  39 2.11  52 2.18  67 2.25  25 2.41
  27  0.358  0.646  0.063-  40 2.02  53 2.04  63 2.05  15 2.49   3 2.49
  28  0.425  0.777  0.192-  54 2.14  69 2.25  40 2.26  53 2.26  41 2.36  29 2.43   4 2.53  16 2.53

  29  0.464  0.824  0.330-  70 2.00  54 2.05  41 2.07  28 2.43
  30  0.531  0.144  0.094-  42 2.01  69 2.03  55 2.06   5 2.46
  31  0.597  0.277  0.222-  56 2.07  43 2.10  71 2.19  55 2.26  42 2.26  19 2.53   6 2.53
  32  0.080  0.777  0.130-  44 2.05  73 2.12  57 2.22  58 2.27  45 2.36   7 2.53  20 2.53
  33  0.109  0.790  0.289-  46 2.00  57 2.06  45 2.08  74 2.11
  34  0.252  0.277  0.161-  59 2.15  47 2.16  63 2.25  48 2.36  60 2.36   9 2.53  22 2.53
  35  0.291  0.312  0.307-  64 2.04  48 2.04  60 2.05
  36  0.837  0.828  0.119-  49 2.04  65 2.07  58 2.12  66 2.15  13 2.37
  37  0.770  0.777  0.253-  50 2.03  62 2.03  49 2.22  66 2.25  61 2.26  12 2.53  24 2.53
  38  0.993  0.122  0.353-  10 2.02  26 2.06  14 2.07
  39  0.991  0.145  0.183-  14 2.08  26 2.11  13 2.11  25 2.22   9 2.25
  40  0.474  0.645  0.091-  11 2.00  27 2.02  16 2.26  28 2.26  15 2.54
  41  0.509  0.645  0.276-  29 2.07  17 2.07  11 2.14  12 2.25  28 2.36  16 2.36
  42  0.647  0.145  0.122-  30 2.01  18 2.09   1 2.25  19 2.26  31 2.26  43 2.75
  43  0.676  0.146  0.284-   2 2.05  31 2.10  19 2.11  42 2.75
  44  0.113  0.648  0.038-   3 2.02  32 2.05  20 2.08
  45  0.164  0.645  0.214-  33 2.08  21 2.10   3 2.12   4 2.25  32 2.36  20 2.36
  46  0.089  0.637  0.368-  21 2.00  33 2.00
  47  0.289  0.143  0.063-   8 2.01   5 2.04  22 2.14  34 2.16
  48  0.336  0.145  0.245-  23 2.04  35 2.04   5 2.13   6 2.25  34 2.36  22 2.36
  49  0.826  0.632  0.167-  36 2.04  24 2.07   7 2.14  37 2.22  50 2.68
  50  0.829  0.646  0.328-  37 2.03  24 2.03  72 2.68  49 2.68  62 2.76
  51  0.872  0.225  0.055-  25 2.04   1 2.08  13 2.09  65 2.61
  52  0.829  0.314  0.215-   2 2.02  25 2.17  26 2.18  24 2.25   1 2.36
  53  0.312  0.814  0.122-  27 2.04   3 2.17  22 2.25   4 2.26  28 2.26
  54  0.349  0.797  0.294-  23 2.04  29 2.05   4 2.14  28 2.14
  55  0.484  0.314  0.153-  30 2.06  15 2.08   5 2.17  16 2.25   6 2.26  31 2.26
  56  0.526  0.288  0.324-  17 2.00  31 2.07   6 2.10  70 2.73
  57  1.000  0.801  0.234-  33 2.06  14 2.14   7 2.16  32 2.22  58 2.62
  58  0.957  0.834  0.084-  36 2.12   7 2.15  13 2.19  32 2.27  57 2.62
  59  0.140  0.321  0.107-   8 2.05  20 2.13   9 2.14  34 2.15
  60  0.174  0.314  0.276-  35 2.05  10 2.12  21 2.13   9 2.36  34 2.36
  61  0.657  0.814  0.184-  18 2.02  11 2.23  19 2.25  37 2.26  12 2.26  62 2.75
  62  0.691  0.800  0.345-  37 2.03  12 2.03  61 2.75  50 2.76
  63  0.312  0.477  0.122-  27 2.05  15 2.10  34 2.25   4 2.26  16 2.26   3 2.48
  64  0.349  0.498  0.297-  35 2.04  17 2.05   4 2.13  16 2.17
  65  0.802  0.984  0.040-  18 2.06  36 2.07   1 2.11  13 2.21  51 2.61
  66  0.829  0.977  0.215-   2 2.05  14 2.14  36 2.15  37 2.25  13 2.28   1 2.36
  67  0.991  0.461  0.227-  21 2.09  25 2.13   7 2.24  26 2.25  20 2.26  68 2.72
  68  0.974  0.498  0.066-   7 2.07  25 2.07  20 2.09  67 2.72
  69  0.484  0.977  0.153-  30 2.03  28 2.25   6 2.26  19 2.26   5 2.43
  70  0.526  0.003  0.324-  29 2.00  19 2.07   6 2.10  56 2.73
  71  0.651  0.481  0.195-  12 2.10  11 2.15  31 2.19  24 2.25  72 2.67
  72  0.695  0.499  0.348-  24 2.03  12 2.04  71 2.67  50 2.68
  73  0.141  0.967  0.107-   8 2.05  32 2.12  22 2.13   9 2.16
  74  0.174  0.977  0.276-  23 2.04  33 2.11  10 2.12   9 2.36  22 2.36
 
  LATTYP: Found a simple orthorhombic cell.
 ALAT       =     9.5784100000
 B/A-ratio  =     1.7387693453
 C/A-ratio  =     1.7627867312
  
  Lattice vectors:
  
 A1 = (   0.0000000000,   9.5784100000,   0.0000000000)
 A2 = (   0.0000000000,   0.0000000000, -16.6546456851)
 A3 = ( -16.8846940542,   0.0000000000,   0.0000000000)


Analysis of symmetry for initial positions (statically):
=====================================================================
 Subroutine PRICEL returns:
 Original cell was already a primitive cell.
 

 Routine SETGRP: Setting up the symmetry group for a 
 simple orthorhombic supercell.


 Subroutine GETGRP returns: Found  1 space group operations
 (whereof  1 operations were pure point group operations)
 out of a pool of  8 trial point group operations.


The static configuration has the point symmetry C_1 .


Analysis of symmetry for dynamics (positions and initial velocities):
=====================================================================
 Subroutine PRICEL returns:
 Original cell was already a primitive cell.
 

 Routine SETGRP: Setting up the symmetry group for a 
 simple orthorhombic supercell.


 Subroutine GETGRP returns: Found  1 space group operations
 (whereof  1 operations were pure point group operations)
 out of a pool of  8 trial point group operations.


The dynamic configuration has the point symmetry C_1 .


 Subroutine INISYM returns: Found  1 space group operations
 (whereof  1 operations are pure point group operations),
 and found     1 'primitive' translations

 
 
 KPOINTS: gamma-point-only calculation. no periodi

Automatic generation of k-mesh.
Space group operators:
 irot       det(A)        alpha          n_x          n_y          n_z        tau_x        tau_y        tau_z
    1     1.000000     0.000000     1.000000     0.000000     0.000000     0.000000     0.000000     0.000000
 
 Subroutine IBZKPT returns following result:
 ===========================================
 
 Found      1 irreducible k-points:
 
 Following reciprocal coordinates:
            Coordinates               Weight
  0.000000  0.000000  0.000000      1.000000
 
 Following cartesian coordinates:
            Coordinates               Weight
  0.000000  0.000000  0.000000      1.000000
 


--------------------------------------------------------------------------------------------------------




 Dimension of arrays:
   k-points           NKPTS =      1   k-points in BZ     NKDIM =      1   number of bands    NBANDS=    488
   number of dos      NEDOS =    301   number of ions     NIONS =     74
   non local maximal  LDIM  =      6   non local SUM 2l+1 LMDIM =     18
   total plane-waves  NPLWV = 405000
   max r-space proj   IRMAX =   1708   max aug-charges    IRDMAX=   4936
   dimension x,y,z NGX =    90 NGY =   50 NGZ =   90
   dimension x,y,z NGXF=   180 NGYF=  100 NGZF=  180
   support grid    NGXF=   180 NGYF=  100 NGZF=  180
   ions per type =              37  37
   NGX,Y,Z   is equivalent  to a cutoff of   8.86,  8.68,  8.98 a.u.
   NGXF,Y,Z  is equivalent  to a cutoff of  17.72, 17.36, 17.97 a.u.

 SYSTEM =  "Millerite NiS"                         
 POSCAR =  Type_037 Type_137                       

 Startparameter for this run:
   NWRITE =      2    write-flag & timer
   PREC   = normal    normal or accurate (medium, high low for compatibility)
   ISTART =      0    job   : 0-new  1-cont  2-samecut
   ICHARG =      2    charge: 1-file 2-atom 10-const
   ISPIN  =      1    spin polarized calculation?
   LNONCOLLINEAR =      F non collinear calculations
   LSORBIT =      F    spin-orbit coupling
   INIWAV =      1    electr: 0-lowe 1-rand  2-diag
   LASPH  =      F    aspherical Exc in radial PAW
   METAGGA=      F    non-selfconsistent MetaGGA calc.

 Electronic Relaxation 1
   ENCUT  =  450.0 eV  33.07 Ry    5.75 a.u.  29.20 16.57 28.81*2*pi/ulx,y,z
   ENINI  =  450.0     initial cutoff
   ENAUG  =  703.4 eV  augmentation charge cutoff
   NELM   =    100;   NELMIN=  2; NELMDL= -5     # of ELM steps 
   EDIFF  = 0.1E-03   stopping-criterion for ELM
   LREAL  =      T    real-space projection
   NLSPLINE    = F    spline interpolate recip. space projectors
   LCOMPAT=      F    compatible to vasp.4.4
   GGA_COMPAT  = T    GGA compatible to vasp.4.4-vasp.4.6
   LMAXPAW     = -100 max onsite density
   LMAXMIX     =    2 max onsite mixed and CHGCAR
   VOSKOWN=      0    Vosko Wilk Nusair interpolation
   ROPT   =   -0.00050  -0.00050
 Ionic relaxation
   EDIFFG = 0.1E-02   stopping-criterion for IOM
   NSW    =      0    number of steps for IOM
   NBLOCK =      1;   KBLOCK =      1    inner block; outer block 
   IBRION =     -1    ionic relax: 0-MD 1-quasi-New 2-CG
   NFREE  =      0    steps in history (QN), initial steepest desc. (CG)
   ISIF   =      2    stress and relaxation
   IWAVPR =     10    prediction:  0-non 1-charg 2-wave 3-comb
   ISYM   =      2    0-nonsym 1-usesym 2-fastsym
   LCORR  =      T    Harris-Foulkes like correction to forces

   POTIM  = 0.5000    time-step for ionic-motion
   TEIN   =    0.0    initial temperature
   TEBEG  =    0.0;   TEEND  =   0.0 temperature during run
   SMASS  =  -3.00    Nose mass-parameter (am)
   estimated Nose-frequenzy (Omega)   =  0.10E-29 period in steps =****** mass=  -0.652E-26a.u.
   SCALEE = 1.0000    scale energy and forces
   NPACO  =    256;   APACO  = 16.0  distance and # of slots for P.C.
   PSTRESS=    0.0 pullay stress

  Mass of Ions in am
   POMASS =  58.69 32.07
  Ionic Valenz
   ZVAL   =  16.00  6.00
  Atomic Wigner-Seitz radii
   RWIGS  =  -1.00 -1.00
  virtual crystal weights 
   VCA    =   1.00  1.00
   NELECT =     814.0000    total number of electrons
   NUPDOWN=      -1.0000    fix difference up-down

 DOS related values:
   EMIN   =  10.00;   EMAX   =-10.00  energy-range for DOS
   EFERMI =   0.00
   ISMEAR =     0;   SIGMA  =   0.20  broadening in eV -4-tet -1-fermi 0-gaus

 Electronic relaxation 2 (details)
   IALGO  =     38    algorithm
   LDIAG  =      T    sub-space diagonalisation (order eigenvalues)
   LSUBROT=      F    optimize rotation matrix (better conditioning)
   TURBO    =      0    0=normal 1=particle mesh
   IRESTART =      0    0=no restart 2=restart with 2 vectors
   NREBOOT  =      0    no. of reboots
   NMIN     =      0    reboot dimension
   EREF     =   0.00    reference energy to select bands
   IMIX   =      4    mixing-type and parameters
     AMIX     =   0.40;   BMIX     =  1.00
     AMIX_MAG =   1.60;   BMIX_MAG =  1.00
     AMIN     =   0.10
     WC   =   100.;   INIMIX=   1;  MIXPRE=   1;  MAXMIX= -45

 Intra band minimization:
   WEIMIN = 0.0000     energy-eigenvalue tresh-hold
   EBREAK =  0.51E-07  absolut break condition
   DEPER  =   0.30     relativ break condition  

   TIME   =   0.40     timestep for ELM

  volume/ion in A,a.u.               =      36.40       245.63
  Fermi-wavevector in a.u.,A,eV,Ry     =   1.098607  2.076066 16.421374  1.206937
  Thomas-Fermi vector in A             =   2.234987
 
 Write flags
   LWAVE        =      F    write WAVECAR
   LDOWNSAMPLE  =      F    k-point downsampling of WAVECAR
   LCHARG       =      F    write CHGCAR
   LVTOT        =      F    write LOCPOT, total local potential
   LVHAR        =      F    write LOCPOT, Hartree potential only
   LELF         =      F    write electronic localiz. function (ELF)
   LORBIT       =      0    0 simple, 1 ext, 2 COOP (PROOUT), +10 PAW based schemes


 Dipole corrections
   LMONO  =      F    monopole corrections only (constant potential shift)
   LDIPOL =      F    correct potential (dipole corrections)
   IDIPOL =      0    1-x, 2-y, 3-z, 4-all directions 
   EPSILON=  1.0000000 bulk dielectric constant

 Exchange correlation treatment:
   GGA     =    --    GGA type
   LEXCH   =     8    internal setting for exchange type
   VOSKOWN=      0    Vosko Wilk Nusair interpolation
   LHFCALC =     F    Hartree Fock is set to
   LHFONE  =     F    Hartree Fock one center treatment
   AEXX    =    0.0000 exact exchange contribution

 Linear response parameters
   LEPSILON=     F    determine dielectric tensor
   LRPA    =     F    only Hartree local field effects (RPA)
   LNABLA  =     F    use nabla operator in PAW spheres
   LVEL    =     F    velocity operator in full k-point grid
   LINTERFAST=   F  fast interpolation
   KINTER  =     0    interpolate to denser k-point grid
   CSHIFT  =0.1000    complex shift for real part using Kramers Kronig
   OMEGAMAX=  -1.0    maximum frequency
   DEG_THRESHOLD= 0.2000000E-02 threshold for treating states as degnerate
   RTIME   =   -0.100 relaxation time in fs
  (WPLASMAI=    0.000 imaginary part of plasma frequency in eV, 0.658/RTIME)
   DFIELD  = 0.0000000 0.0000000 0.0000000 field for delta impulse in time
 
 Orbital magnetization related:
   ORBITALMAG=     F  switch on orbital magnetization
   LCHIMAG   =     F  perturbation theory with respect to B field
   DQ        =  0.001000  dq finite difference perturbation B field
   LLRAUG    =     F  two centre corrections for induced B field



--------------------------------------------------------------------------------------------------------


 Static calculation
 charge density and potential will be updated during run
 non-spin polarized calculation
 Variant of blocked Davidson
 Davidson routine will perform the subspace rotation
 perform sub-space diagonalisation
    after iterative eigenvector-optimisation
 modified Broyden-mixing scheme, WC =      100.0
 initial mixing is a Kerker type mixing with AMIX =  0.4000 and BMIX =      1.0000
 Hartree-type preconditioning will be used
 using additional bands           81
 real space projection scheme for non local part
 use partial core corrections
 calculate Harris-corrections to forces 
   (improved forces if not selfconsistent)
 use gradient corrections 
 use of overlap-Matrix (Vanderbilt PP)
 Gauss-broadening in eV      SIGMA  =   0.20


--------------------------------------------------------------------------------------------------------


  energy-cutoff  :      450.00
  volume of cell :     2693.53
      direct lattice vectors                 reciprocal lattice vectors
    16.884694054  0.000000000  0.000000000     0.059225237  0.000000000  0.000000000
     0.000000000  9.578410000  0.000000000     0.000000000  0.104401461  0.000000000
     0.000000000  0.000000000 16.654645685     0.000000000  0.000000000  0.060043307

  length of vectors
    16.884694054  9.578410000 16.654645685     0.059225237  0.104401461  0.060043307


 
 k-points in units of 2pi/SCALE and weight: gamma-point-only calculation. no periodi
   0.00000000  0.00000000  0.00000000       1.000
 
 k-points in reciprocal lattice and weights: gamma-point-only calculation. no periodi
   0.00000000  0.00000000  0.00000000       1.000
 
 position of ions in fractional coordinates (direct lattice) 
   0.78004630  0.14529696  0.12347080
   0.79773204  0.14678923  0.28212168
   0.21546944  0.66903648  0.09923703
   0.29733028  0.64529696  0.21607389
   0.38993745  0.16416132  0.12973575
   0.46975828  0.14529696  0.24694159
   0.95247430  0.64529696  0.15433850
   0.17154889  0.14423279  0.04634268
   0.12490229  0.14529696  0.18520619
   0.10887187  0.14489152  0.32617681
   0.56897029  0.64316749  0.16281317
   0.64218627  0.64529696  0.27780929
   0.90822016  0.04048822  0.11027052
   0.94600978  0.99787733  0.26255297
   0.41491644  0.40637080  0.06426563
   0.42486675  0.51319396  0.19160760
   0.46464361  0.46629851  0.33004772
   0.69757810  0.94951181  0.10110208
   0.59729475  0.01319396  0.22247530
   0.08001077  0.51319396  0.12987220
   0.10165006  0.49545452  0.28113793
   0.25243876  0.01319396  0.16073990
   0.29061451  0.98136302  0.30847869
   0.76972274  0.51319396  0.25334300
   0.93289646  0.33794163  0.13886561
   0.93928701  0.26252747  0.27658130
   0.35808383  0.64608353  0.06273271
   0.42486675  0.77739996  0.19160760
   0.46440520  0.82430579  0.32956035
   0.53060065  0.14359882  0.09383268
   0.59729475  0.27739996  0.22247530
   0.08001077  0.77739996  0.12987220
   0.10887742  0.78987606  0.28858615
   0.25243876  0.27739996  0.16073990
   0.29142586  0.31182372  0.30689963
   0.83666756  0.82791444  0.11872860
   0.76972274  0.77739996  0.25334300
   0.99263606  0.12197853  0.35284161
   0.99146120  0.14529696  0.18349304
   0.47417723  0.64529696  0.09088994
   0.50874518  0.64529696  0.27609614
   0.64660522  0.14529696  0.12175764
   0.67607034  0.14633806  0.28408023
   0.11300229  0.64779978  0.03755756
   0.16388920  0.64529696  0.21436074
   0.08933455  0.63720589  0.36831278
   0.28935786  0.14327067  0.06322895
   0.33631719  0.14529696  0.24522844
   0.82632949  0.63243702  0.16672057
   0.82866204  0.64562774  0.32773580
   0.87249004  0.22517788  0.05450594
   0.82906105  0.31351196  0.21464750
   0.31177707  0.81351196  0.12204440
   0.34934111  0.79658184  0.29413902
   0.48420507  0.31351196  0.15291210
   0.52644563  0.28805907  0.32373233
   0.99953061  0.80137451  0.23440505
   0.95749408  0.83352150  0.08411117
   0.13956098  0.32098444  0.10712339
   0.17391704  0.31351196  0.27638290
   0.65663306  0.81351196  0.18377980
   0.69135591  0.79998996  0.34506726
   0.31177707  0.47708196  0.12204440
   0.34933152  0.49822567  0.29658786
   0.80206701  0.98359075  0.04015964
   0.82906105  0.97708196  0.21464750
   0.99140184  0.46111511  0.22704200
   0.97361499  0.49776433  0.06600681
   0.48420507  0.97708196  0.15291210
   0.52601910  0.00252902  0.32358045
   0.65088873  0.48050233  0.19508369
   0.69498926  0.49894307  0.34849105
   0.14055265  0.96710839  0.10728185
   0.17391704  0.97708196  0.27638290
 
 position of ions in cartesian coordinates  (Angst):
  13.17084321  1.39171383  2.05636238
  13.46946146  1.40600747  4.69863660
   3.63813550  6.40830575  1.65275753
   5.02033088  6.18091883  3.59863415
   6.58397457  1.57240445  2.16070288
   7.93172477  1.39171383  4.11272475
  16.08223712  6.18091883  2.57045297
   2.89655053  1.38152080  0.77182090
   2.10893697  1.39171383  3.08454356
   1.83826825  1.38783041  5.43235920
   9.60688932  6.16052189  2.71159567
  10.84311868  6.18091883  4.62681534
  15.33501949  0.38781281  1.83651647
  15.97308578  9.55807820  4.37272669
   7.00573712  3.89238610  1.07032135
   7.17374514  4.91558213  3.19115669
   7.84536518  4.46639829  5.49682787
  11.77839278  9.09481339  1.68381940
  10.08513905  0.12637713  3.70524730
   1.35095732  4.91558213  2.16297551
   1.71633016  4.74566653  4.68225265
   4.26235123  0.12637713  2.67706610
   4.90693707  9.39989739  5.13760322
  12.99653294  4.91558213  4.21933789
  15.75167127  3.23694352  2.31275756
  15.85957380  2.51459571  4.60636360
   6.04613596  6.18845291  1.04479099
   7.17374514  7.44625552  3.19115669
   7.84133976  7.89553878  5.48871079
   8.95902963  1.37544837  1.56275000
  10.08513905  2.65705052  3.70524730
   1.35095732  7.44625552  2.16297551
   1.83836187  7.56575674  4.80630002
   4.26235123  2.65705052  2.67706610
   4.92063642  2.98677549  5.11130455
  14.12687571  7.93010392  1.97738269
  12.99653294  7.44625552  4.21933789
  16.76035614  1.16836041  5.87645202
  16.74051910  1.39171383  3.05601153
   8.00633737  6.18091883  1.51373975
   8.59000675  6.18091883  4.59828332
  10.91773128  1.39171383  2.02783034
  11.41524080  1.40168592  4.73125554
   1.90800915  6.20489191  0.62550779
   2.76721895  6.18091883  3.57010212
   1.50838660  6.10341927  6.13411887
   4.88571891  1.37230525  1.05305572
   5.67861284  1.39171383  4.08419271
  13.95232067  6.05774107  2.77667196
  13.99170501  6.18408716  5.45832363
  14.73172740  2.15684604  0.90777717
  13.99844223  3.00294606  3.57487803
   5.26426051  7.79215106  2.03260624
   5.89851784  7.62998749  4.89878118
   8.17565442  3.00294606  2.54669685
   8.88887343  2.75914784  5.39164726
  16.87676850  7.67589362  3.90393309
  16.16699460  7.98381063  1.40084180
   2.35644453  3.07452053  1.78410206
   2.93653598  3.00294606  4.60305921
  11.08704832  7.79215106  3.06078744
  11.67333308  7.66263186  5.74697290
   5.26426051  4.56968659  2.03260624
   5.89835576  4.77220974  4.93956574
  13.54265607  9.42123548  0.66884464
  13.99844223  9.35889159  3.57487803
  16.73951679  4.41674962  3.78130414
  16.43919121  4.76779080  1.09931995
   8.17565442  9.35889159  2.54669685
   8.88167158  0.02422395  5.38911772
  10.99005700  4.60244837  3.24904971
  11.73468106  4.77908127  5.80399497
   2.37318846  9.26336063  1.78674119
   2.93653598  9.35889159  4.60305921
 


--------------------------------------------------------------------------------------------------------


 use parallel FFT for orbitals z direction half grid
 k-point  1 :   0.0000 0.0000 0.0000  plane waves:   29200

 maximum and minimum number of plane-waves per node :      4869     4864

 maximum number of plane-waves:     29200
 maximum index in each direction: 
   IXMAX=   29   IYMAX=   16   IZMAX=   28
   IXMIN=  -29   IYMIN=  -16   IZMIN=    0


 real space projection operators:
  total allocation   :      10755.19 KBytes
  max/ min on nodes  :       1797.25       1785.89


 parallel 3D FFT for wavefunctions:
    minimum data exchange during FFTs selected (reduces bandwidth)
 parallel 3D FFT for charge:
    minimum data exchange during FFTs selected (reduces bandwidth)


 total amount of memory used by VASP MPI-rank0    80248. kBytes
=======================================================================

   base      :      30000. kBytes
   nonlr-proj:       2208. kBytes
   fftplans  :      10634. kBytes
   grid      :      17961. kBytes
   one-center:        101. kBytes
   wavefun   :      19344. kBytes
 
     INWAV:  cpu time    0.0000: real time    0.0000
 Broyden mixing: mesh for mixing (old mesh)
   NGX = 59   NGY = 33   NGZ = 57
  (NGX  =180   NGY  =100   NGZ  =180)
  gives a total of 110979 points

 initial charge density was supplied:
 charge density of overlapping atoms calculated
 number of electron     814.0000000 magnetization 
 keeping initial charge density in first step


--------------------------------------------------------------------------------------------------------


 Maximum index for non-local projection operator          280
 Maximum index for augmentation-charges          444 (set IRDMAX)


--------------------------------------------------------------------------------------------------------


 First call to EWALD:  gamma=   0.127
 Maximum number of real-space cells 2x 4x 2
 Maximum number of reciprocal cells 3x 2x 3

    FEWALD:  cpu time    0.0126: real time    0.0126


--------------------------------------- Iteration      1(   1)  ---------------------------------------


    POTLOK:  cpu time    0.3564: real time    0.3564
    SETDIJ:  cpu time    0.0194: real time    0.0195
     EDDAV:  cpu time    9.4344: real time    9.4391
       DOS:  cpu time    0.0015: real time    0.0015
    --------------------------------------------
      LOOP:  cpu time    9.8118: real time    9.8165

 eigenvalue-minimisations  :  1200
 total energy-change (2. order) : 0.9147644E+04  (-0.5207519E+05)
 number of electron     814.0000000 magnetization 
 augmentation part      814.0000000 magnetization 

 Free energy of the ion-electron system (eV)
  ---------------------------------------------------
  alpha Z        PSCENC =      1458.83996183
  Ewald energy   TEWEN  =    170007.63100391
  -Hartree energ DENC   =   -293607.32757023
  -exchange      EXHF   =         0.00000000
  -V(xc)+E(xc)   XCENC  =      3786.28172737
  PAW double counting   =    115860.90926010  -120909.33166199
  entropy T*S    EENTRO =        -0.42011482
  eigenvalues    EBANDS =     -7229.39375361
  atomic energy  EATOM  =    139780.45519414
  Solvation  Ediel_sol  =         0.00000000
  ---------------------------------------------------
  free energy    TOTEN  =      9147.64404670 eV

  energy without entropy =     9148.06416152  energy(sigma->0) =     9147.85410411


--------------------------------------------------------------------------------------------------------




--------------------------------------- Iteration      1(   2)  ---------------------------------------


     EDDAV:  cpu time    8.2576: real time    8.2591
       DOS:  cpu time    0.0013: real time    0.0013
    --------------------------------------------
      LOOP:  cpu time    8.2588: real time    8.2604

 eigenvalue-minimisations  :  1040
 total energy-change (2. order) :-0.8649530E+04  (-0.8356717E+04)
 number of electron     814.0000000 magnetization 
 augmentation part      814.0000000 magnetization 

 Free energy of the ion-electron system (eV)
  ---------------------------------------------------
  alpha Z        PSCENC =      1458.83996183
  Ewald energy   TEWEN  =    170007.63100391
  -Hartree energ DENC   =   -293607.32757023
  -exchange      EXHF   =         0.00000000
  -V(xc)+E(xc)   XCENC  =      3786.28172737
  PAW double counting   =    115860.90926010  -120909.33166199
  entropy T*S    EENTRO =        -0.76556117
  eigenvalues    EBANDS =    -15878.57839729
  atomic energy  EATOM  =    139780.45519414
  Solvation  Ediel_sol  =         0.00000000
  ---------------------------------------------------
  free energy    TOTEN  =       498.11395667 eV

  energy without entropy =      498.87951784  energy(sigma->0) =      498.49673726


--------------------------------------------------------------------------------------------------------




--------------------------------------- Iteration      1(   3)  ---------------------------------------


     EDDAV:  cpu time    9.1996: real time    9.2019
       DOS:  cpu time    0.0014: real time    0.0014
    --------------------------------------------
      LOOP:  cpu time    9.2011: real time    9.2034

 eigenvalue-minimisations  :  1144
 total energy-change (2. order) :-0.8553335E+03  (-0.8229306E+03)
 number of electron     814.0000000 magnetization 
 augmentation part      814.0000000 magnetization 

 Free energy of the ion-electron system (eV)
  ---------------------------------------------------
  alpha Z        PSCENC =      1458.83996183
  Ewald energy   TEWEN  =    170007.63100391
  -Hartree energ DENC   =   -293607.32757023
  -exchange      EXHF   =         0.00000000
  -V(xc)+E(xc)   XCENC  =      3786.28172737
  PAW double counting   =    115860.90926010  -120909.33166199
  entropy T*S    EENTRO =        -1.15799825
  eigenvalues    EBANDS =    -16733.51947276
  atomic energy  EATOM  =    139780.45519414
  Solvation  Ediel_sol  =         0.00000000
  ---------------------------------------------------
  free energy    TOTEN  =      -357.21955588 eV

  energy without entropy =     -356.06155763  energy(sigma->0) =     -356.64055675


--------------------------------------------------------------------------------------------------------




--------------------------------------- Iteration      1(   4)  ---------------------------------------


     EDDAV:  cpu time    8.7232: real time    8.7249
       DOS:  cpu time    0.0015: real time    0.0014
    --------------------------------------------
      LOOP:  cpu time    8.7246: real time    8.7264

 eigenvalue-minimisations  :  1112
 total energy-change (2. order) :-0.4390387E+02  (-0.4340352E+02)
 number of electron     814.0000000 magnetization 
 augmentation part      814.0000000 magnetization 

 Free energy of the ion-electron system (eV)
  ---------------------------------------------------
  alpha Z        PSCENC =      1458.83996183
  Ewald energy   TEWEN  =    170007.63100391
  -Hartree energ DENC   =   -293607.32757023
  -exchange      EXHF   =         0.00000000
  -V(xc)+E(xc)   XCENC  =      3786.28172737
  PAW double counting   =    115860.90926010  -120909.33166199
  entropy T*S    EENTRO =        -1.18445495
  eigenvalues    EBANDS =    -16777.39688355
  atomic energy  EATOM  =    139780.45519414
  Solvation  Ediel_sol  =         0.00000000
  ---------------------------------------------------
  free energy    TOTEN  =      -401.12342337 eV

  energy without entropy =     -399.93896842  energy(sigma->0) =     -400.53119589


--------------------------------------------------------------------------------------------------------




--------------------------------------- Iteration      1(   5)  ---------------------------------------


     EDDAV:  cpu time    9.8364: real time    9.8386
       DOS:  cpu time    0.0014: real time    0.0014
    CHARGE:  cpu time    0.3043: real time    0.3043
    MIXING:  cpu time    0.0098: real time    0.0098
    --------------------------------------------
      LOOP:  cpu time   10.1520: real time   10.1542

 eigenvalue-minimisations  :  1264
 total energy-change (2. order) :-0.1702013E+01  (-0.1699938E+01)
 number of electron     813.9997270 magnetization 
 augmentation part      294.5492926 magnetization 

 Broyden mixing:
  rms(total) = 0.10065E+02    rms(broyden)= 0.10057E+02
  rms(prec ) = 0.10577E+02
  weight for this iteration     100.00

 Free energy of the ion-electron system (eV)
  ---------------------------------------------------
  alpha Z        PSCENC =      1458.83996183
  Ewald energy   TEWEN  =    170007.63100391
  -Hartree energ DENC   =   -293607.32757023
  -exchange      EXHF   =         0.00000000
  -V(xc)+E(xc)   XCENC  =      3786.28172737
  PAW double counting   =    115860.90926010  -120909.33166199
  entropy T*S    EENTRO =        -1.19130202
  eigenvalues    EBANDS =    -16779.09204954
  atomic energy  EATOM  =    139780.45519414
  Solvation  Ediel_sol  =         0.00000000
  ---------------------------------------------------
  free energy    TOTEN  =      -402.82543643 eV

  energy without entropy =     -401.63413441  energy(sigma->0) =     -402.22978542


--------------------------------------------------------------------------------------------------------




--------------------------------------- Iteration      1(   6)  ---------------------------------------


    POTLOK:  cpu time    0.3432: real time    0.3434
    SETDIJ:  cpu time    0.0192: real time    0.0192
     EDDAV:  cpu time    9.5687: real time    9.5706
       DOS:  cpu time    0.0013: real time    0.0013
    CHARGE:  cpu time    0.2895: real time    0.2895
    MIXING:  cpu time    0.0103: real time    0.0104
    --------------------------------------------
      LOOP:  cpu time   10.2322: real time   10.2344

 eigenvalue-minimisations  :  1224
 total energy-change (2. order) :-0.6540825E+02  (-0.9807668E+02)
 number of electron     813.9996744 magnetization 
 augmentation part      356.2816919 magnetization 

 Broyden mixing:
  rms(total) = 0.15941E+02    rms(broyden)= 0.15939E+02
  rms(prec ) = 0.16657E+02
  weight for this iteration     100.00

 eigenvalues of (default mixing * dielectric matrix)
  average eigenvalue GAMMA=   0.2412
  0.2412

 Free energy of the ion-electron system (eV)
  ---------------------------------------------------
  alpha Z        PSCENC =      1458.83996183
  Ewald energy   TEWEN  =    170007.63100391
  -Hartree energ DENC   =   -290919.08134738
  -exchange      EXHF   =         0.00000000
  -V(xc)+E(xc)   XCENC  =      3711.56436372
  PAW double counting   =    121425.80085432  -126238.99724044
  entropy T*S    EENTRO =        -0.75342017
  eigenvalues    EBANDS =    -19693.69305425
  atomic energy  EATOM  =    139780.45519414
  Solvation  Ediel_sol  =         0.00000000
  ---------------------------------------------------
  free energy    TOTEN  =      -468.23368433 eV

  energy without entropy =     -467.48026415  energy(sigma->0) =     -467.85697424


--------------------------------------------------------------------------------------------------------




--------------------------------------- Iteration      1(   7)  ---------------------------------------


    POTLOK:  cpu time    0.3414: real time    0.3417
    SETDIJ:  cpu time    0.0192: real time    0.0192
     EDDAV:  cpu time    9.0520: real time    9.0537
       DOS:  cpu time    0.0014: real time    0.0014
    CHARGE:  cpu time    0.3054: real time    0.3054
    MIXING:  cpu time    0.0105: real time    0.0106
    --------------------------------------------
      LOOP:  cpu time    9.7299: real time    9.7319

 eigenvalue-minimisations  :  1120
 total energy-change (2. order) : 0.1001908E+03  (-0.1950387E+02)
 number of electron     813.9996878 magnetization 
 augmentation part      339.0478838 magnetization 

 Broyden mixing:
  rms(total) = 0.66560E+01    rms(broyden)= 0.66551E+01
  rms(prec ) = 0.70092E+01
  weight for this iteration     100.00

 eigenvalues of (default mixing * dielectric matrix)
  average eigenvalue GAMMA=   0.5894
  0.7080  0.4708

 Free energy of the ion-electron system (eV)
  ---------------------------------------------------
  alpha Z        PSCENC =      1458.83996183
  Ewald energy   TEWEN  =    170007.63100391
  -Hartree energ DENC   =   -292046.30318051
  -exchange      EXHF   =         0.00000000
  -V(xc)+E(xc)   XCENC  =      3739.34968422
  PAW double counting   =    126338.37521570  -131301.83971707
  entropy T*S    EENTRO =        -0.93587543
  eigenvalues    EBANDS =    -18343.61515180
  atomic energy  EATOM  =    139780.45519414
  Solvation  Ediel_sol  =         0.00000000
  ---------------------------------------------------
  free energy    TOTEN  =      -368.04286501 eV

  energy without entropy =     -367.10698958  energy(sigma->0) =     -367.57492730


--------------------------------------------------------------------------------------------------------




--------------------------------------- Iteration      1(   8)  ---------------------------------------


    POTLOK:  cpu time    0.3417: real time    0.3417
    SETDIJ:  cpu time    0.0191: real time    0.0191
     EDDAV:  cpu time   10.3224: real time   10.3246
       DOS:  cpu time    0.0014: real time    0.0014
    CHARGE:  cpu time    0.3005: real time    0.3005
    MIXING:  cpu time    0.0111: real time    0.0111
    --------------------------------------------
      LOOP:  cpu time   10.9963: real time   10.9985

 eigenvalue-minimisations  :  1352
 total energy-change (2. order) :-0.1797149E+02  (-0.2293993E+02)
 number of electron     813.9997089 magnetization 
 augmentation part      311.5928280 magnetization 

 Broyden mixing:
  rms(total) = 0.10237E+02    rms(broyden)= 0.10235E+02
  rms(prec ) = 0.11876E+02
  weight for this iteration     100.00

 eigenvalues of (default mixing * dielectric matrix)
  average eigenvalue GAMMA=   0.5175
  0.9438  0.4043  0.2045

 Free energy of the ion-electron system (eV)
  ---------------------------------------------------
  alpha Z        PSCENC =      1458.83996183
  Ewald energy   TEWEN  =    170007.63100391
  -Hartree energ DENC   =   -293079.12062107
  -exchange      EXHF   =         0.00000000
  -V(xc)+E(xc)   XCENC  =      3765.54860470
  PAW double counting   =    135633.25694582  -140742.03713920
  entropy T*S    EENTRO =        -0.95948714
  eigenvalues    EBANDS =    -17209.62881781
  atomic energy  EATOM  =    139780.45519414
  Solvation  Ediel_sol  =         0.00000000
  ---------------------------------------------------
  free energy    TOTEN  =      -386.01435481 eV

  energy without entropy =     -385.05486767  energy(sigma->0) =     -385.53461124


--------------------------------------------------------------------------------------------------------




--------------------------------------- Iteration      1(   9)  ---------------------------------------


    POTLOK:  cpu time    0.3420: real time    0.3425
    SETDIJ:  cpu time    0.0192: real time    0.0192
     EDDAV:  cpu time    9.6514: real time    9.6588
       DOS:  cpu time    0.0013: real time    0.0013
    CHARGE:  cpu time    0.2932: real time    0.2933
    MIXING:  cpu time    0.0114: real time    0.0114
    --------------------------------------------
      LOOP:  cpu time   10.3185: real time   10.3264

 eigenvalue-minimisations  :  1240
 total energy-change (2. order) : 0.1521159E+02  (-0.8813045E+01)
 number of electron     813.9997130 magnetization 
 augmentation part      312.4323261 magnetization 

 Broyden mixing:
  rms(total) = 0.51237E+01    rms(broyden)= 0.51201E+01
  rms(prec ) = 0.56679E+01
  weight for this iteration     100.00

 eigenvalues of (default mixing * dielectric matrix)
  average eigenvalue GAMMA=   0.6753
  1.7189  0.4232  0.4232  0.1358

 Free energy of the ion-electron system (eV)
  ---------------------------------------------------
  alpha Z        PSCENC =      1458.83996183
  Ewald energy   TEWEN  =    170007.63100391
  -Hartree energ DENC   =   -293066.76399050
  -exchange      EXHF   =         0.00000000
  -V(xc)+E(xc)   XCENC  =      3763.88122164
  PAW double counting   =    137964.72008535  -143083.21566756
  entropy T*S    EENTRO =        -1.01652284
  eigenvalues    EBANDS =    -17195.33404887
  atomic energy  EATOM  =    139780.45519414
  Solvation  Ediel_sol  =         0.00000000
  ---------------------------------------------------
  free energy    TOTEN  =      -370.80276289 eV

  energy without entropy =     -369.78624005  energy(sigma->0) =     -370.29450147


--------------------------------------------------------------------------------------------------------




--------------------------------------- Iteration      1(  10)  ---------------------------------------


    POTLOK:  cpu time    0.3429: real time    0.3429
    SETDIJ:  cpu time    0.0192: real time    0.0192
     EDDAV:  cpu time   10.3907: real time   10.3928
       DOS:  cpu time    0.0013: real time    0.0013
    CHARGE:  cpu time    0.2920: real time    0.2920
    MIXING:  cpu time    0.0117: real time    0.0117
    --------------------------------------------
      LOOP:  cpu time   11.0578: real time   11.0599

 eigenvalue-minimisations  :  1360
 total energy-change (2. order) :-0.1700512E+02  (-0.6781884E+01)
 number of electron     813.9997054 magnetization 
 augmentation part      312.6375914 magnetization 

 Broyden mixing:
  rms(total) = 0.10280E+02    rms(broyden)= 0.10278E+02
  rms(prec ) = 0.12501E+02
  weight for this iteration     100.00

 eigenvalues of (default mixing * dielectric matrix)
  average eigenvalue GAMMA=   0.6432
  2.0749  0.4375  0.4375  0.1331  0.1331

 Free energy of the ion-electron system (eV)
  ---------------------------------------------------
  alpha Z        PSCENC =      1458.83996183
  Ewald energy   TEWEN  =    170007.63100391
  -Hartree energ DENC   =   -292918.88482094
  -exchange      EXHF   =         0.00000000
  -V(xc)+E(xc)   XCENC  =      3759.70870873
  PAW double counting   =    143876.21148237  -149019.78473489
  entropy T*S    EENTRO =        -0.94526677
  eigenvalues    EBANDS =    -17331.03941207
  atomic energy  EATOM  =    139780.45519414
  Solvation  Ediel_sol  =         0.00000000
  ---------------------------------------------------
  free energy    TOTEN  =      -387.80788368 eV

  energy without entropy =     -386.86261691  energy(sigma->0) =     -387.33525029


--------------------------------------------------------------------------------------------------------




--------------------------------------- Iteration      1(  11)  ---------------------------------------


    POTLOK:  cpu time    0.3433: real time    0.3434
    SETDIJ:  cpu time    0.0191: real time    0.0191
     EDDAV:  cpu time   10.2609: real time   10.2630
       DOS:  cpu time    0.0012: real time    0.0012
    CHARGE:  cpu time    0.2946: real time    0.2946
    MIXING:  cpu time    0.0125: real time    0.0125
    --------------------------------------------
      LOOP:  cpu time   10.9315: real time   10.9337

 eigenvalue-minimisations  :  1328
 total energy-change (2. order) : 0.2096251E+02  (-0.3927069E+01)
 number of electron     813.9997020 magnetization 
 augmentation part      319.6815187 magnetization 

 Broyden mixing:
  rms(total) = 0.39780E+01    rms(broyden)= 0.39747E+01
  rms(prec ) = 0.46822E+01
  weight for this iteration     100.00

 eigenvalues of (default mixing * dielectric matrix)
  average eigenvalue GAMMA=   0.6084
  2.1692  0.4428  0.4428  0.3531  0.1394  0.1029

 Free energy of the ion-electron system (eV)
  ---------------------------------------------------
  alpha Z        PSCENC =      1458.83996183
  Ewald energy   TEWEN  =    170007.63100391
  -Hartree energ DENC   =   -292802.20816509
  -exchange      EXHF   =         0.00000000
  -V(xc)+E(xc)   XCENC  =      3756.65059316
  PAW double counting   =    146613.65838445  -151765.32081771
  entropy T*S    EENTRO =        -0.94351242
  eigenvalues    EBANDS =    -17415.60801942
  atomic energy  EATOM  =    139780.45519414
  Solvation  Ediel_sol  =         0.00000000
  ---------------------------------------------------
  free energy    TOTEN  =      -366.84537714 eV

  energy without entropy =     -365.90186472  energy(sigma->0) =     -366.37362093


--------------------------------------------------------------------------------------------------------




--------------------------------------- Iteration      1(  12)  ---------------------------------------


    POTLOK:  cpu time    0.3423: real time    0.3424
    SETDIJ:  cpu time    0.0192: real time    0.0192
     EDDAV:  cpu time   10.3227: real time   10.3247
       DOS:  cpu time    0.0012: real time    0.0012
    CHARGE:  cpu time    0.2970: real time    0.2971
    MIXING:  cpu time    0.0132: real time    0.0132
    --------------------------------------------
      LOOP:  cpu time   10.9956: real time   10.9977

 eigenvalue-minimisations  :  1352
 total energy-change (2. order) : 0.4246619E+01  (-0.2374032E+01)
 number of electron     813.9997088 magnetization 
 augmentation part      319.9553062 magnetization 

 Broyden mixing:
  rms(total) = 0.38390E+01    rms(broyden)= 0.38371E+01
  rms(prec ) = 0.46713E+01
  weight for this iteration     100.00

 eigenvalues of (default mixing * dielectric matrix)
  average eigenvalue GAMMA=   0.6084
  2.2147  0.6934  0.4718  0.4718  0.1695  0.1188  0.1188

 Free energy of the ion-electron system (eV)
  ---------------------------------------------------
  alpha Z        PSCENC =      1458.83996183
  Ewald energy   TEWEN  =    170007.63100391
  -Hartree energ DENC   =   -292808.92346447
  -exchange      EXHF   =         0.00000000
  -V(xc)+E(xc)   XCENC  =      3756.36120174
  PAW double counting   =    147284.49607395  -152440.78458324
  entropy T*S    EENTRO =        -1.03039743
  eigenvalues    EBANDS =    -17399.64374826
  atomic energy  EATOM  =    139780.45519414
  Solvation  Ediel_sol  =         0.00000000
  ---------------------------------------------------
  free energy    TOTEN  =      -362.59875783 eV

  energy without entropy =     -361.56836040  energy(sigma->0) =     -362.08355911


--------------------------------------------------------------------------------------------------------




--------------------------------------- Iteration      1(  13)  ---------------------------------------


    POTLOK:  cpu time    0.3435: real time    0.3437
    SETDIJ:  cpu time    0.0192: real time    0.0192
     EDDAV:  cpu time    9.9041: real time    9.9068
       DOS:  cpu time    0.0011: real time    0.0011
    CHARGE:  cpu time    0.2987: real time    0.2987
    MIXING:  cpu time    0.0134: real time    0.0134
    --------------------------------------------
      LOOP:  cpu time   10.5800: real time   10.5829

 eigenvalue-minimisations  :  1288
 total energy-change (2. order) : 0.5395097E+01  (-0.1834799E+01)
 number of electron     813.9997015 magnetization 
 augmentation part      320.7157447 magnetization 

 Broyden mixing:
  rms(total) = 0.26906E+01    rms(broyden)= 0.26892E+01
  rms(prec ) = 0.32082E+01
  weight for this iteration     100.00

 eigenvalues of (default mixing * dielectric matrix)
  average eigenvalue GAMMA=   0.5652
  2.1994  0.5229  0.5229  0.4483  0.4483  0.1379  0.1210  0.1210

 Free energy of the ion-electron system (eV)
  ---------------------------------------------------
  alpha Z        PSCENC =      1458.83996183
  Ewald energy   TEWEN  =    170007.63100391
  -Hartree energ DENC   =   -292812.50521500
  -exchange      EXHF   =         0.00000000
  -V(xc)+E(xc)   XCENC  =      3755.78363174
  PAW double counting   =    147392.32200213  -152547.60659761
  entropy T*S    EENTRO =        -0.98699077
  eigenvalues    EBANDS =    -17391.13665163
  atomic energy  EATOM  =    139780.45519414
  Solvation  Ediel_sol  =         0.00000000
  ---------------------------------------------------
  free energy    TOTEN  =      -357.20366127 eV

  energy without entropy =     -356.21667050  energy(sigma->0) =     -356.71016588


--------------------------------------------------------------------------------------------------------




--------------------------------------- Iteration      1(  14)  ---------------------------------------


    POTLOK:  cpu time    0.3451: real time    0.3451
    SETDIJ:  cpu time    0.0191: real time    0.0192
     EDDAV:  cpu time   10.2514: real time   10.2534
       DOS:  cpu time    0.0012: real time    0.0012
    CHARGE:  cpu time    0.2998: real time    0.2999
    MIXING:  cpu time    0.0153: real time    0.0153
    --------------------------------------------
      LOOP:  cpu time   10.9320: real time   10.9341

 eigenvalue-minimisations  :  1344
 total energy-change (2. order) : 0.2193094E+01  (-0.7775420E+00)
 number of electron     813.9997025 magnetization 
 augmentation part      321.2001520 magnetization 

 Broyden mixing:
  rms(total) = 0.22732E+01    rms(broyden)= 0.22721E+01
  rms(prec ) = 0.26831E+01
  weight for this iteration     100.00

 eigenvalues of (default mixing * dielectric matrix)
  average eigenvalue GAMMA=   0.5571
  2.1811  0.6955  0.6955  0.4465  0.4465  0.1573  0.1573  0.1173  0.1173

 Free energy of the ion-electron system (eV)
  ---------------------------------------------------
  alpha Z        PSCENC =      1458.83996183
  Ewald energy   TEWEN  =    170007.63100391
  -Hartree energ DENC   =   -292820.65541211
  -exchange      EXHF   =         0.00000000
  -V(xc)+E(xc)   XCENC  =      3756.02235340
  PAW double counting   =    147208.75161472  -152363.40066660
  entropy T*S    EENTRO =        -1.00487789
  eigenvalues    EBANDS =    -17381.64973831
  atomic energy  EATOM  =    139780.45519414
  Solvation  Ediel_sol  =         0.00000000
  ---------------------------------------------------
  free energy    TOTEN  =      -355.01056691 eV

  energy without entropy =     -354.00568901  energy(sigma->0) =     -354.50812796


--------------------------------------------------------------------------------------------------------




--------------------------------------- Iteration      1(  15)  ---------------------------------------


    POTLOK:  cpu time    0.3455: real time    0.3455
    SETDIJ:  cpu time    0.0191: real time    0.0191
     EDDAV:  cpu time   10.2507: real time   10.2529
       DOS:  cpu time    0.0013: real time    0.0013
    CHARGE:  cpu time    0.2973: real time    0.2973
    MIXING:  cpu time    0.0148: real time    0.0148
    --------------------------------------------
      LOOP:  cpu time   10.9286: real time   10.9308

 eigenvalue-minimisations  :  1344
 total energy-change (2. order) : 0.1482426E+01  (-0.4186314E+00)
 number of electron     813.9997018 magnetization 
 augmentation part      321.5768648 magnetization 

 Broyden mixing:
  rms(total) = 0.16124E+01    rms(broyden)= 0.16114E+01
  rms(prec ) = 0.19607E+01
  weight for this iteration     100.00

 eigenvalues of (default mixing * dielectric matrix)
  average eigenvalue GAMMA=   0.5471
  2.1535  0.8168  0.8168  0.4492  0.4492  0.2512  0.1636  0.1207  0.1207  0.1291

 Free energy of the ion-electron system (eV)
  ---------------------------------------------------
  alpha Z        PSCENC =      1458.83996183
  Ewald energy   TEWEN  =    170007.63100391
  -Hartree energ DENC   =   -292825.17698201
  -exchange      EXHF   =         0.00000000
  -V(xc)+E(xc)   XCENC  =      3756.21423514
  PAW double counting   =    147023.95829545  -152176.99742642
  entropy T*S    EENTRO =        -1.08568679
  eigenvalues    EBANDS =    -17377.36673614
  atomic energy  EATOM  =    139780.45519414
  Solvation  Ediel_sol  =         0.00000000
  ---------------------------------------------------
  free energy    TOTEN  =      -353.52814089 eV

  energy without entropy =     -352.44245410  energy(sigma->0) =     -352.98529749


--------------------------------------------------------------------------------------------------------




--------------------------------------- Iteration      1(  16)  ---------------------------------------


    POTLOK:  cpu time    0.3450: real time    0.3452
    SETDIJ:  cpu time    0.0192: real time    0.0192
     EDDAV:  cpu time   10.3646: real time   10.3667
       DOS:  cpu time    0.0013: real time    0.0013
    CHARGE:  cpu time    0.2959: real time    0.2960
    MIXING:  cpu time    0.0150: real time    0.0150
    --------------------------------------------
      LOOP:  cpu time   11.0410: real time   11.0432

 eigenvalue-minimisations  :  1360
 total energy-change (2. order) : 0.8559749E+00  (-0.1747173E+00)
 number of electron     813.9997029 magnetization 
 augmentation part      321.2357920 magnetization 

 Broyden mixing:
  rms(total) = 0.13109E+01    rms(broyden)= 0.13105E+01
  rms(prec ) = 0.15650E+01
  weight for this iteration     100.00

 eigenvalues of (default mixing * dielectric matrix)
  average eigenvalue GAMMA=   0.5501
  2.1534  0.9467  0.9467  0.4473  0.4473  0.3799  0.2069  0.1172  0.1172  0.1443
  0.1443

 Free energy of the ion-electron system (eV)
  ---------------------------------------------------
  alpha Z        PSCENC =      1458.83996183
  Ewald energy   TEWEN  =    170007.63100391
  -Hartree energ DENC   =   -292845.13170304
  -exchange      EXHF   =         0.00000000
  -V(xc)+E(xc)   XCENC  =      3756.47365347
  PAW double counting   =    146793.93121286  -151944.78255538
  entropy T*S    EENTRO =        -1.02345591
  eigenvalues    EBANDS =    -17359.06547786
  atomic energy  EATOM  =    139780.45519414
  Solvation  Ediel_sol  =         0.00000000
  ---------------------------------------------------
  free energy    TOTEN  =      -352.67216597 eV

  energy without entropy =     -351.64871006  energy(sigma->0) =     -352.16043802


--------------------------------------------------------------------------------------------------------




--------------------------------------- Iteration      1(  17)  ---------------------------------------


    POTLOK:  cpu time    0.3460: real time    0.3461
    SETDIJ:  cpu time    0.0192: real time    0.0192
     EDDAV:  cpu time   10.1752: real time   10.1792
       DOS:  cpu time    0.0012: real time    0.0012
    CHARGE:  cpu time    0.2938: real time    0.2938
    MIXING:  cpu time    0.0156: real time    0.0156
    --------------------------------------------
      LOOP:  cpu time   10.8510: real time   10.8552

 eigenvalue-minimisations  :  1328
 total energy-change (2. order) : 0.3866703E+00  (-0.9524550E-01)
 number of electron     813.9997030 magnetization 
 augmentation part      320.7295422 magnetization 

 Broyden mixing:
  rms(total) = 0.11010E+01    rms(broyden)= 0.11007E+01
  rms(prec ) = 0.12850E+01
  weight for this iteration     100.00

 eigenvalues of (default mixing * dielectric matrix)
  average eigenvalue GAMMA=   0.5582
  2.1593  1.0795  1.0795  0.4660  0.4660  0.3939  0.3643  0.1615  0.1615  0.1184
  0.1184  0.1306

 Free energy of the ion-electron system (eV)
  ---------------------------------------------------
  alpha Z        PSCENC =      1458.83996183
  Ewald energy   TEWEN  =    170007.63100391
  -Hartree energ DENC   =   -292864.76670137
  -exchange      EXHF   =         0.00000000
  -V(xc)+E(xc)   XCENC  =      3756.61525723
  PAW double counting   =    146608.94912252  -151757.17199821
  entropy T*S    EENTRO =        -1.07081945
  eigenvalues    EBANDS =    -17341.76651633
  atomic energy  EATOM  =    139780.45519414
  Solvation  Ediel_sol  =         0.00000000
  ---------------------------------------------------
  free energy    TOTEN  =      -352.28549572 eV

  energy without entropy =     -351.21467627  energy(sigma->0) =     -351.75008599


--------------------------------------------------------------------------------------------------------




--------------------------------------- Iteration      1(  18)  ---------------------------------------


    POTLOK:  cpu time    0.3469: real time    0.3469
    SETDIJ:  cpu time    0.0192: real time    0.0192
     EDDAV:  cpu time   10.1576: real time   10.1596
       DOS:  cpu time    0.0013: real time    0.0013
    CHARGE:  cpu time    0.2985: real time    0.2985
    MIXING:  cpu time    0.0170: real time    0.0170
    --------------------------------------------
      LOOP:  cpu time   10.8405: real time   10.8425

 eigenvalue-minimisations  :  1328
 total energy-change (2. order) : 0.1684701E+00  (-0.4080000E-01)
 number of electron     813.9997035 magnetization 
 augmentation part      320.6717813 magnetization 

 Broyden mixing:
  rms(total) = 0.99432E+00    rms(broyden)= 0.99420E+00
  rms(prec ) = 0.11786E+01
  weight for this iteration     100.00

 eigenvalues of (default mixing * dielectric matrix)
  average eigenvalue GAMMA=   0.5715
  2.1492  1.2673  1.2673  0.4972  0.4972  0.4395  0.4395  0.1787  0.1787  0.1179
  0.1179  0.1397  0.1397

 Free energy of the ion-electron system (eV)
  ---------------------------------------------------
  alpha Z        PSCENC =      1458.83996183
  Ewald energy   TEWEN  =    170007.63100391
  -Hartree energ DENC   =   -292873.22835455
  -exchange      EXHF   =         0.00000000
  -V(xc)+E(xc)   XCENC  =      3756.62295526
  PAW double counting   =    146446.30291293  -151592.25420492
  entropy T*S    EENTRO =        -1.06156368
  eigenvalues    EBANDS =    -17335.42493055
  atomic energy  EATOM  =    139780.45519414
  Solvation  Ediel_sol  =         0.00000000
  ---------------------------------------------------
  free energy    TOTEN  =      -352.11702563 eV

  energy without entropy =     -351.05546195  energy(sigma->0) =     -351.58624379


--------------------------------------------------------------------------------------------------------




--------------------------------------- Iteration      1(  19)  ---------------------------------------


    POTLOK:  cpu time    0.3458: real time    0.3459
    SETDIJ:  cpu time    0.0191: real time    0.0191
     EDDAV:  cpu time   10.1101: real time   10.1169
       DOS:  cpu time    0.0011: real time    0.0011
    CHARGE:  cpu time    0.2964: real time    0.2964
    MIXING:  cpu time    0.0181: real time    0.0181
    --------------------------------------------
      LOOP:  cpu time   10.7906: real time   10.7975

 eigenvalue-minimisations  :  1320
 total energy-change (2. order) : 0.2728923E+00  (-0.1736540E-01)
 number of electron     813.9997034 magnetization 
 augmentation part      320.6481558 magnetization 

 Broyden mixing:
  rms(total) = 0.83493E+00    rms(broyden)= 0.83485E+00
  rms(prec ) = 0.96848E+00
  weight for this iteration     100.00

 eigenvalues of (default mixing * dielectric matrix)
  average eigenvalue GAMMA=   0.5919
  2.1474  1.4395  1.4395  0.5968  0.5968  0.4406  0.4406  0.3070  0.1997  0.1180
  0.1180  0.1543  0.1543  0.1345

 Free energy of the ion-electron system (eV)
  ---------------------------------------------------
  alpha Z        PSCENC =      1458.83996183
  Ewald energy   TEWEN  =    170007.63100391
  -Hartree energ DENC   =   -292883.30735795
  -exchange      EXHF   =         0.00000000
  -V(xc)+E(xc)   XCENC  =      3756.64180824
  PAW double counting   =    146191.71057378  -151334.69650490
  entropy T*S    EENTRO =        -1.07584601
  eigenvalues    EBANDS =    -17328.04296632
  atomic energy  EATOM  =    139780.45519414
  Solvation  Ediel_sol  =         0.00000000
  ---------------------------------------------------
  free energy    TOTEN  =      -351.84413329 eV

  energy without entropy =     -350.76828728  energy(sigma->0) =     -351.30621028


--------------------------------------------------------------------------------------------------------




--------------------------------------- Iteration      1(  20)  ---------------------------------------


    POTLOK:  cpu time    0.3496: real time    0.3500
    SETDIJ:  cpu time    0.0192: real time    0.0192
     EDDAV:  cpu time   10.1413: real time   10.1433
       DOS:  cpu time    0.0012: real time    0.0012
    CHARGE:  cpu time    0.2953: real time    0.2954
    MIXING:  cpu time    0.0177: real time    0.0177
    --------------------------------------------
      LOOP:  cpu time   10.8243: real time   10.8268

 eigenvalue-minimisations  :  1328
 total energy-change (2. order) : 0.1441910E+00  (-0.2524338E-01)
 number of electron     813.9997030 magnetization 
 augmentation part      320.7582586 magnetization 

 Broyden mixing:
  rms(total) = 0.73466E+00    rms(broyden)= 0.73451E+00
  rms(prec ) = 0.88873E+00
  weight for this iteration     100.00

 eigenvalues of (default mixing * dielectric matrix)
  average eigenvalue GAMMA=   0.6246
  2.1367  1.7037  1.7037  0.7611  0.7611  0.4533  0.4533  0.3744  0.2059  0.1584
  0.1584  0.1181  0.1181  0.1340  0.1284

 Free energy of the ion-electron system (eV)
  ---------------------------------------------------
  alpha Z        PSCENC =      1458.83996183
  Ewald energy   TEWEN  =    170007.63100391
  -Hartree energ DENC   =   -292892.26897158
  -exchange      EXHF   =         0.00000000
  -V(xc)+E(xc)   XCENC  =      3756.65650034
  PAW double counting   =    145969.72251076  -151110.11479491
  entropy T*S    EENTRO =        -1.07270003
  eigenvalues    EBANDS =    -17321.54864671
  atomic energy  EATOM  =    139780.45519414
  Solvation  Ediel_sol  =         0.00000000
  ---------------------------------------------------
  free energy    TOTEN  =      -351.69994224 eV

  energy without entropy =     -350.62724221  energy(sigma->0) =     -351.16359222


--------------------------------------------------------------------------------------------------------




--------------------------------------- Iteration      1(  21)  ---------------------------------------


    POTLOK:  cpu time    0.3518: real time    0.3518
    SETDIJ:  cpu time    0.0192: real time    0.0192
     EDDAV:  cpu time   10.4502: real time   10.4520
       DOS:  cpu time    0.0014: real time    0.0014
    CHARGE:  cpu time    0.3007: real time    0.3007
    MIXING:  cpu time    0.0184: real time    0.0184
    --------------------------------------------
      LOOP:  cpu time   11.1417: real time   11.1435

 eigenvalue-minimisations  :  1376
 total energy-change (2. order) : 0.2735333E+00  (-0.2706679E-01)
 number of electron     813.9997036 magnetization 
 augmentation part      320.6431533 magnetization 

 Broyden mixing:
  rms(total) = 0.44466E+00    rms(broyden)= 0.44440E+00
  rms(prec ) = 0.51278E+00
  weight for this iteration     100.00

 eigenvalues of (default mixing * dielectric matrix)
  average eigenvalue GAMMA=   0.6244
  2.1226  1.7974  1.7974  0.8516  0.8516  0.4546  0.4546  0.3900  0.2544  0.1868
  0.1180  0.1180  0.1692  0.1347  0.1447  0.1447

 Free energy of the ion-electron system (eV)
  ---------------------------------------------------
  alpha Z        PSCENC =      1458.83996183
  Ewald energy   TEWEN  =    170007.63100391
  -Hartree energ DENC   =   -292917.01806023
  -exchange      EXHF   =         0.00000000
  -V(xc)+E(xc)   XCENC  =      3756.75363629
  PAW double counting   =    145552.28582224  -150688.06607913
  entropy T*S    EENTRO =        -1.08478281
  eigenvalues    EBANDS =    -17301.22310515
  atomic energy  EATOM  =    139780.45519414
  Solvation  Ediel_sol  =         0.00000000
  ---------------------------------------------------
  free energy    TOTEN  =      -351.42640892 eV

  energy without entropy =     -350.34162611  energy(sigma->0) =     -350.88401751


--------------------------------------------------------------------------------------------------------




--------------------------------------- Iteration      1(  22)  ---------------------------------------


    POTLOK:  cpu time    0.3513: real time    0.3515
    SETDIJ:  cpu time    0.0191: real time    0.0192
     EDDAV:  cpu time   10.1333: real time   10.1392
       DOS:  cpu time    0.0014: real time    0.0014
    CHARGE:  cpu time    0.2993: real time    0.2993
    MIXING:  cpu time    0.0198: real time    0.0198
    --------------------------------------------
      LOOP:  cpu time   10.8242: real time   10.8303

 eigenvalue-minimisations  :  1328
 total energy-change (2. order) : 0.6782562E-01  (-0.2049074E-01)
 number of electron     813.9997033 magnetization 
 augmentation part      320.5811879 magnetization 

 Broyden mixing:
  rms(total) = 0.30094E+00    rms(broyden)= 0.30071E+00
  rms(prec ) = 0.34822E+00
  weight for this iteration     100.00

 eigenvalues of (default mixing * dielectric matrix)
  average eigenvalue GAMMA=   0.6325
  2.1092  1.8078  1.8078  1.0006  1.0006  0.4649  0.4649  0.4636  0.4428  0.2070
  0.1180  0.1180  0.1722  0.1555  0.1555  0.1370  0.1273

 Free energy of the ion-electron system (eV)
  ---------------------------------------------------
  alpha Z        PSCENC =      1458.83996183
  Ewald energy   TEWEN  =    170007.63100391
  -Hartree energ DENC   =   -292932.78643109
  -exchange      EXHF   =         0.00000000
  -V(xc)+E(xc)   XCENC  =      3756.80697018
  PAW double counting   =    145317.06067434  -150450.29923430
  entropy T*S    EENTRO =        -1.09695030
  eigenvalues    EBANDS =    -17287.96977201
  atomic energy  EATOM  =    139780.45519414
  Solvation  Ediel_sol  =         0.00000000
  ---------------------------------------------------
  free energy    TOTEN  =      -351.35858330 eV

  energy without entropy =     -350.26163300  energy(sigma->0) =     -350.81010815


--------------------------------------------------------------------------------------------------------




--------------------------------------- Iteration      1(  23)  ---------------------------------------


    POTLOK:  cpu time    0.3567: real time    0.3567
    SETDIJ:  cpu time    0.0190: real time    0.0191
     EDDAV:  cpu time   10.0717: real time   10.0733
       DOS:  cpu time    0.0012: real time    0.0012
    CHARGE:  cpu time    0.2998: real time    0.2999
    MIXING:  cpu time    0.0201: real time    0.0201
    --------------------------------------------
      LOOP:  cpu time   10.7686: real time   10.7703

 eigenvalue-minimisations  :  1312
 total energy-change (2. order) : 0.2510519E-01  (-0.1137262E-01)
 number of electron     813.9997035 magnetization 
 augmentation part      320.6549337 magnetization 

 Broyden mixing:
  rms(total) = 0.22202E+00    rms(broyden)= 0.22185E+00
  rms(prec ) = 0.25892E+00
  weight for this iteration     100.00

 eigenvalues of (default mixing * dielectric matrix)
  average eigenvalue GAMMA=   0.6229
  2.0850  1.7734  1.7734  1.1159  1.1159  0.4673  0.4673  0.4786  0.4786  0.2724
  0.2049  0.1180  0.1180  0.1617  0.1617  0.1540  0.1357  0.1299

 Free energy of the ion-electron system (eV)
  ---------------------------------------------------
  alpha Z        PSCENC =      1458.83996183
  Ewald energy   TEWEN  =    170007.63100391
  -Hartree energ DENC   =   -292946.64206338
  -exchange      EXHF   =         0.00000000
  -V(xc)+E(xc)   XCENC  =      3756.83089386
  PAW double counting   =    145119.38193102  -150250.66158488
  entropy T*S    EENTRO =        -1.11117577
  eigenvalues    EBANDS =    -17276.05763886
  atomic energy  EATOM  =    139780.45519414
  Solvation  Ediel_sol  =         0.00000000
  ---------------------------------------------------
  free energy    TOTEN  =      -351.33347811 eV

  energy without entropy =     -350.22230234  energy(sigma->0) =     -350.77789022


--------------------------------------------------------------------------------------------------------




--------------------------------------- Iteration      1(  24)  ---------------------------------------


    POTLOK:  cpu time    0.3507: real time    0.3507
    SETDIJ:  cpu time    0.0192: real time    0.0192
     EDDAV:  cpu time    9.1123: real time    9.1137
       DOS:  cpu time    0.0013: real time    0.0013
    CHARGE:  cpu time    0.5140: real time    0.5140
    MIXING:  cpu time    0.0212: real time    0.0212
    --------------------------------------------
      LOOP:  cpu time   10.0186: real time   10.0201

 eigenvalue-minimisations  :  1192
 total energy-change (2. order) : 0.5332823E-02  (-0.6608401E-02)
 number of electron     813.9997033 magnetization 
 augmentation part      320.7086880 magnetization 

 Broyden mixing:
  rms(total) = 0.20450E+00    rms(broyden)= 0.20440E+00
  rms(prec ) = 0.23970E+00
  weight for this iteration     100.00

 eigenvalues of (default mixing * dielectric matrix)
  average eigenvalue GAMMA=   0.6413
  1.9874  1.6209  1.6209  1.4893  1.4893  0.6623  0.6623  0.4577  0.4577  0.3874
  0.2065  0.1180  0.1180  0.1788  0.1575  0.1575  0.1476  0.1366  0.1289

 Free energy of the ion-electron system (eV)
  ---------------------------------------------------
  alpha Z        PSCENC =      1458.83996183
  Ewald energy   TEWEN  =    170007.63100391
  -Hartree energ DENC   =   -292951.27880095
  -exchange      EXHF   =         0.00000000
  -V(xc)+E(xc)   XCENC  =      3756.83103098
  PAW double counting   =    145065.13376575  -150196.04701399
  entropy T*S    EENTRO =        -1.10935245
  eigenvalues    EBANDS =    -17271.78393451
  atomic energy  EATOM  =    139780.45519414
  Solvation  Ediel_sol  =         0.00000000
  ---------------------------------------------------
  free energy    TOTEN  =      -351.32814528 eV

  energy without entropy =     -350.21879284  energy(sigma->0) =     -350.77346906


--------------------------------------------------------------------------------------------------------




--------------------------------------- Iteration      1(  25)  ---------------------------------------


    POTLOK:  cpu time    0.3514: real time    0.3515
    SETDIJ:  cpu time    0.0192: real time    0.0192
     EDDAV:  cpu time    9.3880: real time    9.3898
       DOS:  cpu time    0.0014: real time    0.0014
    CHARGE:  cpu time    0.3019: real time    0.3019
    MIXING:  cpu time    0.0226: real time    0.0226
    --------------------------------------------
      LOOP:  cpu time   10.0844: real time   10.0864

 eigenvalue-minimisations  :  1240
 total energy-change (2. order) : 0.3400468E-02  (-0.5174862E-02)
 number of electron     813.9997034 magnetization 
 augmentation part      320.7877567 magnetization 

 Broyden mixing:
  rms(total) = 0.18743E+00    rms(broyden)= 0.18732E+00
  rms(prec ) = 0.22392E+00
  weight for this iteration     100.00

 eigenvalues of (default mixing * dielectric matrix)
  average eigenvalue GAMMA=   0.6505
  2.2289  2.2289  1.5861  1.5861  0.8623  0.8623  0.7852  0.4587  0.4587  0.3949
  0.2255  0.2071  0.1180  0.1180  0.1651  0.1651  0.1290  0.1345  0.1482  0.1482

 Free energy of the ion-electron system (eV)
  ---------------------------------------------------
  alpha Z        PSCENC =      1458.83996183
  Ewald energy   TEWEN  =    170007.63100391
  -Hartree energ DENC   =   -292960.90099780
  -exchange      EXHF   =         0.00000000
  -V(xc)+E(xc)   XCENC  =      3756.84763026
  PAW double counting   =    144995.79699551  -150126.50171790
  entropy T*S    EENTRO =        -1.11323290
  eigenvalues    EBANDS =    -17262.37958186
  atomic energy  EATOM  =    139780.45519414
  Solvation  Ediel_sol  =         0.00000000
  ---------------------------------------------------
[...]
  Alpha Z  1458.83996  1458.83996  1458.83996
  Ewald  219675.66996220366.71013************  -197.22014  -635.59189  1832.88299
  Hartree254303.25221255379.38293************  -286.59551  -440.53901  1581.17352
  E(xc)   -5196.12008 -5196.43097 -5205.39225     0.49795    -0.48447     0.45411
  Local  ************************473712.72311   496.50440  1062.07632 -3411.19572
  n-local  -600.57720  -597.72378  -618.90248     5.73667    -1.33072     1.94292
  augment  5936.31914  5941.75497  5978.72079    -5.43234     4.26038    -2.26739
  Kinetic 11384.59540 11404.97018 11530.51717    -9.16345    11.16113    -1.46064
  Fock        0.00000     0.00000     0.00000     0.00000     0.00000     0.00000
  -------------------------------------------------------------------------------------
  Total     127.82629   138.01855   141.86084     4.32757    -0.44827     1.52979
  in kB      76.03416    82.09676    84.38225     2.57415    -0.26664     0.90996
  external pressure =       80.84 kB  Pullay stress =        0.00 kB


 VOLUME and BASIS-vectors are now :
 -----------------------------------------------------------------------------
  energy-cutoff  :      450.00
  volume of cell :     2693.53
      direct lattice vectors                 reciprocal lattice vectors
    16.884694054  0.000000000  0.000000000     0.059225237  0.000000000  0.000000000
     0.000000000  9.578410000  0.000000000     0.000000000  0.104401461  0.000000000
     0.000000000  0.000000000 16.654645685     0.000000000  0.000000000  0.060043307

  length of vectors
    16.884694054  9.578410000 16.654645685     0.059225237  0.104401461  0.060043307


 FORCES acting on ions
    electron-ion (+dipol)            ewald-force                    non-local-force                 convergence-correction
 -----------------------------------------------------------------------------------------------
   0.560E+03 -.937E+03 0.204E+04   -.562E+03 0.943E+03 -.205E+04   0.170E+01 -.418E+01 0.256E+01   0.873E-02 -.589E-02 0.565E-02
   0.381E+03 -.139E+03 -.285E+04   -.384E+03 0.141E+03 0.285E+04   0.294E+01 -.244E+01 0.658E+00   -.371E-02 -.950E-02 -.755E-02
   0.164E+03 -.740E+02 0.286E+04   -.163E+03 0.745E+02 -.287E+04   0.298E+00 -.808E+00 0.715E+01   -.101E-01 0.603E-02 0.599E-02
   0.479E+03 -.447E+02 -.123E+04   -.481E+03 0.451E+02 0.123E+04   0.210E+01 -.344E+00 -.428E+01   0.814E-02 0.430E-02 0.216E-01
   -.194E+03 0.396E+03 0.222E+04   0.195E+03 -.396E+03 -.223E+04   -.163E+01 -.367E+00 0.495E+01   -.158E-01 -.869E-02 0.192E-01
   -.162E+02 0.936E+02 -.186E+04   0.129E+02 -.945E+02 0.187E+04   0.274E+01 0.490E+00 -.659E+01   -.314E-02 -.715E-02 0.326E-01
   0.767E+03 0.164E+03 0.896E+03   -.770E+03 -.166E+03 -.895E+03   0.305E+01 0.189E+01 0.246E+00   0.347E-02 0.124E-01 -.944E-03
   0.503E+03 0.269E+02 0.422E+04   -.507E+03 -.266E+02 -.423E+04   0.339E+01 -.294E+00 0.378E+01   -.136E-01 -.254E-02 0.853E-02
   0.784E+03 0.158E+02 0.268E+03   -.788E+03 -.160E+02 -.266E+03   0.316E+01 0.796E-01 -.106E+01   -.328E-02 -.892E-02 0.411E-02
   0.203E+03 -.364E+02 -.366E+04   -.206E+03 0.348E+02 0.366E+04   0.465E+01 0.185E+01 0.113E+00   0.139E-01 -.111E-01 -.849E-02
   -.776E+03 0.516E+02 0.187E+04   0.779E+03 -.520E+02 -.187E+04   -.330E+01 0.772E+00 0.381E+01   -.515E-02 0.708E-02 0.197E-01
   -.924E+02 0.758E+02 -.220E+04   0.891E+02 -.751E+02 0.220E+04   0.233E+01 -.541E+00 -.685E+01   -.839E-02 0.613E-02 0.969E-02
   -.429E+03 -.673E+02 0.260E+04   0.437E+03 0.675E+02 -.260E+04   -.650E+01 -.105E+01 0.363E+01   0.327E-02 -.376E-02 0.752E-02
   0.169E+03 0.588E+03 -.223E+04   -.167E+03 -.593E+03 0.223E+04   -.267E+01 0.413E+01 -.328E+01   0.789E-02 -.587E-02 -.684E-02
   -.613E+03 0.210E+03 0.394E+04   0.612E+03 -.210E+03 -.394E+04   0.195E+01 -.233E-01 -.177E+01   -.158E-02 0.106E-01 0.407E-02
   -.528E+03 0.241E+03 0.130E+02   0.529E+03 -.243E+03 -.112E+02   -.505E-01 0.253E+01 -.173E+01   0.841E-04 0.112E-01 0.305E-01
   -.342E+03 0.111E+03 -.371E+04   0.344E+03 -.115E+03 0.371E+04   -.256E+01 0.433E+01 0.214E+01   -.660E-02 0.219E-02 0.261E-02
   0.479E+03 0.492E+03 0.290E+04   -.478E+03 -.494E+03 -.291E+04   -.163E+01 0.144E+01 0.203E+01   0.106E-01 0.136E-02 0.105E-01
   -.513E+03 0.433E+03 -.820E+03   0.515E+03 -.439E+03 0.823E+03   -.112E+01 0.524E+01 -.427E+01   0.194E-02 -.114E-01 0.194E-01
   0.196E+03 0.442E+03 0.191E+04   -.195E+03 -.445E+03 -.191E+04   -.110E+01 0.278E+01 0.239E+01   0.393E-03 -.345E-02 -.498E-02
   0.279E+03 0.132E+03 -.270E+04   -.278E+03 -.136E+03 0.270E+04   -.114E+01 0.251E+01 -.553E+01   0.131E-01 0.200E-02 -.361E-02
   -.188E+03 0.634E+03 0.103E+04   0.188E+03 -.637E+03 -.103E+04   0.993E+00 0.347E+01 0.107E+01   -.145E-01 -.546E-02 0.213E-01
   -.491E+02 0.176E+03 -.338E+04   0.492E+02 -.179E+03 0.338E+04   0.557E-01 0.372E+01 0.218E+01   -.255E-02 0.183E-02 0.329E-02
   -.283E+03 0.558E+03 -.114E+04   0.284E+03 -.566E+03 0.114E+04   -.161E+01 0.627E+01 -.135E+01   -.126E-01 -.318E-02 -.177E-02
   0.429E+03 -.350E+03 0.190E+04   -.430E+03 0.352E+03 -.191E+04   0.128E+01 -.110E+01 0.701E+01   0.360E-02 -.107E-01 -.541E-02
   0.289E+03 -.617E+03 -.266E+04   -.289E+03 0.617E+03 0.266E+04   -.241E-01 0.108E+01 -.530E+01   0.297E-02 -.153E-01 -.670E-02
   -.274E+03 -.450E+03 0.403E+04   0.273E+03 0.451E+03 -.403E+04   0.891E+00 -.752E+00 0.522E+01   0.239E-02 0.106E-01 0.101E-01
   -.464E+03 -.609E+03 0.476E+03   0.465E+03 0.613E+03 -.477E+03   0.689E-01 -.384E+01 0.460E-02   0.369E-02 0.401E-02 0.235E-01
   -.297E+03 -.129E+03 -.365E+04   0.300E+03 0.133E+03 0.365E+04   -.221E+01 -.459E+01 0.203E+01   -.896E-03 0.352E-04 -.188E-02
   -.603E+03 0.889E+02 0.354E+04   0.602E+03 -.897E+02 -.355E+04   -.137E+00 0.109E+01 0.493E+01   0.145E-01 -.747E-02 0.938E-02
   -.863E+03 -.601E+03 -.574E+03   0.867E+03 0.608E+03 0.577E+03   -.346E+01 -.613E+01 -.430E+01   0.482E-02 0.337E-02 0.174E-01
   0.337E+03 -.496E+03 0.188E+04   -.337E+03 0.500E+03 -.188E+04   -.380E+00 -.344E+01 0.286E+01   -.367E-02 0.149E-01 0.129E-01
   0.213E+03 -.123E+03 -.284E+04   -.211E+03 0.126E+03 0.285E+04   -.866E+00 -.237E+01 -.489E+01   0.508E-02 0.204E-01 -.512E-02
   0.508E+02 -.552E+03 0.964E+03   -.518E+02 0.556E+03 -.965E+03   0.139E+01 -.280E+01 0.827E+00   -.146E-01 -.386E-03 0.269E-01
   0.100E+02 -.161E+03 -.341E+04   -.977E+01 0.165E+03 0.341E+04   -.492E-01 -.404E+01 0.218E+01   0.284E-02 -.327E-02 0.103E-01
   0.341E+03 0.798E+03 0.233E+04   -.344E+03 -.801E+03 -.234E+04   0.201E+01 0.195E+01 0.416E+01   0.714E-02 0.117E-01 0.428E-02
   -.237E+03 -.162E+03 -.164E+04   0.239E+03 0.167E+03 0.164E+04   -.924E+00 -.386E+01 -.363E+01   -.888E-02 0.143E-01 -.336E-02
   0.157E+03 0.504E+02 -.164E+04   -.157E+03 -.512E+02 0.164E+04   -.645E+00 0.538E+00 -.170E+01   0.316E-02 -.553E-02 -.295E-02
   -.118E+03 -.996E+01 0.286E+03   0.121E+03 0.977E+01 -.289E+03   -.589E+00 0.115E+00 0.157E+01   0.349E-02 -.544E-02 -.159E-02
   -.477E+03 -.152E+03 0.138E+04   0.481E+03 0.155E+03 -.139E+04   -.295E+01 -.269E+01 0.246E+01   -.500E-03 0.490E-02 0.684E-02
   -.232E+03 -.104E+02 -.883E+03   0.232E+03 0.104E+02 0.888E+03   0.856E+00 0.693E-01 -.406E+01   -.405E-02 0.471E-02 0.505E-02
   -.180E+03 -.292E+03 0.963E+03   0.181E+03 0.295E+03 -.968E+03   0.709E+00 -.186E+01 0.342E+01   0.736E-02 -.978E-03 0.469E-02
   -.139E+03 -.552E+02 -.110E+04   0.141E+03 0.552E+02 0.110E+04   -.340E+00 0.187E+00 -.267E+01   -.745E-03 -.208E-02 0.161E-02
   0.143E+03 0.203E+02 0.175E+04   -.143E+03 -.198E+02 -.176E+04   -.156E+00 -.704E+00 0.191E+01   -.369E-02 0.949E-03 -.459E-03
   -.515E+02 0.224E+02 -.378E+03   0.541E+02 -.231E+02 0.380E+03   -.984E+00 0.210E+00 -.174E+01   -.203E-02 0.855E-02 0.607E-02
   0.172E+03 0.165E+02 -.165E+04   -.173E+03 -.168E+02 0.166E+04   -.872E-01 0.269E+00 -.694E+00   0.366E-02 0.101E-01 -.250E-02
   -.204E+03 0.947E+02 0.160E+04   0.206E+03 -.952E+02 -.161E+04   -.117E+00 0.546E+00 0.280E+01   -.946E-02 -.258E-02 -.118E-02
   -.133E+03 0.511E+02 -.660E+03   0.134E+03 -.509E+02 0.665E+03   0.429E+00 -.190E+00 -.456E+01   -.786E-02 0.224E-02 0.155E-01
   0.143E+03 0.303E+03 0.528E+03   -.144E+03 -.306E+03 -.533E+03   0.123E+01 0.207E+01 0.331E+01   -.840E-04 0.391E-02 -.118E-02
   -.326E+03 0.346E+02 -.140E+04   0.331E+03 -.344E+02 0.141E+04   -.289E+01 -.350E+00 -.107E+01   -.231E-02 0.294E-02 -.170E-02
   0.114E+03 -.301E+03 0.157E+04   -.114E+03 0.304E+03 -.158E+04   -.593E+00 -.150E+01 0.366E+01   0.151E-02 -.327E-02 0.344E-02
   0.253E+03 -.308E+03 -.122E+03   -.255E+03 0.310E+03 0.122E+03   0.527E+00 0.811E-01 0.215E+00   -.109E-02 -.318E-02 -.264E-02
   -.511E+02 -.334E+03 0.883E+03   0.513E+02 0.337E+03 -.886E+03   -.836E+00 -.144E+01 0.267E+01   0.198E-02 0.397E-02 0.678E-02
   0.161E+03 0.392E+02 -.118E+04   -.163E+03 -.383E+02 0.119E+04   0.545E-01 -.342E+00 -.231E+01   0.481E-02 0.347E-02 0.247E-02
   -.341E+03 -.197E+03 0.498E+03   0.343E+03 0.199E+03 -.498E+03   -.152E+01 -.123E+01 0.387E+00   0.358E-02 0.624E-02 0.113E-01
   -.238E+03 0.433E+02 -.145E+04   0.238E+03 -.424E+02 0.145E+04   -.679E+00 -.776E+00 -.187E+01   -.205E-02 0.165E-02 0.402E-02
   0.265E+03 0.473E+02 -.625E+03   -.266E+03 -.473E+02 0.628E+03   0.249E+00 0.963E+00 -.168E+01   0.596E-02 0.635E-02 0.204E-02
   -.265E+02 0.208E+01 0.130E+04   0.275E+02 -.119E+01 -.131E+04   -.504E-01 -.318E+00 0.546E+01   -.283E-03 0.404E-02 0.318E-02
   0.235E+03 -.205E+03 0.103E+04   -.236E+03 0.206E+03 -.103E+04   0.419E+00 -.327E+00 0.630E+00   -.276E-02 -.508E-02 0.240E-02
   0.104E+03 -.170E+03 -.927E+03   -.105E+03 0.172E+03 0.929E+03   0.841E-01 -.140E+01 -.121E+01   0.107E-01 -.659E-02 0.195E-02
   -.800E+01 0.107E+03 0.309E+03   0.818E+01 -.106E+03 -.311E+03   -.137E+01 -.136E+01 0.164E+01   0.240E-03 0.848E-03 0.594E-02
   -.355E+02 -.235E+03 -.153E+04   0.338E+02 0.239E+03 0.153E+04   0.147E+01 -.153E+01 -.828E+00   -.471E-02 0.202E-02 -.123E-02
   0.246E+03 0.162E+03 0.783E+03   -.249E+03 -.165E+03 -.784E+03   0.955E+00 0.137E+01 0.423E+00   -.393E-02 -.425E-03 0.753E-02
   0.175E+03 -.726E+02 -.124E+04   -.177E+03 0.718E+02 0.125E+04   0.642E-01 0.288E+00 -.262E+01   -.104E-02 -.690E-02 0.507E-02
   0.869E+02 0.535E+02 0.174E+04   -.878E+02 -.544E+02 -.175E+04   0.489E+00 0.386E+00 0.385E+01   0.427E-02 0.387E-03 0.393E-02
   0.127E+03 0.114E+03 -.417E+03   -.129E+03 -.114E+03 0.419E+03   0.992E+00 -.136E+01 -.124E+01   0.255E-02 -.573E-03 -.177E-02
   0.255E+03 -.819E+02 -.580E+03   -.256E+03 0.835E+02 0.584E+03   0.118E+01 -.100E+01 -.245E+01   -.115E-02 -.793E-03 -.354E-02
   0.286E+03 0.459E+02 0.153E+04   -.288E+03 -.462E+02 -.154E+04   0.132E+01 -.424E+00 0.374E+01   0.813E-03 -.127E-02 0.108E-03
   -.648E+02 0.305E+03 0.685E+03   0.649E+02 -.308E+03 -.687E+03   -.134E+01 0.147E+01 0.242E+01   -.604E-03 -.114E-01 0.970E-02
   -.210E+03 -.430E+02 -.144E+04   0.210E+03 0.421E+02 0.145E+04   -.722E+00 0.845E+00 -.238E+01   -.233E-02 -.596E-02 0.312E-02
   -.232E+03 0.179E+03 0.413E+03   0.232E+03 -.181E+03 -.417E+03   -.250E+00 -.533E-01 0.227E+01   -.355E-04 0.299E-03 0.468E-02
   -.560E+02 0.253E+03 -.151E+04   0.551E+02 -.257E+03 0.151E+04   0.870E+00 0.234E+01 -.152E+01   -.539E-02 -.928E-04 0.263E-03
   0.231E+03 0.186E+03 0.102E+04   -.233E+03 -.187E+03 -.102E+04   0.218E+00 0.127E+00 0.767E+00   -.366E-02 0.319E-02 0.546E-02
   0.976E+02 0.160E+03 -.904E+03   -.985E+02 -.162E+03 0.905E+03   0.241E+00 0.214E+01 -.925E+00   -.154E-02 -.327E-02 0.522E-03
 -----------------------------------------------------------------------------------------------
   0.269E+00 0.210E+01 -.196E+02   0.149E-11 0.142E-11 0.103E-10   -.153E+00 -.217E+01 0.192E+02   -.176E-01 0.258E-01 0.387E+00
 
 
 POSITION                                       TOTAL-FORCE (eV/Angst)
 -----------------------------------------------------------------------------------
     13.17084      1.39171      2.05636        -0.760454      1.347937      1.204992
     13.46946      1.40601      4.69864         0.002606     -0.356146      0.917116
      3.63814      6.40831      1.65276         0.965715     -0.285106     -0.378926
      5.02033      6.18092      3.59863        -0.291279     -0.000398      0.057451
      6.58397      1.57240      2.16070         0.152007     -0.393782     -0.409845
      7.93172      1.39171      4.11272        -0.568805     -0.395264     -0.675258
     16.08224      6.18092      2.57045        -0.008147      0.274335      1.568046
      2.89655      1.38152      0.77182        -0.968425     -0.034429     -1.855867
      2.10894      1.39171      3.08454        -0.816411     -0.125679      0.346472
      1.83827      1.38783      5.43236         1.036550      0.326180      0.845146
      9.60689      6.16052      2.71160         0.404336      0.374168     -0.561909
     10.84312      6.18092      4.62682        -0.966272      0.258149      0.135605
     15.33502      0.38781      1.83652         1.000473     -0.919640     -0.220629
     15.97309      9.55808      4.37273        -1.136809     -0.694024     -0.001852
      7.00574      3.89239      1.07032         0.231059     -0.176970     -0.726978
      7.17375      4.91558      3.19116         0.543462      0.375886      0.099709
      7.84537      4.46640      5.49683        -0.129802      0.576465      0.778706
     11.77839      9.09481      1.68382        -0.683897     -0.184480     -0.500249
     10.08514      0.12638      3.70525         0.702197     -0.568308     -1.669780
      1.35096      4.91558      2.16298         0.458575     -0.127400      0.633836
      1.71633      4.74567      4.68225         0.322812     -1.261789      0.167066
      4.26235      0.12638      2.67707         0.756060     -0.526505      0.816337
      4.90694      9.39990      5.13760         0.171470     -0.064683      0.555280
     12.99653      4.91558      4.21934         0.007221     -1.805032     -1.727783
     15.75167      3.23694      2.31276         0.739665      0.511606      0.238849
     15.85957      2.51460      4.60636        -0.680968      0.587281      0.405116
      6.04614      6.18845      1.04479        -0.375204      0.054598     -1.541804
      7.17375      7.44626      3.19116         0.442174      0.184756     -1.142043
      7.84134      7.89554      5.48871        -0.059331     -0.564469      0.822991
      8.95903      1.37545      1.56275        -0.313817      0.255779     -1.788410
     10.08514      2.65705      3.70525         0.810302      0.400818     -1.484628
      1.35096      7.44626      2.16298        -0.867152      0.585775      1.035080
      1.83836      7.56576      4.80630         0.537522      0.954936      0.554853
      4.26235      2.65705      2.67707         0.399973      0.578304      0.598002
      4.92064      2.98678      5.11130         0.202872      0.128700      0.838908
     14.12688      7.93010      1.97738        -0.675959     -1.133904     -0.206807
     12.99653      7.44626      4.21934         0.154669      0.959060     -2.159065
     16.76036      1.16836      5.87645        -0.090352     -0.295215      3.152407
     16.74052      1.39171      3.05601         2.486106     -0.086147     -1.221458
      8.00634      6.18092      1.51374         1.027886     -0.425847     -2.675059
      8.59001      6.18092      4.59828         0.890881      0.087604      1.339106
     10.91773      1.39171      2.02783         1.709351      1.086692     -1.654021
     11.41524      1.40169      4.73126         0.945661      0.108979      2.821220
      1.90801      6.20489      0.62551         0.086686     -0.242522     -3.744341
      2.76722      6.18092      3.57010         1.553681     -0.441576      0.103071
      1.50839      6.10342      6.13412        -0.499220     -0.006131      3.127015
      4.88572      1.37231      1.05306         1.612999      0.030168     -2.964632
      5.67861      1.39171      4.08419         0.925574      0.010863      0.960482
     13.95232      6.05774      2.77667        -0.256478     -0.819576     -1.608034
     13.99171      6.18409      5.45832         1.878801     -0.152597      3.190644
     14.73173      2.15685      0.90778        -0.067458      1.095820     -3.172591
     13.99844      3.00295      3.57488        -1.460896      1.579711      0.116042
      5.26426      7.79215      2.03261        -0.665731      2.012025     -0.285266
      5.89852      7.62999      4.89878        -1.121519      0.530707      1.875808
      8.17565      3.00295      2.54670        -0.071401      1.487589     -0.152407
      8.88887      2.75915      5.39165         0.039355      0.135989      2.836335
     16.87677      7.67589      3.90393        -0.743324      0.985875      1.249050
     16.16699      7.98381      1.40084         0.970866      0.581984     -2.741006
      2.35644      3.07452      1.78410        -0.503124      0.706743     -1.287915
      2.93654      3.00295      4.60306        -0.591221     -0.065692      0.521826
     11.08705      7.79215      3.06079        -1.195563     -0.544228     -0.201929
     11.67333      7.66263      5.74697        -0.236337      1.903435      3.411784
      5.26426      4.56969      2.03261        -1.705135     -1.274815     -0.508254
      5.89836      4.77221      4.93957        -1.188408     -0.592475      1.691626
     13.54266      9.42124      0.66884        -0.426789     -0.526725     -3.732693
     13.99844      9.35889      3.57488        -0.265141     -0.723392      1.620745
     16.73952      4.41675      3.78130        -0.275858      0.521066      1.927194
     16.43919      4.76779      1.09932        -0.824092     -0.697182     -3.551870
      8.17565      9.35889      2.54670        -1.251853     -1.408553      0.016697
      8.88167      0.02422      5.38912         0.200013     -0.095144      2.736409
     10.99006      4.60245      3.24905         0.089352     -1.566007     -1.716043
     11.73468      4.77908      5.80399         0.010004     -1.595538      3.416646
      2.37319      9.26336      1.78674        -1.002645     -0.559531     -1.229073
      2.93654      9.35889      4.60306        -0.723661      0.136920      0.764757
 -----------------------------------------------------------------------------------
    total drift:                                0.098302     -0.043437     -0.088895


--------------------------------------------------------------------------------------------------------



  FREE ENERGIE OF THE ION-ELECTRON SYSTEM (eV)
  ---------------------------------------------------
  free  energy   TOTEN  =      -351.30784855 eV

  energy  without entropy=     -350.20301498  energy(sigma->0) =     -350.75543176
 


--------------------------------------------------------------------------------------------------------


    POTLOK:  cpu time    0.3706: real time    0.3708


--------------------------------------------------------------------------------------------------------


     LOOP+:  cpu time  416.3804: real time  416.4831
    4ORBIT:  cpu time    0.0000: real time    0.0000

 total amount of memory used by VASP MPI-rank0    80248. kBytes
=======================================================================

   base      :      30000. kBytes
   nonlr-proj:       2208. kBytes
   fftplans  :      10634. kBytes
   grid      :      17961. kBytes
   one-center:        101. kBytes
   wavefun   :      19344. kBytes
 
  
  
 General timing and accounting informations for this job:
 ========================================================
  
                  Total CPU time used (sec):      419.855
                            User time (sec):      419.478
                          System time (sec):        0.377
                         Elapsed time (sec):      420.198
  
                   Maximum memory used (kb):      221004.
                   Average memory used (kb):           0.
  
                          Minor page faults:       120870
                          Major page faults:            0
                 Voluntary context switches:          209
