 vasp.6.1.0 28Jan20 (build Mar 31 2020 17:42:31) gamma-only                     
  
 executed on             LinuxIFC date 2020.04.13  00:47:48
 running on   48 total cores
 distrk:  each k-point on   48 cores,    1 groups
 distr:  one band on NCORE=   6 cores,    8 groups


--------------------------------------------------------------------------------------------------------


 INCAR:
 POTCAR:    PAW_PBE Ni_pv 06Sep2000               
 POTCAR:    PAW_PBE S 06Sep2000                   
 POTCAR:    PAW_PBE Ni_pv 06Sep2000               
   VRHFIN =Ni:                                                                                      
   LEXCH  = PE                                                                                      
   EATOM  =  3501.1230 eV,  257.3253 Ry                                                             
                                                                                                    
   TITEL  = PAW_PBE Ni_pv 06Sep2000                                                                 
   LULTRA =        F    use ultrasoft PP ?                                                          
   IUNSCR =        1    unscreen: 0-lin 1-nonlin 2-no                                               
   RPACOR =    1.500    partial core radius                                                         
   POMASS =   58.690; ZVAL   =   16.000    mass and valenz                                          
   RCORE  =    2.000    outmost cutoff radius                                                       
   RWIGS  =    2.000; RWIGS  =    1.058    wigner-seitz radius (au A)                               
   ENMAX  =  367.986; ENMIN  =  275.989 eV                                                          
   RCLOC  =    1.301    cutoff for local pot                                                        
   LCOR   =        T    correct aug charges                                                         
   LPAW   =        T    paw PP                                                                      
   EAUG   =  703.443                                                                                
   DEXC   =    0.000                                                                                
   RMAX   =    2.041    core radius for proj-oper                                                   
   RAUG   =    1.300    factor for augmentation sphere                                              
   RDEP   =    2.103    radius for radial grids                                                     
   RDEPT  =    1.618    core radius for aug-charge                                                  
                                                                                                    
   Atomic configuration                                                                             
    8 entries                                                                                       
     n  l   j            E        occ.                                                              
     1  0  0.50     -8206.4253   2.0000                                                             
     2  0  0.50      -976.1748   2.0000                                                             
     2  1  1.50      -839.0571   6.0000                                                             
     3  0  0.50      -105.9991   2.0000                                                             
     3  1  1.50       -66.4603   6.0000                                                             
     3  2  2.50        -4.6458   9.0000                                                             
     4  0  0.50        -4.4926   1.0000                                                             
     4  3  2.50        -1.3606   0.0000                                                             
   Description                                                                                      
     l       E           TYP  RCUT    TYP  RCUT                                                     
     1    -66.4602962     23  1.700                                                                 
     1     -1.3605826     23  1.700                                                                 
     2     -4.6457867     23  2.000                                                                 
     2     -6.0063693     23  2.000                                                                 
     0     -4.4925576     23  1.900                                                                 
     0     16.3626226     23  1.900                                                                 
  local pseudopotential read in
  partial core-charges read in
  partial kinetic energy density read in
  atomic valenz-charges read in
  non local Contribution for L=           1  read in
    real space projection operators read in
  non local Contribution for L=           1  read in
    real space projection operators read in
  non local Contribution for L=           2  read in
    real space projection operators read in
  non local Contribution for L=           2  read in
    real space projection operators read in
  non local Contribution for L=           0  read in
    real space projection operators read in
  non local Contribution for L=           0  read in
    real space projection operators read in
    PAW grid and wavefunctions read in
 
   number of l-projection  operators is LMAX  =           6
   number of lm-projection operators is LMMAX =          18
 
 POTCAR:    PAW_PBE S 06Sep2000                   
   VRHFIN =S : s2p4                                                                                 
   LEXCH  = PE                                                                                      
   EATOM  =   276.8230 eV,   20.3459 Ry                                                             
                                                                                                    
   TITEL  = PAW_PBE S 06Sep2000                                                                     
   LULTRA =        F    use ultrasoft PP ?                                                          
   IUNSCR =        1    unscreen: 0-lin 1-nonlin 2-no                                               
   RPACOR =    1.500    partial core radius                                                         
   POMASS =   32.066; ZVAL   =    6.000    mass and valenz                                          
   RCORE  =    1.900    outmost cutoff radius                                                       
   RWIGS  =    2.200; RWIGS  =    1.164    wigner-seitz radius (au A)                               
   ENMAX  =  258.689; ENMIN  =  194.016 eV                                                          
   ICORE  =        2    local potential                                                             
   LCOR   =        T    correct aug charges                                                         
   LPAW   =        T    paw PP                                                                      
   EAUG   =  335.092                                                                                
   DEXC   =    0.000                                                                                
   RMAX   =    1.942    core radius for proj-oper                                                   
   RAUG   =    1.300    factor for augmentation sphere                                              
   RDEP   =    1.954    radius for radial grids                                                     
   RDEPT  =    1.744    core radius for aug-charge                                                  
                                                                                                    
   Atomic configuration                                                                             
    6 entries                                                                                       
     n  l   j            E        occ.                                                              
     1  0  0.50     -2405.8406   2.0000                                                             
     2  0  0.50      -211.7007   2.0000                                                             
     2  1  1.50      -156.4958   6.0000                                                             
     3  0  0.50       -17.2562   2.0000                                                             
     3  1  0.50        -7.0085   4.0000                                                             
     3  2  1.50        -6.8029   0.0000                                                             
   Description                                                                                      
     l       E           TYP  RCUT    TYP  RCUT                                                     
     0    -17.2561641     23  1.900                                                                 
     0    -15.8743224     23  1.900                                                                 
     1     -7.0085400     23  1.900                                                                 
     1     -2.7779785     23  1.900                                                                 
     2     -6.8029130     23  1.900                                                                 
  local pseudopotential read in
  partial core-charges read in
  partial kinetic energy density read in
  atomic valenz-charges read in
  non local Contribution for L=           0  read in
    real space projection operators read in
  non local Contribution for L=           0  read in
    real space projection operators read in
  non local Contribution for L=           1  read in
    real space projection operators read in
  non local Contribution for L=           1  read in
    real space projection operators read in
    PAW grid and wavefunctions read in
 
   number of l-projection  operators is LMAX  =           4
   number of lm-projection operators is LMMAX =           8
 
 Optimization of the real space projectors (new method)

 maximal supplied QI-value         = 18.90
 optimisation between [QCUT,QGAM] = [ 10.77, 21.73] = [ 32.49,132.25] Ry 
 Optimized for a Real-space Cutoff    1.38 Angstroem

   l    n(q)    QCUT    max X(q) W(low)/X(q) W(high)/X(q)  e(spline) 
   1      8    10.771     2.836    0.40E-04    0.29E-04    0.12E-06
   1      8    10.771     4.023    0.10E-03    0.48E-04    0.29E-06
   2      8    10.771    73.368    0.42E-03    0.97E-04    0.44E-06
   2      8    10.771    69.010    0.42E-03    0.99E-04    0.45E-06
   0      9    10.771    54.797    0.10E-03    0.56E-04    0.74E-07
   0      9    10.771    24.266    0.89E-04    0.49E-04    0.67E-07
 Optimization of the real space projectors (new method)

 maximal supplied QI-value         = 19.84
 optimisation between [QCUT,QGAM] = [ 10.71, 21.63] = [ 32.15,130.99] Ry 
 Optimized for a Real-space Cutoff    1.19 Angstroem

   l    n(q)    QCUT    max X(q) W(low)/X(q) W(high)/X(q)  e(spline) 
   0      8    10.715   187.594    0.41E-03    0.53E-04    0.66E-07
   0      8    10.715   164.243    0.41E-03    0.53E-04    0.65E-07
   1      7    10.715    67.533    0.19E-03    0.59E-03    0.68E-07
   1      7    10.715    50.729    0.19E-03    0.58E-03    0.67E-07
  PAW_PBE Ni_pv 06Sep2000               :
 energy of atom  1       EATOM=-3501.1230
 kinetic energy error for atom=    0.0925 (will be added to EATOM!!)
  PAW_PBE S 06Sep2000                   :
 energy of atom  2       EATOM= -276.8230
 kinetic energy error for atom=    0.0033 (will be added to EATOM!!)
 
 
 POSCAR: Structure 31 made from 01-2-9.xsd file
  positions in direct lattice
  No initial velocities read in
 exchange correlation table for  LEXCH =        8
   RHO(1)=    0.500       N(1)  =     2000
   RHO(2)=  100.500       N(2)  =     4000
 


--------------------------------------------------------------------------------------------------------


 ion  position               nearest neighbor table
   1  0.065  0.923  0.310-  41 2.25  64 2.26  49 2.36  65 2.36  15 2.53  25 2.53
   2  0.100  0.923  0.119-  42 2.25  65 2.26  49 2.26  61 2.36  50 2.36  16 2.53  26 2.53
   3  0.582  0.423  0.214-  43 2.25  62 2.26  51 2.26  63 2.36  52 2.36  14 2.53  27 2.53
   4  0.617  0.423  0.024-  44 2.25  52 2.26  63 2.26  28 2.53
   5  0.237  0.423  0.278-  45 2.25  53 2.26  66 2.26  54 2.36  67 2.36  17 2.53  29 2.53
   6  0.272  0.423  0.087-  46 2.25  54 2.26  67 2.26  55 2.36  18 2.53  30 2.53
   7  0.720  0.923  0.373-  68 2.36  56 2.36  19 2.53  31 2.53
   8  0.755  0.923  0.183-  47 2.25  68 2.26  56 2.26  69 2.36  20 2.53  32 2.53
   9  0.410  0.923  0.246-  38 2.25  58 2.26  59 2.36  70 2.36  33 2.53  21 2.53
  10  0.444  0.923  0.056-  59 2.26  70 2.26  22 2.53  34 2.53
  11  0.893  0.423  0.342-  39 2.25  71 2.36  60 2.36  23 2.53  35 2.53
  12  0.927  0.423  0.151-  40 2.25  71 2.26  60 2.26  72 2.36  57 2.36  24 2.53  36 2.53
  13  0.420  0.556  0.380-  53 2.25  62 2.36  38 2.36
  14  0.455  0.556  0.189-  54 2.25  62 2.26  38 2.26  63 2.36   3 2.53  27 2.53
  15  0.937  0.056  0.285-  56 2.25  64 2.26  39 2.26  65 2.36  40 2.36   1 2.53  25 2.53
  16  0.972  0.056  0.094-  65 2.26  40 2.26  61 2.36  37 2.36   2 2.53  26 2.53
  17  0.110  0.556  0.253-  60 2.25  66 2.26  41 2.26  67 2.36  42 2.36   5 2.53  29 2.53
  18  0.144  0.556  0.062-  57 2.25  67 2.26  42 2.26   6 2.53  30 2.53
  19  0.593  0.056  0.348-  58 2.25  68 2.36  43 2.36   7 2.53  31 2.53
  20  0.627  0.056  0.157-  59 2.25  68 2.26  43 2.26  69 2.36  44 2.36   8 2.53  32 2.53
  21  0.282  0.056  0.221-  49 2.25  45 2.26  70 2.36  46 2.36   9 2.53  33 2.53
  22  0.317  0.056  0.030-  50 2.25  70 2.26  46 2.26  10 2.53  34 2.53
  23  0.765  0.556  0.316-  51 2.25  71 2.36  47 2.36  11 2.53  35 2.53
  24  0.800  0.556  0.126-  52 2.25  71 2.26  47 2.26  72 2.36  48 2.36  12 2.53  36 2.53
  25  0.065  0.188  0.310-  66 2.25  39 2.26  49 2.36  40 2.36  15 2.53   1 2.53
  26  0.100  0.188  0.119-  67 2.25  40 2.26  49 2.26  37 2.36  50 2.36  16 2.53   2 2.53
  27  0.582  0.688  0.214-  68 2.25  38 2.26  51 2.26  52 2.36  14 2.53   3 2.53
  28  0.617  0.688  0.024-  69 2.25  52 2.26   4 2.53
  29  0.237  0.688  0.278-  53 2.26  41 2.26  54 2.36  42 2.36  17 2.53   5 2.53
  30  0.272  0.688  0.087-  70 2.25  54 2.26  42 2.26  55 2.36  18 2.53   6 2.53
  31  0.720  0.188  0.373-  43 2.36  56 2.36  19 2.53   7 2.53
  32  0.755  0.188  0.183-  71 2.25  43 2.26  56 2.26  44 2.36  20 2.53   8 2.53
  33  0.410  0.188  0.246-  62 2.25  58 2.26  45 2.26  59 2.36  46 2.36   9 2.53  21 2.53
  34  0.444  0.188  0.056-  63 2.25  59 2.26  46 2.26  22 2.53  10 2.53
  35  0.893  0.688  0.342-  64 2.25  47 2.36  60 2.36  23 2.53  11 2.53
  36  0.927  0.688  0.151-  65 2.25  47 2.26  60 2.26  48 2.36  57 2.36  24 2.53  12 2.53
  37  0.021  0.224  0.000-  26 2.36  16 2.36
  38  0.469  0.724  0.286-   9 2.25  27 2.26  14 2.26  13 2.36
  39  0.952  0.224  0.381-  11 2.25  15 2.26  25 2.26
  40  0.986  0.224  0.191-  12 2.25  16 2.26  26 2.26  15 2.36  25 2.36
  41  0.124  0.724  0.350-   1 2.25  17 2.26  29 2.26
  42  0.159  0.724  0.159-   2 2.25  18 2.26  30 2.26  17 2.36  29 2.36
  43  0.642  0.224  0.254-   3 2.25  32 2.26  20 2.26  31 2.36  19 2.36
  44  0.676  0.224  0.064-   4 2.25  32 2.36  20 2.36
  45  0.297  0.224  0.318-   5 2.25  21 2.26  33 2.26
  46  0.331  0.224  0.127-   6 2.25  22 2.26  34 2.26  21 2.36  33 2.36
  47  0.814  0.724  0.222-   8 2.25  36 2.26  24 2.26  35 2.36  23 2.36
  48  0.849  0.724  0.032-  36 2.36  24 2.36
  49  0.149  0.056  0.223-  21 2.25   2 2.26  26 2.26   1 2.36  25 2.36
  50  0.183  0.056  0.032-  22 2.25   2 2.36  26 2.36
  51  0.632  0.556  0.318-  23 2.25   3 2.26  27 2.26
  52  0.666  0.556  0.127-  24 2.25   4 2.26  28 2.26   3 2.36  27 2.36
  53  0.287  0.556  0.382-  13 2.25   5 2.26  29 2.26
  54  0.321  0.556  0.191-  14 2.25   6 2.26  30 2.26   5 2.36  29 2.36
  55  0.356  0.556  0.000-   6 2.36  30 2.36
  56  0.804  0.056  0.286-  15 2.25   8 2.26  32 2.26   7 2.36  31 2.36
  57  0.011  0.556  0.064-  18 2.25  12 2.36  36 2.36
  58  0.459  0.056  0.350-  19 2.25   9 2.26  33 2.26
  59  0.494  0.056  0.159-  20 2.25  10 2.26  34 2.26   9 2.36  33 2.36
  60  0.976  0.556  0.255-  17 2.25  12 2.26  36 2.26  11 2.36  35 2.36
  61  0.021  0.887  0.000-   2 2.36  16 2.36
  62  0.469  0.387  0.286-  33 2.25   3 2.26  14 2.26  13 2.36
  63  0.504  0.387  0.095-  34 2.25   4 2.26   3 2.36  14 2.36
  64  0.952  0.887  0.381-  35 2.25  15 2.26   1 2.26
  65  0.986  0.887  0.191-  36 2.25  16 2.26   2 2.26  15 2.36   1 2.36
  66  0.124  0.387  0.350-  25 2.25  17 2.26   5 2.26
  67  0.159  0.387  0.159-  26 2.25  18 2.26   6 2.26  17 2.36   5 2.36
  68  0.642  0.887  0.254-  27 2.25   8 2.26  20 2.26   7 2.36  19 2.36
  69  0.676  0.887  0.064-  28 2.25   8 2.36  20 2.36
  70  0.331  0.887  0.127-  30 2.25  22 2.26  10 2.26  21 2.36   9 2.36
  71  0.814  0.387  0.222-  32 2.25  12 2.26  24 2.26  11 2.36  23 2.36
  72  0.849  0.387  0.032-  12 2.36  24 2.36
 
  LATTYP: Found a simple orthorhombic cell.
 ALAT       =     9.5784100000
 B/A-ratio  =     1.6885749327
 C/A-ratio  =     1.7627867312
  
  Lattice vectors:
  
 A1 = (   0.0000000000,   9.5784100000,   0.0000000000)
 A2 = (   0.0000000000,   0.0000000000, -16.1738630213)
 A3 = ( -16.8846940542,   0.0000000000,   0.0000000000)


Analysis of symmetry for initial positions (statically):
=====================================================================
 Subroutine PRICEL returns:
 Original cell was already a primitive cell.
 

 Routine SETGRP: Setting up the symmetry group for a 
 simple orthorhombic supercell.


 Subroutine GETGRP returns: Found  1 space group operations
 (whereof  1 operations were pure point group operations)
 out of a pool of  8 trial point group operations.


The static configuration has the point symmetry C_1 .


Analysis of symmetry for dynamics (positions and initial velocities):
=====================================================================
 Subroutine PRICEL returns:
 Original cell was already a primitive cell.
 

 Routine SETGRP: Setting up the symmetry group for a 
 simple orthorhombic supercell.


 Subroutine GETGRP returns: Found  1 space group operations
 (whereof  1 operations were pure point group operations)
 out of a pool of  8 trial point group operations.


The dynamic configuration has the point symmetry C_1 .


 Subroutine INISYM returns: Found  1 space group operations
 (whereof  1 operations are pure point group operations),
 and found     1 'primitive' translations


----------------------------------------------------------------------------------------

                                     Primitive cell                                     

  volume of cell :    2615.7750

  direct lattice vectors                    reciprocal lattice vectors
    16.884694054  0.000000000  0.000000000     0.059225237  0.000000000  0.000000000
     0.000000000  9.578410000  0.000000000     0.000000000  0.104401461  0.000000000
     0.000000000  0.000000000 16.173863021     0.000000000  0.000000000  0.061828148

  length of vectors
    16.884694054  9.578410000 16.173863021     0.059225237  0.104401461  0.061828148

  position of ions in fractional coordinates (direct lattice)
     0.064972611  0.923413127  0.309792204
     0.099540568  0.923413127  0.119080588
     0.582256589  0.423413127  0.214436396
     0.616824547  0.423413127  0.023724779
     0.237400604  0.423413127  0.278006935
     0.271968561  0.423413127  0.087295318
     0.720116625  0.923413127  0.373362743
     0.754684582  0.923413127  0.182651126
     0.409828597  0.923413127  0.246221665
     0.444396554  0.923413127  0.055510049
     0.892544618  0.423413127  0.341577473
     0.927112575  0.423413127  0.150865857
     0.420152163  0.555516127  0.379954435
     0.454720120  0.555516127  0.189242819
     0.937436142  0.055516127  0.284598627
     0.972004099  0.055516127  0.093887011
     0.109864135  0.555516127  0.252813358
     0.144432092  0.555516127  0.062101741
     0.592580156  0.055516127  0.348169166
     0.627148113  0.055516127  0.157457550
     0.282292127  0.055516127  0.221028088
     0.316860085  0.055516127  0.030316472
     0.765008149  0.555516127  0.316383897
     0.799576106  0.555516127  0.125672280
     0.064972611  0.187619127  0.309792204
     0.099540568  0.187619127  0.119080588
     0.582256589  0.687619127  0.214436396
     0.616824547  0.687619127  0.023724779
     0.237400604  0.687619127  0.278006935
     0.271968561  0.687619127  0.087295318
     0.720116625  0.187619127  0.373362743
     0.754684582  0.187619127  0.182651126
     0.409828597  0.187619127  0.246221665
     0.444396554  0.187619127  0.055510049
     0.892544618  0.687619127  0.341577473
     0.927112575  0.687619127  0.150865857
     0.021018847  0.223731127  0.000000000
     0.469166911  0.723731127  0.286067425
     0.951882932  0.223731127  0.381423233
     0.986450889  0.223731127  0.190711616
     0.124310925  0.723731127  0.349637963
     0.158878882  0.723731127  0.158926347
     0.641594904  0.223731127  0.254282155
     0.676162861  0.223731127  0.063570539
     0.296738918  0.223731127  0.317852694
     0.331306875  0.223731127  0.127141078
     0.814022897  0.723731127  0.222496886
     0.848590854  0.723731127  0.031785269
     0.148851041  0.055516127  0.222792171
     0.183418998  0.055516127  0.032080555
     0.631567062  0.555516127  0.318147979
     0.666135019  0.555516127  0.127436363
     0.286711076  0.555516127  0.381718518
     0.321279033  0.555516127  0.191006902
     0.355846991  0.555516127  0.000295285
     0.803995055  0.055516127  0.286362710
     0.010991005  0.555516127  0.063865824
     0.459139069  0.055516127  0.349933249
     0.493707026  0.055516127  0.159221632
     0.976423048  0.555516127  0.254577440
     0.021018847  0.887301127  0.000000000
     0.469166911  0.387301127  0.286067425
     0.503734868  0.387301127  0.095355808
     0.951882932  0.887301127  0.381423233
     0.986450889  0.887301127  0.190711616
     0.124310925  0.387301127  0.349637963
     0.158878882  0.387301127  0.158926347
     0.641594904  0.887301127  0.254282155
     0.676162861  0.887301127  0.063570539
     0.331306875  0.887301127  0.127141078
     0.814022897  0.387301127  0.222496886
     0.848590854  0.387301127  0.031785269

  ion indices of the primitive-cell ions
   primitive index   ion index
                 1           1
                 2           2
                 3           3
                 4           4
                 5           5
                 6           6
                 7           7
                 8           8
                 9           9
                10          10
                11          11
                12          12
                13          13
                14          14
                15          15
                16          16
                17          17
                18          18
                19          19
                20          20
                21          21
                22          22
                23          23
                24          24
                25          25
                26          26
                27          27
                28          28
                29          29
                30          30
                31          31
                32          32
                33          33
                34          34
                35          35
                36          36
                37          37
                38          38
                39          39
                40          40
                41          41
                42          42
                43          43
                44          44
                45          45
                46          46
                47          47
                48          48
                49          49
                50          50
                51          51
                52          52
                53          53
                54          54
                55          55
                56          56
                57          57
                58          58
                59          59
                60          60
                61          61
                62          62
                63          63
                64          64
                65          65
                66          66
                67          67
                68          68
                69          69
                70          70
                71          71
                72          72

----------------------------------------------------------------------------------------

 
 
 KPOINTS: gamma-point-only calculation. no periodi

Automatic generation of k-mesh.
Space group operators:
 irot       det(A)        alpha          n_x          n_y          n_z        tau_x        tau_y        tau_z
    1     1.000000     0.000000     1.000000     0.000000     0.000000     0.000000     0.000000     0.000000
 
 Subroutine IBZKPT returns following result:
 ===========================================
 
 Found      1 irreducible k-points:
 
 Following reciprocal coordinates:
            Coordinates               Weight
  0.000000  0.000000  0.000000      1.000000
 
 Following cartesian coordinates:
            Coordinates               Weight
  0.000000  0.000000  0.000000      1.000000
 


--------------------------------------------------------------------------------------------------------




 Dimension of arrays:
   k-points           NKPTS =      1   k-points in BZ     NKDIM =      1   number of bands    NBANDS=    480
   number of dos      NEDOS =    301   number of ions     NIONS =     72
   non local maximal  LDIM  =      6   non local SUM 2l+1 LMDIM =     18
   total plane-waves  NPLWV = 378000
   max r-space proj   IRMAX =   1643   max aug-charges    IRDMAX=   4752
   dimension x,y,z NGX =    90 NGY =   50 NGZ =   84
   dimension x,y,z NGXF=   180 NGYF=  100 NGZF=  168
   support grid    NGXF=   180 NGYF=  100 NGZF=  168
   ions per type =              36  36
   NGX,Y,Z   is equivalent  to a cutoff of   8.86,  8.68,  8.63 a.u.
   NGXF,Y,Z  is equivalent  to a cutoff of  17.72, 17.36, 17.27 a.u.

 SYSTEM =  "Millerite NiS"                         
 POSCAR =  Structure 31 made from 01-2-9.xsd file  

 Startparameter for this run:
   NWRITE =      2    write-flag & timer
   PREC   = normal    normal or accurate (medium, high low for compatibility)
   ISTART =      0    job   : 0-new  1-cont  2-samecut
   ICHARG =      2    charge: 1-file 2-atom 10-const
   ISPIN  =      1    spin polarized calculation?
   LNONCOLLINEAR =      F non collinear calculations
   LSORBIT =      F    spin-orbit coupling
   INIWAV =      1    electr: 0-lowe 1-rand  2-diag
   LASPH  =      F    aspherical Exc in radial PAW
   METAGGA=      F    non-selfconsistent MetaGGA calc.

 Electronic Relaxation 1
   ENCUT  =  450.0 eV  33.07 Ry    5.75 a.u.  29.20 16.57 27.98*2*pi/ulx,y,z
   ENINI  =  450.0     initial cutoff
   ENAUG  =  703.4 eV  augmentation charge cutoff
   NELM   =    100;   NELMIN=  2; NELMDL= -5     # of ELM steps 
   EDIFF  = 0.1E-03   stopping-criterion for ELM
   LREAL  =      T    real-space projection
   NLSPLINE    = F    spline interpolate recip. space projectors
   LCOMPAT=      F    compatible to vasp.4.4
   GGA_COMPAT  = T    GGA compatible to vasp.4.4-vasp.4.6
   LMAXPAW     = -100 max onsite density
   LMAXMIX     =    2 max onsite mixed and CHGCAR
   VOSKOWN=      0    Vosko Wilk Nusair interpolation
   ROPT   =   -0.00050  -0.00050
 Ionic relaxation
   EDIFFG = 0.1E-02   stopping-criterion for IOM
   NSW    =      0    number of steps for IOM
   NBLOCK =      1;   KBLOCK =      1    inner block; outer block 
   IBRION =     -1    ionic relax: 0-MD 1-quasi-New 2-CG
   NFREE  =      0    steps in history (QN), initial steepest desc. (CG)
   ISIF   =      2    stress and relaxation
   IWAVPR =     10    prediction:  0-non 1-charg 2-wave 3-comb
   ISYM   =      2    0-nonsym 1-usesym 2-fastsym
   LCORR  =      T    Harris-Foulkes like correction to forces

   POTIM  = 0.5000    time-step for ionic-motion
   TEIN   =    0.0    initial temperature
   TEBEG  =    0.0;   TEEND  =   0.0 temperature during run
   SMASS  =  -3.00    Nose mass-parameter (am)
   estimated Nose-frequenzy (Omega)   =  0.10E-29 period in steps = 0.13E+47 mass=  -0.652E-26a.u.
   SCALEE = 1.0000    scale energy and forces
   NPACO  =    256;   APACO  = 16.0  distance and # of slots for P.C.
   PSTRESS=    0.0 pullay stress

  Mass of Ions in am
   POMASS =  58.69 32.07
  Ionic Valenz
   ZVAL   =  16.00  6.00
  Atomic Wigner-Seitz radii
   RWIGS  =  -1.00 -1.00
  virtual crystal weights 
   VCA    =   1.00  1.00
   NELECT =     792.0000    total number of electrons
   NUPDOWN=      -1.0000    fix difference up-down

 DOS related values:
   EMIN   =  10.00;   EMAX   =-10.00  energy-range for DOS
   EFERMI =   0.00
   ISMEAR =     0;   SIGMA  =   0.20  broadening in eV -4-tet -1-fermi 0-gaus

 Electronic relaxation 2 (details)
   IALGO  =     38    algorithm
   LDIAG  =      T    sub-space diagonalisation (order eigenvalues)
   LSUBROT=      F    optimize rotation matrix (better conditioning)
   TURBO    =      0    0=normal 1=particle mesh
   IRESTART =      0    0=no restart 2=restart with 2 vectors
   NREBOOT  =      0    no. of reboots
   NMIN     =      0    reboot dimension
   EREF     =   0.00    reference energy to select bands
   IMIX   =      4    mixing-type and parameters
     AMIX     =   0.40;   BMIX     =  1.00
     AMIX_MAG =   1.60;   BMIX_MAG =  1.00
     AMIN     =   0.10
     WC   =   100.;   INIMIX=   1;  MIXPRE=   1;  MAXMIX= -45

 Intra band minimization:
   WEIMIN = 0.0000     energy-eigenvalue tresh-hold
   EBREAK =  0.52E-07  absolut break condition
   DEPER  =   0.30     relativ break condition  

   TIME   =   0.40     timestep for ELM

  volume/ion in A,a.u.               =      36.33       245.17
  Fermi-wavevector in a.u.,A,eV,Ry     =   1.099301  2.077377 16.442119  1.208462
  Thomas-Fermi vector in A             =   2.235693
 
 Write flags
   LWAVE        =      F    write WAVECAR
   LDOWNSAMPLE  =      F    k-point downsampling of WAVECAR
   LCHARG       =      F    write CHGCAR
   LVTOT        =      F    write LOCPOT, total local potential
   LVHAR        =      F    write LOCPOT, Hartree potential only
   LELF         =      F    write electronic localiz. function (ELF)
   LORBIT       =      0    0 simple, 1 ext, 2 COOP (PROOUT), +10 PAW based schemes


 Dipole corrections
   LMONO  =      F    monopole corrections only (constant potential shift)
   LDIPOL =      F    correct potential (dipole corrections)
   IDIPOL =      0    1-x, 2-y, 3-z, 4-all directions 
   EPSILON=  1.0000000 bulk dielectric constant

 Exchange correlation treatment:
   GGA     =    --    GGA type
   LEXCH   =     8    internal setting for exchange type
   VOSKOWN=      0    Vosko Wilk Nusair interpolation
   LHFCALC =     F    Hartree Fock is set to
   LHFONE  =     F    Hartree Fock one center treatment
   AEXX    =    0.0000 exact exchange contribution

 Linear response parameters
   LEPSILON=     F    determine dielectric tensor
   LRPA    =     F    only Hartree local field effects (RPA)
   LNABLA  =     F    use nabla operator in PAW spheres
   LVEL    =     F    velocity operator in full k-point grid
   LINTERFAST=   F  fast interpolation
   KINTER  =     0    interpolate to denser k-point grid
   CSHIFT  =0.1000    complex shift for real part using Kramers Kronig
   OMEGAMAX=  -1.0    maximum frequency
   DEG_THRESHOLD= 0.2000000E-02 threshold for treating states as degnerate
   RTIME   =   -0.100 relaxation time in fs
  (WPLASMAI=    0.000 imaginary part of plasma frequency in eV, 0.658/RTIME)
   DFIELD  = 0.0000000 0.0000000 0.0000000 field for delta impulse in time
 
 Orbital magnetization related:
   ORBITALMAG=     F  switch on orbital magnetization
   LCHIMAG   =     F  perturbation theory with respect to B field
   DQ        =  0.001000  dq finite difference perturbation B field
   LLRAUG    =     F  two centre corrections for induced B field



--------------------------------------------------------------------------------------------------------


 Static calculation
 charge density and potential will be updated during run
 non-spin polarized calculation
 Variant of blocked Davidson
 Davidson routine will perform the subspace rotation
 perform sub-space diagonalisation
    after iterative eigenvector-optimisation
 modified Broyden-mixing scheme, WC =      100.0
 initial mixing is a Kerker type mixing with AMIX =  0.4000 and BMIX =      1.0000
 Hartree-type preconditioning will be used
 using additional bands           84
 real space projection scheme for non local part
 use partial core corrections
 calculate Harris-corrections to forces 
   (improved forces if not selfconsistent)
 use gradient corrections 
 use of overlap-Matrix (Vanderbilt PP)
 Gauss-broadening in eV      SIGMA  =   0.20


--------------------------------------------------------------------------------------------------------


  energy-cutoff  :      450.00
  volume of cell :     2615.77
      direct lattice vectors                 reciprocal lattice vectors
    16.884694054  0.000000000  0.000000000     0.059225237  0.000000000  0.000000000
     0.000000000  9.578410000  0.000000000     0.000000000  0.104401461  0.000000000
     0.000000000  0.000000000 16.173863021     0.000000000  0.000000000  0.061828148

  length of vectors
    16.884694054  9.578410000 16.173863021     0.059225237  0.104401461  0.061828148


 
 k-points in units of 2pi/SCALE and weight: gamma-point-only calculation. no periodi
   0.00000000  0.00000000  0.00000000       1.000
 
 k-points in reciprocal lattice and weights: gamma-point-only calculation. no periodi
   0.00000000  0.00000000  0.00000000       1.000
 
 position of ions in fractional coordinates (direct lattice) 
   0.06497261  0.92341313  0.30979220
   0.09954057  0.92341313  0.11908059
   0.58225659  0.42341313  0.21443640
   0.61682455  0.42341313  0.02372478
   0.23740060  0.42341313  0.27800694
   0.27196856  0.42341313  0.08729532
   0.72011663  0.92341313  0.37336274
   0.75468458  0.92341313  0.18265113
   0.40982860  0.92341313  0.24622167
   0.44439655  0.92341313  0.05551005
   0.89254462  0.42341313  0.34157747
   0.92711258  0.42341313  0.15086586
   0.42015216  0.55551613  0.37995444
   0.45472012  0.55551613  0.18924282
   0.93743614  0.05551613  0.28459863
   0.97200410  0.05551613  0.09388701
   0.10986414  0.55551613  0.25281336
   0.14443209  0.55551613  0.06210174
   0.59258016  0.05551613  0.34816917
   0.62714811  0.05551613  0.15745755
   0.28229213  0.05551613  0.22102809
   0.31686009  0.05551613  0.03031647
   0.76500815  0.55551613  0.31638390
   0.79957611  0.55551613  0.12567228
   0.06497261  0.18761913  0.30979220
   0.09954057  0.18761913  0.11908059
   0.58225659  0.68761913  0.21443640
   0.61682455  0.68761913  0.02372478
   0.23740060  0.68761913  0.27800694
   0.27196856  0.68761913  0.08729532
   0.72011663  0.18761913  0.37336274
   0.75468458  0.18761913  0.18265113
   0.40982860  0.18761913  0.24622167
   0.44439655  0.18761913  0.05551005
   0.89254462  0.68761913  0.34157747
   0.92711258  0.68761913  0.15086586
   0.02101885  0.22373113  0.00000000
   0.46916691  0.72373113  0.28606742
   0.95188293  0.22373113  0.38142323
   0.98645089  0.22373113  0.19071162
   0.12431093  0.72373113  0.34963796
   0.15887888  0.72373113  0.15892635
   0.64159490  0.22373113  0.25428215
   0.67616286  0.22373113  0.06357054
   0.29673892  0.22373113  0.31785269
   0.33130688  0.22373113  0.12714108
   0.81402290  0.72373113  0.22249689
   0.84859085  0.72373113  0.03178527
   0.14885104  0.05551613  0.22279217
   0.18341900  0.05551613  0.03208056
   0.63156706  0.55551613  0.31814798
   0.66613502  0.55551613  0.12743636
   0.28671108  0.55551613  0.38171852
   0.32127903  0.55551613  0.19100690
   0.35584699  0.55551613  0.00029528
   0.80399506  0.05551613  0.28636271
   0.01099101  0.55551613  0.06386582
   0.45913907  0.05551613  0.34993325
   0.49370703  0.05551613  0.15922163
   0.97642305  0.55551613  0.25457744
   0.02101885  0.88730113  0.00000000
   0.46916691  0.38730113  0.28606742
   0.50373487  0.38730113  0.09535581
   0.95188293  0.88730113  0.38142323
   0.98645089  0.88730113  0.19071162
   0.12431093  0.38730113  0.34963796
   0.15887888  0.38730113  0.15892635
   0.64159490  0.88730113  0.25428215
   0.67616286  0.88730113  0.06357054
   0.33130688  0.88730113  0.12714108
   0.81402290  0.38730113  0.22249689
   0.84859085  0.38730113  0.03178527
 
 position of ions in cartesian coordinates  (Angst):
   1.09704266  8.84482953  5.01053667
   1.68071204  8.84482953  1.92599312
   9.83122437  4.05562453  3.46826490
  10.41489376  4.05562453  0.38372133
   4.00843657  4.05562453  4.49644609
   4.59210594  4.05562453  1.41190252
  12.15894890  8.84482953  6.03871786
  12.74261827  8.84482953  2.95417429
   6.91983048  8.84482953  3.98235548
   7.50349985  8.84482953  0.89781193
  15.07034280  4.05562453  5.52462726
  15.65401218  4.05562453  2.44008371
   7.09414073  5.32096123  6.14533099
   7.67781011  5.32096123  3.06078743
  15.82832245  0.53175623  4.60305921
  16.41199183  0.53175623  1.51851566
   1.85502231  5.32096123  4.08896862
   2.43869169  5.32096123  1.00442505
  10.00553464  0.53175623  5.63124040
  10.58920401  0.53175623  2.54669685
   4.76641620  0.53175623  3.57487802
   5.35008559  0.53175623  0.49033447
  12.91692854  5.32096123  5.11714981
  13.50059792  5.32096123  2.03260624
   1.09704266  1.79709292  5.01053667
   1.68071204  1.79709292  1.92599312
   9.83122437  6.58629792  3.46826490
  10.41489376  6.58629792  0.38372133
   4.00843657  6.58629792  4.49644609
   4.59210594  6.58629792  1.41190252
  12.15894890  1.79709292  6.03871786
  12.74261827  1.79709292  2.95417429
   6.91983048  1.79709292  3.98235548
   7.50349985  1.79709292  0.89781193
  15.07034280  6.58629792  5.52462726
  15.65401218  6.58629792  2.44008371
   0.35489680  2.14298846  0.00000000
   7.92173975  6.93219346  4.62681535
  16.07225208  2.14298846  6.16908712
  16.65592146  2.14298846  3.08454355
   2.09895194  6.93219346  5.65499652
   2.68262131  6.93219346  2.57045297
  10.83313366  2.14298846  4.11272474
  11.41680304  2.14298846  1.02818119
   5.01034584  2.14298846  5.14090593
   5.59401522  2.14298846  2.05636238
  13.74452757  6.93219346  3.59863416
  14.32819695  6.93219346  0.51409059
   2.51330429  0.53175623  3.60341006
   3.09697366  0.53175623  0.51886650
  10.66381662  5.32096123  5.14568183
  11.24748599  5.32096123  2.06113828
   4.84102880  5.32096123  6.17386302
   5.42469818  5.32096123  3.08931947
   6.00836757  5.32096123  0.00477590
  13.57521052  0.53175623  4.63159125
   0.18557976  5.32096123  1.03295709
   7.75242271  0.53175623  5.65977244
   8.33609209  0.53175623  2.57522887
  16.48660443  5.32096123  4.11750064
   0.35489680  8.49893399  0.00000000
   7.92173975  3.70972899  4.62681535
   8.50540913  3.70972899  1.54227178
  16.07225208  8.49893399  6.16908712
  16.65592146  8.49893399  3.08454355
   2.09895194  3.70972899  5.65499652
   2.68262131  3.70972899  2.57045297
  10.83313366  8.49893399  4.11272474
  11.41680304  8.49893399  1.02818119
   5.59401522  8.49893399  2.05636238
  13.74452757  3.70972899  3.59863416
  14.32819695  3.70972899  0.51409059
 


--------------------------------------------------------------------------------------------------------


 use parallel FFT for orbitals z direction half grid
 k-point   1 :   0.0000 0.0000 0.0000  plane waves:   28379

 maximum and minimum number of plane-waves per node :      4733     4726

 maximum number of plane-waves:     28379
 maximum index in each direction: 
   IXMAX=   29   IYMAX=   16   IZMAX=   27
   IXMIN=  -29   IYMIN=  -16   IZMIN=    0


 real space projection operators:
  total allocation   :      10065.66 KBytes
  max/ min on nodes  :       1682.41       1671.86


 parallel 3D FFT for wavefunctions:
    minimum data exchange during FFTs selected (reduces bandwidth)
 parallel 3D FFT for charge:
    minimum data exchange during FFTs selected (reduces bandwidth)


 total amount of memory used by VASP MPI-rank0    46724. kBytes
=======================================================================

   base      :      30000. kBytes
   nonlr-proj:       2058. kBytes
   fftplans  :       3623. kBytes
   grid      :       6327. kBytes
   one-center:         93. kBytes
   wavefun   :       4623. kBytes
 
     INWAV:  cpu time    0.0000: real time    0.0000
 Broyden mixing: mesh for mixing (old mesh)
   NGX = 59   NGY = 33   NGZ = 55
  (NGX  =180   NGY  =100   NGZ  =168)
  gives a total of 107085 points

 initial charge density was supplied:
 charge density of overlapping atoms calculated
 number of electron     792.0000000 magnetization 
 keeping initial charge density in first step


--------------------------------------------------------------------------------------------------------


 Maximum index for non-local projection operator          265
 Maximum index for augmentation-charges          318 (set IRDMAX)


--------------------------------------------------------------------------------------------------------


 First call to EWALD:  gamma=   0.129
 Maximum number of real-space cells 2x 4x 2
 Maximum number of reciprocal cells 3x 2x 3

    FEWALD:  cpu time    0.0029: real time    0.0029


--------------------------------------- Iteration      1(   1)  ---------------------------------------


    POTLOK:  cpu time    0.0524: real time    0.0528
    SETDIJ:  cpu time    0.0048: real time    0.0065
     EDDAV:  cpu time    2.6192: real time    2.6272
       DOS:  cpu time    0.0037: real time    0.0038
    --------------------------------------------
      LOOP:  cpu time    2.6802: real time    2.6903

 eigenvalue-minimisations  :  1184
 total energy-change (2. order) : 0.8575230E+04  (-0.4983081E+05)
 number of electron     792.0000000 magnetization 
 augmentation part      792.0000000 magnetization 

 Free energy of the ion-electron system (eV)
  ---------------------------------------------------
  alpha Z        PSCENC =      1422.10231021
  Ewald energy   TEWEN  =    102617.92755108
  -Hartree energ DENC   =   -223492.81775298
  -exchange      EXHF   =         0.00000000
  -V(xc)+E(xc)   XCENC  =      3637.13412666
  PAW double counting   =    112729.53333415  -117641.51188735
  entropy T*S    EENTRO =        -0.56374251
  eigenvalues    EBANDS =     -6699.17896472
  atomic energy  EATOM  =    136002.60505376
  Solvation  Ediel_sol  =         0.00000000
  ---------------------------------------------------
  free energy    TOTEN  =      8575.23002831 eV

  energy without entropy =     8575.79377082  energy(sigma->0) =     8575.51189956


--------------------------------------------------------------------------------------------------------




--------------------------------------- Iteration      1(   2)  ---------------------------------------


     EDDAV:  cpu time    2.3254: real time    2.3349
       DOS:  cpu time    0.0029: real time    0.0029
    --------------------------------------------
      LOOP:  cpu time    2.3283: real time    2.3378

 eigenvalue-minimisations  :  1024
 total energy-change (2. order) :-0.8097236E+04  (-0.7808626E+04)
 number of electron     792.0000000 magnetization 
 augmentation part      792.0000000 magnetization 

 Free energy of the ion-electron system (eV)
  ---------------------------------------------------
  alpha Z        PSCENC =      1422.10231021
  Ewald energy   TEWEN  =    102617.92755108
  -Hartree energ DENC   =   -223492.81775298
  -exchange      EXHF   =         0.00000000
  -V(xc)+E(xc)   XCENC  =      3637.13412666
  PAW double counting   =    112729.53333415  -117641.51188735
  entropy T*S    EENTRO =        -0.90122359
  eigenvalues    EBANDS =    -14796.07720334
  atomic energy  EATOM  =    136002.60505376
  Solvation  Ediel_sol  =         0.00000000
  ---------------------------------------------------
  free energy    TOTEN  =       477.99430861 eV

  energy without entropy =      478.89553220  energy(sigma->0) =      478.44492041


--------------------------------------------------------------------------------------------------------




--------------------------------------- Iteration      1(   3)  ---------------------------------------


     EDDAV:  cpu time    2.5236: real time    2.5317
       DOS:  cpu time    0.0031: real time    0.0031
    --------------------------------------------
      LOOP:  cpu time    2.5267: real time    2.5348

 eigenvalue-minimisations  :  1120
 total energy-change (2. order) :-0.8242397E+03  (-0.7770493E+03)
 number of electron     792.0000000 magnetization 
 augmentation part      792.0000000 magnetization 

 Free energy of the ion-electron system (eV)
  ---------------------------------------------------
  alpha Z        PSCENC =      1422.10231021
  Ewald energy   TEWEN  =    102617.92755108
  -Hartree energ DENC   =   -223492.81775298
  -exchange      EXHF   =         0.00000000
  -V(xc)+E(xc)   XCENC  =      3637.13412666
  PAW double counting   =    112729.53333415  -117641.51188735
  entropy T*S    EENTRO =        -1.55778344
  eigenvalues    EBANDS =    -15619.66029471
  atomic energy  EATOM  =    136002.60505376
  Solvation  Ediel_sol  =         0.00000000
  ---------------------------------------------------
  free energy    TOTEN  =      -346.24534261 eV

  energy without entropy =     -344.68755917  energy(sigma->0) =     -345.46645089


--------------------------------------------------------------------------------------------------------




--------------------------------------- Iteration      1(   4)  ---------------------------------------


     EDDAV:  cpu time    2.5349: real time    2.5434
       DOS:  cpu time    0.0031: real time    0.0030
    --------------------------------------------
      LOOP:  cpu time    2.5380: real time    2.5464

 eigenvalue-minimisations  :  1144
 total energy-change (2. order) :-0.4948862E+02  (-0.4894138E+02)
 number of electron     792.0000000 magnetization 
 augmentation part      792.0000000 magnetization 

 Free energy of the ion-electron system (eV)
  ---------------------------------------------------
  alpha Z        PSCENC =      1422.10231021
  Ewald energy   TEWEN  =    102617.92755108
  -Hartree energ DENC   =   -223492.81775298
  -exchange      EXHF   =         0.00000000
  -V(xc)+E(xc)   XCENC  =      3637.13412666
  PAW double counting   =    112729.53333415  -117641.51188735
  entropy T*S    EENTRO =        -1.62467092
  eigenvalues    EBANDS =    -15669.08202927
  atomic energy  EATOM  =    136002.60505376
  Solvation  Ediel_sol  =         0.00000000
  ---------------------------------------------------
  free energy    TOTEN  =      -395.73396466 eV

  energy without entropy =     -394.10929374  energy(sigma->0) =     -394.92162920


--------------------------------------------------------------------------------------------------------




--------------------------------------- Iteration      1(   5)  ---------------------------------------


     EDDAV:  cpu time    2.6302: real time    2.6366
       DOS:  cpu time    0.0032: real time    0.0031
    CHARGE:  cpu time    0.0511: real time    0.0513
    MIXING:  cpu time    0.0038: real time    0.0040
    --------------------------------------------
      LOOP:  cpu time    2.6883: real time    2.6950

 eigenvalue-minimisations  :  1208
 total energy-change (2. order) :-0.1643387E+01  (-0.1641115E+01)
 number of electron     792.0001446 magnetization 
 augmentation part      284.4748920 magnetization 

 Broyden mixing:
  rms(total) = 0.82054E+01    rms(broyden)= 0.81900E+01
  rms(prec ) = 0.89519E+01
  weight for this iteration     100.00

 Free energy of the ion-electron system (eV)
  ---------------------------------------------------
  alpha Z        PSCENC =      1422.10231021
  Ewald energy   TEWEN  =    102617.92755108
  -Hartree energ DENC   =   -223492.81775298
  -exchange      EXHF   =         0.00000000
  -V(xc)+E(xc)   XCENC  =      3637.13412666
  PAW double counting   =    112729.53333415  -117641.51188735
  entropy T*S    EENTRO =        -1.62532138
  eigenvalues    EBANDS =    -15670.72476617
  atomic energy  EATOM  =    136002.60505376
  Solvation  Ediel_sol  =         0.00000000
  ---------------------------------------------------
  free energy    TOTEN  =      -397.37735202 eV

  energy without entropy =     -395.75203064  energy(sigma->0) =     -396.56469133


--------------------------------------------------------------------------------------------------------




--------------------------------------- Iteration      1(   6)  ---------------------------------------


    POTLOK:  cpu time    0.0509: real time    0.0510
    SETDIJ:  cpu time    0.0049: real time    0.0075
     EDDAV:  cpu time    2.5681: real time    2.5759
       DOS:  cpu time    0.0053: real time    0.0052
    CHARGE:  cpu time    0.0518: real time    0.0519
    MIXING:  cpu time    0.0027: real time    0.0027
    --------------------------------------------
      LOOP:  cpu time    2.6836: real time    2.6943

 eigenvalue-minimisations  :  1152
 total energy-change (2. order) :-0.1266162E+03  (-0.1067559E+03)
 number of electron     792.0001848 magnetization 
 augmentation part      358.0256318 magnetization 

 Broyden mixing:
  rms(total) = 0.17991E+02    rms(broyden)= 0.17987E+02
  rms(prec ) = 0.19134E+02
  weight for this iteration     100.00

 eigenvalues of (default mixing * dielectric matrix)
  average eigenvalue GAMMA=   0.2009
  0.2009

 Free energy of the ion-electron system (eV)
  ---------------------------------------------------
  alpha Z        PSCENC =      1422.10231021
  Ewald energy   TEWEN  =    102617.92755108
  -Hartree energ DENC   =   -220530.97783306
  -exchange      EXHF   =         0.00000000
  -V(xc)+E(xc)   XCENC  =      3556.75172945
  PAW double counting   =    113510.42183004  -118170.35229310
  entropy T*S    EENTRO =        -0.96844861
  eigenvalues    EBANDS =    -18931.50348553
  atomic energy  EATOM  =    136002.60505376
  Solvation  Ediel_sol  =         0.00000000
  ---------------------------------------------------
  free energy    TOTEN  =      -523.99358577 eV

  energy without entropy =     -523.02513716  energy(sigma->0) =     -523.50936146


--------------------------------------------------------------------------------------------------------




--------------------------------------- Iteration      1(   7)  ---------------------------------------


    POTLOK:  cpu time    0.0533: real time    0.0544
    SETDIJ:  cpu time    0.0043: real time    0.0064
     EDDAV:  cpu time    2.5724: real time    2.5788
       DOS:  cpu time    0.0050: real time    0.0050
    CHARGE:  cpu time    0.0494: real time    0.0495
    MIXING:  cpu time    0.0022: real time    0.0022
    --------------------------------------------
      LOOP:  cpu time    2.6866: real time    2.6963

 eigenvalue-minimisations  :  1144
 total energy-change (2. order) : 0.1478271E+03  (-0.1965256E+02)
 number of electron     792.0001746 magnetization 
 augmentation part      337.0294238 magnetization 

 Broyden mixing:
  rms(total) = 0.76012E+01    rms(broyden)= 0.76004E+01
  rms(prec ) = 0.82221E+01
  weight for this iteration     100.00

 eigenvalues of (default mixing * dielectric matrix)
  average eigenvalue GAMMA=   0.4849
  0.4849  0.4849

 Free energy of the ion-electron system (eV)
  ---------------------------------------------------
  alpha Z        PSCENC =      1422.10231021
  Ewald energy   TEWEN  =    102617.92755108
  -Hartree energ DENC   =   -221762.30470042
  -exchange      EXHF   =         0.00000000
  -V(xc)+E(xc)   XCENC  =      3587.16876109
  PAW double counting   =    117630.35783040  -122440.36309311
  entropy T*S    EENTRO =        -1.02782756
  eigenvalues    EBANDS =    -17432.63236301
  atomic energy  EATOM  =    136002.60505376
  Solvation  Ediel_sol  =         0.00000000
  ---------------------------------------------------
  free energy    TOTEN  =      -376.16647756 eV

  energy without entropy =     -375.13865000  energy(sigma->0) =     -375.65256378


--------------------------------------------------------------------------------------------------------




--------------------------------------- Iteration      1(   8)  ---------------------------------------


    POTLOK:  cpu time    0.0516: real time    0.0517
    SETDIJ:  cpu time    0.0048: real time    0.0048
     EDDAV:  cpu time    2.9944: real time    3.0017
       DOS:  cpu time    0.0053: real time    0.0053
    CHARGE:  cpu time    0.0493: real time    0.0494
    MIXING:  cpu time    0.0023: real time    0.0023
    --------------------------------------------
      LOOP:  cpu time    3.1076: real time    3.1151

 eigenvalue-minimisations  :  1376
 total energy-change (2. order) :-0.3097218E+00  (-0.1802137E+02)
 number of electron     792.0001466 magnetization 
 augmentation part      308.1484765 magnetization 

 Broyden mixing:
  rms(total) = 0.96066E+01    rms(broyden)= 0.96032E+01
  rms(prec ) = 0.12377E+02
  weight for this iteration     100.00

 eigenvalues of (default mixing * dielectric matrix)
  average eigenvalue GAMMA=   0.3885
  0.5136  0.5136  0.1382

 Free energy of the ion-electron system (eV)
  ---------------------------------------------------
  alpha Z        PSCENC =      1422.10231021
  Ewald energy   TEWEN  =    102617.92755108
  -Hartree energ DENC   =   -222675.72679455
  -exchange      EXHF   =         0.00000000
  -V(xc)+E(xc)   XCENC  =      3610.97277368
  PAW double counting   =    122634.22047812  -127554.56464945
  entropy T*S    EENTRO =        -1.52464531
  eigenvalues    EBANDS =    -16432.48827688
  atomic energy  EATOM  =    136002.60505376
  Solvation  Ediel_sol  =         0.00000000
  ---------------------------------------------------
  free energy    TOTEN  =      -376.47619935 eV

  energy without entropy =     -374.95155404  energy(sigma->0) =     -375.71387669


--------------------------------------------------------------------------------------------------------




--------------------------------------- Iteration      1(   9)  ---------------------------------------


    POTLOK:  cpu time    0.0519: real time    0.0520
    SETDIJ:  cpu time    0.0048: real time    0.0048
     EDDAV:  cpu time    2.7253: real time    2.7320
       DOS:  cpu time    0.0049: real time    0.0049
    CHARGE:  cpu time    0.0487: real time    0.0488
    MIXING:  cpu time    0.0025: real time    0.0025
    --------------------------------------------
      LOOP:  cpu time    2.8381: real time    2.8450

 eigenvalue-minimisations  :  1232
 total energy-change (2. order) : 0.1662989E+02  (-0.1253518E+02)
 number of electron     792.0001493 magnetization 
 augmentation part      306.0306488 magnetization 

 Broyden mixing:
  rms(total) = 0.57054E+01    rms(broyden)= 0.56971E+01
  rms(prec ) = 0.67327E+01
  weight for this iteration     100.00

 eigenvalues of (default mixing * dielectric matrix)
  average eigenvalue GAMMA=   0.4580
  1.0178  0.3567  0.3567  0.1009

 Free energy of the ion-electron system (eV)
  ---------------------------------------------------
  alpha Z        PSCENC =      1422.10231021
  Ewald energy   TEWEN  =    102617.92755108
  -Hartree energ DENC   =   -222703.75542940
  -exchange      EXHF   =         0.00000000
  -V(xc)+E(xc)   XCENC  =      3612.58738186
  PAW double counting   =    124009.46266673  -128946.47085237
  entropy T*S    EENTRO =        -1.59372308
  eigenvalues    EBANDS =    -16372.71126834
  atomic energy  EATOM  =    136002.60505376
  Solvation  Ediel_sol  =         0.00000000
  ---------------------------------------------------
  free energy    TOTEN  =      -359.84630957 eV

  energy without entropy =     -358.25258648  energy(sigma->0) =     -359.04944802


--------------------------------------------------------------------------------------------------------




--------------------------------------- Iteration      1(  10)  ---------------------------------------


    POTLOK:  cpu time    0.0520: real time    0.0521
    SETDIJ:  cpu time    0.0047: real time    0.0047
     EDDAV:  cpu time    2.8853: real time    2.8926
       DOS:  cpu time    0.0050: real time    0.0050
    CHARGE:  cpu time    0.0496: real time    0.0498
    MIXING:  cpu time    0.0024: real time    0.0024
    --------------------------------------------
      LOOP:  cpu time    2.9990: real time    3.0065

 eigenvalue-minimisations  :  1320
 total energy-change (2. order) :-0.1104925E+02  (-0.4954954E+01)
 number of electron     792.0001756 magnetization 
 augmentation part      304.0594543 magnetization 

 Broyden mixing:
  rms(total) = 0.10577E+02    rms(broyden)= 0.10574E+02
  rms(prec ) = 0.12677E+02
  weight for this iteration     100.00

 eigenvalues of (default mixing * dielectric matrix)
  average eigenvalue GAMMA=   0.5132
  1.5852  0.3930  0.3930  0.0975  0.0975

 Free energy of the ion-electron system (eV)
  ---------------------------------------------------
  alpha Z        PSCENC =      1422.10231021
  Ewald energy   TEWEN  =    102617.92755108
  -Hartree energ DENC   =   -222670.39901379
  -exchange      EXHF   =         0.00000000
  -V(xc)+E(xc)   XCENC  =      3611.93902235
  PAW double counting   =    126217.01128719  -131174.33720439
  entropy T*S    EENTRO =        -1.36415375
  eigenvalues    EBANDS =    -16396.38041502
  atomic energy  EATOM  =    136002.60505376
  Solvation  Ediel_sol  =         0.00000000
  ---------------------------------------------------
  free energy    TOTEN  =      -370.89556236 eV

  energy without entropy =     -369.53140861  energy(sigma->0) =     -370.21348549


--------------------------------------------------------------------------------------------------------




--------------------------------------- Iteration      1(  11)  ---------------------------------------


    POTLOK:  cpu time    0.0518: real time    0.0519
    SETDIJ:  cpu time    0.0048: real time    0.0048
     EDDAV:  cpu time    2.9931: real time    3.0018
       DOS:  cpu time    0.0007: real time    0.0007
    CHARGE:  cpu time    0.0520: real time    0.0521
    MIXING:  cpu time    0.0027: real time    0.0027
    --------------------------------------------
      LOOP:  cpu time    3.1051: real time    3.1140

 eigenvalue-minimisations  :  1368
 total energy-change (2. order) : 0.1585241E+02  (-0.3065186E+01)
 number of electron     792.0001571 magnetization 
 augmentation part      310.8419587 magnetization 

 Broyden mixing:
  rms(total) = 0.43632E+01    rms(broyden)= 0.43596E+01
  rms(prec ) = 0.50448E+01
  weight for this iteration     100.00

 eigenvalues of (default mixing * dielectric matrix)
  average eigenvalue GAMMA=   0.4836
  1.6994  0.3894  0.3894  0.2386  0.0975  0.0874

 Free energy of the ion-electron system (eV)
  ---------------------------------------------------
  alpha Z        PSCENC =      1422.10231021
  Ewald energy   TEWEN  =    102617.92755108
  -Hartree energ DENC   =   -222568.99180063
  -exchange      EXHF   =         0.00000000
  -V(xc)+E(xc)   XCENC  =      3608.51816187
  PAW double counting   =    128563.07866747  -133533.14489786
  entropy T*S    EENTRO =        -1.43492318
  eigenvalues    EBANDS =    -16465.70327173
  atomic energy  EATOM  =    136002.60505376
  Solvation  Ediel_sol  =         0.00000000
  ---------------------------------------------------
  free energy    TOTEN  =      -355.04314903 eV

  energy without entropy =     -353.60822584  energy(sigma->0) =     -354.32568743


--------------------------------------------------------------------------------------------------------




--------------------------------------- Iteration      1(  12)  ---------------------------------------


    POTLOK:  cpu time    0.0515: real time    0.0537
    SETDIJ:  cpu time    0.0042: real time    0.0060
     EDDAV:  cpu time    2.9115: real time    2.9184
       DOS:  cpu time    0.0006: real time    0.0006
    CHARGE:  cpu time    0.0499: real time    0.0500
    MIXING:  cpu time    0.0025: real time    0.0025
    --------------------------------------------
      LOOP:  cpu time    3.0202: real time    3.0312

 eigenvalue-minimisations  :  1336
 total energy-change (2. order) : 0.3232307E+01  (-0.2050419E+01)
 number of electron     792.0001515 magnetization 
 augmentation part      312.1829514 magnetization 

 Broyden mixing:
  rms(total) = 0.44268E+01    rms(broyden)= 0.44219E+01
  rms(prec ) = 0.52797E+01
  weight for this iteration     100.00

 eigenvalues of (default mixing * dielectric matrix)
  average eigenvalue GAMMA=   0.4841
  1.7512  0.5165  0.4088  0.4088  0.1199  0.0916  0.0916

 Free energy of the ion-electron system (eV)
  ---------------------------------------------------
  alpha Z        PSCENC =      1422.10231021
  Ewald energy   TEWEN  =    102617.92755108
  -Hartree energ DENC   =   -222562.52879626
  -exchange      EXHF   =         0.00000000
  -V(xc)+E(xc)   XCENC  =      3607.97486826
  PAW double counting   =    129037.53854484  -134011.88749000
  entropy T*S    EENTRO =        -1.29842953
  eigenvalues    EBANDS =    -16464.24445429
  atomic energy  EATOM  =    136002.60505376
  Solvation  Ediel_sol  =         0.00000000
  ---------------------------------------------------
  free energy    TOTEN  =      -351.81084193 eV

  energy without entropy =     -350.51241240  energy(sigma->0) =     -351.16162717


--------------------------------------------------------------------------------------------------------




--------------------------------------- Iteration      1(  13)  ---------------------------------------


    POTLOK:  cpu time    0.0503: real time    0.0504
    SETDIJ:  cpu time    0.0047: real time    0.0048
     EDDAV:  cpu time    2.8565: real time    2.8632
       DOS:  cpu time    0.0006: real time    0.0006
    CHARGE:  cpu time    0.0498: real time    0.0499
    MIXING:  cpu time    0.0026: real time    0.0026
    --------------------------------------------
      LOOP:  cpu time    2.9647: real time    2.9716

 eigenvalue-minimisations  :  1304
 total energy-change (2. order) :-0.4946531E+00  (-0.2368884E+01)
 number of electron     792.0001611 magnetization 
 augmentation part      310.3387323 magnetization 

 Broyden mixing:
  rms(total) = 0.50504E+01    rms(broyden)= 0.50471E+01
  rms(prec ) = 0.60569E+01
  weight for this iteration     100.00

 eigenvalues of (default mixing * dielectric matrix)
  average eigenvalue GAMMA=   0.4516
  1.8048  0.5511  0.4162  0.4162  0.1492  0.0967  0.0967  0.0822

 Free energy of the ion-electron system (eV)
  ---------------------------------------------------
  alpha Z        PSCENC =      1422.10231021
  Ewald energy   TEWEN  =    102617.92755108
  -Hartree energ DENC   =   -222598.75320949
  -exchange      EXHF   =         0.00000000
  -V(xc)+E(xc)   XCENC  =      3608.32225674
  PAW double counting   =    129220.33689782  -134198.92222106
  entropy T*S    EENTRO =        -1.43525298
  eigenvalues    EBANDS =    -16424.48888111
  atomic energy  EATOM  =    136002.60505376
  Solvation  Ediel_sol  =         0.00000000
  ---------------------------------------------------
  free energy    TOTEN  =      -352.30549503 eV

  energy without entropy =     -350.87024205  energy(sigma->0) =     -351.58786854


--------------------------------------------------------------------------------------------------------




--------------------------------------- Iteration      1(  14)  ---------------------------------------


    POTLOK:  cpu time    0.0508: real time    0.0509
    SETDIJ:  cpu time    0.0046: real time    0.0046
     EDDAV:  cpu time    2.7746: real time    2.7812
       DOS:  cpu time    0.0006: real time    0.0006
    CHARGE:  cpu time    0.0511: real time    0.0512
    MIXING:  cpu time    0.0027: real time    0.0028
    --------------------------------------------
      LOOP:  cpu time    2.8846: real time    2.8914

 eigenvalue-minimisations  :  1256
 total energy-change (2. order) : 0.2814318E+01  (-0.2038068E+01)
 number of electron     792.0001541 magnetization 
 augmentation part      312.3538053 magnetization 

 Broyden mixing:
  rms(total) = 0.30876E+01    rms(broyden)= 0.30849E+01
  rms(prec ) = 0.36556E+01
  weight for this iteration     100.00

 eigenvalues of (default mixing * dielectric matrix)
  average eigenvalue GAMMA=   0.4277
  1.8406  0.5275  0.4276  0.4276  0.2344  0.1207  0.0934  0.0888  0.0888

 Free energy of the ion-electron system (eV)
  ---------------------------------------------------
  alpha Z        PSCENC =      1422.10231021
  Ewald energy   TEWEN  =    102617.92755108
  -Hartree energ DENC   =   -222603.19181112
  -exchange      EXHF   =         0.00000000
  -V(xc)+E(xc)   XCENC  =      3608.10615503
  PAW double counting   =    129369.91721083  -134350.31009355
  entropy T*S    EENTRO =        -1.25803078
  eigenvalues    EBANDS =    -16415.38952264
  atomic energy  EATOM  =    136002.60505376
  Solvation  Ediel_sol  =         0.00000000
  ---------------------------------------------------
  free energy    TOTEN  =      -349.49117717 eV

  energy without entropy =     -348.23314639  energy(sigma->0) =     -348.86216178


--------------------------------------------------------------------------------------------------------




--------------------------------------- Iteration      1(  15)  ---------------------------------------


    POTLOK:  cpu time    0.0506: real time    0.0507
    SETDIJ:  cpu time    0.0047: real time    0.0047
     EDDAV:  cpu time    2.6768: real time    2.6831
       DOS:  cpu time    0.0006: real time    0.0006
    CHARGE:  cpu time    0.0500: real time    0.0502
    MIXING:  cpu time    0.0030: real time    0.0030
    --------------------------------------------
      LOOP:  cpu time    2.7857: real time    2.7923

 eigenvalue-minimisations  :  1200
 total energy-change (2. order) : 0.4353198E+01  (-0.5824290E+00)
 number of electron     792.0001561 magnetization 
 augmentation part      313.0845984 magnetization 

 Broyden mixing:
  rms(total) = 0.18383E+01    rms(broyden)= 0.18357E+01
  rms(prec ) = 0.21537E+01
  weight for this iteration     100.00

 eigenvalues of (default mixing * dielectric matrix)
  average eigenvalue GAMMA=   0.4342
  1.8465  0.5705  0.5705  0.3999  0.3999  0.1546  0.1210  0.0939  0.0939  0.0916

 Free energy of the ion-electron system (eV)
  ---------------------------------------------------
  alpha Z        PSCENC =      1422.10231021
  Ewald energy   TEWEN  =    102617.92755108
  -Hartree energ DENC   =   -222612.73505131
  -exchange      EXHF   =         0.00000000
  -V(xc)+E(xc)   XCENC  =      3608.38039864
  PAW double counting   =    129419.89363929  -134402.01683112
  entropy T*S    EENTRO =        -1.32033086
  eigenvalues    EBANDS =    -16399.97471858
  atomic energy  EATOM  =    136002.60505376
  Solvation  Ediel_sol  =         0.00000000
  ---------------------------------------------------
  free energy    TOTEN  =      -345.13797889 eV

  energy without entropy =     -343.81764803  energy(sigma->0) =     -344.47781346


--------------------------------------------------------------------------------------------------------




--------------------------------------- Iteration      1(  16)  ---------------------------------------


    POTLOK:  cpu time    0.0506: real time    0.0507
    SETDIJ:  cpu time    0.0047: real time    0.0047
     EDDAV:  cpu time    2.8582: real time    2.8649
       DOS:  cpu time    0.0006: real time    0.0006
    CHARGE:  cpu time    0.0508: real time    0.0509
    MIXING:  cpu time    0.0029: real time    0.0029
    --------------------------------------------
      LOOP:  cpu time    2.9677: real time    2.9747

 eigenvalue-minimisations  :  1304
 total energy-change (2. order) :-0.1863532E+00  (-0.4054734E+00)
 number of electron     792.0001553 magnetization 
 augmentation part      312.6874855 magnetization 

 Broyden mixing:
  rms(total) = 0.22482E+01    rms(broyden)= 0.22464E+01
  rms(prec ) = 0.26588E+01
  weight for this iteration     100.00

 eigenvalues of (default mixing * dielectric matrix)
  average eigenvalue GAMMA=   0.4412
  1.8686  0.7471  0.7471  0.4039  0.4039  0.1658  0.1289  0.0924  0.0924  0.1018
  0.1018

 Free energy of the ion-electron system (eV)
  ---------------------------------------------------
  alpha Z        PSCENC =      1422.10231021
  Ewald energy   TEWEN  =    102617.92755108
  -Hartree energ DENC   =   -222628.97465141
  -exchange      EXHF   =         0.00000000
  -V(xc)+E(xc)   XCENC  =      3608.69572272
  PAW double counting   =    129343.10133712  -134324.55032998
  entropy T*S    EENTRO =        -1.36676996
  eigenvalues    EBANDS =    -16384.86455564
  atomic energy  EATOM  =    136002.60505376
  Solvation  Ediel_sol  =         0.00000000
  ---------------------------------------------------
  free energy    TOTEN  =      -345.32433212 eV

  energy without entropy =     -343.95756216  energy(sigma->0) =     -344.64094714


--------------------------------------------------------------------------------------------------------




--------------------------------------- Iteration      1(  17)  ---------------------------------------


    POTLOK:  cpu time    0.0507: real time    0.0508
    SETDIJ:  cpu time    0.0047: real time    0.0047
     EDDAV:  cpu time    2.7422: real time    2.7486
       DOS:  cpu time    0.0005: real time    0.0005
    CHARGE:  cpu time    0.0499: real time    0.0500
    MIXING:  cpu time    0.0032: real time    0.0032
    --------------------------------------------
      LOOP:  cpu time    2.8512: real time    2.8579

 eigenvalue-minimisations  :  1240
 total energy-change (2. order) : 0.1077416E+01  (-0.3176476E+00)
 number of electron     792.0001576 magnetization 
 augmentation part      312.6973617 magnetization 

 Broyden mixing:
  rms(total) = 0.15652E+01    rms(broyden)= 0.15632E+01
  rms(prec ) = 0.18574E+01
  weight for this iteration     100.00

 eigenvalues of (default mixing * dielectric matrix)
  average eigenvalue GAMMA=   0.4412
  1.8933  0.8483  0.8483  0.4022  0.4022  0.2039  0.2039  0.1130  0.0926  0.0926
  0.0969  0.0969

 Free energy of the ion-electron system (eV)
  ---------------------------------------------------
  alpha Z        PSCENC =      1422.10231021
  Ewald energy   TEWEN  =    102617.92755108
  -Hartree energ DENC   =   -222650.07588935
  -exchange      EXHF   =         0.00000000
  -V(xc)+E(xc)   XCENC  =      3609.00019729
  PAW double counting   =    129281.22529135  -134261.91708937
  entropy T*S    EENTRO =        -1.28686211
  eigenvalues    EBANDS =    -16363.82747862
  atomic energy  EATOM  =    136002.60505376
  Solvation  Ediel_sol  =         0.00000000
  ---------------------------------------------------
  free energy    TOTEN  =      -344.24691576 eV

  energy without entropy =     -342.96005365  energy(sigma->0) =     -343.60348470


--------------------------------------------------------------------------------------------------------




--------------------------------------- Iteration      1(  18)  ---------------------------------------


    POTLOK:  cpu time    0.0507: real time    0.0508
    SETDIJ:  cpu time    0.0047: real time    0.0047
     EDDAV:  cpu time    2.8065: real time    2.8154
       DOS:  cpu time    0.0006: real time    0.0006
    CHARGE:  cpu time    0.0504: real time    0.0505
    MIXING:  cpu time    0.0035: real time    0.0035
    --------------------------------------------
      LOOP:  cpu time    2.9163: real time    2.9255

 eigenvalue-minimisations  :  1264
 total energy-change (2. order) : 0.6266786E+00  (-0.1171698E+00)
 number of electron     792.0001569 magnetization 
 augmentation part      312.3359115 magnetization 

 Broyden mixing:
  rms(total) = 0.12861E+01    rms(broyden)= 0.12852E+01
  rms(prec ) = 0.15225E+01
  weight for this iteration     100.00

 eigenvalues of (default mixing * dielectric matrix)
  average eigenvalue GAMMA=   0.4541
  1.9478  0.9712  0.9712  0.4079  0.4079  0.3552  0.2228  0.1219  0.1219  0.0945
  0.0945  0.0932  0.0932

 Free energy of the ion-electron system (eV)
  ---------------------------------------------------
  alpha Z        PSCENC =      1422.10231021
  Ewald energy   TEWEN  =    102617.92755108
  -Hartree energ DENC   =   -222664.34607384
  -exchange      EXHF   =         0.00000000
  -V(xc)+E(xc)   XCENC  =      3609.19066361
  PAW double counting   =    129206.70805607  -134186.14571654
  entropy T*S    EENTRO =        -1.35400781
  eigenvalues    EBANDS =    -16350.30807374
  atomic energy  EATOM  =    136002.60505376
  Solvation  Ediel_sol  =         0.00000000
  ---------------------------------------------------
  free energy    TOTEN  =      -343.62023720 eV

  energy without entropy =     -342.26622939  energy(sigma->0) =     -342.94323329


--------------------------------------------------------------------------------------------------------




--------------------------------------- Iteration      1(  19)  ---------------------------------------


    POTLOK:  cpu time    0.0513: real time    0.0538
    SETDIJ:  cpu time    0.0047: real time    0.0074
     EDDAV:  cpu time    2.8874: real time    2.8943
       DOS:  cpu time    0.0006: real time    0.0006
    CHARGE:  cpu time    0.0500: real time    0.0501
    MIXING:  cpu time    0.0033: real time    0.0033
    --------------------------------------------
      LOOP:  cpu time    2.9973: real time    3.0095

 eigenvalue-minimisations  :  1328
 total energy-change (2. order) : 0.1621621E+00  (-0.1030017E+00)
 number of electron     792.0001579 magnetization 
 augmentation part      311.9827481 magnetization 

 Broyden mixing:
  rms(total) = 0.12426E+01    rms(broyden)= 0.12414E+01
  rms(prec ) = 0.14558E+01
  weight for this iteration     100.00

 eigenvalues of (default mixing * dielectric matrix)
  average eigenvalue GAMMA=   0.4682
  2.0087  1.1295  1.1295  0.4376  0.4194  0.4194  0.2655  0.1348  0.1348  0.0943
  0.0943  0.0965  0.0965  0.0942

 Free energy of the ion-electron system (eV)
  ---------------------------------------------------
  alpha Z        PSCENC =      1422.10231021
  Ewald energy   TEWEN  =    102617.92755108
  -Hartree energ DENC   =   -222674.32363184
  -exchange      EXHF   =         0.00000000
  -V(xc)+E(xc)   XCENC  =      3609.14894244
  PAW double counting   =    129175.11086259  -134152.93354123
  entropy T*S    EENTRO =        -1.36505636
  eigenvalues    EBANDS =    -16341.73056573
  atomic energy  EATOM  =    136002.60505376
  Solvation  Ediel_sol  =         0.00000000
  ---------------------------------------------------
  free energy    TOTEN  =      -343.45807508 eV

  energy without entropy =     -342.09301871  energy(sigma->0) =     -342.77554690


--------------------------------------------------------------------------------------------------------




--------------------------------------- Iteration      1(  20)  ---------------------------------------


    POTLOK:  cpu time    0.0506: real time    0.0508
    SETDIJ:  cpu time    0.0046: real time    0.0046
     EDDAV:  cpu time    2.9173: real time    2.9242
       DOS:  cpu time    0.0006: real time    0.0006
    CHARGE:  cpu time    0.0500: real time    0.0501
    MIXING:  cpu time    0.0034: real time    0.0034
    --------------------------------------------
      LOOP:  cpu time    3.0266: real time    3.0338

 eigenvalue-minimisations  :  1344
 total energy-change (2. order) : 0.3351788E+00  (-0.7475107E-01)
 number of electron     792.0001583 magnetization 
 augmentation part      312.2606681 magnetization 

 Broyden mixing:
  rms(total) = 0.92269E+00    rms(broyden)= 0.92162E+00
  rms(prec ) = 0.10877E+01
  weight for this iteration     100.00

 eigenvalues of (default mixing * dielectric matrix)
  average eigenvalue GAMMA=   0.4651
  2.0190  1.2203  1.2203  0.4296  0.4296  0.3858  0.3858  0.1653  0.1429  0.0933
  0.0933  0.1047  0.1047  0.0910  0.0910

 Free energy of the ion-electron system (eV)
  ---------------------------------------------------
  alpha Z        PSCENC =      1422.10231021
  Ewald energy   TEWEN  =    102617.92755108
  -Hartree energ DENC   =   -222674.56949758
  -exchange      EXHF   =         0.00000000
  -V(xc)+E(xc)   XCENC  =      3608.97531320
  PAW double counting   =    129143.38689413  -134119.30485267
  entropy T*S    EENTRO =        -1.36777096
  eigenvalues    EBANDS =    -16342.87789742
  atomic energy  EATOM  =    136002.60505376
  Solvation  Ediel_sol  =         0.00000000
  ---------------------------------------------------
  free energy    TOTEN  =      -343.12289625 eV

  energy without entropy =     -341.75512529  energy(sigma->0) =     -342.43901077


--------------------------------------------------------------------------------------------------------




--------------------------------------- Iteration      1(  21)  ---------------------------------------


    POTLOK:  cpu time    0.0511: real time    0.0512
    SETDIJ:  cpu time    0.0046: real time    0.0046
     EDDAV:  cpu time    2.8251: real time    2.8318
       DOS:  cpu time    0.0007: real time    0.0007
    CHARGE:  cpu time    0.0498: real time    0.0499
    MIXING:  cpu time    0.0035: real time    0.0035
    --------------------------------------------
      LOOP:  cpu time    2.9346: real time    2.9416

 eigenvalue-minimisations  :  1304
 total energy-change (2. order) : 0.1846633E+00  (-0.4099932E-01)
 number of electron     792.0001593 magnetization 
 augmentation part      312.5073178 magnetization 

 Broyden mixing:
  rms(total) = 0.67750E+00    rms(broyden)= 0.67673E+00
  rms(prec ) = 0.77823E+00
  weight for this iteration     100.00

 eigenvalues of (default mixing * dielectric matrix)
  average eigenvalue GAMMA=   0.4695
  2.0125  1.3058  1.3058  0.5011  0.5011  0.4075  0.4075  0.1852  0.1680  0.1246
  0.1246  0.0944  0.0944  0.0928  0.0928  0.0941

 Free energy of the ion-electron system (eV)
  ---------------------------------------------------
  alpha Z        PSCENC =      1422.10231021
  Ewald energy   TEWEN  =    102617.92755108
  -Hartree energ DENC   =   -222677.39370562
  -exchange      EXHF   =         0.00000000
  -V(xc)+E(xc)   XCENC  =      3608.93848225
  PAW double counting   =    129087.81556929  -134062.35981070
  entropy T*S    EENTRO =        -1.35238490
  eigenvalues    EBANDS =    -16341.22129834
  atomic energy  EATOM  =    136002.60505376
  Solvation  Ediel_sol  =         0.00000000
  ---------------------------------------------------
  free energy    TOTEN  =      -342.93823297 eV

  energy without entropy =     -341.58584807  energy(sigma->0) =     -342.26204052


--------------------------------------------------------------------------------------------------------




--------------------------------------- Iteration      1(  22)  ---------------------------------------


    POTLOK:  cpu time    0.0513: real time    0.0514
    SETDIJ:  cpu time    0.0047: real time    0.0047
     EDDAV:  cpu time    2.8401: real time    2.8469
       DOS:  cpu time    0.0006: real time    0.0006
    CHARGE:  cpu time    0.0492: real time    0.0493
    MIXING:  cpu time    0.0037: real time    0.0037
    --------------------------------------------
      LOOP:  cpu time    2.9495: real time    2.9566

 eigenvalue-minimisations  :  1312
[...]
    FORCOR:  cpu time    0.0648: real time    0.0652
    FORHAR:  cpu time    0.0275: real time    0.0277
    MIXING:  cpu time    0.0058: real time    0.0058
    OFIELD:  cpu time    0.0001: real time    0.0001

  FORCE on cell =-STRESS in cart. coord.  units (eV):
  Direction    XX          YY          ZZ          XY          YZ          ZX
  --------------------------------------------------------------------------------------
  Alpha Z  1422.10231  1422.10231  1422.10231
  Ewald  150128.69439151674.15399************    53.89830   452.87197   184.06357
  Hartree186002.61005187464.17871************    51.88906   288.07777   124.06617
  E(xc)   -5016.63122 -5016.66716 -5022.21256    -0.07661     0.51317    -0.20852
  Local  ************************337362.10678  -105.62091  -733.96915  -311.06688
  n-local  -697.85781  -702.00491  -705.12458    -0.03925     2.85518    -1.21511
  augment  5784.49233  5793.58605  5793.59305    -0.04601    -3.85177     2.45170
  Kinetic 10935.41431 10932.92395 10954.89184     0.26448    -9.82888     7.91230
  Fock        0.00000     0.00000     0.00000     0.00000     0.00000     0.00000
  -------------------------------------------------------------------------------------
  Total     -45.00289   -44.74490   -64.03332     0.26906    -3.33171     6.00323
  in kB     -27.56453   -27.40651   -39.22078     0.16480    -2.04069     3.67701
  external pressure =      -31.40 kB  Pullay stress =        0.00 kB


 VOLUME and BASIS-vectors are now :
 -----------------------------------------------------------------------------
  energy-cutoff  :      450.00
  volume of cell :     2615.77
      direct lattice vectors                 reciprocal lattice vectors
    16.884694054  0.000000000  0.000000000     0.059225237  0.000000000  0.000000000
     0.000000000  9.578410000  0.000000000     0.000000000  0.104401461  0.000000000
     0.000000000  0.000000000 16.173863021     0.000000000  0.000000000  0.061828148

  length of vectors
    16.884694054  9.578410000 16.173863021     0.059225237  0.104401461  0.061828148


 FORCES acting on ions
    electron-ion (+dipol)            ewald-force                    non-local-force                 convergence-correction
 -----------------------------------------------------------------------------------------------
   -.550E+03 0.316E+03 -.241E+04   0.549E+03 -.320E+03 0.241E+04   0.652E+00 0.364E+01 -.198E+01   0.229E-01 0.105E+00 -.167E+00
   -.221E+03 0.442E+03 0.169E+04   0.221E+03 -.444E+03 -.169E+04   0.618E-01 0.135E+01 0.346E+01   0.508E-02 0.344E-01 -.184E+00
   -.140E+03 0.325E+03 -.504E+03   0.140E+03 -.325E+03 0.507E+03   0.190E+00 0.390E+00 -.261E+01   0.121E+00 -.134E+00 -.112E+00
   -.125E+03 0.294E+03 0.314E+04   0.122E+03 -.292E+03 -.313E+04   0.278E+01 -.146E+01 -.825E+01   -.421E-01 -.333E+00 -.144E+00
   -.291E+03 0.489E+03 -.186E+04   0.293E+03 -.492E+03 0.186E+04   -.894E+00 0.300E+01 -.448E+01   -.225E+00 -.121E+00 -.370E+00
   -.236E+03 0.393E+03 0.228E+04   0.240E+03 -.389E+03 -.228E+04   -.187E+01 -.311E+01 0.146E+01   -.396E+00 0.200E-02 -.201E+00
   -.651E+02 0.624E+03 -.311E+04   0.606E+02 -.613E+03 0.310E+04   0.440E+01 -.955E+01 0.682E+01   -.676E-01 0.514E-01 0.643E-01
   -.365E+03 0.274E+03 0.893E+03   0.362E+03 -.275E+03 -.893E+03   0.198E+01 0.483E+00 -.262E+00   0.176E-01 0.125E+00 0.490E-01
   -.352E+02 0.508E+03 -.141E+04   0.371E+02 -.508E+03 0.142E+04   -.110E+01 0.294E+00 -.310E+01   0.185E-01 0.430E-01 -.705E-01
   -.534E+03 0.668E+03 0.269E+04   0.528E+03 -.657E+03 -.268E+04   0.597E+01 -.107E+02 -.480E+01   -.137E+00 0.196E+00 -.223E+00
   -.179E+03 0.318E+03 -.280E+04   0.180E+03 -.319E+03 0.279E+04   -.295E+00 0.838E+00 0.160E+01   -.621E-01 -.292E-01 0.627E-01
   -.175E+03 0.464E+03 0.132E+04   0.175E+03 -.465E+03 -.132E+04   0.245E-01 0.120E+01 0.323E+01   0.250E+00 -.126E+00 -.469E-01
   -.141E+03 -.593E+02 -.317E+04   0.133E+03 0.585E+02 0.316E+04   0.806E+01 0.804E+00 0.847E+01   0.142E+00 -.466E-01 0.581E-01
   0.309E+03 -.183E+03 0.400E+03   -.310E+03 0.181E+03 -.396E+03   0.222E-01 0.937E+00 -.314E+01   0.274E-01 -.169E+00 -.227E+00
   0.469E+03 0.504E+01 -.149E+04   -.470E+03 -.512E+01 0.149E+04   0.112E+01 0.302E-01 -.384E+01   0.193E-02 0.645E-01 -.133E+00
   0.942E+03 0.411E+01 0.242E+04   -.935E+03 -.418E+01 -.242E+04   -.546E+01 0.324E-01 0.338E+01   0.219E+00 0.277E-01 -.810E-01
   0.420E+03 -.271E+02 -.117E+04   -.422E+03 0.273E+02 0.118E+04   0.128E+01 -.943E-01 -.406E+01   -.653E-01 -.904E-01 -.414E+00
   0.497E+03 -.126E+02 0.295E+04   -.498E+03 0.126E+02 -.294E+04   0.300E+00 0.125E+00 -.744E+01   0.923E-02 -.875E-01 -.112E+00
   0.738E+03 0.209E+02 -.276E+04   -.740E+03 -.212E+02 0.276E+04   0.149E+01 0.248E+00 0.180E+01   0.248E+00 0.342E-02 0.767E-01
   0.331E+03 0.524E+02 0.128E+04   -.332E+03 -.520E+02 -.129E+04   0.593E+00 -.292E+00 0.331E+01   0.191E+00 0.120E+00 0.362E-01
   0.421E+03 0.197E+03 -.944E+03   -.421E+03 -.194E+03 0.946E+03   0.972E+00 -.193E+01 -.276E+01   -.344E+00 0.123E+00 -.289E+00
   0.397E+03 0.372E+02 0.316E+04   -.397E+03 -.368E+02 -.316E+04   -.573E+00 -.445E+00 -.608E+01   -.249E+00 0.188E+00 -.175E+00
   0.646E+03 -.696E+01 -.234E+04   -.647E+03 0.668E+01 0.234E+04   0.126E+01 0.270E+00 0.120E+01   -.684E-02 -.127E-01 0.124E+00
   0.426E+03 -.934E+01 0.189E+04   -.426E+03 0.960E+01 -.189E+04   -.199E+00 -.226E+00 0.466E+01   0.155E-02 -.284E-01 0.286E-01
   -.511E+03 -.290E+03 -.241E+04   0.510E+03 0.294E+03 0.241E+04   0.383E+00 -.351E+01 -.197E+01   0.315E-01 0.218E-01 -.167E+00
   -.204E+03 -.424E+03 0.170E+04   0.204E+03 0.426E+03 -.171E+04   0.505E-01 -.147E+01 0.364E+01   0.317E-01 0.414E-01 -.154E+00
   -.282E+02 -.428E+03 -.360E+03   0.282E+02 0.426E+03 0.365E+03   0.366E+00 0.123E+01 -.417E+01   0.184E+00 -.189E-01 0.767E-01
   0.569E+02 -.396E+03 0.304E+04   -.509E+02 0.395E+03 -.302E+04   -.511E+01 0.180E+01 -.985E+01   0.354E-01 -.187E+00 -.125E+00
   -.406E+03 -.736E+03 -.191E+04   0.403E+03 0.733E+03 0.192E+04   0.319E+01 0.333E+01 -.541E+01   -.238E+00 -.240E-01 -.318E+00
   -.278E+03 -.447E+03 0.225E+04   0.281E+03 0.444E+03 -.225E+04   -.172E+01 0.262E+01 0.157E+01   -.457E+00 -.214E+00 -.213E+00
   -.721E+02 -.615E+03 -.312E+04   0.675E+02 0.605E+03 0.311E+04   0.454E+01 0.955E+01 0.688E+01   -.634E-01 -.871E-01 0.809E-01
   -.384E+03 -.255E+03 0.887E+03   0.381E+03 0.257E+03 -.887E+03   0.217E+01 -.635E+00 0.115E+00   -.686E-01 -.126E+00 -.391E-01
   -.177E+03 -.349E+03 -.136E+04   0.177E+03 0.350E+03 0.136E+04   0.533E+00 -.927E+00 -.453E+01   0.297E-01 0.162E+00 -.195E+00
   -.437E+03 -.415E+03 0.277E+04   0.436E+03 0.413E+03 -.276E+04   0.185E+01 0.248E+01 -.523E+01   -.675E-01 0.209E+00 -.215E+00
   -.181E+03 -.323E+03 -.280E+04   0.181E+03 0.324E+03 0.279E+04   -.448E+00 -.748E+00 0.170E+01   -.107E+00 -.450E-01 0.509E-01
   -.176E+03 -.470E+03 0.132E+04   0.176E+03 0.471E+03 -.132E+04   0.144E+00 -.132E+01 0.334E+01   0.216E+00 0.105E+00 -.801E-01
   0.114E+03 -.132E+03 0.135E+04   -.115E+03 0.134E+03 -.136E+04   0.625E+00 -.303E+01 0.475E+01   0.676E-01 -.579E-02 0.261E-01
   0.228E+02 -.131E+03 -.822E+03   -.222E+02 0.132E+03 0.824E+03   -.122E+01 -.135E+01 -.298E+01   0.103E+00 0.158E-02 -.228E-01
   0.629E+01 -.309E+02 -.134E+04   -.698E+01 0.307E+02 0.134E+04   0.744E+00 0.766E+00 -.489E+01   0.266E-02 0.236E-01 0.233E-01
   0.128E+03 -.129E+03 0.103E+03   -.129E+03 0.131E+03 -.104E+03   0.103E+01 -.285E+01 -.302E+00   0.851E-01 -.238E-01 -.812E-01
   -.273E+02 -.636E+02 -.127E+04   0.265E+02 0.628E+02 0.127E+04   0.130E+01 0.151E+01 -.595E+01   -.591E-01 0.689E-02 -.104E-01
   0.729E+02 -.160E+03 0.258E+03   -.744E+02 0.161E+03 -.258E+03   0.177E+01 -.210E+01 -.466E+00   -.801E-01 -.650E-01 -.196E+00
   0.134E+03 -.177E+03 -.425E+03   -.135E+03 0.178E+03 0.426E+03   0.108E+01 -.170E+01 0.464E+00   0.209E-01 -.378E-01 -.446E-02
   -.131E+03 0.906E+02 0.112E+04   0.132E+03 -.919E+02 -.113E+04   -.300E+00 0.735E+00 0.386E+01   -.285E-01 0.183E-01 -.422E-01
   0.452E+02 0.682E+02 -.116E+04   -.454E+02 -.693E+02 0.117E+04   0.399E+00 0.787E+00 -.572E+01   -.770E-01 -.247E-02 -.150E-01
   0.727E+02 -.147E+03 0.443E+03   -.739E+02 0.149E+03 -.442E+03   0.142E+01 -.253E+01 -.138E+01   -.831E-01 0.505E-01 -.141E+00
   0.115E+03 -.166E+03 -.126E+03   -.117E+03 0.167E+03 0.125E+03   0.136E+01 -.201E+01 0.152E+01   -.261E-01 0.767E-01 0.268E-01
   0.444E+02 -.183E+03 0.129E+04   -.453E+02 0.185E+03 -.130E+04   0.908E+00 -.302E+01 0.448E+01   0.564E-01 0.567E-01 -.602E-01
   -.225E+03 0.196E+02 -.359E+03   0.227E+03 -.197E+02 0.359E+03   -.173E+01 -.608E-01 0.503E+00   -.732E-01 0.376E-01 -.120E+00
   0.174E+02 0.538E+01 0.122E+04   -.174E+02 -.539E+01 -.123E+04   -.172E+00 -.586E-02 0.429E+01   -.430E-01 0.233E-01 -.375E-02
   0.807E+02 -.815E+01 -.110E+04   -.821E+02 0.812E+01 0.111E+04   0.250E+01 -.118E+00 -.455E+01   0.643E-01 -.895E-02 0.262E-01
   -.120E+03 -.219E+02 0.480E+03   0.121E+03 0.219E+02 -.480E+03   -.240E+01 0.579E+00 -.239E+01   -.204E-01 -.110E+00 0.256E-01
   -.652E+01 -.350E+02 -.136E+04   0.478E+01 0.351E+02 0.136E+04   0.309E+01 0.294E+00 -.564E+01   -.985E-01 -.252E-01 0.405E-01
   -.204E+03 -.323E+02 -.501E+02   0.207E+03 0.323E+02 0.525E+02   -.291E+01 0.776E-01 -.219E+01   -.897E-01 -.691E-01 -.154E+00
   -.213E+03 -.212E+02 0.129E+04   0.215E+03 0.211E+02 -.129E+04   -.442E+01 0.241E+00 0.382E+01   -.849E-01 -.603E-01 -.569E-01
   -.156E+03 0.213E+01 -.604E+03   0.157E+03 -.204E+01 0.605E+03   -.186E+01 -.866E-01 0.887E-01   -.620E-01 -.231E-01 -.200E-01
   0.357E+02 -.162E+01 0.114E+04   -.361E+02 0.166E+01 -.115E+04   0.214E+00 -.269E-01 0.433E+01   0.209E+00 -.878E-02 -.457E-01
   0.112E+03 0.261E+02 -.127E+04   -.113E+03 -.264E+02 0.128E+04   0.188E+01 -.537E-01 -.484E+01   0.116E+00 0.319E-01 0.105E+00
   -.181E+03 0.386E+02 0.208E+03   0.183E+03 -.396E+02 -.207E+03   -.186E+01 0.668E+00 -.185E+01   0.991E-01 0.110E+00 -.548E-01
   -.177E+03 -.242E+01 -.482E+03   0.179E+03 0.250E+01 0.483E+03   -.249E+01 -.602E-01 0.218E+00   0.434E-01 -.244E-01 -.336E-01
   0.113E+03 0.134E+03 0.135E+04   -.114E+03 -.136E+03 -.136E+04   0.657E+00 0.298E+01 0.478E+01   0.593E-01 0.138E-01 0.220E-01
   0.292E+01 0.103E+03 -.849E+03   -.215E+01 -.104E+03 0.852E+03   -.125E+01 0.186E+01 -.240E+01   0.866E-01 -.549E-01 -.710E-01
   0.824E+02 -.236E+02 0.802E+03   -.838E+02 0.230E+02 -.803E+03   0.190E+01 0.102E+01 0.146E+00   0.321E-01 -.531E-01 -.855E-01
   0.351E+01 0.325E+02 -.134E+04   -.412E+01 -.325E+02 0.134E+04   0.714E+00 -.694E+00 -.486E+01   -.207E-01 0.477E-02 0.463E-01
   0.124E+03 0.131E+03 0.102E+03   -.126E+03 -.133E+03 -.102E+03   0.124E+01 0.290E+01 -.212E+00   0.584E-01 0.349E-01 -.109E+00
   -.767E+00 0.450E+02 -.127E+04   -.293E+00 -.442E+02 0.128E+04   0.112E+01 -.131E+01 -.569E+01   -.551E-01 -.466E-01 -.407E-01
   0.884E+02 0.147E+03 0.271E+03   -.897E+02 -.149E+03 -.271E+03   0.152E+01 0.203E+01 -.792E+00   -.344E-01 0.415E-01 -.189E+00
   0.148E+03 0.190E+03 -.412E+03   -.150E+03 -.191E+03 0.413E+03   0.136E+01 0.157E+01 0.612E+00   0.801E-01 0.622E-01 0.322E-01
   -.104E+03 -.723E+02 0.112E+04   0.105E+03 0.733E+02 -.112E+04   -.147E+01 -.126E+01 0.397E+01   0.869E-01 0.135E+00 0.291E-01
   0.527E+02 0.176E+03 0.415E+03   -.538E+02 -.178E+03 -.415E+03   0.146E+01 0.193E+01 -.221E+00   -.154E+00 0.158E-01 -.116E+00
   0.112E+03 0.163E+03 -.127E+03   -.113E+03 -.165E+03 0.126E+03   0.128E+01 0.198E+01 0.159E+01   -.634E-02 -.487E-01 0.413E-01
   0.417E+02 0.181E+03 0.129E+04   -.424E+02 -.183E+03 -.130E+04   0.823E+00 0.304E+01 0.445E+01   0.288E-01 -.621E-01 -.679E-01
 -----------------------------------------------------------------------------------------------
   -.339E+02 -.659E+00 0.458E+02   -.284E-12 -.162E-11 0.205E-11   0.350E+02 0.938E+00 -.407E+02   -.589E+00 -.242E+00 -.505E+01
 
 
 POSITION                                       TOTAL-FORCE (eV/Angst)
 -----------------------------------------------------------------------------------
      1.09704      8.84483      5.01054        -0.328175     -0.688047     -0.136162
      1.68071      8.84483      1.92599         0.104714      0.135507     -0.639824
      9.83122      4.05562      3.46826        -0.067320     -0.047005      0.048675
     10.41489      4.05562      0.38372        -0.193955     -0.215046      1.975247
      4.00844      4.05562      4.49645         0.178573     -0.615983      0.274145
      4.59211      4.05562      1.41190         0.940437      0.574948      0.145118
     12.15895      8.84483      6.03872        -0.116264      0.624679     -1.698609
     12.74262      8.84483      2.95417        -0.576929     -0.579679      0.188236
      6.91983      8.84483      3.98236         0.781194     -0.029371     -0.138130
      7.50350      8.84483      0.89781        -0.435707      0.618981      1.290832
     15.07034      4.05562      5.52463         0.323484     -0.392665     -0.966669
     15.65401      4.05562      2.44008        -0.055488      0.006758     -0.305272
      7.09414      5.32096      6.14533        -0.722535     -0.073227     -1.881258
      7.67781      5.32096      3.06079        -0.229586     -0.442040      0.371867
     15.82832      0.53176      4.60306         0.212996      0.012922      0.299324
     16.41199      0.53176      1.51852         0.999292     -0.005906     -0.737094
      1.85502      5.32096      4.08897        -0.237229     -0.021506      0.091731
      2.43869      5.32096      1.00443        -1.050680     -0.003856      1.452162
     10.00553      0.53176      5.63124        -0.203839     -0.010542     -1.189330
     10.58920      0.53176      2.54670         0.028667      0.168337     -0.130919
      4.76642      0.53176      3.57488        -0.073506      0.671594     -0.242621
      5.35009      0.53176      0.49033        -0.959120      0.081013      1.724383
     12.91693      5.32096      5.11715        -0.235206     -0.016088     -0.930835
     13.50060      5.32096      2.03261         0.195550      0.006340     -0.864114
      1.09704      1.79709      5.01054        -0.317440      0.727234     -0.108881
      1.68071      1.79709      1.92599         0.105815     -0.125276     -0.608378
      9.83122      6.58630      3.46826         0.558668      0.011039      0.622203
     10.41489      6.58630      0.38372         0.862907      0.143837      2.070292
      4.00844      6.58630      4.49645        -0.237801     -0.353257     -0.029779
      4.59211      6.58630      1.41190         0.898576     -0.623537      0.148268
     12.15895      1.79709      6.03872        -0.111417     -0.589978     -1.680117
     12.74262      1.79709      2.95417        -0.551713      0.571927      0.098287
      6.91983      1.79709      3.98236        -0.093415      0.097818      0.314844
      7.50350      1.79709      0.89781        -0.008211      0.305977      1.543770
     15.07034      6.58630      5.52463         0.312109      0.417877     -0.962214
     15.65401      6.58630      2.44008        -0.021482     -0.018103     -0.308524
      0.35490      2.14299      0.00000         0.075824     -1.051173      1.432563
      7.92174      6.93219      4.62682        -0.548642     -0.310071     -0.329064
     16.07225      2.14299      6.16909         0.050847      0.618692     -0.465995
     16.65592      2.14299      3.08454        -0.131868     -0.590211     -0.677080
      2.09895      6.93219      5.65500         0.383010      0.650773     -0.450535
      2.68262      6.93219      2.57045         0.229544     -0.220404     -0.707311
     10.83313      2.14299      4.11272        -0.062455     -0.396565      1.116871
     11.41680      2.14299      1.02818         0.383569     -0.466281      0.068262
      5.01035      2.14299      5.14091         0.075104     -0.245753     -0.656352
      5.59402      2.14299      2.05636         0.167575     -0.232586     -1.292500
     13.74453      6.93219      3.59863        -0.035859     -0.400457      0.636883
     14.32820      6.93219      0.51409         0.094094     -0.662784      1.440305
      2.51330      0.53176      3.60341         0.174098     -0.210618      0.977065
      3.09697      0.53176      0.51887        -0.241136      0.008604     -0.146241
     10.66382      5.32096      5.14568         1.183709     -0.155335     -0.084743
     11.24749      5.32096      2.06114        -0.886039      0.487806     -1.582519
      4.84103      5.32096      6.17386         1.250888      0.374060     -0.310198
      5.42470      5.32096      3.08932        -0.100428      0.052691      0.064883
      6.00837      5.32096      0.00478        -1.757578      0.085468      1.377105
     13.57521      0.53176      4.63159        -0.370008     -0.024582      0.192876
      0.18558      5.32096      1.03296         0.065100      0.010059     -0.464551
      7.75242      0.53176      5.65977         0.650656     -0.321368     -0.275281
      8.33609      0.53176      2.57523         0.044706     -0.274420     -1.363312
     16.48660      5.32096      4.11750        -0.579526     -0.006717      0.752181
      0.35490      8.49893      0.00000         0.103895      1.036221      1.426697
      7.92174      3.70973      4.62682        -0.407229      0.541275      0.460762
      8.50541      3.70973      1.54227         0.567970      0.400557     -0.716951
     16.07225      8.49893      6.16909         0.075667     -0.648759     -0.477612
     16.65592      8.49893      3.08454        -0.145626      0.591199     -0.674302
      2.09895      3.70973      5.65500        -0.004727     -0.570807     -0.468260
      2.68262      3.70973      2.57045         0.174697      0.310956     -0.867816
     10.83313      8.49893      4.11272        -0.194505      0.288059      1.118882
     11.41680      8.49893      1.02818        -0.186270     -0.089385     -0.186746
      5.59402      8.49893      2.05636         0.191354      0.042171     -0.104104
     13.74453      3.70973      3.59863        -0.065981      0.394499      0.682731
     14.32820      3.70973      0.51409         0.099597      0.659507      1.452753
 -----------------------------------------------------------------------------------
    total drift:                                0.564308      0.037002      0.041190


--------------------------------------------------------------------------------------------------------



  FREE ENERGIE OF THE ION-ELECTRON SYSTEM (eV)
  ---------------------------------------------------
  free  energy   TOTEN  =      -342.74497101 eV

  energy  without entropy=     -341.36101375  energy(sigma->0) =     -342.05299238
 


--------------------------------------------------------------------------------------------------------


    POTLOK:  cpu time    0.0550: real time    0.0552


--------------------------------------------------------------------------------------------------------


     LOOP+:  cpu time  104.0197: real time  104.3464
    4ORBIT:  cpu time    0.0000: real time    0.0000

 total amount of memory used by VASP MPI-rank0    46724. kBytes
=======================================================================

   base      :      30000. kBytes
   nonlr-proj:       2058. kBytes
   fftplans  :       3623. kBytes
   grid      :       6327. kBytes
   one-center:         93. kBytes
   wavefun   :       4623. kBytes
 
  
  
 General timing and accounting informations for this job:
 ========================================================
  
                  Total CPU time used (sec):      106.443
                            User time (sec):      105.700
                          System time (sec):        0.743
                         Elapsed time (sec):      107.190
  
                   Maximum memory used (kb):      248672.
                   Average memory used (kb):           0.
  
                          Minor page faults:        82391
                          Major page faults:            0
                 Voluntary context switches:          947
