  72  72   0   0
  0.2706271E+02  0.1007973E-08  0.1007973E-08  0.2051014E-08  0.5000000E-15
  1.000000000000000E-004
  CAR 
 "Millerite NiS"                         
     11.08791746    -66.33421998  301      1.37158025      1.00000000
    -66.334  0.0000E+00  0.0000E+00
    -66.076  0.0000E+00  0.0000E+00
    -65.818  0.0000E+00  0.0000E+00
    -65.560  0.0000E+00  0.0000E+00
    -65.302  0.0000E+00  0.0000E+00
    -65.044  0.0000E+00  0.0000E+00
    -64.786  0.0000E+00  0.0000E+00
    -64.528  0.0000E+00  0.0000E+00
    -64.270  0.0000E+00  0.0000E+00
    -64.012  0.0000E+00  0.0000E+00
    -63.753  0.4736E-09  0.1222E-09
    -63.495  0.3039E-04  0.7843E-05
    -63.237  0.9003E-01  0.2324E-01
    -62.979  0.1452E+02  0.3770E+01
    -62.721  0.1745E+03  0.4881E+02
    -62.463  0.2801E+03  0.1211E+03
    -62.205  0.1755E+03  0.1664E+03
    -61.947  0.8160E+02  0.1874E+03
    -61.689  0.4471E+02  0.1990E+03
    -61.431  0.3872E+02  0.2090E+03
    -61.173  0.1724E+02  0.2134E+03
    -60.915  0.8994E+01  0.2157E+03
    -60.657  0.1003E+01  0.2160E+03
    -60.399  0.7668E-02  0.2160E+03
    -60.140  0.2868E-05  0.2160E+03
    -59.882  0.4512E-10  0.2160E+03
    -59.624  0.0000E+00  0.2160E+03
    -59.366  0.0000E+00  0.2160E+03
    -59.108  0.0000E+00  0.2160E+03
    -58.850  0.0000E+00  0.2160E+03
    -58.592  0.0000E+00  0.2160E+03
    -58.334  0.0000E+00  0.2160E+03
    -58.076  0.0000E+00  0.2160E+03
    -57.818  0.0000E+00  0.2160E+03
    -57.560  0.0000E+00  0.2160E+03
    -57.302  0.0000E+00  0.2160E+03
    -57.044  0.0000E+00  0.2160E+03
    -56.785  0.0000E+00  0.2160E+03
    -56.527  0.0000E+00  0.2160E+03
    -56.269  0.0000E+00  0.2160E+03
    -56.011  0.0000E+00  0.2160E+03
    -55.753  0.0000E+00  0.2160E+03
    -55.495  0.0000E+00  0.2160E+03
    -55.237  0.0000E+00  0.2160E+03
    -54.979  0.0000E+00  0.2160E+03
    -54.721  0.0000E+00  0.2160E+03
    -54.463  0.0000E+00  0.2160E+03
    -54.205  0.0000E+00  0.2160E+03
    -53.947  0.0000E+00  0.2160E+03
    -53.689  0.0000E+00  0.2160E+03
    -53.431  0.0000E+00  0.2160E+03
    -53.172  0.0000E+00  0.2160E+03
    -52.914  0.0000E+00  0.2160E+03
    -52.656  0.0000E+00  0.2160E+03
    -52.398  0.0000E+00  0.2160E+03
    -52.140  0.0000E+00  0.2160E+03
    -51.882  0.0000E+00  0.2160E+03
    -51.624  0.0000E+00  0.2160E+03
    -51.366  0.0000E+00  0.2160E+03
    -51.108  0.0000E+00  0.2160E+03
    -50.850  0.0000E+00  0.2160E+03
    -50.592  0.0000E+00  0.2160E+03
    -50.334  0.0000E+00  0.2160E+03
    -50.076  0.0000E+00  0.2160E+03
    -49.817  0.0000E+00  0.2160E+03
    -49.559  0.0000E+00  0.2160E+03
    -49.301  0.0000E+00  0.2160E+03
    -49.043  0.0000E+00  0.2160E+03
    -48.785  0.0000E+00  0.2160E+03
    -48.527  0.0000E+00  0.2160E+03
    -48.269  0.0000E+00  0.2160E+03
    -48.011  0.0000E+00  0.2160E+03
    -47.753  0.0000E+00  0.2160E+03
    -47.495  0.0000E+00  0.2160E+03
    -47.237  0.0000E+00  0.2160E+03
    -46.979  0.0000E+00  0.2160E+03
    -46.721  0.0000E+00  0.2160E+03
    -46.463  0.0000E+00  0.2160E+03
    -46.204  0.0000E+00  0.2160E+03
    -45.946  0.0000E+00  0.2160E+03
    -45.688  0.0000E+00  0.2160E+03
    -45.430  0.0000E+00  0.2160E+03
    -45.172  0.0000E+00  0.2160E+03
    -44.914  0.0000E+00  0.2160E+03
    -44.656  0.0000E+00  0.2160E+03
    -44.398  0.0000E+00  0.2160E+03
    -44.140  0.0000E+00  0.2160E+03
    -43.882  0.0000E+00  0.2160E+03
    -43.624  0.0000E+00  0.2160E+03
    -43.366  0.0000E+00  0.2160E+03
    -43.108  0.0000E+00  0.2160E+03
    -42.850  0.0000E+00  0.2160E+03
    -42.591  0.0000E+00  0.2160E+03
    -42.333  0.0000E+00  0.2160E+03
    -42.075  0.0000E+00  0.2160E+03
    -41.817  0.0000E+00  0.2160E+03
    -41.559  0.0000E+00  0.2160E+03
    -41.301  0.0000E+00  0.2160E+03
    -41.043  0.0000E+00  0.2160E+03
    -40.785  0.0000E+00  0.2160E+03
    -40.527  0.0000E+00  0.2160E+03
    -40.269  0.0000E+00  0.2160E+03
    -40.011  0.0000E+00  0.2160E+03
    -39.753  0.0000E+00  0.2160E+03
    -39.495  0.0000E+00  0.2160E+03
    -39.236  0.0000E+00  0.2160E+03
    -38.978  0.0000E+00  0.2160E+03
    -38.720  0.0000E+00  0.2160E+03
    -38.462  0.0000E+00  0.2160E+03
    -38.204  0.0000E+00  0.2160E+03
    -37.946  0.0000E+00  0.2160E+03
    -37.688  0.0000E+00  0.2160E+03
    -37.430  0.0000E+00  0.2160E+03
    -37.172  0.0000E+00  0.2160E+03
    -36.914  0.0000E+00  0.2160E+03
    -36.656  0.0000E+00  0.2160E+03
    -36.398  0.0000E+00  0.2160E+03
    -36.140  0.0000E+00  0.2160E+03
    -35.882  0.0000E+00  0.2160E+03
    -35.623  0.0000E+00  0.2160E+03
    -35.365  0.0000E+00  0.2160E+03
    -35.107  0.0000E+00  0.2160E+03
    -34.849  0.0000E+00  0.2160E+03
    -34.591  0.0000E+00  0.2160E+03
    -34.333  0.0000E+00  0.2160E+03
    -34.075  0.0000E+00  0.2160E+03
    -33.817  0.0000E+00  0.2160E+03
    -33.559  0.0000E+00  0.2160E+03
    -33.301  0.0000E+00  0.2160E+03
    -33.043  0.0000E+00  0.2160E+03
    -32.785  0.0000E+00  0.2160E+03
    -32.527  0.0000E+00  0.2160E+03
    -32.268  0.0000E+00  0.2160E+03
    -32.010  0.0000E+00  0.2160E+03
    -31.752  0.0000E+00  0.2160E+03
    -31.494  0.0000E+00  0.2160E+03
    -31.236  0.0000E+00  0.2160E+03
    -30.978  0.0000E+00  0.2160E+03
    -30.720  0.0000E+00  0.2160E+03
    -30.462  0.0000E+00  0.2160E+03
    -30.204  0.0000E+00  0.2160E+03
    -29.946  0.0000E+00  0.2160E+03
    -29.688  0.0000E+00  0.2160E+03
    -29.430  0.0000E+00  0.2160E+03
    -29.172  0.0000E+00  0.2160E+03
    -28.914  0.0000E+00  0.2160E+03
    -28.655  0.0000E+00  0.2160E+03
    -28.397  0.0000E+00  0.2160E+03
    -28.139  0.0000E+00  0.2160E+03
    -27.881  0.0000E+00  0.2160E+03
    -27.623  0.0000E+00  0.2160E+03
    -27.365  0.0000E+00  0.2160E+03
    -27.107  0.0000E+00  0.2160E+03
    -26.849  0.0000E+00  0.2160E+03
    -26.591  0.0000E+00  0.2160E+03
    -26.333  0.0000E+00  0.2160E+03
    -26.075  0.0000E+00  0.2160E+03
    -25.817  0.0000E+00  0.2160E+03
    -25.559  0.0000E+00  0.2160E+03
    -25.300  0.0000E+00  0.2160E+03
    -25.042  0.0000E+00  0.2160E+03
    -24.784  0.0000E+00  0.2160E+03
    -24.526  0.0000E+00  0.2160E+03
    -24.268  0.0000E+00  0.2160E+03
    -24.010  0.0000E+00  0.2160E+03
    -23.752  0.0000E+00  0.2160E+03
    -23.494  0.0000E+00  0.2160E+03
    -23.236  0.0000E+00  0.2160E+03
    -22.978  0.0000E+00  0.2160E+03
    -22.720  0.0000E+00  0.2160E+03
    -22.462  0.0000E+00  0.2160E+03
    -22.204  0.0000E+00  0.2160E+03
    -21.946  0.0000E+00  0.2160E+03
    -21.687  0.0000E+00  0.2160E+03
    -21.429  0.0000E+00  0.2160E+03
    -21.171  0.0000E+00  0.2160E+03
    -20.913  0.0000E+00  0.2160E+03
    -20.655  0.0000E+00  0.2160E+03
    -20.397  0.0000E+00  0.2160E+03
    -20.139  0.0000E+00  0.2160E+03
    -19.881  0.0000E+00  0.2160E+03
    -19.623  0.0000E+00  0.2160E+03
    -19.365  0.0000E+00  0.2160E+03
    -19.107  0.0000E+00  0.2160E+03
    -18.849  0.0000E+00  0.2160E+03
    -18.591  0.0000E+00  0.2160E+03
    -18.332  0.0000E+00  0.2160E+03
    -18.074  0.0000E+00  0.2160E+03
    -17.816  0.0000E+00  0.2160E+03
    -17.558  0.0000E+00  0.2160E+03
    -17.300  0.0000E+00  0.2160E+03
    -17.042  0.0000E+00  0.2160E+03
    -16.784  0.0000E+00  0.2160E+03
    -16.526  0.0000E+00  0.2160E+03
    -16.268  0.0000E+00  0.2160E+03
    -16.010  0.0000E+00  0.2160E+03
    -15.752  0.0000E+00  0.2160E+03
    -15.494  0.0000E+00  0.2160E+03
    -15.236  0.2151E-14  0.2160E+03
    -14.978  0.1334E-08  0.2160E+03
    -14.719  0.3288E-04  0.2160E+03
    -14.461  0.3328E-01  0.2160E+03
    -14.203  0.1602E+01  0.2164E+03
    -13.945  0.4927E+01  0.2177E+03
    -13.687  0.1476E+01  0.2181E+03
    -13.429  0.5724E+01  0.2196E+03
    -13.171  0.1745E+02  0.2241E+03
    -12.913  0.2069E+02  0.2294E+03
    -12.655  0.2860E+02  0.2368E+03
    -12.397  0.2758E+02  0.2439E+03
    -12.139  0.3529E+02  0.2530E+03
    -11.881  0.3695E+02  0.2625E+03
    -11.623  0.2765E+02  0.2697E+03
    -11.365  0.2047E+02  0.2750E+03
    -11.106  0.1302E+02  0.2783E+03
    -10.848  0.1503E+02  0.2822E+03
    -10.590  0.1038E+02  0.2849E+03
    -10.332  0.5145E+01  0.2862E+03
    -10.074  0.5204E+01  0.2875E+03
     -9.816  0.1724E+01  0.2880E+03
     -9.558  0.3907E-01  0.2880E+03
     -9.300  0.4245E-04  0.2880E+03
     -9.042  0.1899E-08  0.2880E+03
     -8.784  0.3442E-14  0.2880E+03
     -8.526  0.0000E+00  0.2880E+03
     -8.268  0.0000E+00  0.2880E+03
     -8.010  0.0000E+00  0.2880E+03
     -7.751  0.0000E+00  0.2880E+03
     -7.493  0.0000E+00  0.2880E+03
     -7.235  0.0000E+00  0.2880E+03
     -6.977  0.3011E-14  0.2880E+03
     -6.719  0.1790E-08  0.2880E+03
     -6.461  0.4419E-04  0.2880E+03
     -6.203  0.4880E-01  0.2880E+03
     -5.945  0.2991E+01  0.2888E+03
     -5.687  0.1514E+02  0.2927E+03
     -5.429  0.1835E+02  0.2974E+03
     -5.171  0.2762E+02  0.3046E+03
     -4.913  0.4350E+02  0.3158E+03
     -4.655  0.5180E+02  0.3292E+03
     -4.397  0.4563E+02  0.3409E+03
     -4.138  0.3414E+02  0.3497E+03
     -3.880  0.3792E+02  0.3595E+03
     -3.622  0.3830E+02  0.3694E+03
     -3.364  0.4339E+02  0.3806E+03
     -3.106  0.6633E+02  0.3977E+03
     -2.848  0.7455E+02  0.4170E+03
     -2.590  0.7579E+02  0.4365E+03
     -2.332  0.6994E+02  0.4546E+03
     -2.074  0.4895E+02  0.4672E+03
     -1.816  0.4254E+02  0.4782E+03
     -1.558  0.5079E+02  0.4913E+03
     -1.300  0.5980E+02  0.5067E+03
     -1.042  0.7500E+02  0.5261E+03
     -0.783  0.9835E+02  0.5515E+03
     -0.525  0.1207E+03  0.5826E+03
     -0.267  0.1629E+03  0.6246E+03
     -0.009  0.1731E+03  0.6693E+03
      0.249  0.1325E+03  0.7035E+03
      0.507  0.1047E+03  0.7305E+03
      0.765  0.9714E+02  0.7556E+03
      1.023  0.6974E+02  0.7736E+03
      1.281  0.5208E+02  0.7870E+03
      1.539  0.5626E+02  0.8016E+03
      1.797  0.5660E+02  0.8162E+03
      2.055  0.5979E+02  0.8316E+03
      2.313  0.6224E+02  0.8477E+03
      2.571  0.4879E+02  0.8603E+03
      2.830  0.1691E+02  0.8646E+03
      3.088  0.4860E+01  0.8659E+03
      3.346  0.1320E+01  0.8662E+03
      3.604  0.4971E+01  0.8675E+03
      3.862  0.6521E+01  0.8692E+03
      4.120  0.8966E+01  0.8715E+03
      4.378  0.4226E+01  0.8726E+03
      4.636  0.1735E+02  0.8771E+03
      4.894  0.2095E+02  0.8825E+03
      5.152  0.1499E+02  0.8863E+03
      5.410  0.1632E+02  0.8906E+03
      5.668  0.1861E+02  0.8954E+03
      5.926  0.2165E+02  0.9009E+03
      6.185  0.2941E+02  0.9085E+03
      6.443  0.2854E+02  0.9159E+03
      6.701  0.2581E+02  0.9226E+03
      6.959  0.3294E+02  0.9311E+03
      7.217  0.3946E+02  0.9412E+03
      7.475  0.4483E+02  0.9528E+03
      7.733  0.2533E+02  0.9594E+03
      7.991  0.2490E+01  0.9600E+03
      8.249  0.1999E-01  0.9600E+03
      8.507  0.8459E-05  0.9600E+03
      8.765  0.1573E-09  0.9600E+03
      9.023  0.0000E+00  0.9600E+03
      9.281  0.0000E+00  0.9600E+03
      9.539  0.0000E+00  0.9600E+03
      9.798  0.0000E+00  0.9600E+03
     10.056  0.0000E+00  0.9600E+03
     10.314  0.0000E+00  0.9600E+03
     10.572  0.0000E+00  0.9600E+03
     10.830  0.0000E+00  0.9600E+03
     11.088  0.0000E+00  0.9600E+03
