"Millerite NiS"                         
           1
     8.700731   -4.005399    0.000000
     0.000000   11.452784    0.000000
     0.000000    0.000000   19.870330
   Ni   S 
    36    36
Direct configuration=     1
   0.63793592  0.42904558  0.01026348
   0.72899293  0.61115959  0.13623596
   0.82004993  0.79327361  0.26220843
   0.91110694  0.97538762  0.38818090
   0.45636426  0.06590227  0.22021761
   0.54742127  0.24801628  0.34619008
   0.63847828  0.43013030  0.47216255
   0.36530726  0.88378825  0.09424513
   0.00162159  0.15641692  0.05225431
   0.09267860  0.33853093  0.17822678
   0.18373560  0.52064495  0.30419926
   0.27479261  0.70275896  0.43017173
   0.68605153  0.26107081  0.07682885
   0.77710854  0.44318482  0.20280132
   0.86816555  0.62529884  0.32877380
   0.95922256  0.80741285  0.45474627
   0.59553689  0.08004151  0.41275545
   0.32236586  0.53369947  0.03483802
   0.41342287  0.71581348  0.16081050
   0.50447988  0.89792750  0.28678297
   0.14079421  0.17055616  0.24479215
   0.23185122  0.35267018  0.37076462
   0.32290822  0.53478419  0.49673710
   0.04973720  0.98844215  0.11881967
   0.08425593  0.79327361  0.26220843
   0.17531294  0.97538762  0.38818090
   0.90214192  0.42904558  0.01026348
   0.99319893  0.61115959  0.13623596
   0.72057026  0.06590227  0.22021761
   0.81162727  0.24801628  0.34619008
   0.90268428  0.43013030  0.47216255
   0.62951326  0.88378825  0.09424513
   0.26582759  0.15641692  0.05225431
   0.35688459  0.33853093  0.17822678
   0.44794160  0.52064495  0.30419926
   0.53899861  0.70275896  0.43017173
   0.01340710  0.57935194  0.25272514
   0.10446411  0.76146596  0.37869761
   0.83129309  0.21512391  0.00078019
   0.92235009  0.39723793  0.12675266
   0.74077844  0.03409462  0.33670679
   0.83183545  0.21620864  0.46267926
   0.55866442  0.66986659  0.08476184
   0.64972143  0.85198061  0.21073431
   0.28603576  0.12460927  0.16874349
   0.37709277  0.30672328  0.29471596
   0.46814978  0.48883730  0.42068844
   0.19497876  0.94249525  0.04277101
   0.13425250  0.15747274  0.41990825
   0.04319549  0.97535872  0.29393577
   0.86108147  0.61113069  0.04199082
   0.95213848  0.79324471  0.16796330
   0.58845281  0.06587337  0.12597247
   0.67950982  0.24798738  0.25194495
   0.77056683  0.43010140  0.37791742
   0.49739581  0.88375935  0.00000000
   0.22476714  0.33850203  0.08398165
   0.31582415  0.52061604  0.20995412
   0.40688116  0.70273006  0.33592660
   0.49793817  0.88484407  0.46189907
   0.49486309  0.21512391  0.00078019
   0.58592009  0.39723793  0.12675266
   0.67697710  0.57935194  0.25272514
   0.76803411  0.76146596  0.37869761
   0.40434844  0.03409462  0.33670679
   0.49540545  0.21620864  0.46267926
   0.22223442  0.66986659  0.08476184
   0.31329143  0.85198061  0.21073431
   0.04066277  0.30672328  0.29471596
   0.13171978  0.48883730  0.42068844
   0.94960576  0.12460927  0.16874349
   0.85854876  0.94249525  0.04277101
