LAMMPS (5 Jun 2019)
OMP_NUM_THREADS environment is not set. Defaulting to 1 thread. (../comm.cpp:88)
  using 1 OpenMP thread(s) per MPI task
Reading data file ...
  triclinic box = (0 0 0) to (9.57841 8.29515 19.4178) with tilt (-4.7892 0 0)
  1 by 1 by 1 MPI processor grid
  reading atoms ...
  54 atoms
  read_data CPU = 0.000751585 secs
34 atoms in group bulk
WARNING: Using 'neigh_modify every 1 delay 0 check yes' setting during minimization (../min.cpp:168)
Neighbor list info ...
  update every 1 steps, delay 0 steps, check yes
  max neighbors/atom: 2000, page size: 100000
  master list distance cutoff = 8.5
  ghost atom cutoff = 8.5
  binsize = 4.25, bins = 4 2 5
  1 neighbor lists, perpetual/occasional/extra = 1 0 0
  (1) pair eam/alloy, perpetual
      attributes: half, newton on
      pair build: half/bin/newton/tri
      stencil: half/bin/3d/newton/tri
      bin: standard
Setting up cg style minimization ...
  Unit style    : metal
  Current step  : 0
Per MPI rank memory allocation (min/avg/max) = 4.134 | 4.134 | 4.134 Mbytes
Step Temp E_pair E_mol TotEng Press 
       0            0   -227.96647            0   -227.96647   -121642.09 
      23            0   -242.97788            0   -242.97788   -38987.125 
Loop time of 0.0106785 on 1 procs for 23 steps with 54 atoms

99.8% CPU use with 1 MPI tasks x 1 OpenMP threads

Minimization stats:
  Stopping criterion = energy tolerance
  Energy initial, next-to-last, final = 
        -227.966465494      -242.97573722     -242.977882671
  Force two-norm initial, final = 10.3227 0.194013
  Force max component initial, final = 2.66968 0.0928388
  Final line search alpha, max atom move = 0.79409 0.0737224
  Iterations, force evaluations = 23 29

MPI task timing breakdown:
Section |  min time  |  avg time  |  max time  |%varavg| %total
---------------------------------------------------------------
Pair    | 0.0096327  | 0.0096327  | 0.0096327  |   0.0 | 90.21
Neigh   | 0.00042892 | 0.00042892 | 0.00042892 |   0.0 |  4.02
Comm    | 0.00032605 | 0.00032605 | 0.00032605 |   0.0 |  3.05
Output  | 0          | 0          | 0          |   0.0 |  0.00
Modify  | 1.7289e-05 | 1.7289e-05 | 1.7289e-05 |   0.0 |  0.16
Other   |            | 0.0002735  |            |       |  2.56

Nlocal:    54 ave 54 max 54 min
Histogram: 1 0 0 0 0 0 0 0 0 0
Nghost:    993 ave 993 max 993 min
Histogram: 1 0 0 0 0 0 0 0 0 0
Neighs:    3351 ave 3351 max 3351 min
Histogram: 1 0 0 0 0 0 0 0 0 0

Total # of neighbors = 3351
Ave neighs/atom = 62.0556
Neighbor list builds = 1
Dangerous builds = 0
System init for write_data ...
Total wall time: 0:00:00
