  72  72   0   0
  0.2729146E+02  0.1007973E-08  0.1007973E-08  0.2068350E-08  0.5000000E-15
  1.000000000000000E-004
  CAR 
 "Millerite NiS"                         
     11.10562181    -66.88543534  301      1.48392407      1.00000000
    -66.885  0.0000E+00  0.0000E+00
    -66.625  0.0000E+00  0.0000E+00
    -66.365  0.0000E+00  0.0000E+00
    -66.106  0.0000E+00  0.0000E+00
    -65.846  0.0000E+00  0.0000E+00
    -65.586  0.0000E+00  0.0000E+00
    -65.326  0.0000E+00  0.0000E+00
    -65.066  0.0000E+00  0.0000E+00
    -64.806  0.0000E+00  0.0000E+00
    -64.546  0.0000E+00  0.0000E+00
    -64.286  0.1056E-09  0.2746E-10
    -64.026  0.6241E-05  0.1623E-05
    -63.766  0.1486E-01  0.3865E-02
    -63.506  0.1793E+01  0.4699E+00
    -63.246  0.2501E+02  0.6972E+01
    -62.986  0.1242E+03  0.3925E+02
    -62.726  0.2542E+03  0.1053E+03
    -62.466  0.2638E+03  0.1739E+03
    -62.206  0.1094E+03  0.2023E+03
    -61.946  0.2927E+02  0.2100E+03
    -61.686  0.1681E+02  0.2143E+03
    -61.426  0.6101E+01  0.2159E+03
    -61.166  0.3276E+00  0.2160E+03
    -60.906  0.1141E-02  0.2160E+03
    -60.646  0.1771E-06  0.2160E+03
    -60.386  0.1059E-11  0.2160E+03
    -60.126  0.0000E+00  0.2160E+03
    -59.866  0.0000E+00  0.2160E+03
    -59.606  0.0000E+00  0.2160E+03
    -59.346  0.0000E+00  0.2160E+03
    -59.086  0.0000E+00  0.2160E+03
    -58.826  0.0000E+00  0.2160E+03
    -58.566  0.0000E+00  0.2160E+03
    -58.306  0.0000E+00  0.2160E+03
    -58.046  0.0000E+00  0.2160E+03
    -57.786  0.0000E+00  0.2160E+03
    -57.527  0.0000E+00  0.2160E+03
    -57.267  0.0000E+00  0.2160E+03
    -57.007  0.0000E+00  0.2160E+03
    -56.747  0.0000E+00  0.2160E+03
    -56.487  0.0000E+00  0.2160E+03
    -56.227  0.0000E+00  0.2160E+03
    -55.967  0.0000E+00  0.2160E+03
    -55.707  0.0000E+00  0.2160E+03
    -55.447  0.0000E+00  0.2160E+03
    -55.187  0.0000E+00  0.2160E+03
    -54.927  0.0000E+00  0.2160E+03
    -54.667  0.0000E+00  0.2160E+03
    -54.407  0.0000E+00  0.2160E+03
    -54.147  0.0000E+00  0.2160E+03
    -53.887  0.0000E+00  0.2160E+03
    -53.627  0.0000E+00  0.2160E+03
    -53.367  0.0000E+00  0.2160E+03
    -53.107  0.0000E+00  0.2160E+03
    -52.847  0.0000E+00  0.2160E+03
    -52.587  0.0000E+00  0.2160E+03
    -52.327  0.0000E+00  0.2160E+03
    -52.067  0.0000E+00  0.2160E+03
    -51.807  0.0000E+00  0.2160E+03
    -51.547  0.0000E+00  0.2160E+03
    -51.287  0.0000E+00  0.2160E+03
    -51.027  0.0000E+00  0.2160E+03
    -50.767  0.0000E+00  0.2160E+03
    -50.507  0.0000E+00  0.2160E+03
    -50.247  0.0000E+00  0.2160E+03
    -49.987  0.0000E+00  0.2160E+03
    -49.727  0.0000E+00  0.2160E+03
    -49.467  0.0000E+00  0.2160E+03
    -49.207  0.0000E+00  0.2160E+03
    -48.947  0.0000E+00  0.2160E+03
    -48.688  0.0000E+00  0.2160E+03
    -48.428  0.0000E+00  0.2160E+03
    -48.168  0.0000E+00  0.2160E+03
    -47.908  0.0000E+00  0.2160E+03
    -47.648  0.0000E+00  0.2160E+03
    -47.388  0.0000E+00  0.2160E+03
    -47.128  0.0000E+00  0.2160E+03
    -46.868  0.0000E+00  0.2160E+03
    -46.608  0.0000E+00  0.2160E+03
    -46.348  0.0000E+00  0.2160E+03
    -46.088  0.0000E+00  0.2160E+03
    -45.828  0.0000E+00  0.2160E+03
    -45.568  0.0000E+00  0.2160E+03
    -45.308  0.0000E+00  0.2160E+03
    -45.048  0.0000E+00  0.2160E+03
    -44.788  0.0000E+00  0.2160E+03
    -44.528  0.0000E+00  0.2160E+03
    -44.268  0.0000E+00  0.2160E+03
    -44.008  0.0000E+00  0.2160E+03
    -43.748  0.0000E+00  0.2160E+03
    -43.488  0.0000E+00  0.2160E+03
    -43.228  0.0000E+00  0.2160E+03
    -42.968  0.0000E+00  0.2160E+03
    -42.708  0.0000E+00  0.2160E+03
    -42.448  0.0000E+00  0.2160E+03
    -42.188  0.0000E+00  0.2160E+03
    -41.928  0.0000E+00  0.2160E+03
    -41.668  0.0000E+00  0.2160E+03
    -41.408  0.0000E+00  0.2160E+03
    -41.148  0.0000E+00  0.2160E+03
    -40.888  0.0000E+00  0.2160E+03
    -40.628  0.0000E+00  0.2160E+03
    -40.368  0.0000E+00  0.2160E+03
    -40.109  0.0000E+00  0.2160E+03
    -39.849  0.0000E+00  0.2160E+03
    -39.589  0.0000E+00  0.2160E+03
    -39.329  0.0000E+00  0.2160E+03
    -39.069  0.0000E+00  0.2160E+03
    -38.809  0.0000E+00  0.2160E+03
    -38.549  0.0000E+00  0.2160E+03
    -38.289  0.0000E+00  0.2160E+03
    -38.029  0.0000E+00  0.2160E+03
    -37.769  0.0000E+00  0.2160E+03
    -37.509  0.0000E+00  0.2160E+03
    -37.249  0.0000E+00  0.2160E+03
    -36.989  0.0000E+00  0.2160E+03
    -36.729  0.0000E+00  0.2160E+03
    -36.469  0.0000E+00  0.2160E+03
    -36.209  0.0000E+00  0.2160E+03
    -35.949  0.0000E+00  0.2160E+03
    -35.689  0.0000E+00  0.2160E+03
    -35.429  0.0000E+00  0.2160E+03
    -35.169  0.0000E+00  0.2160E+03
    -34.909  0.0000E+00  0.2160E+03
    -34.649  0.0000E+00  0.2160E+03
    -34.389  0.0000E+00  0.2160E+03
    -34.129  0.0000E+00  0.2160E+03
    -33.869  0.0000E+00  0.2160E+03
    -33.609  0.0000E+00  0.2160E+03
    -33.349  0.0000E+00  0.2160E+03
    -33.089  0.0000E+00  0.2160E+03
    -32.829  0.0000E+00  0.2160E+03
    -32.569  0.0000E+00  0.2160E+03
    -32.309  0.0000E+00  0.2160E+03
    -32.049  0.0000E+00  0.2160E+03
    -31.789  0.0000E+00  0.2160E+03
    -31.529  0.0000E+00  0.2160E+03
    -31.270  0.0000E+00  0.2160E+03
    -31.010  0.0000E+00  0.2160E+03
    -30.750  0.0000E+00  0.2160E+03
    -30.490  0.0000E+00  0.2160E+03
    -30.230  0.0000E+00  0.2160E+03
    -29.970  0.0000E+00  0.2160E+03
    -29.710  0.0000E+00  0.2160E+03
    -29.450  0.0000E+00  0.2160E+03
    -29.190  0.0000E+00  0.2160E+03
    -28.930  0.0000E+00  0.2160E+03
    -28.670  0.0000E+00  0.2160E+03
    -28.410  0.0000E+00  0.2160E+03
    -28.150  0.0000E+00  0.2160E+03
    -27.890  0.0000E+00  0.2160E+03
    -27.630  0.0000E+00  0.2160E+03
    -27.370  0.0000E+00  0.2160E+03
    -27.110  0.0000E+00  0.2160E+03
    -26.850  0.0000E+00  0.2160E+03
    -26.590  0.0000E+00  0.2160E+03
    -26.330  0.0000E+00  0.2160E+03
    -26.070  0.0000E+00  0.2160E+03
    -25.810  0.0000E+00  0.2160E+03
    -25.550  0.0000E+00  0.2160E+03
    -25.290  0.0000E+00  0.2160E+03
    -25.030  0.0000E+00  0.2160E+03
    -24.770  0.0000E+00  0.2160E+03
    -24.510  0.0000E+00  0.2160E+03
    -24.250  0.0000E+00  0.2160E+03
    -23.990  0.0000E+00  0.2160E+03
    -23.730  0.0000E+00  0.2160E+03
    -23.470  0.0000E+00  0.2160E+03
    -23.210  0.0000E+00  0.2160E+03
    -22.950  0.0000E+00  0.2160E+03
    -22.691  0.0000E+00  0.2160E+03
    -22.431  0.0000E+00  0.2160E+03
    -22.171  0.0000E+00  0.2160E+03
    -21.911  0.0000E+00  0.2160E+03
    -21.651  0.0000E+00  0.2160E+03
    -21.391  0.0000E+00  0.2160E+03
    -21.131  0.0000E+00  0.2160E+03
    -20.871  0.0000E+00  0.2160E+03
    -20.611  0.0000E+00  0.2160E+03
    -20.351  0.0000E+00  0.2160E+03
    -20.091  0.0000E+00  0.2160E+03
    -19.831  0.0000E+00  0.2160E+03
    -19.571  0.0000E+00  0.2160E+03
    -19.311  0.0000E+00  0.2160E+03
    -19.051  0.0000E+00  0.2160E+03
    -18.791  0.0000E+00  0.2160E+03
    -18.531  0.0000E+00  0.2160E+03
    -18.271  0.0000E+00  0.2160E+03
    -18.011  0.0000E+00  0.2160E+03
    -17.751  0.0000E+00  0.2160E+03
    -17.491  0.0000E+00  0.2160E+03
    -17.231  0.0000E+00  0.2160E+03
    -16.971  0.0000E+00  0.2160E+03
    -16.711  0.0000E+00  0.2160E+03
    -16.451  0.0000E+00  0.2160E+03
    -16.191  0.0000E+00  0.2160E+03
    -15.931  0.1106E-10  0.2160E+03
    -15.671  0.1027E-05  0.2160E+03
    -15.411  0.3624E-02  0.2160E+03
    -15.151  0.5420E+00  0.2161E+03
    -14.891  0.4420E+01  0.2173E+03
    -14.631  0.3814E+01  0.2183E+03
    -14.371  0.8648E+01  0.2205E+03
    -14.111  0.8803E+01  0.2228E+03
    -13.852  0.1794E+02  0.2275E+03
    -13.592  0.1674E+02  0.2318E+03
    -13.332  0.1704E+02  0.2363E+03
    -13.072  0.2483E+02  0.2427E+03
    -12.812  0.2819E+02  0.2500E+03
    -12.552  0.3150E+02  0.2582E+03
    -12.292  0.2655E+02  0.2651E+03
    -12.032  0.2763E+02  0.2723E+03
    -11.772  0.2597E+02  0.2791E+03
    -11.512  0.1912E+02  0.2840E+03
    -11.252  0.1126E+02  0.2870E+03
    -10.992  0.3802E+01  0.2880E+03
    -10.732  0.1444E+00  0.2880E+03
    -10.472  0.3123E-03  0.2880E+03
    -10.212  0.2841E-07  0.2880E+03
     -9.952  0.9737E-13  0.2880E+03
     -9.692  0.0000E+00  0.2880E+03
     -9.432  0.0000E+00  0.2880E+03
     -9.172  0.0000E+00  0.2880E+03
     -8.912  0.0000E+00  0.2880E+03
     -8.652  0.0000E+00  0.2880E+03
     -8.392  0.0000E+00  0.2880E+03
     -8.132  0.0000E+00  0.2880E+03
     -7.872  0.4271E-15  0.2880E+03
     -7.612  0.4491E-09  0.2880E+03
     -7.352  0.1586E-04  0.2880E+03
     -7.092  0.2192E-01  0.2880E+03
     -6.832  0.1447E+01  0.2884E+03
     -6.572  0.9017E+01  0.2907E+03
     -6.312  0.1651E+02  0.2950E+03
     -6.052  0.2051E+02  0.3004E+03
     -5.792  0.3196E+02  0.3087E+03
     -5.532  0.4363E+02  0.3200E+03
     -5.273  0.4916E+02  0.3328E+03
     -5.013  0.4387E+02  0.3442E+03
     -4.753  0.3745E+02  0.3539E+03
     -4.493  0.3593E+02  0.3633E+03
     -4.233  0.4211E+02  0.3742E+03
     -3.973  0.4933E+02  0.3870E+03
     -3.713  0.5607E+02  0.4016E+03
     -3.453  0.6686E+02  0.4190E+03
     -3.193  0.6874E+02  0.4369E+03
     -2.933  0.6451E+02  0.4536E+03
     -2.673  0.6282E+02  0.4700E+03
     -2.413  0.4499E+02  0.4817E+03
     -2.153  0.3308E+02  0.4903E+03
     -1.893  0.4650E+02  0.5024E+03
     -1.633  0.5961E+02  0.5178E+03
     -1.373  0.7137E+02  0.5364E+03
     -1.113  0.9376E+02  0.5608E+03
     -0.853  0.1097E+03  0.5893E+03
     -0.593  0.1199E+03  0.6205E+03
     -0.333  0.1366E+03  0.6560E+03
     -0.073  0.1311E+03  0.6900E+03
      0.187  0.1003E+03  0.7161E+03
      0.447  0.7770E+02  0.7363E+03
      0.707  0.6553E+02  0.7533E+03
      0.967  0.5423E+02  0.7674E+03
      1.227  0.4575E+02  0.7793E+03
      1.487  0.4931E+02  0.7921E+03
      1.747  0.4897E+02  0.8049E+03
      2.007  0.4938E+02  0.8177E+03
      2.267  0.5308E+02  0.8315E+03
      2.527  0.4919E+02  0.8443E+03
      2.787  0.3990E+02  0.8547E+03
      3.047  0.2744E+02  0.8618E+03
      3.307  0.8137E+01  0.8639E+03
      3.566  0.3687E+00  0.8640E+03
      3.826  0.2203E+01  0.8646E+03
      4.086  0.4762E+01  0.8658E+03
      4.346  0.4101E+01  0.8669E+03
      4.606  0.1037E+02  0.8696E+03
      4.866  0.1025E+02  0.8723E+03
      5.126  0.1240E+02  0.8755E+03
      5.386  0.1309E+02  0.8789E+03
      5.646  0.2000E+02  0.8841E+03
      5.906  0.2981E+02  0.8918E+03
      6.166  0.2982E+02  0.8996E+03
      6.426  0.3130E+02  0.9077E+03
      6.686  0.3239E+02  0.9161E+03
      6.946  0.3640E+02  0.9256E+03
      7.206  0.3961E+02  0.9359E+03
      7.466  0.3954E+02  0.9462E+03
      7.726  0.2031E+02  0.9515E+03
      7.986  0.2064E+01  0.9520E+03
      8.246  0.1675E-01  0.9520E+03
      8.506  0.6679E-05  0.9520E+03
      8.766  0.1094E-09  0.9520E+03
      9.026  0.0000E+00  0.9520E+03
      9.286  0.0000E+00  0.9520E+03
      9.546  0.0000E+00  0.9520E+03
      9.806  0.0000E+00  0.9520E+03
     10.066  0.0000E+00  0.9520E+03
     10.326  0.0000E+00  0.9520E+03
     10.586  0.0000E+00  0.9520E+03
     10.846  0.0000E+00  0.9520E+03
     11.106  0.0000E+00  0.9520E+03
