
72 atoms
2 atom types
   0.0000000000   16.8846940542 xlo xhi
   0.0000000000    9.5784100000 ylo yhi
   0.0000000000   16.1738630213 zlo zhi
   0.0000000000    0.0000000000    0.0000000000 xy xz yz

Atoms # atomic

     1      1    1.0970426586    8.8448295298    5.0105366726
     2      1    1.6807120367    8.8448295298    1.9259931188
     3      1    9.8312243663    4.0556245298    3.4682648957
     4      1   10.4148937612    4.0556245298    0.3837213258
     5      1    4.0084365668    4.0556245298    4.4964460857
     6      1    4.5921059448    4.0556245298    1.4119025157
     7      1   12.1589488965    8.8448295298    6.0387178625
     8      1   12.7426182745    8.8448295298    2.9541742926
     9      1    6.9198304750    8.8448295298    3.9823554826
    10      1    7.5034998530    8.8448295298    0.8978119288
    11      1   15.0703428047    4.0556245298    5.5246272595
    12      1   15.6540121827    4.0556245298    2.4400837057
    13      1    7.0941407285    5.3209612260    6.1453309860
    14      1    7.6778101065    5.3209612260    3.0607874323
    15      1   15.8283224530    0.5317562260    4.6030592091
    16      1   16.4119918310    0.5317562260    1.5185156554
    17      1    1.8550223070    5.3209612260    4.0889686222
    18      1    2.4386916850    5.3209612260    1.0044250523
    19      1   10.0055346367    0.5317562260    5.6312403991
    20      1   10.5892040147    0.5317562260    2.5466968454
    21      1    4.7664161983    0.5317562260    3.5748780192
    22      1    5.3500855932    0.5317562260    0.4903344654
    23      1   12.9169285448    5.3209612260    5.1171498122
    24      1   13.5005979229    5.3209612260    2.0326062423
    25      1    1.0970426586    1.7970929222    5.0105366726
    26      1    1.6807120367    1.7970929222    1.9259931188
    27      1    9.8312243663    6.5862979222    3.4682648957
    28      1   10.4148937612    6.5862979222    0.3837213258
    29      1    4.0084365668    6.5862979222    4.4964460857
    30      1    4.5921059448    6.5862979222    1.4119025157
    31      1   12.1589488965    1.7970929222    6.0387178625
    32      1   12.7426182745    1.7970929222    2.9541742926
    33      1    6.9198304750    1.7970929222    3.9823554826
    34      1    7.5034998530    1.7970929222    0.8978119288
    35      1   15.0703428047    6.5862979222    5.5246272595
    36      1   15.6540121827    6.5862979222    2.4400837057
    37      2    0.3548968010    2.1429884642    0.0000000000
    38      2    8.5054091306    6.9321934642    1.5422717769
    39      2   16.0722520822    2.1429884642    6.1690871237
    40      2   16.6559214603    2.1429884642    3.0845435538
    41      2    2.0989519362    6.9321934642    5.6549965206
    42      2    2.6826213142    6.9321934642    2.5704529669
    43      2   10.8331336608    2.1429884642    4.1127247437
    44      2    5.0103458444    2.1429884642    5.1409059337
    45      2    5.5940152224    2.1429884642    2.0563623800
    46      2   13.7445275690    6.9321934642    3.5986341568
    47      2    2.5133042869    0.5317562260    3.6034100560
    48      2    3.0969736650    0.5317562260    0.5188665022
    49      2   10.6638166166    5.3209612260    5.1456818328
    50      2   11.2474859946    5.3209612260    2.0611382791
    51      2    4.8410288002    5.3209612260    6.1738630228
    52      2    5.4246981782    5.3209612260    3.0893194691
    53      2    6.0083675731    5.3209612260    0.0047758991
    54      2   13.5752105248    0.5317562260    4.6315912459
    55      2   14.1588799028    0.5317562260    1.5470476760
    56      2    0.1855797568    5.3209612260    1.0329570891
    57      2    7.7524227084    0.5317562260    5.6597724359
    58      2    8.3360920864    0.5317562260    2.5752288660
    59      2   16.4866044329    5.3209612260    4.1175006429
    60      2    0.3548968010    8.4989339879    0.0000000000
    61      2    7.9217397526    3.7097289879    4.6268153468
    62      2    8.5054091306    3.7097289879    1.5422717769
    63      2   16.0722520822    8.4989339879    6.1690871237
    64      2   16.6559214603    8.4989339879    3.0845435538
    65      2    2.0989519362    3.7097289879    5.6549965206
    66      2    2.6826213142    3.7097289879    2.5704529669
    67      2   10.8331336608    8.4989339879    4.1127247437
    68      2   11.4168030388    8.4989339879    1.0281811900
    69      2    5.0103458444    8.4989339879    5.1409059337
    70      2    5.5940152224    8.4989339879    2.0563623800
    71      2   13.7445275690    3.7097289879    3.5986341568
    72      2   14.3281969470    3.7097289879    0.5140905869
