 vasp.6.1.0 28Jan20 (build Mar 31 2020 17:42:31) gamma-only                     
  
 executed on             LinuxIFC date 2020.04.13  03:38:38
 running on   48 total cores
 distrk:  each k-point on   48 cores,    1 groups
 distr:  one band on NCORE=   6 cores,    8 groups


--------------------------------------------------------------------------------------------------------


 INCAR:
 POTCAR:    PAW_PBE Ni_pv 06Sep2000               
 POTCAR:    PAW_PBE S 06Sep2000                   
 POTCAR:    PAW_PBE Ni_pv 06Sep2000               
   VRHFIN =Ni:                                                                                      
   LEXCH  = PE                                                                                      
   EATOM  =  3501.1230 eV,  257.3253 Ry                                                             
                                                                                                    
   TITEL  = PAW_PBE Ni_pv 06Sep2000                                                                 
   LULTRA =        F    use ultrasoft PP ?                                                          
   IUNSCR =        1    unscreen: 0-lin 1-nonlin 2-no                                               
   RPACOR =    1.500    partial core radius                                                         
   POMASS =   58.690; ZVAL   =   16.000    mass and valenz                                          
   RCORE  =    2.000    outmost cutoff radius                                                       
   RWIGS  =    2.000; RWIGS  =    1.058    wigner-seitz radius (au A)                               
   ENMAX  =  367.986; ENMIN  =  275.989 eV                                                          
   RCLOC  =    1.301    cutoff for local pot                                                        
   LCOR   =        T    correct aug charges                                                         
   LPAW   =        T    paw PP                                                                      
   EAUG   =  703.443                                                                                
   DEXC   =    0.000                                                                                
   RMAX   =    2.041    core radius for proj-oper                                                   
   RAUG   =    1.300    factor for augmentation sphere                                              
   RDEP   =    2.103    radius for radial grids                                                     
   RDEPT  =    1.618    core radius for aug-charge                                                  
                                                                                                    
   Atomic configuration                                                                             
    8 entries                                                                                       
     n  l   j            E        occ.                                                              
     1  0  0.50     -8206.4253   2.0000                                                             
     2  0  0.50      -976.1748   2.0000                                                             
     2  1  1.50      -839.0571   6.0000                                                             
     3  0  0.50      -105.9991   2.0000                                                             
     3  1  1.50       -66.4603   6.0000                                                             
     3  2  2.50        -4.6458   9.0000                                                             
     4  0  0.50        -4.4926   1.0000                                                             
     4  3  2.50        -1.3606   0.0000                                                             
   Description                                                                                      
     l       E           TYP  RCUT    TYP  RCUT                                                     
     1    -66.4602962     23  1.700                                                                 
     1     -1.3605826     23  1.700                                                                 
     2     -4.6457867     23  2.000                                                                 
     2     -6.0063693     23  2.000                                                                 
     0     -4.4925576     23  1.900                                                                 
     0     16.3626226     23  1.900                                                                 
  local pseudopotential read in
  partial core-charges read in
  partial kinetic energy density read in
  atomic valenz-charges read in
  non local Contribution for L=           1  read in
    real space projection operators read in
  non local Contribution for L=           1  read in
    real space projection operators read in
  non local Contribution for L=           2  read in
    real space projection operators read in
  non local Contribution for L=           2  read in
    real space projection operators read in
  non local Contribution for L=           0  read in
    real space projection operators read in
  non local Contribution for L=           0  read in
    real space projection operators read in
    PAW grid and wavefunctions read in
 
   number of l-projection  operators is LMAX  =           6
   number of lm-projection operators is LMMAX =          18
 
 POTCAR:    PAW_PBE S 06Sep2000                   
   VRHFIN =S : s2p4                                                                                 
   LEXCH  = PE                                                                                      
   EATOM  =   276.8230 eV,   20.3459 Ry                                                             
                                                                                                    
   TITEL  = PAW_PBE S 06Sep2000                                                                     
   LULTRA =        F    use ultrasoft PP ?                                                          
   IUNSCR =        1    unscreen: 0-lin 1-nonlin 2-no                                               
   RPACOR =    1.500    partial core radius                                                         
   POMASS =   32.066; ZVAL   =    6.000    mass and valenz                                          
   RCORE  =    1.900    outmost cutoff radius                                                       
   RWIGS  =    2.200; RWIGS  =    1.164    wigner-seitz radius (au A)                               
   ENMAX  =  258.689; ENMIN  =  194.016 eV                                                          
   ICORE  =        2    local potential                                                             
   LCOR   =        T    correct aug charges                                                         
   LPAW   =        T    paw PP                                                                      
   EAUG   =  335.092                                                                                
   DEXC   =    0.000                                                                                
   RMAX   =    1.942    core radius for proj-oper                                                   
   RAUG   =    1.300    factor for augmentation sphere                                              
   RDEP   =    1.954    radius for radial grids                                                     
   RDEPT  =    1.744    core radius for aug-charge                                                  
                                                                                                    
   Atomic configuration                                                                             
    6 entries                                                                                       
     n  l   j            E        occ.                                                              
     1  0  0.50     -2405.8406   2.0000                                                             
     2  0  0.50      -211.7007   2.0000                                                             
     2  1  1.50      -156.4958   6.0000                                                             
     3  0  0.50       -17.2562   2.0000                                                             
     3  1  0.50        -7.0085   4.0000                                                             
     3  2  1.50        -6.8029   0.0000                                                             
   Description                                                                                      
     l       E           TYP  RCUT    TYP  RCUT                                                     
     0    -17.2561641     23  1.900                                                                 
     0    -15.8743224     23  1.900                                                                 
     1     -7.0085400     23  1.900                                                                 
     1     -2.7779785     23  1.900                                                                 
     2     -6.8029130     23  1.900                                                                 
  local pseudopotential read in
  partial core-charges read in
  partial kinetic energy density read in
  atomic valenz-charges read in
  non local Contribution for L=           0  read in
    real space projection operators read in
  non local Contribution for L=           0  read in
    real space projection operators read in
  non local Contribution for L=           1  read in
    real space projection operators read in
  non local Contribution for L=           1  read in
    real space projection operators read in
    PAW grid and wavefunctions read in
 
   number of l-projection  operators is LMAX  =           4
   number of lm-projection operators is LMMAX =           8
 
 Optimization of the real space projectors (new method)

 maximal supplied QI-value         = 18.90
 optimisation between [QCUT,QGAM] = [ 10.77, 21.73] = [ 32.49,132.25] Ry 
 Optimized for a Real-space Cutoff    1.38 Angstroem

   l    n(q)    QCUT    max X(q) W(low)/X(q) W(high)/X(q)  e(spline) 
   1      8    10.771     2.836    0.40E-04    0.29E-04    0.12E-06
   1      8    10.771     4.023    0.10E-03    0.48E-04    0.29E-06
   2      8    10.771    73.368    0.42E-03    0.97E-04    0.44E-06
   2      8    10.771    69.010    0.42E-03    0.99E-04    0.45E-06
   0      9    10.771    54.797    0.10E-03    0.56E-04    0.74E-07
   0      9    10.771    24.266    0.89E-04    0.49E-04    0.67E-07
 Optimization of the real space projectors (new method)

 maximal supplied QI-value         = 19.84
 optimisation between [QCUT,QGAM] = [ 10.71, 21.63] = [ 32.15,130.99] Ry 
 Optimized for a Real-space Cutoff    1.19 Angstroem

   l    n(q)    QCUT    max X(q) W(low)/X(q) W(high)/X(q)  e(spline) 
   0      8    10.715   187.594    0.41E-03    0.53E-04    0.66E-07
   0      8    10.715   164.243    0.41E-03    0.53E-04    0.65E-07
   1      7    10.715    67.533    0.19E-03    0.59E-03    0.68E-07
   1      7    10.715    50.729    0.19E-03    0.58E-03    0.67E-07
  PAW_PBE Ni_pv 06Sep2000               :
 energy of atom  1       EATOM=-3501.1230
 kinetic energy error for atom=    0.0925 (will be added to EATOM!!)
  PAW_PBE S 06Sep2000                   :
 energy of atom  2       EATOM= -276.8230
 kinetic energy error for atom=    0.0033 (will be added to EATOM!!)
 
 
 POSCAR: Structure 13 made from 02-1-6.xsd file
  positions in direct lattice
  No initial velocities read in
 exchange correlation table for  LEXCH =        8
   RHO(1)=    0.500       N(1)  =     2000
   RHO(2)=  100.500       N(2)  =     4000
 


--------------------------------------------------------------------------------------------------------


 ion  position               nearest neighbor table
   1  0.580  0.074  0.349-  43 2.25  64 2.26  50 2.26  61 2.36  51 2.36  27 2.53  14 2.53
   2  0.763  0.165  0.227-  44 2.25  61 2.26  51 2.26  52 2.36  62 2.36  15 2.53  28 2.53
   3  0.945  0.256  0.105-  41 2.25  62 2.26  52 2.26  49 2.36  16 2.53  29 2.53
   4  0.398  0.983  0.472-  63 2.26  64 2.36  50 2.36  26 2.53  13 2.53
   5  0.035  0.802  0.268-  45 2.25  55 2.26  68 2.26  65 2.36  53 2.36  30 2.53  20 2.53
   6  0.217  0.893  0.146-  46 2.25  53 2.26  65 2.26  66 2.36  54 2.36  31 2.53  17 2.53
   7  0.399  0.984  0.024-  47 2.25  54 2.26  66 2.26  32 2.53
   8  0.671  0.620  0.512-  67 2.36  56 2.36  18 2.53
   9  0.853  0.711  0.390-  48 2.25  56 2.26  67 2.26  68 2.36  55 2.36  33 2.53  19 2.53
  10  0.126  0.347  0.431-  37 2.25  72 2.26  57 2.36  69 2.36  25 2.53
  11  0.308  0.438  0.309-  38 2.25  57 2.26  69 2.26  58 2.36  70 2.36  34 2.53  21 2.53
  12  0.490  0.529  0.187-  39 2.25  58 2.26  70 2.26  59 2.36  71 2.36  35 2.53  22 2.53
  13  0.230  0.031  0.407-  55 2.25  63 2.26  37 2.26  64 2.36  38 2.36   4 2.53  26 2.53
  14  0.412  0.122  0.285-  53 2.25  38 2.26  64 2.26  61 2.36  39 2.36  27 2.53   1 2.53
  15  0.595  0.214  0.163-  54 2.25  61 2.26  39 2.26  62 2.36  40 2.36   2 2.53  28 2.53
  16  0.777  0.305  0.041-  62 2.26  40 2.26   3 2.53  29 2.53
  17  0.049  0.941  0.081-  60 2.25  41 2.26  65 2.26  42 2.36  66 2.36  31 2.53   6 2.53
  18  0.503  0.668  0.448-  57 2.25  43 2.36  67 2.36   8 2.53
  19  0.685  0.759  0.326-  58 2.25  43 2.26  67 2.26  68 2.36  44 2.36  33 2.53   9 2.53
  20  0.867  0.850  0.203-  59 2.25  68 2.26  44 2.26  41 2.36  65 2.36   5 2.53  30 2.53
  21  0.140  0.486  0.244-  52 2.25  45 2.26  69 2.26  70 2.36  46 2.36  11 2.53  34 2.53
  22  0.322  0.577  0.122-  49 2.25  46 2.26  70 2.26  47 2.36  71 2.36  35 2.53  12 2.53
  23  0.504  0.668  0.000-  47 2.26  71 2.26  36 2.53
  24  0.776  0.304  0.488-  50 2.25  72 2.36  48 2.36
  25  0.958  0.395  0.366-  51 2.25  48 2.26  72 2.26  45 2.36  69 2.36  10 2.53
  26  0.398  0.248  0.472-  37 2.26  38 2.36  50 2.36   4 2.53  13 2.53
  27  0.580  0.339  0.349-  67 2.25  38 2.26  50 2.26  39 2.36  51 2.36   1 2.53  14 2.53
  28  0.763  0.430  0.227-  68 2.25  39 2.26  51 2.26  52 2.36  40 2.36  15 2.53   2 2.53
  29  0.945  0.521  0.105-  65 2.25  40 2.26  52 2.26  49 2.36  16 2.53   3 2.53
  30  0.035  0.066  0.268-  69 2.25  44 2.26  55 2.26  41 2.36  53 2.36   5 2.53  20 2.53
  31  0.217  0.157  0.146-  70 2.25  53 2.26  41 2.26  42 2.36  54 2.36   6 2.53  17 2.53
  32  0.399  0.248  0.024-  71 2.25  54 2.26  42 2.26   7 2.53
  33  0.853  0.975  0.390-  72 2.25  56 2.26  43 2.26  44 2.36  55 2.36   9 2.53  19 2.53
  34  0.308  0.702  0.309-  64 2.25  57 2.26  45 2.26  58 2.36  46 2.36  11 2.53  21 2.53
  35  0.490  0.793  0.187-  61 2.25  58 2.26  46 2.26  59 2.36  47 2.36  12 2.53  22 2.53
  36  0.672  0.884  0.065-  62 2.25  47 2.26  59 2.26  60 2.36  23 2.53
  37  0.184  0.177  0.481-  10 2.25  26 2.26  13 2.26
  38  0.367  0.268  0.359-  11 2.25  27 2.26  14 2.26  26 2.36  13 2.36
  39  0.549  0.359  0.237-  12 2.25  15 2.26  28 2.26  27 2.36  14 2.36
  40  0.731  0.450  0.114-  16 2.26  29 2.26  28 2.36  15 2.36
  41  0.003  0.086  0.155-   3 2.25  31 2.26  17 2.26  30 2.36  20 2.36
  42  0.185  0.177  0.033-  32 2.26  31 2.36  17 2.36
  43  0.639  0.904  0.399-   1 2.25  33 2.26  19 2.26  18 2.36
  44  0.821  0.995  0.277-   2 2.25  30 2.26  20 2.26  33 2.36  19 2.36
  45  0.094  0.631  0.318-   5 2.25  21 2.26  34 2.26  25 2.36
  46  0.276  0.722  0.196-   6 2.25  22 2.26  35 2.26  21 2.36  34 2.36
  47  0.458  0.814  0.074-   7 2.25  23 2.26  36 2.26  22 2.36  35 2.36
  48  0.912  0.540  0.440-   9 2.25  25 2.26  24 2.36
  49  0.127  0.480  0.074-  22 2.25   3 2.36  29 2.36
  50  0.580  0.206  0.441-  24 2.25   1 2.26  27 2.26   4 2.36  26 2.36
  51  0.763  0.298  0.319-  25 2.25  28 2.26   2 2.26  27 2.36   1 2.36
  52  0.945  0.389  0.197-  21 2.25   3 2.26  29 2.26  28 2.36   2 2.36
  53  0.217  0.025  0.237-  14 2.25   6 2.26  31 2.26   5 2.36  30 2.36
  54  0.399  0.116  0.115-  15 2.25   7 2.26  32 2.26  31 2.36   6 2.36
  55  0.035  0.934  0.359-  13 2.25   5 2.26  30 2.26   9 2.36  33 2.36
  56  0.853  0.843  0.481-  33 2.26   9 2.26   8 2.36
  57  0.308  0.570  0.400-  18 2.25  11 2.26  34 2.26  10 2.36
  58  0.490  0.661  0.278-  19 2.25  35 2.26  12 2.26  11 2.36  34 2.36
  59  0.672  0.752  0.156-  20 2.25  36 2.26  35 2.36  12 2.36
  60  0.854  0.843  0.034-  17 2.25  36 2.36
  61  0.549  0.022  0.237-  35 2.25  15 2.26   2 2.26   1 2.36  14 2.36
  62  0.731  0.113  0.114-  36 2.25  16 2.26   3 2.26  15 2.36   2 2.36
  63  0.184  0.840  0.481-   4 2.26  13 2.26
  64  0.367  0.931  0.359-  34 2.25   1 2.26  14 2.26   4 2.36  13 2.36
  65  0.003  0.750  0.155-  29 2.25   6 2.26  17 2.26   5 2.36  20 2.36
  66  0.185  0.841  0.033-   7 2.26   6 2.36  17 2.36
  67  0.639  0.568  0.399-  27 2.25   9 2.26  19 2.26   8 2.36  18 2.36
  68  0.821  0.659  0.277-  28 2.25   5 2.26  20 2.26   9 2.36  19 2.36
  69  0.094  0.295  0.318-  30 2.25  21 2.26  11 2.26  10 2.36  25 2.36
  70  0.276  0.386  0.196-  31 2.25  22 2.26  12 2.26  21 2.36  11 2.36
  71  0.458  0.477  0.074-  32 2.25  23 2.26  22 2.36  12 2.36
  72  0.912  0.204  0.440-  33 2.25  25 2.26  10 2.26  24 2.36
 
  Warning from LATTYP: Monoclinic adjustment (A1->A3, A2->A1, A3->A2)!
  LATTYP: Found a base centered orthorhombic cell.
 ALAT       =     9.5784100000
 B/A-ratio  =     2.1722506661
 C/A-ratio  =     2.1403095979
  
  Lattice vectors:
  
 A1 = (  10.4033537511,  -4.7892050000,   0.0000000000)
 A2 = ( -10.4033537511,  -4.7892050000,   0.0000000000)
 A3 = (   0.0000000000,   0.0000000000, -20.5007628560)


Analysis of symmetry for initial positions (statically):
=====================================================================
 Subroutine PRICEL returns:
 Original cell was already a primitive cell.
 

 Routine SETGRP: Setting up the symmetry group for a 
 base centered orthorhombic supercell.


 Subroutine GETGRP returns: Found  1 space group operations
 (whereof  1 operations were pure point group operations)
 out of a pool of  8 trial point group operations.


The static configuration has the point symmetry C_1 .


Analysis of symmetry for dynamics (positions and initial velocities):
=====================================================================
 Subroutine PRICEL returns:
 Original cell was already a primitive cell.
 

 Routine SETGRP: Setting up the symmetry group for a 
 base centered orthorhombic supercell.


 Subroutine GETGRP returns: Found  1 space group operations
 (whereof  1 operations were pure point group operations)
 out of a pool of  8 trial point group operations.


The dynamic configuration has the point symmetry C_1 .


 Subroutine INISYM returns: Found  1 space group operations
 (whereof  1 operations are pure point group operations),
 and found     1 'primitive' translations


----------------------------------------------------------------------------------------

                                     Primitive cell                                     

  volume of cell :    2042.8516

  direct lattice vectors                    reciprocal lattice vectors
    10.403353751 -4.789205000  0.000000000     0.096122849  0.000000000  0.000000000
     0.000000000  9.578410000  0.000000000     0.048061424  0.104401461  0.000000000
     0.000000000  0.000000000 20.500762856     0.000000000  0.000000000  0.048778673

  length of vectors
    11.452783670  9.578410000 20.500762856     0.096122849  0.114932874  0.048778673

  position of ions in fractional coordinates (direct lattice)
     0.580446796  0.074375138  0.349415127
     0.762560812  0.165432146  0.227316517
     0.944674827  0.256489154  0.105217907
     0.398332781  0.983318131  0.471513737
     0.035189473  0.801746477  0.268016054
     0.217303488  0.892803484  0.145917444
     0.399417503  0.983860492  0.023818834
     0.670961443  0.619632462  0.512213274
     0.853075458  0.710689469  0.390114664
     0.125704120  0.347003800  0.430814200
     0.307818135  0.438060808  0.308715591
     0.489932150  0.529117815  0.186616981
     0.230358012  0.031433746  0.406995366
     0.412472027  0.122490754  0.284896756
     0.594586043  0.213547761  0.162798147
     0.776700058  0.304604769  0.040699537
     0.049328719  0.940919100  0.081399073
     0.502986674  0.667748077  0.447694903
     0.685100689  0.758805085  0.325596293
     0.867214704  0.849862092  0.203497683
     0.139843366  0.486176423  0.244197220
     0.321957381  0.577233431  0.122098610
     0.504071396  0.668290438  0.000000000
     0.775615336  0.304062408  0.488394440
     0.957729351  0.395119416  0.366295830
     0.398332781  0.247524131  0.471513737
     0.580446796  0.338581138  0.349415127
     0.762560812  0.429638146  0.227316517
     0.944674827  0.520695154  0.105217907
     0.035189473  0.065952477  0.268016054
     0.217303488  0.157009484  0.145917444
     0.399417503  0.248066492  0.023818834
     0.853075458  0.974895469  0.390114664
     0.307818135  0.702266808  0.308715591
     0.489932150  0.793323815  0.186616981
     0.672046165  0.884380823  0.064518371
     0.184411117  0.176675299  0.480705402
     0.366525132  0.267732306  0.358606792
     0.548639147  0.358789314  0.236508182
     0.730753162  0.449846321  0.114409572
     0.003381824  0.086160652  0.155109109
     0.185495839  0.177217660  0.033010499
     0.639153794  0.904046637  0.399306329
     0.821267809  0.995103645  0.277207719
     0.093896470  0.631417975  0.317907255
     0.276010485  0.722474983  0.195808645
     0.458124501  0.813531990  0.073710035
     0.911782455  0.540360968  0.440005865
     0.126759941  0.479634711  0.074466233
     0.580417896  0.206463688  0.440762063
     0.762531911  0.297520696  0.318663453
     0.944645926  0.388577703  0.196564843
     0.217274588  0.024892034  0.237264379
     0.399388603  0.115949042  0.115165769
     0.035160573  0.933835026  0.359362989
     0.853046557  0.842778019  0.481461599
     0.307789234  0.570149357  0.400062526
     0.489903249  0.661206365  0.277963916
     0.672017264  0.752263372  0.155865306
     0.854131279  0.843320380  0.033766696
     0.548639147  0.022359314  0.236508182
     0.730753162  0.113416321  0.114409572
     0.184411117  0.840245299  0.480705402
     0.366525132  0.931302306  0.358606792
     0.003381824  0.749730652  0.155109109
     0.185495839  0.840787660  0.033010499
     0.639153794  0.567616637  0.399306329
     0.821267809  0.658673645  0.277207719
     0.093896470  0.294987975  0.317907255
     0.276010485  0.386044983  0.195808645
     0.458124501  0.477101990  0.073710035
     0.911782455  0.203930968  0.440005865

  ion indices of the primitive-cell ions
   primitive index   ion index
                 1           1
                 2           2
                 3           3
                 4           4
                 5           5
                 6           6
                 7           7
                 8           8
                 9           9
                10          10
                11          11
                12          12
                13          13
                14          14
                15          15
                16          16
                17          17
                18          18
                19          19
                20          20
                21          21
                22          22
                23          23
                24          24
                25          25
                26          26
                27          27
                28          28
                29          29
                30          30
                31          31
                32          32
                33          33
                34          34
                35          35
                36          36
                37          37
                38          38
                39          39
                40          40
                41          41
                42          42
                43          43
                44          44
                45          45
                46          46
                47          47
                48          48
                49          49
                50          50
                51          51
                52          52
                53          53
                54          54
                55          55
                56          56
                57          57
                58          58
                59          59
                60          60
                61          61
                62          62
                63          63
                64          64
                65          65
                66          66
                67          67
                68          68
                69          69
                70          70
                71          71
                72          72

----------------------------------------------------------------------------------------

 
 
 KPOINTS: gamma-point-only calculation. no periodi

Automatic generation of k-mesh.
Space group operators:
 irot       det(A)        alpha          n_x          n_y          n_z        tau_x        tau_y        tau_z
    1     1.000000     0.000000     1.000000     0.000000     0.000000     0.000000     0.000000     0.000000
 
 Subroutine IBZKPT returns following result:
 ===========================================
 
 Found      1 irreducible k-points:
 
 Following reciprocal coordinates:
            Coordinates               Weight
  0.000000  0.000000  0.000000      1.000000
 
 Following cartesian coordinates:
            Coordinates               Weight
  0.000000  0.000000  0.000000      1.000000
 


--------------------------------------------------------------------------------------------------------




 Dimension of arrays:
   k-points           NKPTS =      1   k-points in BZ     NKDIM =      1   number of bands    NBANDS=    480
   number of dos      NEDOS =    301   number of ions     NIONS =     72
   non local maximal  LDIM  =      6   non local SUM 2l+1 LMDIM =     18
   total plane-waves  NPLWV = 324000
   max r-space proj   IRMAX =   1799   max aug-charges    IRDMAX=   5196
   dimension x,y,z NGX =    60 NGY =   50 NGZ =  108
   dimension x,y,z NGXF=   120 NGYF=  100 NGZF=  216
   support grid    NGXF=   120 NGYF=  100 NGZF=  216
   ions per type =              36  36
   NGX,Y,Z   is equivalent  to a cutoff of   8.71,  8.68,  8.76 a.u.
   NGXF,Y,Z  is equivalent  to a cutoff of  17.42, 17.36, 17.52 a.u.

 SYSTEM =  "Millerite NiS"                         
 POSCAR =  Structure 13 made from 02-1-6.xsd file  

 Startparameter for this run:
   NWRITE =      2    write-flag & timer
   PREC   = normal    normal or accurate (medium, high low for compatibility)
   ISTART =      0    job   : 0-new  1-cont  2-samecut
   ICHARG =      2    charge: 1-file 2-atom 10-const
   ISPIN  =      1    spin polarized calculation?
   LNONCOLLINEAR =      F non collinear calculations
   LSORBIT =      F    spin-orbit coupling
   INIWAV =      1    electr: 0-lowe 1-rand  2-diag
   LASPH  =      F    aspherical Exc in radial PAW
   METAGGA=      F    non-selfconsistent MetaGGA calc.

 Electronic Relaxation 1
   ENCUT  =  450.0 eV  33.07 Ry    5.75 a.u.  19.81 16.57 35.46*2*pi/ulx,y,z
   ENINI  =  450.0     initial cutoff
   ENAUG  =  703.4 eV  augmentation charge cutoff
   NELM   =    100;   NELMIN=  2; NELMDL= -5     # of ELM steps 
   EDIFF  = 0.1E-03   stopping-criterion for ELM
   LREAL  =      T    real-space projection
   NLSPLINE    = F    spline interpolate recip. space projectors
   LCOMPAT=      F    compatible to vasp.4.4
   GGA_COMPAT  = T    GGA compatible to vasp.4.4-vasp.4.6
   LMAXPAW     = -100 max onsite density
   LMAXMIX     =    2 max onsite mixed and CHGCAR
   VOSKOWN=      0    Vosko Wilk Nusair interpolation
   ROPT   =   -0.00050  -0.00050
 Ionic relaxation
   EDIFFG = 0.1E-02   stopping-criterion for IOM
   NSW    =      0    number of steps for IOM
   NBLOCK =      1;   KBLOCK =      1    inner block; outer block 
   IBRION =     -1    ionic relax: 0-MD 1-quasi-New 2-CG
   NFREE  =      0    steps in history (QN), initial steepest desc. (CG)
   ISIF   =      2    stress and relaxation
   IWAVPR =     10    prediction:  0-non 1-charg 2-wave 3-comb
   ISYM   =      2    0-nonsym 1-usesym 2-fastsym
   LCORR  =      T    Harris-Foulkes like correction to forces

   POTIM  = 0.5000    time-step for ionic-motion
   TEIN   =    0.0    initial temperature
   TEBEG  =    0.0;   TEEND  =   0.0 temperature during run
   SMASS  =  -3.00    Nose mass-parameter (am)
   estimated Nose-frequenzy (Omega)   =  0.10E-29 period in steps = 0.13E+47 mass=  -0.300E-26a.u.
   SCALEE = 1.0000    scale energy and forces
   NPACO  =    256;   APACO  = 16.0  distance and # of slots for P.C.
   PSTRESS=    0.0 pullay stress

  Mass of Ions in am
   POMASS =  58.69 32.07
  Ionic Valenz
   ZVAL   =  16.00  6.00
  Atomic Wigner-Seitz radii
   RWIGS  =  -1.00 -1.00
  virtual crystal weights 
   VCA    =   1.00  1.00
   NELECT =     792.0000    total number of electrons
   NUPDOWN=      -1.0000    fix difference up-down

 DOS related values:
   EMIN   =  10.00;   EMAX   =-10.00  energy-range for DOS
   EFERMI =   0.00
   ISMEAR =     0;   SIGMA  =   0.20  broadening in eV -4-tet -1-fermi 0-gaus

 Electronic relaxation 2 (details)
   IALGO  =     38    algorithm
   LDIAG  =      T    sub-space diagonalisation (order eigenvalues)
   LSUBROT=      F    optimize rotation matrix (better conditioning)
   TURBO    =      0    0=normal 1=particle mesh
   IRESTART =      0    0=no restart 2=restart with 2 vectors
   NREBOOT  =      0    no. of reboots
   NMIN     =      0    reboot dimension
   EREF     =   0.00    reference energy to select bands
   IMIX   =      4    mixing-type and parameters
     AMIX     =   0.40;   BMIX     =  1.00
     AMIX_MAG =   1.60;   BMIX_MAG =  1.00
     AMIN     =   0.10
     WC   =   100.;   INIMIX=   1;  MIXPRE=   1;  MAXMIX= -45

 Intra band minimization:
   WEIMIN = 0.0000     energy-eigenvalue tresh-hold
   EBREAK =  0.52E-07  absolut break condition
   DEPER  =   0.30     relativ break condition  

   TIME   =   0.40     timestep for ELM

  volume/ion in A,a.u.               =      28.37       191.47
  Fermi-wavevector in a.u.,A,eV,Ry     =   1.193725  2.255813 19.388021  1.424979
  Thomas-Fermi vector in A             =   2.329732
 
 Write flags
   LWAVE        =      F    write WAVECAR
   LDOWNSAMPLE  =      F    k-point downsampling of WAVECAR
   LCHARG       =      F    write CHGCAR
   LVTOT        =      F    write LOCPOT, total local potential
   LVHAR        =      F    write LOCPOT, Hartree potential only
   LELF         =      F    write electronic localiz. function (ELF)
   LORBIT       =      0    0 simple, 1 ext, 2 COOP (PROOUT), +10 PAW based schemes


 Dipole corrections
   LMONO  =      F    monopole corrections only (constant potential shift)
   LDIPOL =      F    correct potential (dipole corrections)
   IDIPOL =      0    1-x, 2-y, 3-z, 4-all directions 
   EPSILON=  1.0000000 bulk dielectric constant

 Exchange correlation treatment:
   GGA     =    --    GGA type
   LEXCH   =     8    internal setting for exchange type
   VOSKOWN=      0    Vosko Wilk Nusair interpolation
   LHFCALC =     F    Hartree Fock is set to
   LHFONE  =     F    Hartree Fock one center treatment
   AEXX    =    0.0000 exact exchange contribution

 Linear response parameters
   LEPSILON=     F    determine dielectric tensor
   LRPA    =     F    only Hartree local field effects (RPA)
   LNABLA  =     F    use nabla operator in PAW spheres
   LVEL    =     F    velocity operator in full k-point grid
   LINTERFAST=   F  fast interpolation
   KINTER  =     0    interpolate to denser k-point grid
   CSHIFT  =0.1000    complex shift for real part using Kramers Kronig
   OMEGAMAX=  -1.0    maximum frequency
   DEG_THRESHOLD= 0.2000000E-02 threshold for treating states as degnerate
   RTIME   =   -0.100 relaxation time in fs
  (WPLASMAI=    0.000 imaginary part of plasma frequency in eV, 0.658/RTIME)
   DFIELD  = 0.0000000 0.0000000 0.0000000 field for delta impulse in time
 
 Orbital magnetization related:
   ORBITALMAG=     F  switch on orbital magnetization
   LCHIMAG   =     F  perturbation theory with respect to B field
   DQ        =  0.001000  dq finite difference perturbation B field
   LLRAUG    =     F  two centre corrections for induced B field



--------------------------------------------------------------------------------------------------------


 Static calculation
 charge density and potential will be updated during run
 non-spin polarized calculation
 Variant of blocked Davidson
 Davidson routine will perform the subspace rotation
 perform sub-space diagonalisation
    after iterative eigenvector-optimisation
 modified Broyden-mixing scheme, WC =      100.0
 initial mixing is a Kerker type mixing with AMIX =  0.4000 and BMIX =      1.0000
 Hartree-type preconditioning will be used
 using additional bands           84
 real space projection scheme for non local part
 use partial core corrections
 calculate Harris-corrections to forces 
   (improved forces if not selfconsistent)
 use gradient corrections 
 use of overlap-Matrix (Vanderbilt PP)
 Gauss-broadening in eV      SIGMA  =   0.20


--------------------------------------------------------------------------------------------------------


  energy-cutoff  :      450.00
  volume of cell :     2042.85
      direct lattice vectors                 reciprocal lattice vectors
    10.403353751 -4.789205000  0.000000000     0.096122849  0.000000000  0.000000000
     0.000000000  9.578410000  0.000000000     0.048061424  0.104401461  0.000000000
     0.000000000  0.000000000 20.500762856     0.000000000  0.000000000  0.048778673

  length of vectors
    11.452783670  9.578410000 20.500762856     0.096122849  0.114932874  0.048778673


 
 k-points in units of 2pi/SCALE and weight: gamma-point-only calculation. no periodi
   0.00000000  0.00000000  0.00000000       1.000
 
 k-points in reciprocal lattice and weights: gamma-point-only calculation. no periodi
   0.00000000  0.00000000  0.00000000       1.000
 
 position of ions in fractional coordinates (direct lattice) 
   0.58044680  0.07437514  0.34941513
   0.76256081  0.16543215  0.22731652
   0.94467483  0.25648915  0.10521791
   0.39833278  0.98331813  0.47151374
   0.03518947  0.80174648  0.26801605
   0.21730349  0.89280348  0.14591744
   0.39941750  0.98386049  0.02381883
   0.67096144  0.61963246  0.51221327
   0.85307546  0.71068947  0.39011466
   0.12570412  0.34700380  0.43081420
   0.30781813  0.43806081  0.30871559
   0.48993215  0.52911781  0.18661698
   0.23035801  0.03143375  0.40699537
   0.41247203  0.12249075  0.28489676
   0.59458604  0.21354776  0.16279815
   0.77670006  0.30460477  0.04069954
   0.04932872  0.94091910  0.08139907
   0.50298667  0.66774808  0.44769490
   0.68510069  0.75880508  0.32559629
   0.86721470  0.84986209  0.20349768
   0.13984337  0.48617642  0.24419722
   0.32195738  0.57723343  0.12209861
   0.50407140  0.66829044  0.00000000
   0.77561534  0.30406241  0.48839444
   0.95772935  0.39511942  0.36629583
   0.39833278  0.24752413  0.47151374
   0.58044680  0.33858114  0.34941513
   0.76256081  0.42963815  0.22731652
   0.94467483  0.52069515  0.10521791
   0.03518947  0.06595248  0.26801605
   0.21730349  0.15700948  0.14591744
   0.39941750  0.24806649  0.02381883
   0.85307546  0.97489547  0.39011466
   0.30781813  0.70226681  0.30871559
   0.48993215  0.79332382  0.18661698
   0.67204616  0.88438082  0.06451837
   0.18441112  0.17667530  0.48070540
   0.36652513  0.26773231  0.35860679
   0.54863915  0.35878931  0.23650818
   0.73075316  0.44984632  0.11440957
   0.00338182  0.08616065  0.15510911
   0.18549584  0.17721766  0.03301050
   0.63915379  0.90404664  0.39930633
   0.82126781  0.99510365  0.27720772
   0.09389647  0.63141797  0.31790726
   0.27601049  0.72247498  0.19580864
   0.45812450  0.81353199  0.07371003
   0.91178246  0.54036097  0.44000587
   0.12675994  0.47963471  0.07446623
   0.58041790  0.20646369  0.44076206
   0.76253191  0.29752070  0.31866345
   0.94464593  0.38857770  0.19656484
   0.21727459  0.02489203  0.23726438
   0.39938860  0.11594904  0.11516577
   0.03516057  0.93383503  0.35936299
   0.85304656  0.84277802  0.48146160
   0.30778923  0.57014936  0.40006253
   0.48990325  0.66120636  0.27796392
   0.67201726  0.75226337  0.15586531
   0.85413128  0.84332038  0.03376670
   0.54863915  0.02235931  0.23650818
   0.73075316  0.11341632  0.11440957
   0.18441112  0.84024530  0.48070540
   0.36652513  0.93130231  0.35860679
   0.00338182  0.74973065  0.15510911
   0.18549584  0.84078766  0.03301050
   0.63915379  0.56761664  0.39930633
   0.82126781  0.65867365  0.27720772
   0.09389647  0.29498797  0.31790726
   0.27601049  0.38604498  0.19580864
   0.45812450  0.47710199  0.07371003
   0.91178246  0.20393097  0.44000587
 
 position of ions in cartesian coordinates  (Angst):
   6.03859335 -2.06748313  7.16327666
   7.93318988 -2.06748313  4.66016201
   9.82778641 -2.06748313  2.15704736
   4.14399683  7.51092687  9.66639131
   0.36608854  7.51092687  5.49453356
   2.26068506  7.51092687  2.99141892
   4.15528158  7.51092687  0.48830427
   6.98024924  2.72172187 10.50076286
   8.87484577  2.72172187  7.99764821
   1.30774443  2.72172187  8.83201975
   3.20234095  2.72172187  6.32890512
   5.09693747  2.72172187  3.82579047
   2.39649589 -0.80214644  8.34371548
   4.29109241 -0.80214643  5.84060083
   6.18568894 -0.80214644  3.33748621
   8.08028546 -0.80214644  0.83437156
   0.51318411  8.77626357  1.66874309
   5.23274830  3.98705856  9.17808704
   7.12734482  3.98705857  6.67497239
   9.02194134  3.98705856  4.17185774
   1.45484001  3.98705856  5.00622930
   3.34943653  3.98705857  2.50311465
   5.24403305  3.98705856  0.00000000
   8.06900072 -0.80214644 10.01245859
   9.96359724 -0.80214643  7.50934395
   4.14399683  0.46319027  9.66639131
   6.03859335  0.46319026  7.16327666
   7.93318988  0.46319026  4.66016201
   9.82778641  0.46319027  2.15704736
   0.36608854  0.46319027  5.49453356
   2.26068506  0.46319026  2.99141892
   4.15528158  0.46319027  0.48830427
   8.87484577  5.25239526  7.99764821
   3.20234095  5.25239527  6.32890512
   5.09693747  5.25239526  3.82579047
   6.99153399  5.25239527  1.32267582
   1.91849409  0.80908581  9.85482745
   3.81309061  0.80908580  7.35171280
   5.70768713  0.80908581  4.84859815
   7.60228365  0.80908580  2.34548350
   0.03518231  0.80908580  3.17985506
   1.92977883  0.80908581  0.67674041
   6.64934302  5.59829080  8.18608436
   8.54393954  5.59829081  5.68296971
   0.97683819  5.59829080  6.51734124
   2.87143471  5.59829081  4.01422660
   4.76603125  5.59829080  1.51111195
   9.48559542  0.80908581  9.02045589
   1.31872851  3.98705857  1.52661458
   6.03829270 -0.80214644  9.03595853
   7.93288922 -0.80214643  6.53284388
   9.82748574 -0.80214644  4.02972923
   2.26038440 -0.80214644  4.86410077
   4.15498092 -0.80214643  2.36098612
   0.36578788  8.77626356  7.36721542
   8.87454510  3.98705857  9.87033007
   3.20204028  3.98705856  8.20158697
   5.09663680  3.98705857  5.69847232
   6.99123332  3.98705856  3.19535768
   8.88582985  3.98705857  0.69224303
   5.70768713 -2.41337867  4.84859815
   7.60228365 -2.41337867  2.34548350
   1.91849409  7.16503133  9.85482745
   3.81309061  7.16503133  7.35171280
   0.03518231  7.16503133  3.17985506
   1.92977883  7.16503133  0.67674041
   6.64934302  2.37582633  8.18608436
   8.54393954  2.37582633  5.68296971
   0.97683819  2.37582633  6.51734124
   2.87143471  2.37582633  4.01422660
   4.76603125  2.37582632  1.51111195
   9.48559542 -2.41337867  9.02045589
 


--------------------------------------------------------------------------------------------------------


 use parallel FFT for orbitals z direction half grid
 k-point   1 :   0.0000 0.0000 0.0000  plane waves:   22147

 maximum and minimum number of plane-waves per node :      3693     3689

 maximum number of plane-waves:     22147
 maximum index in each direction: 
   IXMAX=   19   IYMAX=   16   IZMAX=   35
   IXMIN=  -19   IYMIN=  -16   IZMIN=    0


 real space projection operators:
  total allocation   :      11038.50 KBytes
  max/ min on nodes  :       1846.02       1831.66


 parallel 3D FFT for wavefunctions:
    minimum data exchange during FFTs selected (reduces bandwidth)
 parallel 3D FFT for charge:
    minimum data exchange during FFTs selected (reduces bandwidth)


 total amount of memory used by VASP MPI-rank0    45103. kBytes
=======================================================================

   base      :      30000. kBytes
   nonlr-proj:       2268. kBytes
   fftplans  :       3298. kBytes
   grid      :       5820. kBytes
   one-center:         93. kBytes
   wavefun   :       3624. kBytes
 
     INWAV:  cpu time    0.0000: real time    0.0000
 Broyden mixing: mesh for mixing (old mesh)
   NGX = 39   NGY = 33   NGZ = 71
  (NGX  =120   NGY  =100   NGZ  =216)
  gives a total of  91377 points

 initial charge density was supplied:
 charge density of overlapping atoms calculated
 number of electron     792.0000000 magnetization 
 keeping initial charge density in first step


--------------------------------------------------------------------------------------------------------


 Maximum index for non-local projection operator          299
 Maximum index for augmentation-charges          328 (set IRDMAX)


--------------------------------------------------------------------------------------------------------


 First call to EWALD:  gamma=   0.140
 Maximum number of real-space cells 3x 4x 2
 Maximum number of reciprocal cells 3x 2x 4

    FEWALD:  cpu time    0.0042: real time    0.0043


--------------------------------------- Iteration      1(   1)  ---------------------------------------


    POTLOK:  cpu time    0.0493: real time    0.0532
    SETDIJ:  cpu time    0.0056: real time    0.0081
     EDDAV:  cpu time    2.1769: real time    2.1844
       DOS:  cpu time    0.0011: real time    0.0011
    --------------------------------------------
      LOOP:  cpu time    2.2330: real time    2.2468

 eigenvalue-minimisations  :  1168
 total energy-change (2. order) : 0.9593168E+04  (-0.5076376E+05)
 number of electron     792.0000000 magnetization 
 augmentation part      792.0000000 magnetization 

 Free energy of the ion-electron system (eV)
  ---------------------------------------------------
  alpha Z        PSCENC =      1820.93486007
  Ewald energy   TEWEN  =    166274.30914299
  -Hartree energ DENC   =   -288593.60022400
  -exchange      EXHF   =         0.00000000
  -V(xc)+E(xc)   XCENC  =      3649.65129439
  PAW double counting   =    112729.53333415  -117641.51188735
  entropy T*S    EENTRO =        -0.45552490
  eigenvalues    EBANDS =     -4648.29837766
  atomic energy  EATOM  =    136002.60505376
  Solvation  Ediel_sol  =         0.00000000
  ---------------------------------------------------
  free energy    TOTEN  =      9593.16767145 eV

  energy without entropy =     9593.62319635  energy(sigma->0) =     9593.39543390


--------------------------------------------------------------------------------------------------------




--------------------------------------- Iteration      1(   2)  ---------------------------------------


     EDDAV:  cpu time    1.9287: real time    1.9340
       DOS:  cpu time    0.0005: real time    0.0005
    --------------------------------------------
      LOOP:  cpu time    1.9293: real time    1.9345

 eigenvalue-minimisations  :  1016
 total energy-change (2. order) :-0.9012487E+04  (-0.8690559E+04)
 number of electron     792.0000000 magnetization 
 augmentation part      792.0000000 magnetization 

 Free energy of the ion-electron system (eV)
  ---------------------------------------------------
  alpha Z        PSCENC =      1820.93486007
  Ewald energy   TEWEN  =    166274.30914299
  -Hartree energ DENC   =   -288593.60022400
  -exchange      EXHF   =         0.00000000
  -V(xc)+E(xc)   XCENC  =      3649.65129439
  PAW double counting   =    112729.53333415  -117641.51188735
  entropy T*S    EENTRO =        -0.75159851
  eigenvalues    EBANDS =    -13660.48925503
  atomic energy  EATOM  =    136002.60505376
  Solvation  Ediel_sol  =         0.00000000
  ---------------------------------------------------
  free energy    TOTEN  =       580.68072047 eV

  energy without entropy =      581.43231898  energy(sigma->0) =      581.05651973


--------------------------------------------------------------------------------------------------------




--------------------------------------- Iteration      1(   3)  ---------------------------------------


     EDDAV:  cpu time    2.0595: real time    2.0647
       DOS:  cpu time    0.0006: real time    0.0006
    --------------------------------------------
      LOOP:  cpu time    2.0601: real time    2.0652

 eigenvalue-minimisations  :  1104
 total energy-change (2. order) :-0.9228384E+03  (-0.8706960E+03)
 number of electron     792.0000000 magnetization 
 augmentation part      792.0000000 magnetization 

 Free energy of the ion-electron system (eV)
  ---------------------------------------------------
  alpha Z        PSCENC =      1820.93486007
  Ewald energy   TEWEN  =    166274.30914299
  -Hartree energ DENC   =   -288593.60022400
  -exchange      EXHF   =         0.00000000
  -V(xc)+E(xc)   XCENC  =      3649.65129439
  PAW double counting   =    112729.53333415  -117641.51188735
  entropy T*S    EENTRO =        -1.29375077
  eigenvalues    EBANDS =    -14582.78549489
  atomic energy  EATOM  =    136002.60505376
  Solvation  Ediel_sol  =         0.00000000
  ---------------------------------------------------
  free energy    TOTEN  =      -342.15767165 eV

  energy without entropy =     -340.86392089  energy(sigma->0) =     -341.51079627


--------------------------------------------------------------------------------------------------------




--------------------------------------- Iteration      1(   4)  ---------------------------------------


     EDDAV:  cpu time    2.1074: real time    2.1149
       DOS:  cpu time    0.0007: real time    0.0007
    --------------------------------------------
      LOOP:  cpu time    2.1080: real time    2.1156

 eigenvalue-minimisations  :  1128
 total energy-change (2. order) :-0.5872942E+02  (-0.5801327E+02)
 number of electron     792.0000000 magnetization 
 augmentation part      792.0000000 magnetization 

 Free energy of the ion-electron system (eV)
  ---------------------------------------------------
  alpha Z        PSCENC =      1820.93486007
  Ewald energy   TEWEN  =    166274.30914299
  -Hartree energ DENC   =   -288593.60022400
  -exchange      EXHF   =         0.00000000
  -V(xc)+E(xc)   XCENC  =      3649.65129439
  PAW double counting   =    112729.53333415  -117641.51188735
  entropy T*S    EENTRO =        -1.39340556
  eigenvalues    EBANDS =    -14641.41525544
  atomic energy  EATOM  =    136002.60505376
  Solvation  Ediel_sol  =         0.00000000
  ---------------------------------------------------
  free energy    TOTEN  =      -400.88708699 eV

  energy without entropy =     -399.49368143  energy(sigma->0) =     -400.19038421


--------------------------------------------------------------------------------------------------------




--------------------------------------- Iteration      1(   5)  ---------------------------------------


     EDDAV:  cpu time    2.2350: real time    2.2415
       DOS:  cpu time    0.0006: real time    0.0006
    CHARGE:  cpu time    0.0398: real time    0.0400
    MIXING:  cpu time    0.0026: real time    0.0030
    --------------------------------------------
      LOOP:  cpu time    2.2780: real time    2.2850

 eigenvalue-minimisations  :  1232
 total energy-change (2. order) :-0.2211120E+01  (-0.2207823E+01)
 number of electron     792.0000215 magnetization 
 augmentation part      286.1566755 magnetization 

 Broyden mixing:
  rms(total) = 0.81894E+01    rms(broyden)= 0.81734E+01
  rms(prec ) = 0.86218E+01
  weight for this iteration     100.00

 Free energy of the ion-electron system (eV)
  ---------------------------------------------------
  alpha Z        PSCENC =      1820.93486007
  Ewald energy   TEWEN  =    166274.30914299
  -Hartree energ DENC   =   -288593.60022400
  -exchange      EXHF   =         0.00000000
  -V(xc)+E(xc)   XCENC  =      3649.65129439
  PAW double counting   =    112729.53333415  -117641.51188735
  entropy T*S    EENTRO =        -1.39495356
  eigenvalues    EBANDS =    -14643.62482699
  atomic energy  EATOM  =    136002.60505376
  Solvation  Ediel_sol  =         0.00000000
  ---------------------------------------------------
  free energy    TOTEN  =      -403.09820654 eV

  energy without entropy =     -401.70325298  energy(sigma->0) =     -402.40072976


--------------------------------------------------------------------------------------------------------




--------------------------------------- Iteration      1(   6)  ---------------------------------------


    POTLOK:  cpu time    0.0476: real time    0.0477
    SETDIJ:  cpu time    0.0046: real time    0.0065
     EDDAV:  cpu time    2.1190: real time    2.1246
       DOS:  cpu time    0.0007: real time    0.0007
    CHARGE:  cpu time    0.0386: real time    0.0387
    MIXING:  cpu time    0.0020: real time    0.0022
    --------------------------------------------
      LOOP:  cpu time    2.2124: real time    2.2203

 eigenvalue-minimisations  :  1152
 total energy-change (2. order) :-0.8929453E+02  (-0.9769681E+02)
 number of electron     792.0000201 magnetization 
 augmentation part      353.6260622 magnetization 

 Broyden mixing:
  rms(total) = 0.15982E+02    rms(broyden)= 0.15979E+02
  rms(prec ) = 0.16650E+02
  weight for this iteration     100.00

 eigenvalues of (default mixing * dielectric matrix)
  average eigenvalue GAMMA=   0.2222
  0.2222

 Free energy of the ion-electron system (eV)
  ---------------------------------------------------
  alpha Z        PSCENC =      1820.93486007
  Ewald energy   TEWEN  =    166274.30914299
  -Hartree energ DENC   =   -285863.91291750
  -exchange      EXHF   =         0.00000000
  -V(xc)+E(xc)   XCENC  =      3572.66055040
  PAW double counting   =    114391.58745724  -119063.03016073
  entropy T*S    EENTRO =        -0.94896457
  eigenvalues    EBANDS =    -17626.59775333
  atomic energy  EATOM  =    136002.60505376
  Solvation  Ediel_sol  =         0.00000000
  ---------------------------------------------------
  free energy    TOTEN  =      -492.39273168 eV

  energy without entropy =     -491.44376711  energy(sigma->0) =     -491.91824939


--------------------------------------------------------------------------------------------------------




--------------------------------------- Iteration      1(   7)  ---------------------------------------


    POTLOK:  cpu time    0.0468: real time    0.0469
    SETDIJ:  cpu time    0.0051: real time    0.0051
     EDDAV:  cpu time    2.0737: real time    2.0787
       DOS:  cpu time    0.0009: real time    0.0009
    CHARGE:  cpu time    0.0386: real time    0.0387
    MIXING:  cpu time    0.0018: real time    0.0018
    --------------------------------------------
      LOOP:  cpu time    2.1669: real time    2.1722

 eigenvalue-minimisations  :  1120
 total energy-change (2. order) : 0.1193190E+03  (-0.1750908E+02)
 number of electron     792.0000222 magnetization 
 augmentation part      332.9280417 magnetization 

 Broyden mixing:
  rms(total) = 0.63277E+01    rms(broyden)= 0.63264E+01
  rms(prec ) = 0.66419E+01
  weight for this iteration     100.00

 eigenvalues of (default mixing * dielectric matrix)
  average eigenvalue GAMMA=   0.5114
  0.5114  0.5114

 Free energy of the ion-electron system (eV)
  ---------------------------------------------------
  alpha Z        PSCENC =      1820.93486007
  Ewald energy   TEWEN  =    166274.30914299
  -Hartree energ DENC   =   -287098.97484538
  -exchange      EXHF   =         0.00000000
  -V(xc)+E(xc)   XCENC  =      3601.93338525
  PAW double counting   =    118471.72415411  -123287.88331824
  entropy T*S    EENTRO =        -0.95708644
  eigenvalues    EBANDS =    -16156.76507377
  atomic energy  EATOM  =    136002.60505376
  Solvation  Ediel_sol  =         0.00000000
  ---------------------------------------------------
  free energy    TOTEN  =      -373.07372764 eV

  energy without entropy =     -372.11664121  energy(sigma->0) =     -372.59518443


--------------------------------------------------------------------------------------------------------




--------------------------------------- Iteration      1(   8)  ---------------------------------------


    POTLOK:  cpu time    0.0476: real time    0.0477
    SETDIJ:  cpu time    0.0050: real time    0.0050
     EDDAV:  cpu time    2.4388: real time    2.4474
       DOS:  cpu time    0.0010: real time    0.0010
    CHARGE:  cpu time    0.0389: real time    0.0390
    MIXING:  cpu time    0.0019: real time    0.0019
    --------------------------------------------
      LOOP:  cpu time    2.5333: real time    2.5421

 eigenvalue-minimisations  :  1352
 total energy-change (2. order) :-0.6717209E+02  (-0.1551202E+02)
 number of electron     792.0000072 magnetization 
 augmentation part      302.2918993 magnetization 

 Broyden mixing:
  rms(total) = 0.16719E+02    rms(broyden)= 0.16716E+02
  rms(prec ) = 0.20829E+02
  weight for this iteration     100.00

 eigenvalues of (default mixing * dielectric matrix)
  average eigenvalue GAMMA=   0.3967
  0.6299  0.4766  0.0836

 Free energy of the ion-electron system (eV)
  ---------------------------------------------------
  alpha Z        PSCENC =      1820.93486007
  Ewald energy   TEWEN  =    166274.30914299
  -Hartree energ DENC   =   -287706.10980606
  -exchange      EXHF   =         0.00000000
  -V(xc)+E(xc)   XCENC  =      3625.35702856
  PAW double counting   =    123956.65742821  -128885.55218529
  entropy T*S    EENTRO =        -0.84350710
  eigenvalues    EBANDS =    -15527.60383298
  atomic energy  EATOM  =    136002.60505376
  Solvation  Ediel_sol  =         0.00000000
  ---------------------------------------------------
  free energy    TOTEN  =      -440.24581785 eV

  energy without entropy =     -439.40231075  energy(sigma->0) =     -439.82406430


--------------------------------------------------------------------------------------------------------




--------------------------------------- Iteration      1(   9)  ---------------------------------------


    POTLOK:  cpu time    0.0478: real time    0.0501
    SETDIJ:  cpu time    0.0046: real time    0.0063
     EDDAV:  cpu time    2.2055: real time    2.2109
       DOS:  cpu time    0.0007: real time    0.0007
    CHARGE:  cpu time    0.0390: real time    0.0391
    MIXING:  cpu time    0.0020: real time    0.0020
    --------------------------------------------
      LOOP:  cpu time    2.2996: real time    2.3091

 eigenvalue-minimisations  :  1208
 total energy-change (2. order) : 0.6776471E+02  (-0.1286031E+02)
 number of electron     792.0000242 magnetization 
 augmentation part      306.8431054 magnetization 

 Broyden mixing:
  rms(total) = 0.74202E+01    rms(broyden)= 0.74138E+01
  rms(prec ) = 0.86525E+01
  weight for this iteration     100.00

 eigenvalues of (default mixing * dielectric matrix)
  average eigenvalue GAMMA=   0.3857
  0.8698  0.3826  0.2248  0.0656

 Free energy of the ion-electron system (eV)
  ---------------------------------------------------
  alpha Z        PSCENC =      1820.93486007
  Ewald energy   TEWEN  =    166274.30914299
  -Hartree energ DENC   =   -287799.24908515
  -exchange      EXHF   =         0.00000000
  -V(xc)+E(xc)   XCENC  =      3624.56456946
  PAW double counting   =    124979.11280451  -129914.53056623
  entropy T*S    EENTRO =        -1.39458535
  eigenvalues    EBANDS =    -15358.83330333
  atomic energy  EATOM  =    136002.60505376
  Solvation  Ediel_sol  =         0.00000000
  ---------------------------------------------------
  free energy    TOTEN  =      -372.48110928 eV

  energy without entropy =     -371.08652393  energy(sigma->0) =     -371.78381660


--------------------------------------------------------------------------------------------------------




--------------------------------------- Iteration      1(  10)  ---------------------------------------


    POTLOK:  cpu time    0.0467: real time    0.0468
    SETDIJ:  cpu time    0.0050: real time    0.0051
     EDDAV:  cpu time    2.3811: real time    2.3870
       DOS:  cpu time    0.0011: real time    0.0011
    CHARGE:  cpu time    0.0392: real time    0.0393
    MIXING:  cpu time    0.0021: real time    0.0021
    --------------------------------------------
      LOOP:  cpu time    2.4753: real time    2.4815

 eigenvalue-minimisations  :  1328
 total energy-change (2. order) :-0.1955591E+01  (-0.7395869E+01)
 number of electron     792.0000252 magnetization 
 augmentation part      307.0094690 magnetization 

 Broyden mixing:
  rms(total) = 0.55579E+01    rms(broyden)= 0.55524E+01
  rms(prec ) = 0.62409E+01
  weight for this iteration     100.00

 eigenvalues of (default mixing * dielectric matrix)
  average eigenvalue GAMMA=   0.5403
  1.7149  0.4044  0.4044  0.1048  0.0729

 Free energy of the ion-electron system (eV)
  ---------------------------------------------------
  alpha Z        PSCENC =      1820.93486007
  Ewald energy   TEWEN  =    166274.30914299
  -Hartree energ DENC   =   -287911.15200288
  -exchange      EXHF   =         0.00000000
  -V(xc)+E(xc)   XCENC  =      3623.51290586
  PAW double counting   =    126375.01851622  -131321.68192130
  entropy T*S    EENTRO =        -1.13285618
  eigenvalues    EBANDS =    -15236.85039878
  atomic energy  EATOM  =    136002.60505376
  Solvation  Ediel_sol  =         0.00000000
  ---------------------------------------------------
  free energy    TOTEN  =      -374.43670026 eV

  energy without entropy =     -373.30384408  energy(sigma->0) =     -373.87027217


--------------------------------------------------------------------------------------------------------




--------------------------------------- Iteration      1(  11)  ---------------------------------------


    POTLOK:  cpu time    0.0470: real time    0.0471
    SETDIJ:  cpu time    0.0050: real time    0.0050
     EDDAV:  cpu time    2.3393: real time    2.3450
       DOS:  cpu time    0.0006: real time    0.0006
    CHARGE:  cpu time    0.0387: real time    0.0388
    MIXING:  cpu time    0.0021: real time    0.0021
    --------------------------------------------
      LOOP:  cpu time    2.4327: real time    2.4387

 eigenvalue-minimisations  :  1304
 total energy-change (2. order) : 0.3617162E+01  (-0.3068033E+01)
 number of electron     792.0000206 magnetization 
 augmentation part      309.2232371 magnetization 

 Broyden mixing:
  rms(total) = 0.73112E+01    rms(broyden)= 0.73079E+01
  rms(prec ) = 0.89280E+01
  weight for this iteration     100.00

 eigenvalues of (default mixing * dielectric matrix)
  average eigenvalue GAMMA=   0.5008
  1.8926  0.4068  0.4068  0.1161  0.1161  0.0666

 Free energy of the ion-electron system (eV)
  ---------------------------------------------------
  alpha Z        PSCENC =      1820.93486007
  Ewald energy   TEWEN  =    166274.30914299
  -Hartree energ DENC   =   -287804.04262787
  -exchange      EXHF   =         0.00000000
  -V(xc)+E(xc)   XCENC  =      3620.84886876
  PAW double counting   =    130175.84245351  -135150.77513831
  entropy T*S    EENTRO =        -1.19413958
  eigenvalues    EBANDS =    -15309.34801172
  atomic energy  EATOM  =    136002.60505376
  Solvation  Ediel_sol  =         0.00000000
  ---------------------------------------------------
  free energy    TOTEN  =      -370.81953840 eV

  energy without entropy =     -369.62539882  energy(sigma->0) =     -370.22246861


--------------------------------------------------------------------------------------------------------




--------------------------------------- Iteration      1(  12)  ---------------------------------------


    POTLOK:  cpu time    0.0469: real time    0.0470
    SETDIJ:  cpu time    0.0050: real time    0.0050
     EDDAV:  cpu time    2.3510: real time    2.3567
       DOS:  cpu time    0.0011: real time    0.0010
    CHARGE:  cpu time    0.0386: real time    0.0387
    MIXING:  cpu time    0.0022: real time    0.0022
    --------------------------------------------
      LOOP:  cpu time    2.4448: real time    2.4507

 eigenvalue-minimisations  :  1312
 total energy-change (2. order) : 0.7563697E+01  (-0.4072841E+01)
 number of electron     792.0000252 magnetization 
 augmentation part      312.7146055 magnetization 

 Broyden mixing:
  rms(total) = 0.37704E+01    rms(broyden)= 0.37677E+01
  rms(prec ) = 0.43770E+01
  weight for this iteration     100.00

 eigenvalues of (default mixing * dielectric matrix)
  average eigenvalue GAMMA=   0.4993
  2.0624  0.4062  0.4062  0.3292  0.1312  0.0681  0.0915

 Free energy of the ion-electron system (eV)
  ---------------------------------------------------
  alpha Z        PSCENC =      1820.93486007
  Ewald energy   TEWEN  =    166274.30914299
  -Hartree energ DENC   =   -287809.58605218
  -exchange      EXHF   =         0.00000000
  -V(xc)+E(xc)   XCENC  =      3619.24667298
  PAW double counting   =    131070.65638833  -136048.58837145
  entropy T*S    EENTRO =        -0.99300979
  eigenvalues    EBANDS =    -15291.84052578
  atomic energy  EATOM  =    136002.60505376
  Solvation  Ediel_sol  =         0.00000000
  ---------------------------------------------------
  free energy    TOTEN  =      -363.25584109 eV

  energy without entropy =     -362.26283130  energy(sigma->0) =     -362.75933620


--------------------------------------------------------------------------------------------------------




--------------------------------------- Iteration      1(  13)  ---------------------------------------


    POTLOK:  cpu time    0.0470: real time    0.0471
    SETDIJ:  cpu time    0.0050: real time    0.0051
     EDDAV:  cpu time    2.2757: real time    2.2832
       DOS:  cpu time    0.0009: real time    0.0009
    CHARGE:  cpu time    0.0391: real time    0.0392
    MIXING:  cpu time    0.0026: real time    0.0026
    --------------------------------------------
      LOOP:  cpu time    2.3704: real time    2.3782

 eigenvalue-minimisations  :  1240
 total energy-change (2. order) : 0.3636951E+01  (-0.1468072E+01)
 number of electron     792.0000246 magnetization 
 augmentation part      313.4721460 magnetization 

 Broyden mixing:
  rms(total) = 0.35416E+01    rms(broyden)= 0.35390E+01
  rms(prec ) = 0.40120E+01
  weight for this iteration     100.00

 eigenvalues of (default mixing * dielectric matrix)
  average eigenvalue GAMMA=   0.4893
  2.0968  0.5205  0.4232  0.4232  0.1502  0.0680  0.1163  0.1163

 Free energy of the ion-electron system (eV)
  ---------------------------------------------------
  alpha Z        PSCENC =      1820.93486007
  Ewald energy   TEWEN  =    166274.30914299
  -Hartree energ DENC   =   -287793.88612591
  -exchange      EXHF   =         0.00000000
  -V(xc)+E(xc)   XCENC  =      3619.11534755
  PAW double counting   =    131870.90681510  -136856.75977390
  entropy T*S    EENTRO =        -0.96263199
  eigenvalues    EBANDS =    -15295.88157816
  atomic energy  EATOM  =    136002.60505376
  Solvation  Ediel_sol  =         0.00000000
  ---------------------------------------------------
  free energy    TOTEN  =      -359.61889050 eV

  energy without entropy =     -358.65625852  energy(sigma->0) =     -359.13757451


--------------------------------------------------------------------------------------------------------




--------------------------------------- Iteration      1(  14)  ---------------------------------------


    POTLOK:  cpu time    0.0479: real time    0.0512
    SETDIJ:  cpu time    0.0042: real time    0.0062
     EDDAV:  cpu time    2.2684: real time    2.2740
       DOS:  cpu time    0.0009: real time    0.0009
    CHARGE:  cpu time    0.0387: real time    0.0388
    MIXING:  cpu time    0.0025: real time    0.0025
    --------------------------------------------
      LOOP:  cpu time    2.3626: real time    2.3735

 eigenvalue-minimisations  :  1256
 total energy-change (2. order) : 0.2254527E+01  (-0.1063687E+01)
 number of electron     792.0000235 magnetization 
 augmentation part      313.6130260 magnetization 

 Broyden mixing:
  rms(total) = 0.27034E+01    rms(broyden)= 0.27013E+01
  rms(prec ) = 0.30977E+01
  weight for this iteration     100.00

 eigenvalues of (default mixing * dielectric matrix)
  average eigenvalue GAMMA=   0.4637
  2.0709  0.4809  0.4512  0.4512  0.2949  0.0680  0.1249  0.1249  0.1067

 Free energy of the ion-electron system (eV)
  ---------------------------------------------------
  alpha Z        PSCENC =      1820.93486007
  Ewald energy   TEWEN  =    166274.30914299
  -Hartree energ DENC   =   -287805.39598097
  -exchange      EXHF   =         0.00000000
  -V(xc)+E(xc)   XCENC  =      3619.56253396
  PAW double counting   =    132015.01989585  -137003.82523404
  entropy T*S    EENTRO =        -1.04209979
  eigenvalues    EBANDS =    -15279.53253484
  atomic energy  EATOM  =    136002.60505376
  Solvation  Ediel_sol  =         0.00000000
  ---------------------------------------------------
  free energy    TOTEN  =      -357.36436301 eV

  energy without entropy =     -356.32226322  energy(sigma->0) =     -356.84331312


--------------------------------------------------------------------------------------------------------




--------------------------------------- Iteration      1(  15)  ---------------------------------------


    POTLOK:  cpu time    0.0472: real time    0.0474
    SETDIJ:  cpu time    0.0048: real time    0.0048
     EDDAV:  cpu time    2.2463: real time    2.2523
       DOS:  cpu time    0.0008: real time    0.0007
    CHARGE:  cpu time    0.0386: real time    0.0387
    MIXING:  cpu time    0.0026: real time    0.0026
    --------------------------------------------
      LOOP:  cpu time    2.3403: real time    2.3466

 eigenvalue-minimisations  :  1240
 total energy-change (2. order) : 0.1984690E+01  (-0.4055942E+00)
 number of electron     792.0000242 magnetization 
 augmentation part      313.3200395 magnetization 

 Broyden mixing:
  rms(total) = 0.21259E+01    rms(broyden)= 0.21248E+01
  rms(prec ) = 0.24639E+01
  weight for this iteration     100.00

 eigenvalues of (default mixing * dielectric matrix)
  average eigenvalue GAMMA=   0.4661
  2.0298  0.6133  0.6133  0.4053  0.4053  0.0680  0.1494  0.1494  0.1135  0.1135

 Free energy of the ion-electron system (eV)
  ---------------------------------------------------
  alpha Z        PSCENC =      1820.93486007
  Ewald energy   TEWEN  =    166274.30914299
  -Hartree energ DENC   =   -287810.60153623
  -exchange      EXHF   =         0.00000000
  -V(xc)+E(xc)   XCENC  =      3620.06219969
  PAW double counting   =    131884.48508346  -136873.52260729
  entropy T*S    EENTRO =        -1.09532330
  eigenvalues    EBANDS =    -15272.55654639
  atomic energy  EATOM  =    136002.60505376
  Solvation  Ediel_sol  =         0.00000000
  ---------------------------------------------------
  free energy    TOTEN  =      -355.37967325 eV

  energy without entropy =     -354.28434995  energy(sigma->0) =     -354.83201160


--------------------------------------------------------------------------------------------------------




--------------------------------------- Iteration      1(  16)  ---------------------------------------


    POTLOK:  cpu time    0.0473: real time    0.0474
    SETDIJ:  cpu time    0.0050: real time    0.0050
     EDDAV:  cpu time    2.3158: real time    2.3215
       DOS:  cpu time    0.0007: real time    0.0007
    CHARGE:  cpu time    0.0388: real time    0.0388
    MIXING:  cpu time    0.0027: real time    0.0027
    --------------------------------------------
      LOOP:  cpu time    2.4102: real time    2.4161

 eigenvalue-minimisations  :  1288
 total energy-change (2. order) : 0.7473423E+00  (-0.2391921E+00)
 number of electron     792.0000229 magnetization 
 augmentation part      312.9540114 magnetization 

 Broyden mixing:
  rms(total) = 0.19725E+01    rms(broyden)= 0.19716E+01
  rms(prec ) = 0.23105E+01
  weight for this iteration     100.00

 eigenvalues of (default mixing * dielectric matrix)
  average eigenvalue GAMMA=   0.4613
  2.0147  0.7438  0.7438  0.4073  0.4073  0.1988  0.0680  0.1431  0.1200  0.1200
  0.1079

 Free energy of the ion-electron system (eV)
  ---------------------------------------------------
  alpha Z        PSCENC =      1820.93486007
  Ewald energy   TEWEN  =    166274.30914299
  -Hartree energ DENC   =   -287818.59804970
  -exchange      EXHF   =         0.00000000
  -V(xc)+E(xc)   XCENC  =      3620.34745907
  PAW double counting   =    131673.39729360  -136660.67944104
  entropy T*S    EENTRO =        -1.09085442
  eigenvalues    EBANDS =    -15265.85779531
  atomic energy  EATOM  =    136002.60505376
  Solvation  Ediel_sol  =         0.00000000
  ---------------------------------------------------
  free energy    TOTEN  =      -354.63233100 eV

  energy without entropy =     -353.54147658  energy(sigma->0) =     -354.08690379


--------------------------------------------------------------------------------------------------------




--------------------------------------- Iteration      1(  17)  ---------------------------------------


    POTLOK:  cpu time    0.0474: real time    0.0475
    SETDIJ:  cpu time    0.0049: real time    0.0049
     EDDAV:  cpu time    2.2964: real time    2.3020
       DOS:  cpu time    0.0008: real time    0.0008
    CHARGE:  cpu time    0.0412: real time    0.0413
    MIXING:  cpu time    0.0027: real time    0.0027
    --------------------------------------------
      LOOP:  cpu time    2.3935: real time    2.3993

 eigenvalue-minimisations  :  1272
 total energy-change (2. order) : 0.9823030E+00  (-0.1540633E+00)
 number of electron     792.0000233 magnetization 
 augmentation part      312.8797794 magnetization 

 Broyden mixing:
  rms(total) = 0.14851E+01    rms(broyden)= 0.14843E+01
  rms(prec ) = 0.17460E+01
  weight for this iteration     100.00

 eigenvalues of (default mixing * dielectric matrix)
  average eigenvalue GAMMA=   0.4417
  2.0055  0.7814  0.7814  0.4035  0.4035  0.2394  0.0680  0.1500  0.1301  0.1301
  0.1036  0.1036

 Free energy of the ion-electron system (eV)
  ---------------------------------------------------
  alpha Z        PSCENC =      1820.93486007
  Ewald energy   TEWEN  =    166274.30914299
  -Hartree energ DENC   =   -287824.01960937
  -exchange      EXHF   =         0.00000000
  -V(xc)+E(xc)   XCENC  =      3620.52588537
  PAW double counting   =    131538.62722162  -136524.56132818
  entropy T*S    EENTRO =        -1.09849933
  eigenvalues    EBANDS =    -15260.97275495
  atomic energy  EATOM  =    136002.60505376
  Solvation  Ediel_sol  =         0.00000000
  ---------------------------------------------------
  free energy    TOTEN  =      -353.65002803 eV

  energy without entropy =     -352.55152870  energy(sigma->0) =     -353.10077837


--------------------------------------------------------------------------------------------------------




--------------------------------------- Iteration      1(  18)  ---------------------------------------


    POTLOK:  cpu time    0.0470: real time    0.0471
    SETDIJ:  cpu time    0.0049: real time    0.0050
     EDDAV:  cpu time    2.3289: real time    2.3349
       DOS:  cpu time    0.0010: real time    0.0010
    CHARGE:  cpu time    0.0386: real time    0.0387
    MIXING:  cpu time    0.0031: real time    0.0031
    --------------------------------------------
      LOOP:  cpu time    2.4235: real time    2.4298

 eigenvalue-minimisations  :  1296
 total energy-change (2. order) : 0.3985193E+00  (-0.5667408E-01)
 number of electron     792.0000233 magnetization 
 augmentation part      312.7755984 magnetization 

 Broyden mixing:
  rms(total) = 0.12566E+01    rms(broyden)= 0.12561E+01
  rms(prec ) = 0.14727E+01
  weight for this iteration     100.00

 eigenvalues of (default mixing * dielectric matrix)
  average eigenvalue GAMMA=   0.4364
  1.9908  0.8415  0.8415  0.4017  0.4017  0.3305  0.1716  0.1502  0.1502  0.0680
  0.1117  0.1117  0.1026

 Free energy of the ion-electron system (eV)
  ---------------------------------------------------
  alpha Z        PSCENC =      1820.93486007
  Ewald energy   TEWEN  =    166274.30914299
  -Hartree energ DENC   =   -287828.79343109
  -exchange      EXHF   =         0.00000000
  -V(xc)+E(xc)   XCENC  =      3620.63962549
  PAW double counting   =    131457.03996386  -136442.10635804
  entropy T*S    EENTRO =        -1.09645973
  eigenvalues    EBANDS =    -15256.78390607
  atomic energy  EATOM  =    136002.60505376
  Solvation  Ediel_sol  =         0.00000000
  ---------------------------------------------------
  free energy    TOTEN  =      -353.25150877 eV

  energy without entropy =     -352.15504904  energy(sigma->0) =     -352.70327890


--------------------------------------------------------------------------------------------------------




--------------------------------------- Iteration      1(  19)  ---------------------------------------


    POTLOK:  cpu time    0.0470: real time    0.0471
    SETDIJ:  cpu time    0.0049: real time    0.0049
     EDDAV:  cpu time    2.2375: real time    2.2430
       DOS:  cpu time    0.0010: real time    0.0010
    CHARGE:  cpu time    0.0390: real time    0.0391
    MIXING:  cpu time    0.0029: real time    0.0029
    --------------------------------------------
      LOOP:  cpu time    2.3322: real time    2.3379

 eigenvalue-minimisations  :  1232
 total energy-change (2. order) : 0.2361833E+00  (-0.2426031E-01)
 number of electron     792.0000228 magnetization 
 augmentation part      312.5807687 magnetization 

 Broyden mixing:
  rms(total) = 0.11151E+01    rms(broyden)= 0.11148E+01
  rms(prec ) = 0.12883E+01
  weight for this iteration     100.00

 eigenvalues of (default mixing * dielectric matrix)
  average eigenvalue GAMMA=   0.4569
  2.0054  0.9940  0.9940  0.4259  0.4259  0.3499  0.3499  0.1877  0.0680  0.1295
  0.1295  0.1263  0.1058  0.1058

 Free energy of the ion-electron system (eV)
  ---------------------------------------------------
  alpha Z        PSCENC =      1820.93486007
  Ewald energy   TEWEN  =    166274.30914299
  -Hartree energ DENC   =   -287836.36531254
  -exchange      EXHF   =         0.00000000
  -V(xc)+E(xc)   XCENC  =      3620.75943518
  PAW double counting   =    131342.70503748  -136326.28881734
  entropy T*S    EENTRO =        -1.11585670
  eigenvalues    EBANDS =    -15250.55886835
  atomic energy  EATOM  =    136002.60505376
  Solvation  Ediel_sol  =         0.00000000
  ---------------------------------------------------
  free energy    TOTEN  =      -353.01532546 eV

  energy without entropy =     -351.89946876  energy(sigma->0) =     -352.45739711


--------------------------------------------------------------------------------------------------------




--------------------------------------- Iteration      1(  20)  ---------------------------------------


    POTLOK:  cpu time    0.0473: real time    0.0474
    SETDIJ:  cpu time    0.0051: real time    0.0051
     EDDAV:  cpu time    2.2839: real time    2.2895
       DOS:  cpu time    0.0012: real time    0.0012
    CHARGE:  cpu time    0.0389: real time    0.0390
    MIXING:  cpu time    0.0030: real time    0.0030
    --------------------------------------------
      LOOP:  cpu time    2.3793: real time    2.3851

 eigenvalue-minimisations  :  1264
 total energy-change (2. order) : 0.6139658E-01  (-0.2770895E-01)
 number of electron     792.0000229 magnetization 
 augmentation part      312.5543764 magnetization 

 Broyden mixing:
  rms(total) = 0.11043E+01    rms(broyden)= 0.11039E+01
  rms(prec ) = 0.12742E+01
  weight for this iteration     100.00

 eigenvalues of (default mixing * dielectric matrix)
  average eigenvalue GAMMA=   0.4852
  2.0013  1.2310  1.2310  0.5109  0.5109  0.4072  0.4072  0.1876  0.0680  0.1481
  0.1304  0.1304  0.1091  0.1091  0.0959

 Free energy of the ion-electron system (eV)
  ---------------------------------------------------
  alpha Z        PSCENC =      1820.93486007
  Ewald energy   TEWEN  =    166274.30914299
  -Hartree energ DENC   =   -287844.35909557
  -exchange      EXHF   =         0.00000000
  -V(xc)+E(xc)   XCENC  =      3620.74010174
  PAW double counting   =    131231.28059667  -136212.66370659
  entropy T*S    EENTRO =        -1.11633248
  eigenvalues    EBANDS =    -15244.68454947
  atomic energy  EATOM  =    136002.60505376
  Solvation  Ediel_sol  =         0.00000000
  ---------------------------------------------------
  free energy    TOTEN  =      -352.95392888 eV

  energy without entropy =     -351.83759641  energy(sigma->0) =     -352.39576264


--------------------------------------------------------------------------------------------------------




--------------------------------------- Iteration      1(  21)  ---------------------------------------


    POTLOK:  cpu time    0.0470: real time    0.0471
    SETDIJ:  cpu time    0.0049: real time    0.0050
     EDDAV:  cpu time    2.3448: real time    2.3505
       DOS:  cpu time    0.0005: real time    0.0005
    CHARGE:  cpu time    0.0443: real time    0.0444
    MIXING:  cpu time    0.0030: real time    0.0030
    --------------------------------------------
      LOOP:  cpu time    2.4445: real time    2.4505

 eigenvalue-minimisations  :  1304
 total energy-change (2. order) : 0.2316662E+00  (-0.1617791E-01)
 number of electron     792.0000230 magnetization 
 augmentation part      312.4763495 magnetization 

 Broyden mixing:
  rms(total) = 0.89447E+00    rms(broyden)= 0.89428E+00
  rms(prec ) = 0.10548E+01
  weight for this iteration     100.00

 eigenvalues of (default mixing * dielectric matrix)
  average eigenvalue GAMMA=   0.5123
  1.9760  1.4864  1.4864  0.6135  0.6135  0.4104  0.4104  0.2349  0.1824  0.0680
  0.1378  0.1378  0.1146  0.1146  0.1103  0.0999

 Free energy of the ion-electron system (eV)
  ---------------------------------------------------
  alpha Z        PSCENC =      1820.93486007
  Ewald energy   TEWEN  =    166274.30914299
  -Hartree energ DENC   =   -287854.76917325
  -exchange      EXHF   =         0.00000000
  -V(xc)+E(xc)   XCENC  =      3620.80466024
  PAW double counting   =    131046.68946262  -136025.20611118
  entropy T*S    EENTRO =        -1.12954697
  eigenvalues    EBANDS =    -15236.96061092
  atomic energy  EATOM  =    136002.60505376
  Solvation  Ediel_sol  =         0.00000000
  ---------------------------------------------------
  free energy    TOTEN  =      -352.72226264 eV

  energy without entropy =     -351.59271567  energy(sigma->0) =     -352.15748916


--------------------------------------------------------------------------------------------------------




--------------------------------------- Iteration      1(  22)  ---------------------------------------


    POTLOK:  cpu time    0.0476: real time    0.0477
    SETDIJ:  cpu time    0.0049: real time    0.0049
[...]
    FORCOR:  cpu time    0.0599: real time    0.0602
    FORHAR:  cpu time    0.0248: real time    0.0249
    MIXING:  cpu time    0.0054: real time    0.0054
    OFIELD:  cpu time    0.0001: real time    0.0001

  FORCE on cell =-STRESS in cart. coord.  units (eV):
  Direction    XX          YY          ZZ          XY          YZ          ZX
  --------------------------------------------------------------------------------------
  Alpha Z  1820.93486  1820.93486  1820.93486
  Ewald  214820.99224214492.83272************    46.42598  -393.77687  -711.62462
  Hartree251688.15149251745.85658************    27.71903  -278.61166  -488.75105
  E(xc)   -5024.80023 -5026.24309 -5029.42759     0.13569    -0.28439    -0.89299
  Local  ************************465615.46474   -68.64135   665.98406  1164.20570
  n-local  -684.75538  -696.36614  -697.71511    -0.23458    -1.76126    -2.75332
  augment  5778.03288  5800.77773  5799.20505    -1.75961     3.04934    14.72392
  Kinetic 10947.24606 10983.47628 10991.99035    -4.57691     5.29769    39.33864
  Fock        0.00000     0.00000     0.00000     0.00000     0.00000     0.00000
  -------------------------------------------------------------------------------------
  Total     -37.85177   -26.97680   -28.36707    -0.93174    -0.10310    14.24627
  in kB     -29.68657   -21.15749   -22.24786    -0.73075    -0.08086    11.17313
  external pressure =      -24.36 kB  Pullay stress =        0.00 kB


 VOLUME and BASIS-vectors are now :
 -----------------------------------------------------------------------------
  energy-cutoff  :      450.00
  volume of cell :     2042.85
      direct lattice vectors                 reciprocal lattice vectors
    10.403353751 -4.789205000  0.000000000     0.096122849  0.000000000  0.000000000
     0.000000000  9.578410000  0.000000000     0.048061424  0.104401461  0.000000000
     0.000000000  0.000000000 20.500762856     0.000000000  0.000000000  0.048778673

  length of vectors
    11.452783670  9.578410000 20.500762856     0.096122849  0.114932874  0.048778673


 FORCES acting on ions
    electron-ion (+dipol)            ewald-force                    non-local-force                 convergence-correction
 -----------------------------------------------------------------------------------------------
   -.246E+03 0.540E+03 -.229E+04   0.247E+03 -.543E+03 0.229E+04   -.491E+00 0.242E+01 -.109E+01   -.830E-01 0.518E-01 0.299E+00
   -.289E+03 0.435E+03 0.518E+03   0.289E+03 -.435E+03 -.517E+03   0.254E+00 0.541E+00 -.128E+01   -.839E-01 0.113E-02 0.193E+00
   -.351E+03 0.377E+03 0.355E+04   0.353E+03 -.375E+03 -.355E+04   -.914E+00 -.188E+01 -.973E+00   -.403E-01 0.104E-01 -.156E-01
   -.372E+02 0.754E+03 -.462E+04   0.282E+02 -.751E+03 0.462E+04   0.810E+01 -.381E+01 0.232E+01   0.133E+00 0.130E+00 0.122E+00
   -.226E+03 0.531E+03 -.514E+03   0.226E+03 -.533E+03 0.516E+03   -.264E-02 0.181E+01 -.118E+01   0.183E-01 0.667E-02 0.203E+00
   -.119E+03 0.496E+03 0.234E+04   0.119E+03 -.497E+03 -.234E+04   0.722E+00 0.147E+01 0.122E+01   0.526E-01 -.657E-02 0.117E+00
   -.134E+03 0.232E+03 0.460E+04   0.127E+03 -.230E+03 -.459E+04   0.634E+01 -.228E+01 -.527E+01   0.703E-01 0.111E-01 -.160E+00
   -.109E+03 0.755E+02 -.476E+04   0.112E+03 -.668E+02 0.475E+04   -.149E+01 -.791E+01 0.109E+02   -.142E+00 -.217E-01 0.947E-01
   -.459E+03 0.490E+03 -.319E+04   0.459E+03 -.491E+03 0.319E+04   -.541E+00 0.152E+01 -.352E+01   -.148E+00 -.413E-02 0.274E+00
   -.110E+03 -.187E+03 -.418E+04   0.111E+03 0.182E+03 0.418E+04   -.834E+00 0.475E+01 -.657E+00   0.828E-01 -.687E-01 0.186E+00
   -.134E+03 0.324E+03 -.144E+04   0.133E+03 -.325E+03 0.144E+04   0.374E+00 0.561E+00 -.189E+01   0.142E+00 -.697E-01 0.204E+00
   -.394E+03 0.437E+03 0.159E+04   0.395E+03 -.438E+03 -.159E+04   -.794E+00 0.631E+00 -.129E+00   -.998E-02 -.326E-01 0.146E+00
   0.630E+03 0.172E+03 -.315E+04   -.634E+03 -.173E+03 0.315E+04   0.326E+01 0.691E+00 -.373E+01   0.270E+00 0.435E-02 0.246E+00
   0.424E+03 0.266E+02 -.348E+03   -.425E+03 -.266E+02 0.348E+03   0.168E+01 0.205E-01 -.124E+00   0.643E-01 0.136E-01 0.291E+00
   0.301E+03 -.102E+03 0.247E+04   -.302E+03 0.103E+03 -.247E+04   0.817E+00 -.751E+00 0.356E+00   -.240E-01 0.138E-01 0.123E+00
   0.134E+03 -.164E+03 0.490E+04   -.131E+03 0.165E+03 -.488E+04   -.321E+01 -.712E+00 -.140E+02   -.705E-01 0.137E-01 -.198E+00
   0.542E+03 0.459E+02 0.425E+04   -.544E+03 -.455E+02 -.425E+04   0.204E+01 -.217E+00 0.406E+01   0.300E-01 0.377E-02 -.908E-02
   0.465E+03 -.306E+03 -.412E+04   -.465E+03 0.304E+03 0.411E+04   0.533E+00 0.152E+01 0.432E+01   0.137E+00 -.779E-01 0.266E+00
   0.368E+03 -.283E+02 -.129E+04   -.370E+03 0.294E+02 0.129E+04   0.166E+01 -.890E+00 -.344E+00   -.871E-01 -.179E-01 0.302E+00
   0.449E+03 0.776E+02 0.164E+04   -.451E+03 -.776E+02 -.164E+04   0.231E+01 0.203E-01 0.531E+00   -.431E-01 -.324E-02 0.165E+00
   0.420E+03 -.537E+02 0.477E+03   -.422E+03 0.545E+02 -.476E+03   0.190E+01 -.702E+00 -.802E+00   0.475E-01 -.220E-02 0.112E+00
   0.490E+03 0.416E+02 0.337E+04   -.493E+03 -.426E+02 -.337E+04   0.317E+01 0.754E+00 0.140E+01   0.353E-01 -.101E-01 0.331E-01
   -.720E+01 0.263E+03 0.477E+04   0.845E+01 -.262E+03 -.475E+04   -.149E+01 -.286E+00 -.150E+02   -.211E-01 -.347E-01 -.255E+00
   -.204E+03 0.117E+03 -.460E+04   0.204E+03 -.115E+03 0.459E+04   -.684E-01 -.177E+01 0.919E+01   -.196E+00 0.523E-01 0.183E+00
   -.130E+02 -.238E+03 -.252E+04   0.122E+02 0.240E+03 0.252E+04   0.127E+01 -.135E+01 -.254E+01   -.145E+00 0.354E-01 0.189E+00
   -.364E+02 -.516E+03 -.462E+04   0.291E+02 0.513E+03 0.462E+04   0.680E+01 0.314E+01 0.230E+01   0.160E+00 -.943E-01 0.132E+00
   -.270E+03 -.460E+03 -.219E+04   0.269E+03 0.461E+03 0.219E+04   0.213E+00 -.986E+00 -.692E+00   -.838E-01 -.207E-01 0.320E+00
   -.285E+03 -.517E+03 0.597E+03   0.285E+03 0.517E+03 -.597E+03   0.246E+00 -.718E+00 -.366E+00   -.926E-01 0.119E-02 0.190E+00
   -.243E+03 -.501E+03 0.357E+04   0.243E+03 0.499E+03 -.357E+04   0.321E-01 0.141E+01 -.779E+00   -.548E-01 -.987E-02 -.197E-01
   -.211E+03 -.445E+03 -.457E+03   0.211E+03 0.446E+03 0.458E+03   0.538E+00 -.643E+00 -.101E+01   0.199E-01 -.131E-01 0.192E+00
   -.163E+03 -.495E+03 0.236E+04   0.162E+03 0.497E+03 -.236E+04   0.732E+00 -.146E+01 0.121E+01   0.621E-01 0.189E-01 0.104E+00
   -.247E+03 -.349E+03 0.457E+04   0.240E+03 0.348E+03 -.456E+04   0.617E+01 0.144E+01 -.536E+01   0.768E-01 0.381E-01 -.163E+00
   -.235E+03 -.464E+03 -.332E+04   0.234E+03 0.465E+03 0.332E+04   0.858E+00 -.989E+00 -.315E+01   -.123E+00 -.327E-01 0.228E+00
   -.272E+02 -.428E+03 -.161E+04   0.253E+02 0.428E+03 0.161E+04   0.153E+01 -.807E+00 -.216E+01   0.119E+00 0.544E-01 0.217E+00
   -.272E+03 -.352E+03 0.142E+04   0.273E+03 0.352E+03 -.142E+04   -.892E+00 -.226E+00 -.134E+01   -.162E-01 0.133E-01 0.152E+00
   -.477E+03 0.192E+02 0.403E+04   0.480E+03 -.235E+02 -.403E+04   -.263E+01 0.378E+01 -.820E+00   -.710E-01 0.291E-01 -.790E-01
   0.228E+03 -.578E+02 -.182E+04   -.231E+03 0.572E+02 0.182E+04   0.360E+01 0.113E+01 -.407E+01   0.102E+00 -.513E-01 0.593E-01
   0.125E+03 -.163E+03 -.853E+03   -.127E+03 0.165E+03 0.852E+03   0.166E+01 -.216E+01 0.741E+00   0.572E-01 -.387E-01 0.129E+00
   0.678E+02 -.169E+03 0.207E+03   -.694E+02 0.171E+03 -.208E+03   0.162E+01 -.223E+01 0.705E+00   -.134E-01 -.125E-01 0.923E-01
   0.976E+02 -.342E+03 0.131E+04   -.100E+03 0.348E+03 -.132E+04   0.323E+01 -.621E+01 0.118E+01   -.296E-01 -.123E-01 -.298E-02
   0.109E+03 -.152E+03 0.897E+03   -.110E+03 0.154E+03 -.898E+03   0.132E+01 -.223E+01 0.841E+00   0.301E-02 0.228E-02 0.369E-01
   0.172E+03 -.217E+03 0.182E+04   -.175E+03 0.221E+03 -.182E+04   0.261E+01 -.423E+01 0.311E+01   0.171E-01 0.140E-01 -.543E-01
   0.811E+02 -.115E+03 -.134E+04   -.816E+02 0.117E+03 0.135E+04   0.141E+00 -.204E+01 -.219E+01   -.489E-01 -.764E-02 0.111E+00
   0.812E+02 -.138E+03 -.178E+03   -.830E+02 0.140E+03 0.178E+03   0.177E+01 -.212E+01 0.319E+00   -.301E-01 0.726E-02 0.824E-01
   0.654E+02 -.107E+03 -.744E+03   -.661E+02 0.109E+03 0.746E+03   0.769E+00 -.237E+01 -.258E+01   0.108E-01 0.269E-01 0.661E-01
   0.120E+03 -.127E+03 0.505E+03   -.122E+03 0.129E+03 -.506E+03   0.184E+01 -.214E+01 0.103E+01   0.213E-01 -.224E-02 0.449E-01
   0.756E+02 -.930E+02 0.143E+04   -.773E+02 0.955E+02 -.143E+04   0.234E+01 -.277E+01 -.799E+00   -.836E-02 -.185E-01 -.198E-01
   -.224E+03 -.586E+02 -.158E+04   0.227E+03 0.592E+02 0.158E+04   -.323E+01 -.143E+01 -.157E+01   -.815E-01 0.113E-01 0.984E-01
   -.389E+02 -.449E+01 0.164E+04   0.389E+02 0.463E+01 -.165E+04   -.135E+01 -.799E-01 0.389E+01   0.268E-01 -.294E-02 -.273E-01
   -.139E+03 0.520E+02 -.161E+04   0.141E+03 -.522E+02 0.161E+04   -.173E+01 0.155E+00 0.939E-01   -.531E-01 0.152E-01 0.989E-01
   -.159E+03 -.350E+01 -.685E+03   0.161E+03 0.355E+01 0.687E+03   -.190E+01 -.519E-03 -.218E+01   -.677E-01 0.255E-02 0.936E-01
   -.121E+03 -.181E+02 0.387E+03   0.123E+03 0.181E+02 -.385E+03   -.179E+01 -.619E-02 -.189E+01   -.144E-01 -.261E-02 0.574E-01
   -.873E+02 0.112E+02 0.134E+01   0.889E+02 -.112E+02 -.300E+00   -.160E+01 -.145E-01 -.134E+01   0.428E-01 0.193E-02 0.870E-01
   -.115E+03 -.219E+02 0.103E+04   0.116E+03 0.219E+02 -.103E+04   -.853E+00 -.228E-01 -.225E+01   0.256E-01 0.114E-01 0.251E-01
   -.117E+03 0.440E+02 -.108E+04   0.118E+03 -.439E+02 0.108E+04   -.959E+00 0.402E-01 -.886E+00   0.112E-01 -.516E-02 0.866E-01
   -.208E+03 -.982E+02 -.188E+04   0.212E+03 0.990E+02 0.188E+04   -.434E+01 -.175E+01 -.318E+01   -.896E-01 -.341E-01 0.728E-01
   0.772E+02 -.132E+03 -.145E+04   -.782E+02 0.133E+03 0.145E+04   0.123E+01 -.178E+01 -.129E+01   0.110E+00 0.534E-02 0.958E-01
   -.997E+02 -.452E+01 -.336E+03   0.101E+03 0.441E+01 0.338E+03   -.156E+01 0.120E-01 -.208E+01   0.100E-01 -.775E-02 0.939E-01
   -.138E+03 0.139E+03 0.885E+03   0.139E+03 -.142E+03 -.886E+03   -.965E+00 0.258E+01 0.946E+00   -.199E-01 -.122E-01 0.504E-01
   0.310E+02 0.120E+03 0.173E+04   -.321E+02 -.123E+03 -.174E+04   0.188E+00 0.359E+01 0.320E+01   -.914E-02 -.102E-01 -.636E-01
   0.847E+02 0.155E+03 0.167E+03   -.861E+02 -.157E+03 -.168E+03   0.128E+01 0.202E+01 0.813E+00   -.887E-02 0.184E-01 0.928E-01
   0.390E+02 0.145E+03 0.121E+04   -.406E+02 -.148E+03 -.121E+04   0.201E+01 0.274E+01 -.448E+00   -.188E-01 0.276E-01 0.705E-02
   0.267E+03 0.258E+03 -.172E+04   -.270E+03 -.260E+03 0.172E+04   0.372E+01 0.181E+01 -.211E+01   0.884E-01 0.305E-01 0.474E-01
   0.162E+03 0.215E+03 -.897E+03   -.164E+03 -.217E+03 0.896E+03   0.133E+01 0.181E+01 0.993E+00   0.492E-01 0.446E-01 0.131E+00
   0.141E+03 0.167E+03 0.908E+03   -.143E+03 -.169E+03 -.910E+03   0.158E+01 0.209E+01 0.672E+00   -.477E-03 0.893E-03 0.379E-01
   0.196E+03 0.216E+03 0.182E+04   -.198E+03 -.220E+03 -.182E+04   0.230E+01 0.419E+01 0.323E+01   0.288E-02 -.114E-01 -.557E-01
   0.827E+02 0.954E+02 -.117E+04   -.836E+02 -.975E+02 0.117E+04   0.613E+00 0.241E+01 0.206E+01   -.430E-01 -.109E-02 0.158E+00
   0.687E+02 0.150E+03 -.159E+03   -.703E+02 -.153E+03 0.158E+03   0.157E+01 0.240E+01 0.512E+00   -.308E-01 -.708E-02 0.875E-01
   0.933E+02 0.853E+02 -.575E+03   -.950E+02 -.872E+02 0.575E+03   0.171E+01 0.230E+01 0.351E+00   0.152E-01 -.248E-01 0.442E-01
   0.101E+03 0.126E+03 0.527E+03   -.102E+03 -.128E+03 -.528E+03   0.157E+01 0.216E+01 0.100E+01   0.264E-01 -.197E-03 0.465E-01
   -.122E+03 0.114E+03 0.145E+04   0.123E+03 -.116E+03 -.145E+04   -.115E+01 0.231E+01 -.531E+00   0.277E-02 0.332E-02 -.272E-01
   0.225E+02 0.791E+02 -.163E+04   -.227E+02 -.800E+02 0.163E+04   0.441E+00 0.186E+01 -.127E+01   -.901E-01 0.318E-03 0.926E-01
 -----------------------------------------------------------------------------------------------
   -.572E+02 -.669E-01 0.289E+02   -.178E-13 0.182E-11 0.568E-11   0.572E+02 0.121E+00 -.353E+02   -.498E-01 -.553E-01 0.636E+01
 
 
 POSITION                                       TOTAL-FORCE (eV/Angst)
 -----------------------------------------------------------------------------------
      6.03859     -2.06748      7.16328        -0.179700     -0.088123      0.029630
      7.93319     -2.06748      4.66016         0.173924      0.080450      0.051828
      9.82779     -2.06748      2.15705         0.475642      0.458472      0.665270
      4.14400      7.51093      9.66639        -0.777374     -0.057991     -1.082056
      0.36609      7.51093      5.49453        -0.010417     -0.023914      0.086388
      2.26069      7.51093      2.99142         0.121245     -0.044304     -0.342960
      4.15528      7.51093      0.48830        -1.102953     -0.130271      1.541463
      6.98025      2.72172     10.50076         0.788040      0.784076     -2.144559
      8.87485      2.72172      7.99765         0.055433     -0.179641      0.525474
      1.30774      2.72172      8.83202        -0.053622     -0.614666     -0.566576
      3.20234      2.72172      6.32891         0.091519      0.073772      0.225599
      5.09694      2.72172      3.82579         0.197347      0.219001     -0.182824
      2.39650     -0.80215      8.34372        -0.435698     -0.075032      0.457706
      4.29109     -0.80215      5.84060         0.169452      0.027336      0.096151
      6.18569     -0.80215      3.33749         0.238388      0.039765     -0.317994
      8.08029     -0.80215      0.83437        -0.472299     -0.014711      1.830591
      0.51318      8.77626      1.66874         0.168089      0.147256     -0.856467
      5.23275      3.98706      9.17809         0.446988     -0.259161     -1.210453
      7.12734      3.98706      6.67497        -0.077923      0.143510      0.168025
      9.02194      3.98706      4.17186         0.103548      0.055332      0.161959
      1.45484      3.98706      5.00623         0.009283      0.074001      0.122089
      3.34944      3.98706      2.50311        -0.139563     -0.229325     -0.374285
      5.24403      3.98706      0.00000        -0.264929     -0.170385      2.150833
      8.06900     -0.80215     10.01246         0.412215      0.347339     -1.833678
      9.96360     -0.80215      7.50934         0.342573      0.321859      0.499532
      4.14400      0.46319      9.66639        -0.367434     -0.066153     -0.999019
      6.03859      0.46319      7.16328        -0.214232     -0.037127      0.024171
      7.93319      0.46319      4.66016         0.165988     -0.228465     -0.167054
      9.82779      0.46319      2.15705         0.418959     -0.490572      0.697254
      0.36609      0.46319      5.49453        -0.019919     -0.071334      0.116906
      2.26069      0.46319      2.99142         0.106072      0.039050     -0.367278
      4.15528      0.46319      0.48830        -1.204740      0.318227      1.684665
      8.87485      5.25240      7.99765        -0.286787     -0.014687      0.434783
      3.20234      5.25240      6.32891        -0.279944     -0.038111      0.314043
      5.09694      5.25240      3.82579         0.159471     -0.192568      0.098462
      6.99153      5.25240      1.32268         0.743829     -0.518875      0.787644
      1.91849      0.80909      9.85483         1.023338      0.437722      0.091421
      3.81309      0.80909      7.35171        -0.004512     -0.288637     -0.013103
      5.70769      0.80909      4.84860         0.003792     -0.134828     -0.142368
      7.60228      0.80909      2.34548         0.315966     -0.352156     -0.725626
      0.03518      0.80909      3.17986         0.002968     -0.182673     -0.309232
      1.92978      0.80909      0.67674         0.357776     -0.394797      0.589271
      6.64934      5.59829      8.18608        -0.407689     -0.345855      0.145874
      8.54394      5.59829      5.68297        -0.007815     -0.110926      0.022371
      0.97684      5.59829      6.51734         0.016841     -0.324558     -0.547711
      2.87143      5.59829      4.01423         0.116363     -0.048653     -0.070352
      4.76603      5.59829      1.51111         0.556397     -0.320791     -1.549677
      9.48560      0.80909      9.02046        -0.550090     -0.888049      0.427474
      1.31873      3.98706      1.52661        -1.360311      0.064168     -0.524619
      6.03829     -0.80215      9.03596         0.100574     -0.011048      1.948422
      7.93289     -0.80215      6.53284        -0.074733      0.050861      0.029159
      9.82749     -0.80215      4.02973        -0.225695     -0.028944     -0.191581
      2.26038     -0.80215      4.86410         0.059758     -0.041215     -0.214853
      4.15498     -0.80215      2.36099         0.466544      0.006581     -1.091197
      0.36579      8.77626      7.36722         0.076064      0.063679      0.149037
      8.87455      3.98706      9.87033        -0.701457     -0.949210      0.367051
      3.20204      3.98706      8.20159         0.367734     -0.467015      1.071648
      5.09664      3.98706      5.69847        -0.104712     -0.097351     -0.109915
      6.99123      3.98706      3.19536        -0.124344      0.164392     -0.500874
      8.88583      3.98706      0.69224        -0.906152      0.619208     -0.042238
      5.70769     -2.41338      4.84860        -0.089196      0.156230     -0.184222
      7.60228     -2.41338      2.34548         0.400843      0.194689     -1.358483
      1.91849      7.16503      9.85483         1.438222      0.521807     -0.126031
      3.81309      7.16503      7.35171        -0.065328      0.193203      0.140088
      0.03518      7.16503      3.17986        -0.097449      0.127869     -0.329719
      1.92978      7.16503      0.67674         0.252062      0.355197      0.561333
      6.64934      2.37583      8.18608        -0.364636      0.341820      1.126884
      8.54394      2.37583      5.68297        -0.097216      0.098450      0.057743
      0.97684      2.37583      6.51734         0.019928      0.441833      0.026638
      2.87143      2.37583      4.01423        -0.125836      0.128183      0.074680
      4.76603      2.37583      1.51111         0.062322      0.466152     -1.534324
      9.48560     -2.41338      9.02046         0.169204      0.970630      0.411763
 -----------------------------------------------------------------------------------
    total drift:                               -0.041575     -0.001213     -0.049523


--------------------------------------------------------------------------------------------------------



  FREE ENERGIE OF THE ION-ELECTRON SYSTEM (eV)
  ---------------------------------------------------
  free  energy   TOTEN  =      -352.28781172 eV

  energy  without entropy=     -351.10105450  energy(sigma->0) =     -351.69443311
 


--------------------------------------------------------------------------------------------------------


    POTLOK:  cpu time    0.0516: real time    0.0527


--------------------------------------------------------------------------------------------------------


     LOOP+:  cpu time   86.3523: real time   86.6495
    4ORBIT:  cpu time    0.0000: real time    0.0000

 total amount of memory used by VASP MPI-rank0    45103. kBytes
=======================================================================

   base      :      30000. kBytes
   nonlr-proj:       2268. kBytes
   fftplans  :       3298. kBytes
   grid      :       5820. kBytes
   one-center:         93. kBytes
   wavefun   :       3624. kBytes
 
  
  
 General timing and accounting informations for this job:
 ========================================================
  
                  Total CPU time used (sec):       88.515
                            User time (sec):       87.812
                          System time (sec):        0.703
                         Elapsed time (sec):       89.231
  
                   Maximum memory used (kb):      226048.
                   Average memory used (kb):           0.
  
                          Minor page faults:        85290
                          Major page faults:            0
                 Voluntary context switches:          986
