<?xml version="1.0" encoding="ISO-8859-1"?>
<modeling>
 <generator>
  <i name="program" type="string">vasp </i>
  <i name="version" type="string">6.1.0  </i>
  <i name="subversion" type="string">28Jan20 (build Mar 31 2020 17:42:31) gamma-only                       parallel </i>
  <i name="platform" type="string">LinuxIFC </i>
  <i name="date" type="string">2020 04 13 </i>
  <i name="time" type="string">03:38:38 </i>
 </generator>
 <incar>
  <i type="string" name="SYSTEM">"Millerite NiS"</i>
  <i type="int" name="NSIM">     4</i>
  <i type="int" name="NELM">   100</i>
  <i name="ENCUT">    450.00000000</i>
  <i type="string" name="LREAL">A</i>
  <i type="int" name="ISMEAR">     0</i>
  <i type="int" name="NWRITE">     2</i>
  <i type="logical" name="LWAVE"> F  </i>
  <i type="logical" name="LCHARG"> F  </i>
  <i type="int" name="NCORE">     6</i>
  <i type="int" name="NELM">   100</i>
 </incar>
 <structure name="primitive_cell" >
  <crystal>
   <varray name="basis" >
    <v>      10.40335375      -4.78920500       0.00000000 </v>
    <v>       0.00000000       9.57841000       0.00000000 </v>
    <v>       0.00000000       0.00000000      20.50076286 </v>
   </varray>
   <i name="volume">   2042.85156262 </i>
   <varray name="rec_basis" >
    <v>       0.09612285       0.00000000       0.00000000 </v>
    <v>       0.04806142       0.10440146       0.00000000 </v>
    <v>       0.00000000       0.00000000       0.04877867 </v>
   </varray>
  </crystal>
  <varray name="positions" >
   <v>       0.58044680       0.07437514       0.34941513 </v>
   <v>       0.76256081       0.16543215       0.22731652 </v>
   <v>       0.94467483       0.25648915       0.10521791 </v>
   <v>       0.39833278       0.98331813       0.47151374 </v>
   <v>       0.03518947       0.80174648       0.26801605 </v>
   <v>       0.21730349       0.89280348       0.14591744 </v>
   <v>       0.39941750       0.98386049       0.02381883 </v>
   <v>       0.67096144       0.61963246       0.51221327 </v>
   <v>       0.85307546       0.71068947       0.39011466 </v>
   <v>       0.12570412       0.34700380       0.43081420 </v>
   <v>       0.30781813       0.43806081       0.30871559 </v>
   <v>       0.48993215       0.52911781       0.18661698 </v>
   <v>       0.23035801       0.03143375       0.40699537 </v>
   <v>       0.41247203       0.12249075       0.28489676 </v>
   <v>       0.59458604       0.21354776       0.16279815 </v>
   <v>       0.77670006       0.30460477       0.04069954 </v>
   <v>       0.04932872       0.94091910       0.08139907 </v>
   <v>       0.50298667       0.66774808       0.44769490 </v>
   <v>       0.68510069       0.75880508       0.32559629 </v>
   <v>       0.86721470       0.84986209       0.20349768 </v>
   <v>       0.13984337       0.48617642       0.24419722 </v>
   <v>       0.32195738       0.57723343       0.12209861 </v>
   <v>       0.50407140       0.66829044       0.00000000 </v>
   <v>       0.77561534       0.30406241       0.48839444 </v>
   <v>       0.95772935       0.39511942       0.36629583 </v>
   <v>       0.39833278       0.24752413       0.47151374 </v>
   <v>       0.58044680       0.33858114       0.34941513 </v>
   <v>       0.76256081       0.42963815       0.22731652 </v>
   <v>       0.94467483       0.52069515       0.10521791 </v>
   <v>       0.03518947       0.06595248       0.26801605 </v>
   <v>       0.21730349       0.15700948       0.14591744 </v>
   <v>       0.39941750       0.24806649       0.02381883 </v>
   <v>       0.85307546       0.97489547       0.39011466 </v>
   <v>       0.30781813       0.70226681       0.30871559 </v>
   <v>       0.48993215       0.79332382       0.18661698 </v>
   <v>       0.67204616       0.88438082       0.06451837 </v>
   <v>       0.18441112       0.17667530       0.48070540 </v>
   <v>       0.36652513       0.26773231       0.35860679 </v>
   <v>       0.54863915       0.35878931       0.23650818 </v>
   <v>       0.73075316       0.44984632       0.11440957 </v>
   <v>       0.00338182       0.08616065       0.15510911 </v>
   <v>       0.18549584       0.17721766       0.03301050 </v>
   <v>       0.63915379       0.90404664       0.39930633 </v>
   <v>       0.82126781       0.99510365       0.27720772 </v>
   <v>       0.09389647       0.63141797       0.31790726 </v>
   <v>       0.27601049       0.72247498       0.19580864 </v>
   <v>       0.45812450       0.81353199       0.07371003 </v>
   <v>       0.91178246       0.54036097       0.44000587 </v>
   <v>       0.12675994       0.47963471       0.07446623 </v>
   <v>       0.58041790       0.20646369       0.44076206 </v>
   <v>       0.76253191       0.29752070       0.31866345 </v>
   <v>       0.94464593       0.38857770       0.19656484 </v>
   <v>       0.21727459       0.02489203       0.23726438 </v>
   <v>       0.39938860       0.11594904       0.11516577 </v>
   <v>       0.03516057       0.93383503       0.35936299 </v>
   <v>       0.85304656       0.84277802       0.48146160 </v>
   <v>       0.30778923       0.57014936       0.40006253 </v>
   <v>       0.48990325       0.66120636       0.27796392 </v>
   <v>       0.67201726       0.75226337       0.15586531 </v>
   <v>       0.85413128       0.84332038       0.03376670 </v>
   <v>       0.54863915       0.02235931       0.23650818 </v>
   <v>       0.73075316       0.11341632       0.11440957 </v>
   <v>       0.18441112       0.84024530       0.48070540 </v>
   <v>       0.36652513       0.93130231       0.35860679 </v>
   <v>       0.00338182       0.74973065       0.15510911 </v>
   <v>       0.18549584       0.84078766       0.03301050 </v>
   <v>       0.63915379       0.56761664       0.39930633 </v>
   <v>       0.82126781       0.65867365       0.27720772 </v>
   <v>       0.09389647       0.29498797       0.31790726 </v>
   <v>       0.27601049       0.38604498       0.19580864 </v>
   <v>       0.45812450       0.47710199       0.07371003 </v>
   <v>       0.91178246       0.20393097       0.44000587 </v>
  </varray>
 </structure>
 <varray name="primitive_index" >
  <v type="int" >        1 </v>
  <v type="int" >        2 </v>
  <v type="int" >        3 </v>
  <v type="int" >        4 </v>
  <v type="int" >        5 </v>
  <v type="int" >        6 </v>
  <v type="int" >        7 </v>
  <v type="int" >        8 </v>
  <v type="int" >        9 </v>
  <v type="int" >       10 </v>
  <v type="int" >       11 </v>
  <v type="int" >       12 </v>
  <v type="int" >       13 </v>
  <v type="int" >       14 </v>
  <v type="int" >       15 </v>
  <v type="int" >       16 </v>
  <v type="int" >       17 </v>
  <v type="int" >       18 </v>
  <v type="int" >       19 </v>
  <v type="int" >       20 </v>
  <v type="int" >       21 </v>
  <v type="int" >       22 </v>
  <v type="int" >       23 </v>
  <v type="int" >       24 </v>
  <v type="int" >       25 </v>
  <v type="int" >       26 </v>
  <v type="int" >       27 </v>
  <v type="int" >       28 </v>
  <v type="int" >       29 </v>
  <v type="int" >       30 </v>
  <v type="int" >       31 </v>
  <v type="int" >       32 </v>
  <v type="int" >       33 </v>
  <v type="int" >       34 </v>
  <v type="int" >       35 </v>
  <v type="int" >       36 </v>
  <v type="int" >       37 </v>
  <v type="int" >       38 </v>
  <v type="int" >       39 </v>
  <v type="int" >       40 </v>
  <v type="int" >       41 </v>
  <v type="int" >       42 </v>
  <v type="int" >       43 </v>
  <v type="int" >       44 </v>
  <v type="int" >       45 </v>
  <v type="int" >       46 </v>
  <v type="int" >       47 </v>
  <v type="int" >       48 </v>
  <v type="int" >       49 </v>
  <v type="int" >       50 </v>
  <v type="int" >       51 </v>
  <v type="int" >       52 </v>
  <v type="int" >       53 </v>
  <v type="int" >       54 </v>
  <v type="int" >       55 </v>
  <v type="int" >       56 </v>
  <v type="int" >       57 </v>
  <v type="int" >       58 </v>
  <v type="int" >       59 </v>
  <v type="int" >       60 </v>
  <v type="int" >       61 </v>
  <v type="int" >       62 </v>
  <v type="int" >       63 </v>
  <v type="int" >       64 </v>
  <v type="int" >       65 </v>
  <v type="int" >       66 </v>
  <v type="int" >       67 </v>
  <v type="int" >       68 </v>
  <v type="int" >       69 </v>
  <v type="int" >       70 </v>
  <v type="int" >       71 </v>
  <v type="int" >       72 </v>
 </varray>
 <kpoints>
  <generation param="Gamma">
   <v type="int" name="divisions">       1        1        1 </v>
   <v name="usershift">      0.00000000       0.00000000       0.00000000 </v>
   <v name="genvec1">      1.00000000       0.00000000       0.00000000 </v>
   <v name="genvec2">      0.00000000       1.00000000       0.00000000 </v>
   <v name="genvec3">      0.00000000       0.00000000       1.00000000 </v>
   <v name="shift">      0.00000000       0.00000000       0.00000000 </v>
  </generation>
  <varray name="kpointlist" >
   <v>       0.00000000       0.00000000       0.00000000 </v>
  </varray>
  <varray name="weights" >
   <v>       1.00000000 </v>
  </varray>
 </kpoints>
 <parameters>
  <separator name="general" >
   <i type="string" name="SYSTEM">"Millerite NiS"</i>
   <i type="logical" name="LCOMPAT"> F  </i>
  </separator>
  <separator name="electronic" >
   <i type="string" name="PREC">normal</i>
   <i name="ENMAX">    450.00000000</i>
   <i name="ENAUG">    703.44300000</i>
   <i name="EDIFF">      0.00010000</i>
   <i type="int" name="IALGO">    38</i>
   <i type="int" name="IWAVPR">    10</i>
   <i type="int" name="NBANDS">   480</i>
   <i type="int" name="NBANDSLOW">    -1</i>
   <i type="int" name="NBANDSHIGH">    -1</i>
   <i name="NELECT">    792.00000000</i>
   <i type="int" name="TURBO">     0</i>
   <i type="int" name="IRESTART">     0</i>
   <i type="int" name="NREBOOT">     0</i>
   <i type="int" name="NMIN">     0</i>
   <i name="EREF">      0.00000000</i>
   <separator name="electronic smearing" >
    <i type="int" name="ISMEAR">     0</i>
    <i name="SIGMA">      0.20000000</i>
    <i name="KSPACING">      0.50000000</i>
    <i type="logical" name="KGAMMA"> T  </i>
    <i type="logical" name="KBLOWUP"> T  </i>
   </separator>
   <separator name="electronic projectors" >
    <i type="logical" name="LREAL"> T  </i>
    <v name="ROPT">     -0.00050000     -0.00050000</v>
    <i type="int" name="LMAXPAW">  -100</i>
    <i type="int" name="LMAXMIX">     2</i>
    <i type="logical" name="NLSPLINE"> F  </i>
   </separator>
   <separator name="electronic startup" >
    <i type="int" name="ISTART">     0</i>
    <i type="int" name="ICHARG">     2</i>
    <i type="int" name="INIWAV">     1</i>
   </separator>
   <separator name="electronic spin" >
    <i type="int" name="ISPIN">     1</i>
    <i type="logical" name="LNONCOLLINEAR"> F  </i>
    <v name="MAGMOM">      1.00000000      1.00000000      1.00000000      1.00000000      1.00000000      1.00000000      1.00000000      1.00000000      1.00000000      1.00000000      1.00000000      1.00000000      1.00000000      1.00000000      1.00000000      1.00000000      1.00000000      1.00000000      1.00000000      1.00000000
      1.00000000      1.00000000      1.00000000      1.00000000      1.00000000      1.00000000      1.00000000      1.00000000      1.00000000      1.00000000      1.00000000      1.00000000      1.00000000      1.00000000      1.00000000      1.00000000      1.00000000      1.00000000      1.00000000      1.00000000
      1.00000000      1.00000000      1.00000000      1.00000000      1.00000000      1.00000000      1.00000000      1.00000000      1.00000000      1.00000000      1.00000000      1.00000000      1.00000000      1.00000000      1.00000000      1.00000000      1.00000000      1.00000000      1.00000000      1.00000000
      1.00000000      1.00000000      1.00000000      1.00000000      1.00000000      1.00000000      1.00000000      1.00000000      1.00000000      1.00000000      1.00000000      1.00000000</v>
    <i name="NUPDOWN">     -1.00000000</i>
    <i type="logical" name="LSORBIT"> F  </i>
    <v name="SAXIS">      0.00000000      0.00000000      1.00000000</v>
    <i type="logical" name="LSPIRAL"> F  </i>
    <v name="QSPIRAL">      0.00000000      0.00000000      0.00000000</v>
    <i type="logical" name="LZEROZ"> F  </i>
   </separator>
   <separator name="electronic exchange-correlation" >
    <i type="logical" name="LASPH"> F  </i>
    <i type="logical" name="LMETAGGA"> F  </i>
   </separator>
   <separator name="electronic convergence" >
    <i type="int" name="NELM">   100</i>
    <i type="int" name="NELMDL">    -5</i>
    <i type="int" name="NELMIN">     2</i>
    <i name="ENINI">    450.00000000</i>
    <separator name="electronic convergence detail" >
     <i type="logical" name="LDIAG"> T  </i>
     <i type="logical" name="LSUBROT"> F  </i>
     <i name="WEIMIN">      0.00000000</i>
     <i name="EBREAK">      0.00000005</i>
     <i name="DEPER">      0.30000000</i>
     <i type="int" name="NRMM">     4</i>
     <i name="TIME">      0.40000000</i>
    </separator>
   </separator>
   <separator name="electronic mixer" >
    <i name="AMIX">      0.40000000</i>
    <i name="BMIX">      1.00000000</i>
    <i name="AMIN">      0.10000000</i>
    <i name="AMIX_MAG">      1.60000000</i>
    <i name="BMIX_MAG">      1.00000000</i>
    <separator name="electronic mixer details" >
     <i type="int" name="IMIX">     4</i>
     <i type="logical" name="MIXFIRST"> F  </i>
     <i type="int" name="MAXMIX">   -45</i>
     <i name="WC">    100.00000000</i>
     <i type="int" name="INIMIX">     1</i>
     <i type="int" name="MIXPRE">     1</i>
     <i type="int" name="MREMOVE">     5</i>
    </separator>
   </separator>
   <separator name="electronic dipolcorrection" >
    <i type="logical" name="LDIPOL"> F  </i>
    <i type="logical" name="LMONO"> F  </i>
    <i type="int" name="IDIPOL">     0</i>
    <i name="EPSILON">      1.00000000</i>
    <v name="DIPOL">   -100.00000000   -100.00000000   -100.00000000</v>
    <i name="EFIELD">      0.00000000</i>
   </separator>
  </separator>
  <separator name="grids" >
   <i type="int" name="NGX">    60</i>
   <i type="int" name="NGY">    50</i>
   <i type="int" name="NGZ">   108</i>
   <i type="int" name="NGXF">   120</i>
   <i type="int" name="NGYF">   100</i>
   <i type="int" name="NGZF">   216</i>
   <i type="logical" name="ADDGRID"> F  </i>
  </separator>
  <separator name="ionic" >
   <i type="int" name="NSW">     0</i>
   <i type="int" name="IBRION">    -1</i>
   <i type="int" name="MDALGO">     0</i>
   <i type="int" name="ISIF">     2</i>
   <i name="PSTRESS">      0.00000000</i>
   <i name="EDIFFG">      0.00100000</i>
   <i type="int" name="NFREE">     0</i>
   <i name="POTIM">      0.50000000</i>
   <i name="SMASS">     -3.00000000</i>
   <i name="SCALEE">      1.00000000</i>
  </separator>
  <separator name="ionic md" >
   <i name="TEBEG">      0.00010000</i>
   <i name="TEEND">      0.00010000</i>
   <i type="int" name="NBLOCK">     1</i>
   <i type="int" name="KBLOCK">     1</i>
   <i type="int" name="NPACO">   256</i>
   <i name="APACO">     16.00000000</i>
  </separator>
  <separator name="symmetry" >
   <i type="int" name="ISYM">     2</i>
   <i name="SYMPREC">      0.00001000</i>
  </separator>
  <separator name="dos" >
   <i type="int" name="LORBIT">     0</i>
   <v name="RWIGS">     -1.00000000     -1.00000000</v>
   <i type="int" name="NEDOS">   301</i>
   <i name="EMIN">     10.00000000</i>
   <i name="EMAX">    -10.00000000</i>
   <i name="EFERMI">      0.00000000</i>
  </separator>
  <separator name="writing" >
   <i type="int" name="NWRITE">     2</i>
   <i type="logical" name="LWAVE"> F  </i>
   <i type="logical" name="LDOWNSAMPLE"> F  </i>
   <i type="logical" name="LCHARG"> F  </i>
   <i type="logical" name="LPARD"> F  </i>
   <i type="logical" name="LVTOT"> F  </i>
   <i type="logical" name="LVHAR"> F  </i>
   <i type="logical" name="LELF"> F  </i>
   <i type="logical" name="LOPTICS"> F  </i>
   <v name="STM">      0.00000000      0.00000000      0.00000000      0.00000000      0.00000000      0.00000000      0.00000000</v>
  </separator>
  <separator name="performance" >
   <i type="int" name="NPAR">     8</i>
   <i type="int" name="NSIM">     4</i>
   <i type="int" name="NBLK">    -1</i>
   <i type="logical" name="LPLANE"> T  </i>
   <i type="logical" name="LSCALAPACK"> T  </i>
   <i type="logical" name="LSCAAWARE"> F  </i>
   <i type="logical" name="LSCALU"> F  </i>
   <i type="logical" name="LASYNC"> F  </i>
   <i type="logical" name="LORBITALREAL"> F  </i>
  </separator>
  <separator name="miscellaneous" >
   <i type="int" name="IDIOT">     3</i>
   <i type="int" name="PHON_NSTRUCT">    -1</i>
   <i type="logical" name="LMUSIC"> F  </i>
   <v name="POMASS">     58.69000000     32.06600000</v>
   <v name="DARWINR">      0.00000000      0.00000000</v>
   <v name="DARWINV">      1.00000000      1.00000000</v>
   <i type="logical" name="LCORR"> T  </i>
  </separator>
  <i type="logical" name="GGA_COMPAT"> T  </i>
  <i type="logical" name="LBERRY"> F  </i>
  <i type="int" name="ICORELEVEL">     0</i>
  <i type="logical" name="LDAU"> F  </i>
  <i type="int" name="I_CONSTRAINED_M">     0</i>
  <separator name="electronic exchange-correlation" >
   <i type="string" name="GGA">--</i>
   <i type="int" name="VOSKOWN">     0</i>
   <i type="logical" name="LHFCALC"> F  </i>
   <i type="string" name="PRECFOCK"></i>
   <i type="logical" name="LSYMGRAD"> F  </i>
   <i type="logical" name="LHFONE"> F  </i>
   <i type="logical" name="LRHFCALC"> F  </i>
   <i type="logical" name="LTHOMAS"> F  </i>
   <i type="logical" name="LMODELHF"> F  </i>
   <i type="logical" name="LFOCKACE"> F  </i>
   <i name="ENCUT4O">     -1.00000000</i>
   <i type="int" name="EXXOEP">     0</i>
   <i type="int" name="FOURORBIT">     0</i>
   <i name="AEXX">      0.00000000</i>
   <i name="HFALPHA">      0.00000000</i>
   <i name="MCALPHA">      0.00000000</i>
   <i name="ALDAX">      1.00000000</i>
   <i name="AGGAX">      1.00000000</i>
   <i name="ALDAC">      1.00000000</i>
   <i name="AGGAC">      1.00000000</i>
   <i type="int" name="NKREDX">     1</i>
   <i type="int" name="NKREDY">     1</i>
   <i type="int" name="NKREDZ">     1</i>
   <i type="logical" name="SHIFTRED"> F  </i>
   <i type="logical" name="ODDONLY"> F  </i>
   <i type="logical" name="EVENONLY"> F  </i>
   <i type="int" name="LMAXFOCK">     0</i>
   <i type="int" name="NMAXFOCKAE">     0</i>
   <i type="logical" name="LFOCKAEDFT"> F  </i>
   <i name="HFSCREEN">      0.00000000</i>
   <i name="HFSCREENC">      0.00000000</i>
   <i type="int" name="NBANDSGWLOW">     0</i>
  </separator>
  <separator name="vdW DFT" >
   <i type="logical" name="LUSE_VDW"> F  </i>
   <i name="Zab_VDW">     -0.84910000</i>
   <i name="PARAM1">      0.12340000</i>
   <i name="PARAM2">      1.00000000</i>
   <i name="PARAM3">      0.00000000</i>
  </separator>
  <separator name="model GW" >
   <i type="int" name="MODEL_GW">     0</i>
   <i name="MODEL_EPS0">     17.02376302</i>
   <i name="MODEL_ALPHA">      1.00000000</i>
  </separator>
  <separator name="linear response parameters" >
   <i type="logical" name="LEPSILON"> F  </i>
   <i type="logical" name="LRPA"> F  </i>
   <i type="logical" name="LNABLA"> F  </i>
   <i type="logical" name="LVEL"> F  </i>
   <i type="int" name="KINTER">     0</i>
   <i name="CSHIFT">      0.10000000</i>
   <i name="OMEGAMAX">     -1.00000000</i>
   <i name="DEG_THRESHOLD">      0.00200000</i>
   <i name="RTIME">     -0.10000000</i>
   <i name="WPLASMAI">      0.00000000</i>
   <v name="DFIELD">      0.00000000      0.00000000      0.00000000</v>
   <v name="WPLASMA">      0.00000000      0.00000000      0.00000000      0.00000000      0.00000000      0.00000000      0.00000000      0.00000000      0.00000000</v>
  </separator>
  <separator name="orbital magnetization" >
   <i type="logical" name="NUCIND"> F  </i>
   <v name="MAGPOS">      0.00000000      0.00000000      0.00000000</v>
   <i type="logical" name="LNICSALL"> T  </i>
   <i type="logical" name="ORBITALMAG"> F  </i>
   <i type="logical" name="LMAGBLOCH"> F  </i>
   <i type="logical" name="LCHIMAG"> F  </i>
   <i type="logical" name="LGAUGE"> T  </i>
   <i type="int" name="MAGATOM">     0</i>
   <v name="MAGDIPOL">      0.00000000      0.00000000      0.00000000</v>
   <v name="AVECCONST">      0.00000000      0.00000000      0.00000000</v>
  </separator>
  <separator name="response functions" >
   <i type="logical" name="LFINITE_TEMPERATURE"> F  </i>
   <i type="logical" name="LADDER"> F  </i>
   <i type="logical" name="LRPAFORCE"> F  </i>
   <i type="logical" name="LFXC"> F  </i>
   <i type="logical" name="LHARTREE"> T  </i>
   <i type="int" name="IBSE">     0</i>
   <v type="int" name="KPOINT">    -1     0     0     0</v>
   <i type="logical" name="LTCTC"> F  </i>
   <i type="logical" name="LTCTE"> F  </i>
   <i type="logical" name="LTETE"> F  </i>
   <i type="logical" name="LTRIPLET"> F  </i>
   <i type="logical" name="LFXCEPS"> F  </i>
   <i type="logical" name="LFXHEG"> F  </i>
   <i type="int" name="NATURALO">     2</i>
   <i type="logical" name="LHOLEGF"> F  </i>
   <i type="logical" name="L2ORDER"> F  </i>
   <i type="logical" name="LDMP1"> F  </i>
   <i type="logical" name="LMP2LT"> F  </i>
   <i type="logical" name="LSMP2LT"> F  </i>
   <i type="logical" name="LGWLF"> F  </i>
   <i name="ENCUTGW">     -2.00000000</i>
   <i name="ENCUTGWSOFT">     -2.00000000</i>
   <i name="ENCUTLF">     -1.00000000</i>
   <i type="logical" name="LESF_SPLINES"> F  </i>
   <i type="int" name="LMAXMP2">    -1</i>
   <i name="SCISSOR">      0.00000000</i>
   <i type="int" name="NOMEGA">     0</i>
   <i type="int" name="NOMEGAR">     0</i>
   <i type="int" name="NBANDSGW">    -1</i>
   <i type="int" name="NBANDSO">    -1</i>
   <i type="int" name="NBANDSV">    -1</i>
   <i type="int" name="NELM">   100</i>
   <i type="int" name="NELMHF">     1</i>
   <i type="int" name="DIM">     3</i>
   <i type="int" name="IESPILON">     4</i>
   <i type="int" name="ANTIRES">     0</i>
   <i name="OMEGAMAX">    -30.00000000</i>
   <i name="OMEGAMIN">    -30.00000000</i>
   <i name="OMEGATL">   -200.00000000</i>
   <i type="int" name="OMEGAGRID">     0</i>
   <i name="CSHIFT">     -0.10000000</i>
   <i type="logical" name="LSELFENERGY"> F  </i>
   <i type="logical" name="LSPECTRAL"> F  </i>
   <i type="logical" name="LSPECTRALGW"> F  </i>
   <i type="logical" name="LSINGLES"> F  </i>
   <i type="logical" name="LFERMIGW"> F  </i>
   <i type="logical" name="ODDONLYGW"> F  </i>
   <i type="logical" name="EVENONLYGW"> F  </i>
   <i type="int" name="NKREDLFX">     1</i>
   <i type="int" name="NKREDLFY">     1</i>
   <i type="int" name="NKREDLFZ">     1</i>
   <i type="int" name="MAXMEM">  2800</i>
   <i type="int" name="TELESCOPE">     0</i>
   <i type="int" name="NTAUPAR">    -1</i>
   <i type="int" name="NOMEGAPAR">    -1</i>
   <i name="LAMBDA">      1.00000000</i>
  </separator>
  <separator name="External order field" >
   <i name="OFIELD_KAPPA">      0.00000000</i>
   <v name="OFIELD_K">      0.00000000      0.00000000      0.00000000</v>
   <i name="OFIELD_Q6_NEAR">      0.00000000</i>
   <i name="OFIELD_Q6_FAR">      0.00000000</i>
   <i name="OFIELD_A">      0.00000000</i>
  </separator>
 </parameters>
 <atominfo>
  <atoms>      72 </atoms>
  <types>       2 </types>
  <array name="atoms" >
   <dimension dim="1">ion</dimension>
   <field type="string">element</field>
   <field type="int">atomtype</field>
   <set>
    <rc><c>Ni</c><c>   1</c></rc>
    <rc><c>Ni</c><c>   1</c></rc>
    <rc><c>Ni</c><c>   1</c></rc>
    <rc><c>Ni</c><c>   1</c></rc>
    <rc><c>Ni</c><c>   1</c></rc>
    <rc><c>Ni</c><c>   1</c></rc>
    <rc><c>Ni</c><c>   1</c></rc>
    <rc><c>Ni</c><c>   1</c></rc>
    <rc><c>Ni</c><c>   1</c></rc>
    <rc><c>Ni</c><c>   1</c></rc>
    <rc><c>Ni</c><c>   1</c></rc>
    <rc><c>Ni</c><c>   1</c></rc>
    <rc><c>Ni</c><c>   1</c></rc>
    <rc><c>Ni</c><c>   1</c></rc>
    <rc><c>Ni</c><c>   1</c></rc>
    <rc><c>Ni</c><c>   1</c></rc>
    <rc><c>Ni</c><c>   1</c></rc>
    <rc><c>Ni</c><c>   1</c></rc>
    <rc><c>Ni</c><c>   1</c></rc>
    <rc><c>Ni</c><c>   1</c></rc>
    <rc><c>Ni</c><c>   1</c></rc>
    <rc><c>Ni</c><c>   1</c></rc>
    <rc><c>Ni</c><c>   1</c></rc>
    <rc><c>Ni</c><c>   1</c></rc>
    <rc><c>Ni</c><c>   1</c></rc>
    <rc><c>Ni</c><c>   1</c></rc>
    <rc><c>Ni</c><c>   1</c></rc>
    <rc><c>Ni</c><c>   1</c></rc>
    <rc><c>Ni</c><c>   1</c></rc>
    <rc><c>Ni</c><c>   1</c></rc>
    <rc><c>Ni</c><c>   1</c></rc>
    <rc><c>Ni</c><c>   1</c></rc>
    <rc><c>Ni</c><c>   1</c></rc>
    <rc><c>Ni</c><c>   1</c></rc>
    <rc><c>Ni</c><c>   1</c></rc>
    <rc><c>Ni</c><c>   1</c></rc>
    <rc><c>S </c><c>   2</c></rc>
    <rc><c>S </c><c>   2</c></rc>
    <rc><c>S </c><c>   2</c></rc>
    <rc><c>S </c><c>   2</c></rc>
    <rc><c>S </c><c>   2</c></rc>
    <rc><c>S </c><c>   2</c></rc>
    <rc><c>S </c><c>   2</c></rc>
    <rc><c>S </c><c>   2</c></rc>
    <rc><c>S </c><c>   2</c></rc>
    <rc><c>S </c><c>   2</c></rc>
    <rc><c>S </c><c>   2</c></rc>
    <rc><c>S </c><c>   2</c></rc>
    <rc><c>S </c><c>   2</c></rc>
    <rc><c>S </c><c>   2</c></rc>
    <rc><c>S </c><c>   2</c></rc>
    <rc><c>S </c><c>   2</c></rc>
    <rc><c>S </c><c>   2</c></rc>
    <rc><c>S </c><c>   2</c></rc>
    <rc><c>S </c><c>   2</c></rc>
    <rc><c>S </c><c>   2</c></rc>
    <rc><c>S </c><c>   2</c></rc>
    <rc><c>S </c><c>   2</c></rc>
    <rc><c>S </c><c>   2</c></rc>
    <rc><c>S </c><c>   2</c></rc>
    <rc><c>S </c><c>   2</c></rc>
    <rc><c>S </c><c>   2</c></rc>
    <rc><c>S </c><c>   2</c></rc>
    <rc><c>S </c><c>   2</c></rc>
    <rc><c>S </c><c>   2</c></rc>
    <rc><c>S </c><c>   2</c></rc>
    <rc><c>S </c><c>   2</c></rc>
    <rc><c>S </c><c>   2</c></rc>
    <rc><c>S </c><c>   2</c></rc>
    <rc><c>S </c><c>   2</c></rc>
    <rc><c>S </c><c>   2</c></rc>
    <rc><c>S </c><c>   2</c></rc>
   </set>
  </array>
  <array name="atomtypes" >
   <dimension dim="1">type</dimension>
   <field type="int">atomspertype</field>
   <field type="string">element</field>
   <field>mass</field>
   <field>valence</field>
   <field type="string">pseudopotential</field>
   <set>
    <rc><c>  36</c><c>Ni</c><c>     58.69000000</c><c>     16.00000000</c><c>  PAW_PBE Ni_pv 06Sep2000               </c></rc>
    <rc><c>  36</c><c>S </c><c>     32.06600000</c><c>      6.00000000</c><c>  PAW_PBE S 06Sep2000                   </c></rc>
   </set>
  </array>
 </atominfo>
 <structure name="initialpos" >
  <crystal>
   <varray name="basis" >
    <v>      10.40335375      -4.78920500       0.00000000 </v>
    <v>       0.00000000       9.57841000       0.00000000 </v>
    <v>       0.00000000       0.00000000      20.50076286 </v>
   </varray>
   <i name="volume">   2042.85156262 </i>
   <varray name="rec_basis" >
    <v>       0.09612285       0.00000000       0.00000000 </v>
    <v>       0.04806142       0.10440146       0.00000000 </v>
    <v>       0.00000000       0.00000000       0.04877867 </v>
   </varray>
  </crystal>
  <varray name="positions" >
   <v>       0.58044680       0.07437514       0.34941513 </v>
   <v>       0.76256081       0.16543215       0.22731652 </v>
   <v>       0.94467483       0.25648915       0.10521791 </v>
   <v>       0.39833278       0.98331813       0.47151374 </v>
   <v>       0.03518947       0.80174648       0.26801605 </v>
   <v>       0.21730349       0.89280348       0.14591744 </v>
   <v>       0.39941750       0.98386049       0.02381883 </v>
   <v>       0.67096144       0.61963246       0.51221327 </v>
   <v>       0.85307546       0.71068947       0.39011466 </v>
   <v>       0.12570412       0.34700380       0.43081420 </v>
   <v>       0.30781813       0.43806081       0.30871559 </v>
   <v>       0.48993215       0.52911781       0.18661698 </v>
   <v>       0.23035801       0.03143375       0.40699537 </v>
   <v>       0.41247203       0.12249075       0.28489676 </v>
   <v>       0.59458604       0.21354776       0.16279815 </v>
   <v>       0.77670006       0.30460477       0.04069954 </v>
   <v>       0.04932872       0.94091910       0.08139907 </v>
   <v>       0.50298667       0.66774808       0.44769490 </v>
   <v>       0.68510069       0.75880508       0.32559629 </v>
   <v>       0.86721470       0.84986209       0.20349768 </v>
   <v>       0.13984337       0.48617642       0.24419722 </v>
   <v>       0.32195738       0.57723343       0.12209861 </v>
   <v>       0.50407140       0.66829044       0.00000000 </v>
   <v>       0.77561534       0.30406241       0.48839444 </v>
   <v>       0.95772935       0.39511942       0.36629583 </v>
   <v>       0.39833278       0.24752413       0.47151374 </v>
   <v>       0.58044680       0.33858114       0.34941513 </v>
   <v>       0.76256081       0.42963815       0.22731652 </v>
   <v>       0.94467483       0.52069515       0.10521791 </v>
   <v>       0.03518947       0.06595248       0.26801605 </v>
   <v>       0.21730349       0.15700948       0.14591744 </v>
   <v>       0.39941750       0.24806649       0.02381883 </v>
   <v>       0.85307546       0.97489547       0.39011466 </v>
   <v>       0.30781813       0.70226681       0.30871559 </v>
   <v>       0.48993215       0.79332382       0.18661698 </v>
   <v>       0.67204616       0.88438082       0.06451837 </v>
   <v>       0.18441112       0.17667530       0.48070540 </v>
   <v>       0.36652513       0.26773231       0.35860679 </v>
   <v>       0.54863915       0.35878931       0.23650818 </v>
   <v>       0.73075316       0.44984632       0.11440957 </v>
   <v>       0.00338182       0.08616065       0.15510911 </v>
   <v>       0.18549584       0.17721766       0.03301050 </v>
   <v>       0.63915379       0.90404664       0.39930633 </v>
   <v>       0.82126781       0.99510365       0.27720772 </v>
   <v>       0.09389647       0.63141797       0.31790726 </v>
   <v>       0.27601049       0.72247498       0.19580864 </v>
   <v>       0.45812450       0.81353199       0.07371003 </v>
   <v>       0.91178246       0.54036097       0.44000587 </v>
   <v>       0.12675994       0.47963471       0.07446623 </v>
   <v>       0.58041790       0.20646369       0.44076206 </v>
   <v>       0.76253191       0.29752070       0.31866345 </v>
   <v>       0.94464593       0.38857770       0.19656484 </v>
   <v>       0.21727459       0.02489203       0.23726438 </v>
   <v>       0.39938860       0.11594904       0.11516577 </v>
   <v>       0.03516057       0.93383503       0.35936299 </v>
   <v>       0.85304656       0.84277802       0.48146160 </v>
   <v>       0.30778923       0.57014936       0.40006253 </v>
   <v>       0.48990325       0.66120636       0.27796392 </v>
   <v>       0.67201726       0.75226337       0.15586531 </v>
   <v>       0.85413128       0.84332038       0.03376670 </v>
   <v>       0.54863915       0.02235931       0.23650818 </v>
   <v>       0.73075316       0.11341632       0.11440957 </v>
   <v>       0.18441112       0.84024530       0.48070540 </v>
   <v>       0.36652513       0.93130231       0.35860679 </v>
   <v>       0.00338182       0.74973065       0.15510911 </v>
   <v>       0.18549584       0.84078766       0.03301050 </v>
   <v>       0.63915379       0.56761664       0.39930633 </v>
   <v>       0.82126781       0.65867365       0.27720772 </v>
   <v>       0.09389647       0.29498797       0.31790726 </v>
   <v>       0.27601049       0.38604498       0.19580864 </v>
   <v>       0.45812450       0.47710199       0.07371003 </v>
   <v>       0.91178246       0.20393097       0.44000587 </v>
  </varray>
 </structure>
 <calculation>
  <scstep>
   <time name="dav">    2.18    2.18</time>
   <time name="total">    2.23    2.25</time>
   <energy>
    <i name="alphaZ">   1820.93486007 </i>
    <i name="ewald"> 166274.30914299 </i>
    <i name="hartreedc">-288593.60022400 </i>
    <i name="XCdc">   3649.65129439 </i>
    <i name="pawpsdc"> 112729.53333415 </i>
    <i name="pawaedc">-117641.51188735 </i>
    <i name="eentropy">     -0.45552490 </i>
    <i name="bandstr">  -4648.29837766 </i>
    <i name="atom"> 136002.60505376 </i>
    <i name="e_fr_energy">   9593.16767145 </i>
    <i name="e_wo_entrp">   9593.62319635 </i>
    <i name="e_0_energy">   9593.39543390 </i>
   </energy>
  </scstep>
  <scstep>
   <time name="dav">    1.93    1.93</time>
   <time name="total">    1.93    1.93</time>
   <energy>
    <i name="e_fr_energy">    580.68072047 </i>
    <i name="e_wo_entrp">    581.43231898 </i>
    <i name="e_0_energy">    581.05651973 </i>
   </energy>
  </scstep>
  <scstep>
   <time name="dav">    2.06    2.06</time>
   <time name="total">    2.06    2.07</time>
   <energy>
    <i name="e_fr_energy">   -342.15767165 </i>
    <i name="e_wo_entrp">   -340.86392089 </i>
    <i name="e_0_energy">   -341.51079627 </i>
   </energy>
  </scstep>
  <scstep>
   <time name="dav">    2.11    2.11</time>
   <time name="total">    2.11    2.12</time>
   <energy>
    <i name="e_fr_energy">   -400.88708699 </i>
    <i name="e_wo_entrp">   -399.49368143 </i>
    <i name="e_0_energy">   -400.19038421 </i>
   </energy>
  </scstep>
  <scstep>
   <time name="dav">    2.23    2.24</time>
   <time name="total">    2.28    2.28</time>
   <energy>
    <i name="e_fr_energy">   -403.09820654 </i>
    <i name="e_wo_entrp">   -401.70325298 </i>
    <i name="e_0_energy">   -402.40072976 </i>
   </energy>
  </scstep>
  <scstep>
   <time name="dav">    2.12    2.12</time>
   <time name="total">    2.21    2.22</time>
   <energy>
    <i name="e_fr_energy">   -492.39273168 </i>
    <i name="e_wo_entrp">   -491.44376711 </i>
    <i name="e_0_energy">   -491.91824939 </i>
   </energy>
  </scstep>
  <scstep>
   <time name="dav">    2.07    2.08</time>
   <time name="total">    2.17    2.17</time>
   <energy>
    <i name="e_fr_energy">   -373.07372764 </i>
    <i name="e_wo_entrp">   -372.11664121 </i>
    <i name="e_0_energy">   -372.59518443 </i>
   </energy>
  </scstep>
  <scstep>
   <time name="dav">    2.44    2.45</time>
   <time name="total">    2.53    2.54</time>
   <energy>
    <i name="e_fr_energy">   -440.24581785 </i>
    <i name="e_wo_entrp">   -439.40231075 </i>
    <i name="e_0_energy">   -439.82406430 </i>
   </energy>
  </scstep>
  <scstep>
   <time name="dav">    2.21    2.21</time>
   <time name="total">    2.30    2.31</time>
   <energy>
    <i name="e_fr_energy">   -372.48110928 </i>
    <i name="e_wo_entrp">   -371.08652393 </i>
    <i name="e_0_energy">   -371.78381660 </i>
   </energy>
  </scstep>
  <scstep>
   <time name="dav">    2.38    2.39</time>
   <time name="total">    2.48    2.48</time>
   <energy>
    <i name="e_fr_energy">   -374.43670026 </i>
    <i name="e_wo_entrp">   -373.30384408 </i>
    <i name="e_0_energy">   -373.87027217 </i>
   </energy>
  </scstep>
  <scstep>
   <time name="dav">    2.34    2.35</time>
   <time name="total">    2.43    2.44</time>
   <energy>
    <i name="e_fr_energy">   -370.81953840 </i>
    <i name="e_wo_entrp">   -369.62539882 </i>
    <i name="e_0_energy">   -370.22246861 </i>
   </energy>
  </scstep>
  <scstep>
   <time name="dav">    2.35    2.36</time>
   <time name="total">    2.44    2.45</time>
   <energy>
    <i name="e_fr_energy">   -363.25584109 </i>
    <i name="e_wo_entrp">   -362.26283130 </i>
    <i name="e_0_energy">   -362.75933620 </i>
   </energy>
  </scstep>
  <scstep>
   <time name="dav">    2.28    2.28</time>
   <time name="total">    2.37    2.38</time>
   <energy>
    <i name="e_fr_energy">   -359.61889050 </i>
    <i name="e_wo_entrp">   -358.65625852 </i>
    <i name="e_0_energy">   -359.13757451 </i>
   </energy>
  </scstep>
  <scstep>
   <time name="dav">    2.27    2.27</time>
   <time name="total">    2.36    2.37</time>
   <energy>
    <i name="e_fr_energy">   -357.36436301 </i>
    <i name="e_wo_entrp">   -356.32226322 </i>
    <i name="e_0_energy">   -356.84331312 </i>
   </energy>
  </scstep>
  <scstep>
   <time name="dav">    2.25    2.25</time>
   <time name="total">    2.34    2.35</time>
   <energy>
    <i name="e_fr_energy">   -355.37967325 </i>
    <i name="e_wo_entrp">   -354.28434995 </i>
    <i name="e_0_energy">   -354.83201160 </i>
   </energy>
  </scstep>
  <scstep>
   <time name="dav">    2.32    2.32</time>
   <time name="total">    2.41    2.42</time>
   <energy>
    <i name="e_fr_energy">   -354.63233100 </i>
    <i name="e_wo_entrp">   -353.54147658 </i>
    <i name="e_0_energy">   -354.08690379 </i>
   </energy>
  </scstep>
  <scstep>
   <time name="dav">    2.30    2.30</time>
   <time name="total">    2.39    2.40</time>
   <energy>
    <i name="e_fr_energy">   -353.65002803 </i>
    <i name="e_wo_entrp">   -352.55152870 </i>
    <i name="e_0_energy">   -353.10077837 </i>
   </energy>
  </scstep>
  <scstep>
   <time name="dav">    2.33    2.33</time>
   <time name="total">    2.42    2.43</time>
   <energy>
    <i name="e_fr_energy">   -353.25150877 </i>
    <i name="e_wo_entrp">   -352.15504904 </i>
    <i name="e_0_energy">   -352.70327890 </i>
   </energy>
  </scstep>
  <scstep>
   <time name="dav">    2.24    2.24</time>
   <time name="total">    2.33    2.34</time>
   <energy>
    <i name="e_fr_energy">   -353.01532546 </i>
    <i name="e_wo_entrp">   -351.89946876 </i>
    <i name="e_0_energy">   -352.45739711 </i>
   </energy>
  </scstep>
  <scstep>
   <time name="dav">    2.28    2.29</time>
   <time name="total">    2.38    2.39</time>
   <energy>
    <i name="e_fr_energy">   -352.95392888 </i>
    <i name="e_wo_entrp">   -351.83759641 </i>
    <i name="e_0_energy">   -352.39576264 </i>
   </energy>
  </scstep>
  <scstep>
   <time name="dav">    2.34    2.35</time>
   <time name="total">    2.44    2.45</time>
   <energy>
    <i name="e_fr_energy">   -352.72226264 </i>
    <i name="e_wo_entrp">   -351.59271567 </i>
    <i name="e_0_energy">   -352.15748916 </i>
   </energy>
  </scstep>
  <scstep>
   <time name="dav">    2.50    2.51</time>
   <time name="total">    2.60    2.61</time>
   <energy>
    <i name="e_fr_energy">   -352.55476488 </i>
    <i name="e_wo_entrp">   -351.39037962 </i>
    <i name="e_0_energy">   -351.97257225 </i>
   </energy>
  </scstep>
  <scstep>
   <time name="dav">    2.45    2.45</time>
   <time name="total">    2.55    2.56</time>
   <energy>
    <i name="e_fr_energy">   -352.33190038 </i>
    <i name="e_wo_entrp">   -351.16277021 </i>
    <i name="e_0_energy">   -351.74733530 </i>
   </energy>
  </scstep>
  <scstep>
   <time name="dav">    2.33    2.33</time>
   <time name="total">    2.43    2.43</time>
   <energy>
    <i name="e_fr_energy">   -352.30890038 </i>
    <i name="e_wo_entrp">   -351.12260230 </i>
    <i name="e_0_energy">   -351.71575134 </i>
   </energy>
  </scstep>
  <scstep>
   <time name="dav">    2.14    2.15</time>
   <time name="total">    2.24    2.25</time>
   <energy>
    <i name="e_fr_energy">   -352.29763225 </i>
    <i name="e_wo_entrp">   -351.10996963 </i>
    <i name="e_0_energy">   -351.70380094 </i>
   </energy>
  </scstep>
  <scstep>
   <time name="dav">    2.19    2.20</time>
   <time name="total">    2.29    2.30</time>
   <energy>
    <i name="e_fr_energy">   -352.29527970 </i>
    <i name="e_wo_entrp">   -351.10675637 </i>
    <i name="e_0_energy">   -351.70101804 </i>
   </energy>
  </scstep>
  <scstep>
   <time name="dav">    2.31    2.32</time>
   <time name="total">    2.41    2.42</time>
   <energy>
    <i name="e_fr_energy">   -352.31517777 </i>
    <i name="e_wo_entrp">   -351.13109257 </i>
    <i name="e_0_energy">   -351.72313517 </i>
   </energy>
  </scstep>
  <scstep>
   <time name="dav">    2.29    2.30</time>
   <time name="total">    2.40    2.40</time>
   <energy>
    <i name="e_fr_energy">   -352.29393034 </i>
    <i name="e_wo_entrp">   -351.11052573 </i>
    <i name="e_0_energy">   -351.70222803 </i>
   </energy>
  </scstep>
  <scstep>
   <time name="dav">    2.34    2.35</time>
   <time name="total">    2.45    2.45</time>
   <energy>
    <i name="e_fr_energy">   -352.30135565 </i>
    <i name="e_wo_entrp">   -351.12662905 </i>
    <i name="e_0_energy">   -351.71399235 </i>
   </energy>
  </scstep>
  <scstep>
   <time name="dav">    2.19    2.20</time>
   <time name="total">    2.29    2.30</time>
   <energy>
    <i name="e_fr_energy">   -352.28762256 </i>
    <i name="e_wo_entrp">   -351.09934455 </i>
    <i name="e_0_energy">   -351.69348356 </i>
   </energy>
  </scstep>
  <scstep>
   <time name="dav">    2.31    2.32</time>
   <time name="total">    2.41    2.42</time>
   <energy>
    <i name="e_fr_energy">   -352.28640887 </i>
    <i name="e_wo_entrp">   -351.10307939 </i>
    <i name="e_0_energy">   -351.69474413 </i>
   </energy>
  </scstep>
  <scstep>
   <time name="dav">    2.21    2.21</time>
   <time name="total">    2.31    2.32</time>
   <energy>
    <i name="e_fr_energy">   -352.28705548 </i>
    <i name="e_wo_entrp">   -351.09876340 </i>
    <i name="e_0_energy">   -351.69290944 </i>
   </energy>
  </scstep>
  <scstep>
   <time name="dav">    2.03    2.04</time>
   <time name="total">    2.13    2.14</time>
   <energy>
    <i name="e_fr_energy">   -352.28649943 </i>
    <i name="e_wo_entrp">   -351.10018293 </i>
    <i name="e_0_energy">   -351.69334118 </i>
   </energy>
  </scstep>
  <scstep>
   <time name="dav">    1.89    1.89</time>
   <time name="total">    1.99    1.99</time>
   <energy>
    <i name="e_fr_energy">   -352.28689574 </i>
    <i name="e_wo_entrp">   -351.10104695 </i>
    <i name="e_0_energy">   -351.69397134 </i>
   </energy>
  </scstep>
  <scstep>
   <time name="dav">    1.86    1.87</time>
   <time name="total">    1.98    1.98</time>
   <energy>
    <i name="e_fr_energy">   -352.28706481 </i>
    <i name="e_wo_entrp">   -351.10124434 </i>
    <i name="e_0_energy">   -351.69415457 </i>
   </energy>
  </scstep>
  <scstep>
   <time name="dav">    1.75    1.75</time>
   <time name="total">    1.85    1.86</time>
   <energy>
    <i name="e_fr_energy">   -352.28773574 </i>
    <i name="e_wo_entrp">   -351.10082548 </i>
    <i name="e_0_energy">   -351.69428061 </i>
   </energy>
  </scstep>
  <scstep>
   <time name="dav">    1.60    1.61</time>
   <time name="total">    1.66    1.66</time>
   <energy>
    <i name="alphaZ">   1820.93486007 </i>
    <i name="ewald"> 166274.30914299 </i>
    <i name="hartreedc">-287921.51827809 </i>
    <i name="XCdc">   3620.78174190 </i>
    <i name="pawpsdc"> 130277.23836444 </i>
    <i name="pawaedc">-135246.03916638 </i>
    <i name="eentropy">     -1.18675722 </i>
    <i name="bandstr"> -15179.41277319 </i>
    <i name="atom"> 136002.60505376 </i>
    <i name="e_fr_energy">   -352.28781172 </i>
    <i name="e_wo_entrp">   -351.10105450 </i>
    <i name="e_0_energy">   -351.69443311 </i>
   </energy>
  </scstep>
  <structure>
   <crystal>
    <varray name="basis" >
     <v>      10.40335375      -4.78920500       0.00000000 </v>
     <v>       0.00000000       9.57841000       0.00000000 </v>
     <v>       0.00000000       0.00000000      20.50076286 </v>
    </varray>
    <i name="volume">   2042.85156262 </i>
    <varray name="rec_basis" >
     <v>       0.09612285       0.00000000       0.00000000 </v>
     <v>       0.04806142       0.10440146       0.00000000 </v>
     <v>       0.00000000       0.00000000       0.04877867 </v>
    </varray>
   </crystal>
   <varray name="positions" >
    <v>       0.58044680       0.07437514       0.34941513 </v>
    <v>       0.76256081       0.16543215       0.22731652 </v>
    <v>       0.94467483       0.25648915       0.10521791 </v>
    <v>       0.39833278       0.98331813       0.47151374 </v>
    <v>       0.03518947       0.80174648       0.26801605 </v>
    <v>       0.21730349       0.89280348       0.14591744 </v>
    <v>       0.39941750       0.98386049       0.02381883 </v>
    <v>       0.67096144       0.61963246       0.51221327 </v>
    <v>       0.85307546       0.71068947       0.39011466 </v>
    <v>       0.12570412       0.34700380       0.43081420 </v>
    <v>       0.30781813       0.43806081       0.30871559 </v>
    <v>       0.48993215       0.52911781       0.18661698 </v>
    <v>       0.23035801       0.03143375       0.40699537 </v>
    <v>       0.41247203       0.12249075       0.28489676 </v>
    <v>       0.59458604       0.21354776       0.16279815 </v>
    <v>       0.77670006       0.30460477       0.04069954 </v>
    <v>       0.04932872       0.94091910       0.08139907 </v>
    <v>       0.50298667       0.66774808       0.44769490 </v>
    <v>       0.68510069       0.75880508       0.32559629 </v>
    <v>       0.86721470       0.84986209       0.20349768 </v>
    <v>       0.13984337       0.48617642       0.24419722 </v>
    <v>       0.32195738       0.57723343       0.12209861 </v>
    <v>       0.50407140       0.66829044       0.00000000 </v>
    <v>       0.77561534       0.30406241       0.48839444 </v>
    <v>       0.95772935       0.39511942       0.36629583 </v>
    <v>       0.39833278       0.24752413       0.47151374 </v>
    <v>       0.58044680       0.33858114       0.34941513 </v>
    <v>       0.76256081       0.42963815       0.22731652 </v>
    <v>       0.94467483       0.52069515       0.10521791 </v>
    <v>       0.03518947       0.06595248       0.26801605 </v>
    <v>       0.21730349       0.15700948       0.14591744 </v>
    <v>       0.39941750       0.24806649       0.02381883 </v>
    <v>       0.85307546       0.97489547       0.39011466 </v>
    <v>       0.30781813       0.70226681       0.30871559 </v>
    <v>       0.48993215       0.79332382       0.18661698 </v>
    <v>       0.67204616       0.88438082       0.06451837 </v>
    <v>       0.18441112       0.17667530       0.48070540 </v>
    <v>       0.36652513       0.26773231       0.35860679 </v>
    <v>       0.54863915       0.35878931       0.23650818 </v>
    <v>       0.73075316       0.44984632       0.11440957 </v>
    <v>       0.00338182       0.08616065       0.15510911 </v>
    <v>       0.18549584       0.17721766       0.03301050 </v>
    <v>       0.63915379       0.90404664       0.39930633 </v>
    <v>       0.82126781       0.99510365       0.27720772 </v>
    <v>       0.09389647       0.63141797       0.31790726 </v>
    <v>       0.27601049       0.72247498       0.19580864 </v>
    <v>       0.45812450       0.81353199       0.07371003 </v>
    <v>       0.91178246       0.54036097       0.44000587 </v>
    <v>       0.12675994       0.47963471       0.07446623 </v>
    <v>       0.58041790       0.20646369       0.44076206 </v>
    <v>       0.76253191       0.29752070       0.31866345 </v>
    <v>       0.94464593       0.38857770       0.19656484 </v>
    <v>       0.21727459       0.02489203       0.23726438 </v>
    <v>       0.39938860       0.11594904       0.11516577 </v>
    <v>       0.03516057       0.93383503       0.35936299 </v>
    <v>       0.85304656       0.84277802       0.48146160 </v>
    <v>       0.30778923       0.57014936       0.40006253 </v>
    <v>       0.48990325       0.66120636       0.27796392 </v>
    <v>       0.67201726       0.75226337       0.15586531 </v>
    <v>       0.85413128       0.84332038       0.03376670 </v>
    <v>       0.54863915       0.02235931       0.23650818 </v>
    <v>       0.73075316       0.11341632       0.11440957 </v>
    <v>       0.18441112       0.84024530       0.48070540 </v>
    <v>       0.36652513       0.93130231       0.35860679 </v>
    <v>       0.00338182       0.74973065       0.15510911 </v>
    <v>       0.18549584       0.84078766       0.03301050 </v>
    <v>       0.63915379       0.56761664       0.39930633 </v>
    <v>       0.82126781       0.65867365       0.27720772 </v>
    <v>       0.09389647       0.29498797       0.31790726 </v>
    <v>       0.27601049       0.38604498       0.19580864 </v>
    <v>       0.45812450       0.47710199       0.07371003 </v>
    <v>       0.91178246       0.20393097       0.44000587 </v>
   </varray>
  </structure>
  <varray name="forces" >
   <v>      -0.17969986      -0.08812284       0.02962957 </v>
   <v>       0.17392425       0.08045045       0.05182808 </v>
   <v>       0.47564207       0.45847151       0.66526998 </v>
   <v>      -0.77737401      -0.05799075      -1.08205569 </v>
   <v>      -0.01041658      -0.02391354       0.08638829 </v>
   <v>       0.12124474      -0.04430383      -0.34295955 </v>
   <v>      -1.10295286      -0.13027126       1.54146318 </v>
   <v>       0.78804040       0.78407635      -2.14455891 </v>
   <v>       0.05543325      -0.17964112       0.52547433 </v>
   <v>      -0.05362192      -0.61466558      -0.56657644 </v>
   <v>       0.09151888       0.07377244       0.22559874 </v>
   <v>       0.19734720       0.21900140      -0.18282371 </v>
   <v>      -0.43569794      -0.07503243       0.45770636 </v>
   <v>       0.16945220       0.02733629       0.09615096 </v>
   <v>       0.23838768       0.03976468      -0.31799372 </v>
   <v>      -0.47229900      -0.01471094       1.83059145 </v>
   <v>       0.16808866       0.14725624      -0.85646684 </v>
   <v>       0.44698768      -0.25916107      -1.21045263 </v>
   <v>      -0.07792304       0.14350985       0.16802529 </v>
   <v>       0.10354764       0.05533175       0.16195858 </v>
   <v>       0.00928282       0.07400121       0.12208922 </v>
   <v>      -0.13956295      -0.22932501      -0.37428535 </v>
   <v>      -0.26492890      -0.17038522       2.15083291 </v>
   <v>       0.41221526       0.34733865      -1.83367826 </v>
   <v>       0.34257318       0.32185876       0.49953216 </v>
   <v>      -0.36743360      -0.06615270      -0.99901947 </v>
   <v>      -0.21423163      -0.03712736       0.02417148 </v>
   <v>       0.16598841      -0.22846464      -0.16705402 </v>
   <v>       0.41895931      -0.49057180       0.69725449 </v>
   <v>      -0.01991920      -0.07133429       0.11690606 </v>
   <v>       0.10607154       0.03904998      -0.36727771 </v>
   <v>      -1.20473951       0.31822661       1.68466491 </v>
   <v>      -0.28678691      -0.01468725       0.43478298 </v>
   <v>      -0.27994426      -0.03811108       0.31404313 </v>
   <v>       0.15947102      -0.19256795       0.09846171 </v>
   <v>       0.74382871      -0.51887468       0.78764407 </v>
   <v>       1.02333785       0.43772228       0.09142107 </v>
   <v>      -0.00451205      -0.28863671      -0.01310253 </v>
   <v>       0.00379205      -0.13482803      -0.14236778 </v>
   <v>       0.31596634      -0.35215554      -0.72562559 </v>
   <v>       0.00296808      -0.18267253      -0.30923203 </v>
   <v>       0.35777598      -0.39479684       0.58927141 </v>
   <v>      -0.40768870      -0.34585477       0.14587389 </v>
   <v>      -0.00781531      -0.11092614       0.02237051 </v>
   <v>       0.01684097      -0.32455780      -0.54771059 </v>
   <v>       0.11636296      -0.04865275      -0.07035219 </v>
   <v>       0.55639724      -0.32079135      -1.54967729 </v>
   <v>      -0.55008959      -0.88804866       0.42747375 </v>
   <v>      -1.36031143       0.06416810      -0.52461856 </v>
   <v>       0.10057390      -0.01104770       1.94842242 </v>
   <v>      -0.07473271       0.05086085       0.02915892 </v>
   <v>      -0.22569458      -0.02894448      -0.19158063 </v>
   <v>       0.05975750      -0.04121509      -0.21485272 </v>
   <v>       0.46654440       0.00658134      -1.09119662 </v>
   <v>       0.07606406       0.06367865       0.14903667 </v>
   <v>      -0.70145689      -0.94921005       0.36705116 </v>
   <v>       0.36773369      -0.46701544       1.07164839 </v>
   <v>      -0.10471212      -0.09735148      -0.10991506 </v>
   <v>      -0.12434415       0.16439179      -0.50087370 </v>
   <v>      -0.90615177       0.61920840      -0.04223776 </v>
   <v>      -0.08919620       0.15622956      -0.18422220 </v>
   <v>       0.40084306       0.19468941      -1.35848278 </v>
   <v>       1.43822217       0.52180718      -0.12603117 </v>
   <v>      -0.06532827       0.19320289       0.14008794 </v>
   <v>      -0.09744884       0.12786898      -0.32971938 </v>
   <v>       0.25206230       0.35519699       0.56133271 </v>
   <v>      -0.36463556       0.34182043       1.12688399 </v>
   <v>      -0.09721569       0.09844982       0.05774297 </v>
   <v>       0.01992767       0.44183286       0.02663813 </v>
   <v>      -0.12583590       0.12818309       0.07467997 </v>
   <v>       0.06232246       0.46615172      -1.53432368 </v>
   <v>       0.16920435       0.97063014       0.41176270 </v>
  </varray>
  <varray name="stress" >
   <v>     -29.68656609      -0.73075322      11.17313231 </v>
   <v>      -0.73075333     -21.15749404      -0.08086259 </v>
   <v>      11.17313246      -0.08086264     -22.24785780 </v>
  </varray>
  <energy>
   <i name="e_fr_energy">   -352.28781172 </i>
   <i name="e_wo_entrp">   -351.10105450 </i>
   <i name="e_0_energy">   -351.69443311 </i>
  </energy>
  <time name="totalsc">   86.35   86.65</time>
  <eigenvalues>
   <array>
    <dimension dim="1">band</dimension>
    <dimension dim="2">kpoint</dimension>
    <dimension dim="3">spin</dimension>
    <field>eigene</field>
    <field>occ</field>
    <set>
     <set comment="spin 1">
      <set comment="kpoint 1">
       <r>  -62.9753    1.0000 </r>
       <r>  -62.9617    1.0000 </r>
       <r>  -62.9379    1.0000 </r>
       <r>  -62.9282    1.0000 </r>
       <r>  -62.9168    1.0000 </r>
       <r>  -62.9162    1.0000 </r>
       <r>  -62.9138    1.0000 </r>
       <r>  -62.9102    1.0000 </r>
       <r>  -62.8978    1.0000 </r>
       <r>  -62.8976    1.0000 </r>
       <r>  -62.8935    1.0000 </r>
       <r>  -62.8923    1.0000 </r>
       <r>  -62.8881    1.0000 </r>
       <r>  -62.8878    1.0000 </r>
       <r>  -62.8865    1.0000 </r>
       <r>  -62.8808    1.0000 </r>
       <r>  -62.8790    1.0000 </r>
       <r>  -62.8777    1.0000 </r>
       <r>  -62.8771    1.0000 </r>
       <r>  -62.8760    1.0000 </r>
       <r>  -62.8686    1.0000 </r>
       <r>  -62.8671    1.0000 </r>
       <r>  -62.8631    1.0000 </r>
       <r>  -62.8619    1.0000 </r>
       <r>  -62.8568    1.0000 </r>
       <r>  -62.8534    1.0000 </r>
       <r>  -62.8523    1.0000 </r>
       <r>  -62.8522    1.0000 </r>
       <r>  -62.8507    1.0000 </r>
       <r>  -62.8427    1.0000 </r>
       <r>  -62.8379    1.0000 </r>
       <r>  -62.8376    1.0000 </r>
       <r>  -62.8358    1.0000 </r>
       <r>  -62.8351    1.0000 </r>
       <r>  -62.8334    1.0000 </r>
       <r>  -62.8192    1.0000 </r>
       <r>  -62.8180    1.0000 </r>
       <r>  -62.8162    1.0000 </r>
       <r>  -62.8157    1.0000 </r>
       <r>  -62.8104    1.0000 </r>
       <r>  -62.8027    1.0000 </r>
       <r>  -62.7977    1.0000 </r>
       <r>  -62.7916    1.0000 </r>
       <r>  -62.7805    1.0000 </r>
       <r>  -62.7714    1.0000 </r>
       <r>  -62.7660    1.0000 </r>
       <r>  -62.7626    1.0000 </r>
       <r>  -62.7539    1.0000 </r>
       <r>  -62.7351    1.0000 </r>
       <r>  -62.7342    1.0000 </r>
       <r>  -62.7166    1.0000 </r>
       <r>  -62.7155    1.0000 </r>
       <r>  -62.7047    1.0000 </r>
       <r>  -62.7007    1.0000 </r>
       <r>  -62.7003    1.0000 </r>
       <r>  -62.6841    1.0000 </r>
       <r>  -62.6728    1.0000 </r>
       <r>  -62.6603    1.0000 </r>
       <r>  -62.6549    1.0000 </r>
       <r>  -62.6522    1.0000 </r>
       <r>  -62.6489    1.0000 </r>
       <r>  -62.6481    1.0000 </r>
       <r>  -62.6451    1.0000 </r>
       <r>  -62.6293    1.0000 </r>
       <r>  -62.6273    1.0000 </r>
       <r>  -62.6266    1.0000 </r>
       <r>  -62.6104    1.0000 </r>
       <r>  -62.6043    1.0000 </r>
       <r>  -62.6011    1.0000 </r>
       <r>  -62.5717    1.0000 </r>
       <r>  -62.5649    1.0000 </r>
       <r>  -62.5536    1.0000 </r>
       <r>  -62.5205    1.0000 </r>
       <r>  -62.4923    1.0000 </r>
       <r>  -62.4352    1.0000 </r>
       <r>  -62.4197    1.0000 </r>
       <r>  -62.4114    1.0000 </r>
       <r>  -62.3879    1.0000 </r>
       <r>  -62.3375    1.0000 </r>
       <r>  -62.2921    1.0000 </r>
       <r>  -62.2851    1.0000 </r>
       <r>  -62.2560    1.0000 </r>
       <r>  -62.2504    1.0000 </r>
       <r>  -62.2180    1.0000 </r>
       <r>  -62.2002    1.0000 </r>
       <r>  -62.1876    1.0000 </r>
       <r>  -62.0508    1.0000 </r>
       <r>  -62.0257    1.0000 </r>
       <r>  -62.0107    1.0000 </r>
       <r>  -61.9540    1.0000 </r>
       <r>  -61.9295    1.0000 </r>
       <r>  -61.9278    1.0000 </r>
       <r>  -61.9095    1.0000 </r>
       <r>  -61.9052    1.0000 </r>
       <r>  -61.8754    1.0000 </r>
       <r>  -61.8355    1.0000 </r>
       <r>  -61.8000    1.0000 </r>
       <r>  -61.7921    1.0000 </r>
       <r>  -61.7696    1.0000 </r>
       <r>  -61.7648    1.0000 </r>
       <r>  -61.7425    1.0000 </r>
       <r>  -61.7228    1.0000 </r>
       <r>  -61.6717    1.0000 </r>
       <r>  -61.5676    1.0000 </r>
       <r>  -61.5628    1.0000 </r>
       <r>  -61.5290    1.0000 </r>
       <r>  -61.3911    1.0000 </r>
       <r>  -61.3391    1.0000 </r>
       <r>  -14.1881    1.0000 </r>
       <r>  -13.5299    1.0000 </r>
       <r>  -13.4620    1.0000 </r>
       <r>  -13.3802    1.0000 </r>
       <r>  -13.2398    1.0000 </r>
       <r>  -13.1779    1.0000 </r>
       <r>  -13.0040    1.0000 </r>
       <r>  -12.9439    1.0000 </r>
       <r>  -12.8714    1.0000 </r>
       <r>  -12.8397    1.0000 </r>
       <r>  -12.7832    1.0000 </r>
       <r>  -12.6888    1.0000 </r>
       <r>  -12.5776    1.0000 </r>
       <r>  -12.5068    1.0000 </r>
       <r>  -12.4196    1.0000 </r>
       <r>  -12.3988    1.0000 </r>
       <r>  -12.3498    1.0000 </r>
       <r>  -12.3171    1.0000 </r>
       <r>  -12.2787    1.0000 </r>
       <r>  -12.2243    1.0000 </r>
       <r>  -12.1313    1.0000 </r>
       <r>  -12.0338    1.0000 </r>
       <r>  -12.0236    1.0000 </r>
       <r>  -11.9508    1.0000 </r>
       <r>  -11.8627    1.0000 </r>
       <r>  -11.7996    1.0000 </r>
       <r>  -11.7054    1.0000 </r>
       <r>  -11.6936    1.0000 </r>
       <r>  -11.4913    1.0000 </r>
       <r>  -11.4052    1.0000 </r>
       <r>  -11.3044    1.0000 </r>
       <r>  -11.2269    1.0000 </r>
       <r>  -11.0895    1.0000 </r>
       <r>  -11.0708    1.0000 </r>
       <r>  -10.6418    1.0000 </r>
       <r>  -10.3922    1.0000 </r>
       <r>   -6.0994    1.0000 </r>
       <r>   -6.0354    1.0000 </r>
       <r>   -5.6321    1.0000 </r>
       <r>   -5.6080    1.0000 </r>
       <r>   -5.5768    1.0000 </r>
       <r>   -5.3830    1.0000 </r>
       <r>   -5.3579    1.0000 </r>
       <r>   -5.3005    1.0000 </r>
       <r>   -5.2517    1.0000 </r>
       <r>   -5.2092    1.0000 </r>
       <r>   -5.1440    1.0000 </r>
       <r>   -5.1271    1.0000 </r>
       <r>   -5.0416    1.0000 </r>
       <r>   -5.0242    1.0000 </r>
       <r>   -4.9923    1.0000 </r>
       <r>   -4.9506    1.0000 </r>
       <r>   -4.9159    1.0000 </r>
       <r>   -4.8722    1.0000 </r>
       <r>   -4.8477    1.0000 </r>
       <r>   -4.8027    1.0000 </r>
       <r>   -4.7779    1.0000 </r>
       <r>   -4.6848    1.0000 </r>
       <r>   -4.6741    1.0000 </r>
       <r>   -4.6351    1.0000 </r>
       <r>   -4.5559    1.0000 </r>
       <r>   -4.4716    1.0000 </r>
       <r>   -4.4382    1.0000 </r>
       <r>   -4.3787    1.0000 </r>
       <r>   -4.3452    1.0000 </r>
       <r>   -4.2743    1.0000 </r>
       <r>   -4.2585    1.0000 </r>
       <r>   -4.1860    1.0000 </r>
       <r>   -4.0994    1.0000 </r>
       <r>   -4.0554    1.0000 </r>
       <r>   -4.0278    1.0000 </r>
       <r>   -4.0089    1.0000 </r>
       <r>   -3.9208    1.0000 </r>
       <r>   -3.8856    1.0000 </r>
       <r>   -3.8449    1.0000 </r>
       <r>   -3.7322    1.0000 </r>
       <r>   -3.6759    1.0000 </r>
       <r>   -3.6594    1.0000 </r>
       <r>   -3.6091    1.0000 </r>
       <r>   -3.5577    1.0000 </r>
       <r>   -3.5126    1.0000 </r>
       <r>   -3.4869    1.0000 </r>
       <r>   -3.4639    1.0000 </r>
       <r>   -3.4491    1.0000 </r>
       <r>   -3.4304    1.0000 </r>
       <r>   -3.3918    1.0000 </r>
       <r>   -3.3759    1.0000 </r>
       <r>   -3.3355    1.0000 </r>
       <r>   -3.3263    1.0000 </r>
       <r>   -3.2741    1.0000 </r>
       <r>   -3.2421    1.0000 </r>
       <r>   -3.1849    1.0000 </r>
       <r>   -3.1628    1.0000 </r>
       <r>   -3.1422    1.0000 </r>
       <r>   -3.0962    1.0000 </r>
       <r>   -3.0566    1.0000 </r>
       <r>   -3.0398    1.0000 </r>
       <r>   -3.0068    1.0000 </r>
       <r>   -2.9737    1.0000 </r>
       <r>   -2.9517    1.0000 </r>
       <r>   -2.9240    1.0000 </r>
       <r>   -2.8800    1.0000 </r>
       <r>   -2.8438    1.0000 </r>
       <r>   -2.8071    1.0000 </r>
       <r>   -2.7969    1.0000 </r>
       <r>   -2.7830    1.0000 </r>
       <r>   -2.7582    1.0000 </r>
       <r>   -2.7321    1.0000 </r>
       <r>   -2.7076    1.0000 </r>
       <r>   -2.6846    1.0000 </r>
       <r>   -2.6554    1.0000 </r>
       <r>   -2.6281    1.0000 </r>
       <r>   -2.6008    1.0000 </r>
       <r>   -2.5843    1.0000 </r>
       <r>   -2.5732    1.0000 </r>
       <r>   -2.5513    1.0000 </r>
       <r>   -2.4952    1.0000 </r>
       <r>   -2.4757    1.0000 </r>
       <r>   -2.4117    1.0000 </r>
       <r>   -2.3767    1.0000 </r>
       <r>   -2.3521    1.0000 </r>
       <r>   -2.3101    1.0000 </r>
       <r>   -2.2806    1.0000 </r>
       <r>   -2.2495    1.0000 </r>
       <r>   -2.2335    1.0000 </r>
       <r>   -2.2250    1.0000 </r>
       <r>   -2.1760    1.0000 </r>
       <r>   -2.1399    1.0000 </r>
       <r>   -2.0328    1.0000 </r>
       <r>   -1.9832    1.0000 </r>
       <r>   -1.9474    1.0000 </r>
       <r>   -1.9312    1.0000 </r>
       <r>   -1.8851    1.0000 </r>
       <r>   -1.8628    1.0000 </r>
       <r>   -1.8404    1.0000 </r>
       <r>   -1.7669    1.0000 </r>
       <r>   -1.7372    1.0000 </r>
       <r>   -1.7016    1.0000 </r>
       <r>   -1.6839    1.0000 </r>
       <r>   -1.6332    1.0000 </r>
       <r>   -1.6047    1.0000 </r>
       <r>   -1.5605    1.0000 </r>
       <r>   -1.5451    1.0000 </r>
       <r>   -1.5054    1.0000 </r>
       <r>   -1.4188    1.0000 </r>
       <r>   -1.4146    1.0000 </r>
       <r>   -1.3811    1.0000 </r>
       <r>   -1.2916    1.0000 </r>
       <r>   -1.2619    1.0000 </r>
       <r>   -1.2433    1.0000 </r>
       <r>   -1.2205    1.0000 </r>
       <r>   -1.1957    1.0000 </r>
       <r>   -1.1946    1.0000 </r>
       <r>   -1.1619    1.0000 </r>
       <r>   -1.1459    1.0000 </r>
       <r>   -1.1321    1.0000 </r>
       <r>   -1.0874    1.0000 </r>
       <r>   -1.0805    1.0000 </r>
       <r>   -1.0511    1.0000 </r>
       <r>   -1.0209    1.0000 </r>
       <r>   -1.0010    1.0000 </r>
       <r>   -0.9934    1.0000 </r>
       <r>   -0.9761    1.0000 </r>
       <r>   -0.9567    1.0000 </r>
       <r>   -0.9309    1.0000 </r>
       <r>   -0.9265    1.0000 </r>
       <r>   -0.9013    1.0000 </r>
       <r>   -0.8926    1.0000 </r>
       <r>   -0.8656    1.0000 </r>
       <r>   -0.8470    1.0000 </r>
       <r>   -0.8262    1.0000 </r>
       <r>   -0.8071    1.0000 </r>
       <r>   -0.7928    1.0000 </r>
       <r>   -0.7757    1.0000 </r>
       <r>   -0.7661    1.0000 </r>
       <r>   -0.7397    1.0000 </r>
       <r>   -0.7146    1.0000 </r>
       <r>   -0.7129    1.0000 </r>
       <r>   -0.6890    1.0000 </r>
       <r>   -0.6744    1.0000 </r>
       <r>   -0.6579    1.0000 </r>
       <r>   -0.6356    1.0000 </r>
       <r>   -0.6300    1.0000 </r>
       <r>   -0.6108    1.0000 </r>
       <r>   -0.6039    1.0000 </r>
       <r>   -0.5987    1.0000 </r>
       <r>   -0.5938    1.0000 </r>
       <r>   -0.5829    1.0000 </r>
       <r>   -0.5740    1.0000 </r>
       <r>   -0.5443    1.0000 </r>
       <r>   -0.5289    1.0000 </r>
       <r>   -0.5275    1.0000 </r>
       <r>   -0.5202    1.0000 </r>
       <r>   -0.5178    1.0000 </r>
       <r>   -0.4899    1.0000 </r>
       <r>   -0.4777    1.0000 </r>
       <r>   -0.4667    1.0000 </r>
       <r>   -0.4467    1.0000 </r>
       <r>   -0.4452    1.0000 </r>
       <r>   -0.4379    1.0000 </r>
       <r>   -0.4277    1.0000 </r>
       <r>   -0.4064    1.0000 </r>
       <r>   -0.3967    1.0000 </r>
       <r>   -0.3954    1.0000 </r>
       <r>   -0.3862    1.0000 </r>
       <r>   -0.3704    1.0000 </r>
       <r>   -0.3689    1.0000 </r>
       <r>   -0.3553    1.0000 </r>
       <r>   -0.3446    1.0000 </r>
       <r>   -0.3335    1.0000 </r>
       <r>   -0.3300    1.0000 </r>
       <r>   -0.3144    1.0000 </r>
       <r>   -0.2982    1.0000 </r>
       <r>   -0.2871    1.0000 </r>
       <r>   -0.2719    1.0000 </r>
       <r>   -0.2646    1.0000 </r>
       <r>   -0.2489    1.0000 </r>
       <r>   -0.2351    1.0000 </r>
       <r>   -0.2263    1.0000 </r>
       <r>   -0.1985    1.0000 </r>
       <r>   -0.1902    1.0000 </r>
       <r>   -0.1720    1.0000 </r>
       <r>   -0.1603    1.0000 </r>
       <r>   -0.1556    1.0000 </r>
       <r>   -0.1382    1.0000 </r>
       <r>   -0.1173    1.0000 </r>
       <r>   -0.1048    1.0000 </r>
       <r>   -0.0993    1.0000 </r>
       <r>   -0.0830    1.0000 </r>
       <r>   -0.0723    1.0000 </r>
       <r>   -0.0637    1.0000 </r>
       <r>   -0.0599    1.0000 </r>
       <r>   -0.0287    1.0000 </r>
       <r>   -0.0154    1.0000 </r>
       <r>   -0.0011    1.0000 </r>
       <r>    0.0105    1.0000 </r>
       <r>    0.0175    1.0000 </r>
       <r>    0.0484    1.0000 </r>
       <r>    0.0561    1.0000 </r>
       <r>    0.0623    1.0000 </r>
       <r>    0.0794    1.0000 </r>
       <r>    0.1043    1.0000 </r>
       <r>    0.1416    1.0000 </r>
       <r>    0.1628    1.0000 </r>
       <r>    0.1796    1.0000 </r>
       <r>    0.1983    1.0000 </r>
       <r>    0.2153    1.0000 </r>
       <r>    0.2197    1.0000 </r>
       <r>    0.2367    1.0000 </r>
       <r>    0.2644    1.0000 </r>
       <r>    0.2651    1.0000 </r>
       <r>    0.3210    1.0000 </r>
       <r>    0.3413    1.0000 </r>
       <r>    0.3517    1.0000 </r>
       <r>    0.3834    1.0000 </r>
       <r>    0.3941    1.0000 </r>
       <r>    0.4073    1.0000 </r>
       <r>    0.4335    1.0000 </r>
       <r>    0.4554    1.0000 </r>
       <r>    0.4597    1.0000 </r>
       <r>    0.4704    1.0000 </r>
       <r>    0.4941    1.0000 </r>
       <r>    0.5076    1.0000 </r>
       <r>    0.5287    1.0000 </r>
       <r>    0.5544    1.0000 </r>
       <r>    0.5702    1.0000 </r>
       <r>    0.5868    1.0000 </r>
       <r>    0.6032    1.0000 </r>
       <r>    0.6058    1.0000 </r>
       <r>    0.6358    1.0000 </r>
       <r>    0.6509    1.0000 </r>
       <r>    0.6734    0.9999 </r>
       <r>    0.7074    0.9999 </r>
       <r>    0.7256    0.9998 </r>
       <r>    0.7432    0.9997 </r>
       <r>    0.7753    0.9992 </r>
       <r>    0.8039    0.9985 </r>
       <r>    0.8167    0.9980 </r>
       <r>    0.8755    0.9930 </r>
       <r>    0.9111    0.9864 </r>
       <r>    0.9576    0.9699 </r>
       <r>    1.0302    0.9140 </r>
       <r>    1.0373    0.9058 </r>
       <r>    1.0724    0.8571 </r>
       <r>    1.1282    0.7495 </r>
       <r>    1.1424    0.7165 </r>
       <r>    1.1607    0.6711 </r>
       <r>    1.1979    0.5715 </r>
       <r>    1.2334    0.4716 </r>
       <r>    1.2917    0.3145 </r>
       <r>    1.3038    0.2846 </r>
       <r>    1.3250    0.2361 </r>
       <r>    1.3973    0.1093 </r>
       <r>    1.4075    0.0965 </r>
       <r>    1.4150    0.0876 </r>
       <r>    1.4895    0.0299 </r>
       <r>    1.5333    0.0142 </r>
       <r>    1.5425    0.0120 </r>
       <r>    1.5719    0.0069 </r>
       <r>    1.6100    0.0031 </r>
       <r>    1.6322    0.0019 </r>
       <r>    1.6701    0.0008 </r>
       <r>    1.6728    0.0007 </r>
       <r>    1.7179    0.0002 </r>
       <r>    1.7350    0.0001 </r>
       <r>    1.7660    0.0001 </r>
       <r>    1.8023    0.0000 </r>
       <r>    1.8444    0.0000 </r>
       <r>    1.8673    0.0000 </r>
       <r>    1.8932    0.0000 </r>
       <r>    1.9172    0.0000 </r>
       <r>    1.9281    0.0000 </r>
       <r>    1.9556    0.0000 </r>
       <r>    2.0333    0.0000 </r>
       <r>    2.0391    0.0000 </r>
       <r>    2.1349    0.0000 </r>
       <r>    2.1916    0.0000 </r>
       <r>    2.2283    0.0000 </r>
       <r>    2.2388    0.0000 </r>
       <r>    2.3142    0.0000 </r>
       <r>    2.3657    0.0000 </r>
       <r>    2.4111    0.0000 </r>
       <r>    2.4364    0.0000 </r>
       <r>    2.4764    0.0000 </r>
       <r>    2.5873    0.0000 </r>
       <r>    2.6431    0.0000 </r>
       <r>    3.1436    0.0000 </r>
       <r>    3.3242    0.0000 </r>
       <r>    3.7482    0.0000 </r>
       <r>    4.1870    0.0000 </r>
       <r>    4.3580    0.0000 </r>
       <r>    4.4222    0.0000 </r>
       <r>    4.5085    0.0000 </r>
       <r>    4.6539    0.0000 </r>
       <r>    4.7774    0.0000 </r>
       <r>    4.9491    0.0000 </r>
       <r>    5.0670    0.0000 </r>
       <r>    5.1065    0.0000 </r>
       <r>    5.2988    0.0000 </r>
       <r>    5.3376    0.0000 </r>
       <r>    5.4116    0.0000 </r>
       <r>    5.5844    0.0000 </r>
       <r>    5.6482    0.0000 </r>
       <r>    5.7041    0.0000 </r>
       <r>    5.7474    0.0000 </r>
       <r>    5.7842    0.0000 </r>
       <r>    5.9525    0.0000 </r>
       <r>    5.9859    0.0000 </r>
       <r>    6.0839    0.0000 </r>
       <r>    6.1431    0.0000 </r>
       <r>    6.1884    0.0000 </r>
       <r>    6.2386    0.0000 </r>
       <r>    6.3881    0.0000 </r>
       <r>    6.4328    0.0000 </r>
       <r>    6.4837    0.0000 </r>
       <r>    6.5277    0.0000 </r>
       <r>    6.5762    0.0000 </r>
       <r>    6.6215    0.0000 </r>
       <r>    6.6633    0.0000 </r>
       <r>    6.7923    0.0000 </r>
       <r>    6.8276    0.0000 </r>
       <r>    6.8748    0.0000 </r>
       <r>    6.8967    0.0000 </r>
       <r>    6.9536    0.0000 </r>
       <r>    7.0094    0.0000 </r>
       <r>    7.0379    0.0000 </r>
       <r>    7.0919    0.0000 </r>
       <r>    7.1236    0.0000 </r>
       <r>    7.1417    0.0000 </r>
       <r>    7.2150    0.0000 </r>
       <r>    7.2489    0.0000 </r>
       <r>    7.3372    0.0000 </r>
      </set>
     </set>
    </set>
   </array>
  </eigenvalues>
  <separator name="orbital magnetization" >
   <v name="MAGDIPOLOUT">      0.00000000      0.00000000      0.00000000</v>
  </separator>
  <dos>
   <i name="efermi">      1.22333999 </i>
   <total>
    <array>
     <dimension dim="1">gridpoints</dimension>
     <dimension dim="2">spin</dimension>
     <field>energy</field>
     <field>total</field>
     <field>integrated</field>
     <set>
      <set comment="spin 1">
       <r>   -66.4910     0.0000     0.0000 </r>
       <r>   -66.2332     0.0000     0.0000 </r>
       <r>   -65.9753     0.0000     0.0000 </r>
       <r>   -65.7175     0.0000     0.0000 </r>
       <r>   -65.4597     0.0000     0.0000 </r>
       <r>   -65.2019     0.0000     0.0000 </r>
       <r>   -64.9441     0.0000     0.0000 </r>
       <r>   -64.6863     0.0000     0.0000 </r>
       <r>   -64.4285     0.0000     0.0000 </r>
       <r>   -64.1707     0.0000     0.0000 </r>
       <r>   -63.9128     0.0000     0.0000 </r>
       <r>   -63.6550     0.0000     0.0000 </r>
       <r>   -63.3972     0.0593     0.0153 </r>
       <r>   -63.1394    11.2803     2.9235 </r>
       <r>   -62.8816   162.9011    44.9215 </r>
       <r>   -62.6238   288.7765   119.3717 </r>
       <r>   -62.3660   136.8366   154.6499 </r>
       <r>   -62.1082    68.0645   172.1978 </r>
       <r>   -61.8503    69.1500   190.0256 </r>
       <r>   -61.5925    63.4474   206.3831 </r>
       <r>   -61.3347    29.2485   213.9238 </r>
       <r>   -61.0769     7.6940   215.9074 </r>
       <r>   -60.8191     0.3581   215.9997 </r>
       <r>   -60.5613     0.0011   216.0000 </r>
       <r>   -60.3035     0.0000   216.0000 </r>
       <r>   -60.0457     0.0000   216.0000 </r>
       <r>   -59.7878     0.0000   216.0000 </r>
       <r>   -59.5300     0.0000   216.0000 </r>
       <r>   -59.2722     0.0000   216.0000 </r>
       <r>   -59.0144     0.0000   216.0000 </r>
       <r>   -58.7566     0.0000   216.0000 </r>
       <r>   -58.4988     0.0000   216.0000 </r>
       <r>   -58.2410     0.0000   216.0000 </r>
       <r>   -57.9832     0.0000   216.0000 </r>
       <r>   -57.7253     0.0000   216.0000 </r>
       <r>   -57.4675     0.0000   216.0000 </r>
       <r>   -57.2097     0.0000   216.0000 </r>
       <r>   -56.9519     0.0000   216.0000 </r>
       <r>   -56.6941     0.0000   216.0000 </r>
       <r>   -56.4363     0.0000   216.0000 </r>
       <r>   -56.1785     0.0000   216.0000 </r>
       <r>   -55.9207     0.0000   216.0000 </r>
       <r>   -55.6628     0.0000   216.0000 </r>
       <r>   -55.4050     0.0000   216.0000 </r>
       <r>   -55.1472     0.0000   216.0000 </r>
       <r>   -54.8894     0.0000   216.0000 </r>
       <r>   -54.6316     0.0000   216.0000 </r>
       <r>   -54.3738     0.0000   216.0000 </r>
       <r>   -54.1160     0.0000   216.0000 </r>
       <r>   -53.8582     0.0000   216.0000 </r>
       <r>   -53.6003     0.0000   216.0000 </r>
       <r>   -53.3425     0.0000   216.0000 </r>
       <r>   -53.0847     0.0000   216.0000 </r>
       <r>   -52.8269     0.0000   216.0000 </r>
       <r>   -52.5691     0.0000   216.0000 </r>
       <r>   -52.3113     0.0000   216.0000 </r>
       <r>   -52.0535     0.0000   216.0000 </r>
       <r>   -51.7956     0.0000   216.0000 </r>
       <r>   -51.5378     0.0000   216.0000 </r>
       <r>   -51.2800     0.0000   216.0000 </r>
       <r>   -51.0222     0.0000   216.0000 </r>
       <r>   -50.7644     0.0000   216.0000 </r>
       <r>   -50.5066     0.0000   216.0000 </r>
       <r>   -50.2488     0.0000   216.0000 </r>
       <r>   -49.9910     0.0000   216.0000 </r>
       <r>   -49.7331     0.0000   216.0000 </r>
       <r>   -49.4753     0.0000   216.0000 </r>
       <r>   -49.2175     0.0000   216.0000 </r>
       <r>   -48.9597     0.0000   216.0000 </r>
       <r>   -48.7019     0.0000   216.0000 </r>
       <r>   -48.4441     0.0000   216.0000 </r>
       <r>   -48.1863     0.0000   216.0000 </r>
       <r>   -47.9285     0.0000   216.0000 </r>
       <r>   -47.6706     0.0000   216.0000 </r>
       <r>   -47.4128     0.0000   216.0000 </r>
       <r>   -47.1550     0.0000   216.0000 </r>
       <r>   -46.8972     0.0000   216.0000 </r>
       <r>   -46.6394     0.0000   216.0000 </r>
       <r>   -46.3816     0.0000   216.0000 </r>
       <r>   -46.1238     0.0000   216.0000 </r>
       <r>   -45.8660     0.0000   216.0000 </r>
       <r>   -45.6081     0.0000   216.0000 </r>
       <r>   -45.3503     0.0000   216.0000 </r>
       <r>   -45.0925     0.0000   216.0000 </r>
       <r>   -44.8347     0.0000   216.0000 </r>
       <r>   -44.5769     0.0000   216.0000 </r>
       <r>   -44.3191     0.0000   216.0000 </r>
       <r>   -44.0613     0.0000   216.0000 </r>
       <r>   -43.8035     0.0000   216.0000 </r>
       <r>   -43.5456     0.0000   216.0000 </r>
       <r>   -43.2878     0.0000   216.0000 </r>
       <r>   -43.0300     0.0000   216.0000 </r>
       <r>   -42.7722     0.0000   216.0000 </r>
       <r>   -42.5144     0.0000   216.0000 </r>
       <r>   -42.2566     0.0000   216.0000 </r>
       <r>   -41.9988     0.0000   216.0000 </r>
       <r>   -41.7410     0.0000   216.0000 </r>
       <r>   -41.4831     0.0000   216.0000 </r>
       <r>   -41.2253     0.0000   216.0000 </r>
       <r>   -40.9675     0.0000   216.0000 </r>
       <r>   -40.7097     0.0000   216.0000 </r>
       <r>   -40.4519     0.0000   216.0000 </r>
       <r>   -40.1941     0.0000   216.0000 </r>
       <r>   -39.9363     0.0000   216.0000 </r>
       <r>   -39.6785     0.0000   216.0000 </r>
       <r>   -39.4206     0.0000   216.0000 </r>
       <r>   -39.1628     0.0000   216.0000 </r>
       <r>   -38.9050     0.0000   216.0000 </r>
       <r>   -38.6472     0.0000   216.0000 </r>
       <r>   -38.3894     0.0000   216.0000 </r>
       <r>   -38.1316     0.0000   216.0000 </r>
       <r>   -37.8738     0.0000   216.0000 </r>
       <r>   -37.6160     0.0000   216.0000 </r>
       <r>   -37.3581     0.0000   216.0000 </r>
       <r>   -37.1003     0.0000   216.0000 </r>
       <r>   -36.8425     0.0000   216.0000 </r>
       <r>   -36.5847     0.0000   216.0000 </r>
       <r>   -36.3269     0.0000   216.0000 </r>
       <r>   -36.0691     0.0000   216.0000 </r>
       <r>   -35.8113     0.0000   216.0000 </r>
       <r>   -35.5535     0.0000   216.0000 </r>
       <r>   -35.2956     0.0000   216.0000 </r>
       <r>   -35.0378     0.0000   216.0000 </r>
       <r>   -34.7800     0.0000   216.0000 </r>
       <r>   -34.5222     0.0000   216.0000 </r>
       <r>   -34.2644     0.0000   216.0000 </r>
       <r>   -34.0066     0.0000   216.0000 </r>
       <r>   -33.7488     0.0000   216.0000 </r>
       <r>   -33.4909     0.0000   216.0000 </r>
       <r>   -33.2331     0.0000   216.0000 </r>
       <r>   -32.9753     0.0000   216.0000 </r>
       <r>   -32.7175     0.0000   216.0000 </r>
       <r>   -32.4597     0.0000   216.0000 </r>
       <r>   -32.2019     0.0000   216.0000 </r>
       <r>   -31.9441     0.0000   216.0000 </r>
       <r>   -31.6863     0.0000   216.0000 </r>
       <r>   -31.4284     0.0000   216.0000 </r>
       <r>   -31.1706     0.0000   216.0000 </r>
       <r>   -30.9128     0.0000   216.0000 </r>
       <r>   -30.6550     0.0000   216.0000 </r>
       <r>   -30.3972     0.0000   216.0000 </r>
       <r>   -30.1394     0.0000   216.0000 </r>
       <r>   -29.8816     0.0000   216.0000 </r>
       <r>   -29.6238     0.0000   216.0000 </r>
       <r>   -29.3659     0.0000   216.0000 </r>
       <r>   -29.1081     0.0000   216.0000 </r>
       <r>   -28.8503     0.0000   216.0000 </r>
       <r>   -28.5925     0.0000   216.0000 </r>
       <r>   -28.3347     0.0000   216.0000 </r>
       <r>   -28.0769     0.0000   216.0000 </r>
       <r>   -27.8191     0.0000   216.0000 </r>
       <r>   -27.5613     0.0000   216.0000 </r>
       <r>   -27.3034     0.0000   216.0000 </r>
       <r>   -27.0456     0.0000   216.0000 </r>
       <r>   -26.7878     0.0000   216.0000 </r>
       <r>   -26.5300     0.0000   216.0000 </r>
       <r>   -26.2722     0.0000   216.0000 </r>
       <r>   -26.0144     0.0000   216.0000 </r>
       <r>   -25.7566     0.0000   216.0000 </r>
       <r>   -25.4988     0.0000   216.0000 </r>
       <r>   -25.2409     0.0000   216.0000 </r>
       <r>   -24.9831     0.0000   216.0000 </r>
       <r>   -24.7253     0.0000   216.0000 </r>
       <r>   -24.4675     0.0000   216.0000 </r>
       <r>   -24.2097     0.0000   216.0000 </r>
       <r>   -23.9519     0.0000   216.0000 </r>
       <r>   -23.6941     0.0000   216.0000 </r>
       <r>   -23.4363     0.0000   216.0000 </r>
       <r>   -23.1784     0.0000   216.0000 </r>
       <r>   -22.9206     0.0000   216.0000 </r>
       <r>   -22.6628     0.0000   216.0000 </r>
       <r>   -22.4050     0.0000   216.0000 </r>
       <r>   -22.1472     0.0000   216.0000 </r>
       <r>   -21.8894     0.0000   216.0000 </r>
       <r>   -21.6316     0.0000   216.0000 </r>
       <r>   -21.3738     0.0000   216.0000 </r>
       <r>   -21.1159     0.0000   216.0000 </r>
       <r>   -20.8581     0.0000   216.0000 </r>
       <r>   -20.6003     0.0000   216.0000 </r>
       <r>   -20.3425     0.0000   216.0000 </r>
       <r>   -20.0847     0.0000   216.0000 </r>
       <r>   -19.8269     0.0000   216.0000 </r>
       <r>   -19.5691     0.0000   216.0000 </r>
       <r>   -19.3113     0.0000   216.0000 </r>
       <r>   -19.0534     0.0000   216.0000 </r>
       <r>   -18.7956     0.0000   216.0000 </r>
       <r>   -18.5378     0.0000   216.0000 </r>
       <r>   -18.2800     0.0000   216.0000 </r>
       <r>   -18.0222     0.0000   216.0000 </r>
       <r>   -17.7644     0.0000   216.0000 </r>
       <r>   -17.5066     0.0000   216.0000 </r>
       <r>   -17.2488     0.0000   216.0000 </r>
       <r>   -16.9909     0.0000   216.0000 </r>
       <r>   -16.7331     0.0000   216.0000 </r>
       <r>   -16.4753     0.0000   216.0000 </r>
       <r>   -16.2175     0.0000   216.0000 </r>
       <r>   -15.9597     0.0000   216.0000 </r>
       <r>   -15.7019     0.0000   216.0000 </r>
       <r>   -15.4441     0.0000   216.0000 </r>
       <r>   -15.1863     0.0000   216.0000 </r>
       <r>   -14.9284     0.0000   216.0000 </r>
       <r>   -14.6706     0.0025   216.0006 </r>
       <r>   -14.4128     0.4325   216.1121 </r>
       <r>   -14.1550     4.1626   217.1853 </r>
       <r>   -13.8972     3.0517   217.9721 </r>
       <r>   -13.6394     2.9055   218.7212 </r>
       <r>   -13.3816    15.0629   222.6046 </r>
       <r>   -13.1237    19.1195   227.5338 </r>
       <r>   -12.8659    24.1593   233.7624 </r>
       <r>   -12.6081    27.2525   240.7884 </r>
       <r>   -12.3503    32.6965   249.2180 </r>
       <r>   -12.0925    34.8948   258.2143 </r>
       <r>   -11.8347    29.6592   265.8609 </r>
       <r>   -11.5769    23.4093   271.8961 </r>
       <r>   -11.3191    19.1553   276.8346 </r>
       <r>   -11.0612    19.5339   281.8707 </r>
       <r>   -10.8034     8.8481   284.1518 </r>
       <r>   -10.5456     6.3208   285.7814 </r>
       <r>   -10.2878     6.7725   287.5274 </r>
       <r>   -10.0300     1.7925   287.9896 </r>
       <r>    -9.7722     0.0404   288.0000 </r>
       <r>    -9.5144     0.0000   288.0000 </r>
       <r>    -9.2566     0.0000   288.0000 </r>
       <r>    -8.9987     0.0000   288.0000 </r>
       <r>    -8.7409     0.0000   288.0000 </r>
       <r>    -8.4831     0.0000   288.0000 </r>
       <r>    -8.2253     0.0000   288.0000 </r>
       <r>    -7.9675     0.0000   288.0000 </r>
       <r>    -7.7097     0.0000   288.0000 </r>
       <r>    -7.4519     0.0000   288.0000 </r>
       <r>    -7.1941     0.0000   288.0000 </r>
       <r>    -6.9362     0.0000   288.0000 </r>
       <r>    -6.6784     0.0002   288.0000 </r>
       <r>    -6.4206     0.1146   288.0296 </r>
       <r>    -6.1628     3.8489   289.0219 </r>
       <r>    -5.9050     9.9391   291.5843 </r>
       <r>    -5.6472    11.0494   294.4330 </r>
       <r>    -5.3894    24.0604   300.6360 </r>
       <r>    -5.1316    37.9462   310.4190 </r>
       <r>    -4.8737    48.7473   322.9867 </r>
       <r>    -4.6159    44.6189   334.4900 </r>
       <r>    -4.3581    37.5792   344.1784 </r>
       <r>    -4.1003    38.5017   354.1046 </r>
       <r>    -3.8425    38.7085   364.0842 </r>
       <r>    -3.5847    42.6055   375.0684 </r>
       <r>    -3.3269    62.2551   391.1186 </r>
       <r>    -3.0691    62.4170   407.2105 </r>
       <r>    -2.8112    68.5784   424.8908 </r>
       <r>    -2.5534    75.3264   444.3109 </r>
       <r>    -2.2956    62.9676   460.5448 </r>
       <r>    -2.0378    51.9966   473.9502 </r>
       <r>    -1.7800    51.0965   487.1235 </r>
       <r>    -1.5222    54.1335   501.0798 </r>
       <r>    -1.2644    57.6704   515.9480 </r>
       <r>    -1.0066    87.2972   538.4543 </r>
       <r>    -0.7487   112.9936   567.5855 </r>
       <r>    -0.4909   149.9494   606.2444 </r>
       <r>    -0.2331   168.7487   649.7499 </r>
       <r>     0.0247   144.5449   687.0154 </r>
       <r>     0.2825   113.3816   716.2467 </r>
       <r>     0.5403   106.1430   743.6117 </r>
       <r>     0.7981    90.4309   766.9259 </r>
       <r>     1.0559    59.5592   782.2810 </r>
       <r>     1.3138    58.5460   797.3749 </r>
       <r>     1.5716    61.5455   813.2421 </r>
       <r>     1.8294    67.5725   830.6632 </r>
       <r>     2.0872    56.5600   845.2451 </r>
       <r>     2.3450    43.0354   856.3401 </r>
       <r>     2.6028    33.2806   864.9203 </r>
       <r>     2.8606    11.3943   867.8579 </r>
       <r>     3.1184     4.4432   869.0034 </r>
       <r>     3.3763     8.5032   871.1956 </r>
       <r>     3.6341     4.6359   872.3908 </r>
       <r>     3.8919     5.1884   873.7284 </r>
       <r>     4.1497     4.9091   874.9941 </r>
       <r>     4.4075    14.1340   878.6380 </r>
       <r>     4.6653    17.5396   883.1599 </r>
       <r>     4.9231    14.9198   887.0064 </r>
       <r>     5.1810    18.0372   891.6567 </r>
       <r>     5.4388    20.2375   896.8741 </r>
       <r>     5.6966    24.1934   903.1115 </r>
       <r>     5.9544    26.8478   910.0332 </r>
       <r>     6.2122    27.9708   917.2444 </r>
       <r>     6.4700    30.1794   925.0250 </r>
       <r>     6.7278    35.5315   934.1855 </r>
       <r>     6.9856    40.2173   944.5540 </r>
       <r>     7.2435    41.1826   955.1714 </r>
       <r>     7.5013    17.2264   959.6126 </r>
       <r>     7.7591     1.4898   959.9967 </r>
       <r>     8.0169     0.0128   960.0000 </r>
       <r>     8.2747     0.0000   960.0000 </r>
       <r>     8.5325     0.0000   960.0000 </r>
       <r>     8.7903     0.0000   960.0000 </r>
       <r>     9.0481     0.0000   960.0000 </r>
       <r>     9.3060     0.0000   960.0000 </r>
       <r>     9.5638     0.0000   960.0000 </r>
       <r>     9.8216     0.0000   960.0000 </r>
       <r>    10.0794     0.0000   960.0000 </r>
       <r>    10.3372     0.0000   960.0000 </r>
       <r>    10.5950     0.0000   960.0000 </r>
       <r>    10.8528     0.0000   960.0000 </r>
      </set>
     </set>
    </array>
   </total>
  </dos>
 </calculation>
 <structure name="finalpos" >
  <crystal>
   <varray name="basis" >
    <v>      10.40335375      -4.78920500       0.00000000 </v>
    <v>       0.00000000       9.57841000       0.00000000 </v>
    <v>       0.00000000       0.00000000      20.50076286 </v>
   </varray>
   <i name="volume">   2042.85156262 </i>
   <varray name="rec_basis" >
    <v>       0.09612285       0.00000000       0.00000000 </v>
    <v>       0.04806142       0.10440146       0.00000000 </v>
    <v>       0.00000000       0.00000000       0.04877867 </v>
   </varray>
  </crystal>
  <varray name="positions" >
   <v>       0.58044680       0.07437514       0.34941513 </v>
   <v>       0.76256081       0.16543215       0.22731652 </v>
   <v>       0.94467483       0.25648915       0.10521791 </v>
   <v>       0.39833278       0.98331813       0.47151374 </v>
   <v>       0.03518947       0.80174648       0.26801605 </v>
   <v>       0.21730349       0.89280348       0.14591744 </v>
   <v>       0.39941750       0.98386049       0.02381883 </v>
   <v>       0.67096144       0.61963246       0.51221327 </v>
   <v>       0.85307546       0.71068947       0.39011466 </v>
   <v>       0.12570412       0.34700380       0.43081420 </v>
   <v>       0.30781813       0.43806081       0.30871559 </v>
   <v>       0.48993215       0.52911781       0.18661698 </v>
   <v>       0.23035801       0.03143375       0.40699537 </v>
   <v>       0.41247203       0.12249075       0.28489676 </v>
   <v>       0.59458604       0.21354776       0.16279815 </v>
   <v>       0.77670006       0.30460477       0.04069954 </v>
   <v>       0.04932872       0.94091910       0.08139907 </v>
   <v>       0.50298667       0.66774808       0.44769490 </v>
   <v>       0.68510069       0.75880508       0.32559629 </v>
   <v>       0.86721470       0.84986209       0.20349768 </v>
   <v>       0.13984337       0.48617642       0.24419722 </v>
   <v>       0.32195738       0.57723343       0.12209861 </v>
   <v>       0.50407140       0.66829044       0.00000000 </v>
   <v>       0.77561534       0.30406241       0.48839444 </v>
   <v>       0.95772935       0.39511942       0.36629583 </v>
   <v>       0.39833278       0.24752413       0.47151374 </v>
   <v>       0.58044680       0.33858114       0.34941513 </v>
   <v>       0.76256081       0.42963815       0.22731652 </v>
   <v>       0.94467483       0.52069515       0.10521791 </v>
   <v>       0.03518947       0.06595248       0.26801605 </v>
   <v>       0.21730349       0.15700948       0.14591744 </v>
   <v>       0.39941750       0.24806649       0.02381883 </v>
   <v>       0.85307546       0.97489547       0.39011466 </v>
   <v>       0.30781813       0.70226681       0.30871559 </v>
   <v>       0.48993215       0.79332382       0.18661698 </v>
   <v>       0.67204616       0.88438082       0.06451837 </v>
   <v>       0.18441112       0.17667530       0.48070540 </v>
   <v>       0.36652513       0.26773231       0.35860679 </v>
   <v>       0.54863915       0.35878931       0.23650818 </v>
   <v>       0.73075316       0.44984632       0.11440957 </v>
   <v>       0.00338182       0.08616065       0.15510911 </v>
   <v>       0.18549584       0.17721766       0.03301050 </v>
   <v>       0.63915379       0.90404664       0.39930633 </v>
   <v>       0.82126781       0.99510365       0.27720772 </v>
   <v>       0.09389647       0.63141797       0.31790726 </v>
   <v>       0.27601049       0.72247498       0.19580864 </v>
   <v>       0.45812450       0.81353199       0.07371003 </v>
   <v>       0.91178246       0.54036097       0.44000587 </v>
   <v>       0.12675994       0.47963471       0.07446623 </v>
   <v>       0.58041790       0.20646369       0.44076206 </v>
   <v>       0.76253191       0.29752070       0.31866345 </v>
   <v>       0.94464593       0.38857770       0.19656484 </v>
   <v>       0.21727459       0.02489203       0.23726438 </v>
   <v>       0.39938860       0.11594904       0.11516577 </v>
   <v>       0.03516057       0.93383503       0.35936299 </v>
   <v>       0.85304656       0.84277802       0.48146160 </v>
   <v>       0.30778923       0.57014936       0.40006253 </v>
   <v>       0.48990325       0.66120636       0.27796392 </v>
   <v>       0.67201726       0.75226337       0.15586531 </v>
   <v>       0.85413128       0.84332038       0.03376670 </v>
   <v>       0.54863915       0.02235931       0.23650818 </v>
   <v>       0.73075316       0.11341632       0.11440957 </v>
   <v>       0.18441112       0.84024530       0.48070540 </v>
   <v>       0.36652513       0.93130231       0.35860679 </v>
   <v>       0.00338182       0.74973065       0.15510911 </v>
   <v>       0.18549584       0.84078766       0.03301050 </v>
   <v>       0.63915379       0.56761664       0.39930633 </v>
   <v>       0.82126781       0.65867365       0.27720772 </v>
   <v>       0.09389647       0.29498797       0.31790726 </v>
   <v>       0.27601049       0.38604498       0.19580864 </v>
   <v>       0.45812450       0.47710199       0.07371003 </v>
   <v>       0.91178246       0.20393097       0.44000587 </v>
  </varray>
 </structure>
</modeling>
