 vasp.5.4.4.18Apr17-6-g9f103f2a35 (build Aug 13 2019 17:33:20) gamma-only       
  
 executed on             LinuxIFC date 2020.05.11  03:28:59
 running on   12 total cores
 distrk:  each k-point on   12 cores,    1 groups
 distr:  one band on NCORES_PER_BAND=   6 cores,    2 groups


--------------------------------------------------------------------------------------------------------


 INCAR:
 POTCAR:    PAW_PBE Ni_pv 06Sep2000               
 POTCAR:    PAW_PBE S 06Sep2000                   
 POTCAR:    PAW_PBE Ni_pv 06Sep2000               
   VRHFIN =Ni:                                                                  
   LEXCH  = PE                                                                  
   EATOM  =  3501.1230 eV,  257.3253 Ry                                         
                                                                                
   TITEL  = PAW_PBE Ni_pv 06Sep2000                                             
   LULTRA =        F    use ultrasoft PP ?                                      
   IUNSCR =        1    unscreen: 0-lin 1-nonlin 2-no                           
   RPACOR =    1.500    partial core radius                                     
   POMASS =   58.690; ZVAL   =   16.000    mass and valenz                      
   RCORE  =    2.000    outmost cutoff radius                                   
   RWIGS  =    2.000; RWIGS  =    1.058    wigner-seitz radius (au A)           
   ENMAX  =  367.986; ENMIN  =  275.989 eV                                      
   RCLOC  =    1.301    cutoff for local pot                                    
   LCOR   =        T    correct aug charges                                     
   LPAW   =        T    paw PP                                                  
   EAUG   =  703.443                                                            
   DEXC   =    0.000                                                            
   RMAX   =    2.041    core radius for proj-oper                               
   RAUG   =    1.300    factor for augmentation sphere                          
   RDEP   =    2.103    radius for radial grids                                 
   RDEPT  =    1.618    core radius for aug-charge                              
                                                                                
   Atomic configuration                                                         
    8 entries                                                                   
     n  l   j            E        occ.                                          
     1  0  0.50     -8206.4253   2.0000                                         
     2  0  0.50      -976.1748   2.0000                                         
     2  1  1.50      -839.0571   6.0000                                         
     3  0  0.50      -105.9991   2.0000                                         
     3  1  1.50       -66.4603   6.0000                                         
     3  2  2.50        -4.6458   9.0000                                         
     4  0  0.50        -4.4926   1.0000                                         
     4  3  2.50        -1.3606   0.0000                                         
   Description                                                                  
     l       E           TYP  RCUT    TYP  RCUT                                 
     1    -66.4602962     23  1.700                                             
     1     -1.3605826     23  1.700                                             
     2     -4.6457867     23  2.000                                             
     2     -6.0063693     23  2.000                                             
     0     -4.4925576     23  1.900                                             
     0     16.3626226     23  1.900                                             
  local pseudopotential read in
  partial core-charges read in
  partial kinetic energy density read in
  atomic valenz-charges read in
  non local Contribution for L=           1  read in
    real space projection operators read in
  non local Contribution for L=           1  read in
    real space projection operators read in
  non local Contribution for L=           2  read in
    real space projection operators read in
  non local Contribution for L=           2  read in
    real space projection operators read in
  non local Contribution for L=           0  read in
    real space projection operators read in
  non local Contribution for L=           0  read in
    real space projection operators read in
    PAW grid and wavefunctions read in
 
   number of l-projection  operators is LMAX  =           6
   number of lm-projection operators is LMMAX =          18
 
 POTCAR:    PAW_PBE S 06Sep2000                   
   VRHFIN =S : s2p4                                                             
   LEXCH  = PE                                                                  
   EATOM  =   276.8230 eV,   20.3459 Ry                                         
                                                                                
   TITEL  = PAW_PBE S 06Sep2000                                                 
   LULTRA =        F    use ultrasoft PP ?                                      
   IUNSCR =        1    unscreen: 0-lin 1-nonlin 2-no                           
   RPACOR =    1.500    partial core radius                                     
   POMASS =   32.066; ZVAL   =    6.000    mass and valenz                      
   RCORE  =    1.900    outmost cutoff radius                                   
   RWIGS  =    2.200; RWIGS  =    1.164    wigner-seitz radius (au A)           
   ENMAX  =  258.689; ENMIN  =  194.016 eV                                      
   ICORE  =        2    local potential                                         
   LCOR   =        T    correct aug charges                                     
   LPAW   =        T    paw PP                                                  
   EAUG   =  335.092                                                            
   DEXC   =    0.000                                                            
   RMAX   =    1.942    core radius for proj-oper                               
   RAUG   =    1.300    factor for augmentation sphere                          
   RDEP   =    1.954    radius for radial grids                                 
   RDEPT  =    1.744    core radius for aug-charge                              
                                                                                
   Atomic configuration                                                         
    6 entries                                                                   
     n  l   j            E        occ.                                          
     1  0  0.50     -2405.8406   2.0000                                         
     2  0  0.50      -211.7007   2.0000                                         
     2  1  1.50      -156.4958   6.0000                                         
     3  0  0.50       -17.2562   2.0000                                         
     3  1  0.50        -7.0085   4.0000                                         
     3  2  1.50        -6.8029   0.0000                                         
   Description                                                                  
     l       E           TYP  RCUT    TYP  RCUT                                 
     0    -17.2561641     23  1.900                                             
     0    -15.8743224     23  1.900                                             
     1     -7.0085400     23  1.900                                             
     1     -2.7779785     23  1.900                                             
     2     -6.8029130     23  1.900                                             
  local pseudopotential read in
  partial core-charges read in
  partial kinetic energy density read in
  atomic valenz-charges read in
  non local Contribution for L=           0  read in
    real space projection operators read in
  non local Contribution for L=           0  read in
    real space projection operators read in
  non local Contribution for L=           1  read in
    real space projection operators read in
  non local Contribution for L=           1  read in
    real space projection operators read in
    PAW grid and wavefunctions read in
 
   number of l-projection  operators is LMAX  =           4
   number of lm-projection operators is LMMAX =           8
 
 Optimization of the real space projectors (new method)

 maximal supplied QI-value         = 18.90
 optimisation between [QCUT,QGAM] = [ 10.77, 21.73] = [ 32.49,132.25] Ry 
 Optimized for a Real-space Cutoff    1.38 Angstroem

   l    n(q)    QCUT    max X(q) W(low)/X(q) W(high)/X(q)  e(spline) 
   1      8    10.771     2.836    0.40E-04    0.29E-04    0.12E-06
   1      8    10.771     4.023    0.10E-03    0.48E-04    0.29E-06
   2      8    10.771    73.368    0.42E-03    0.97E-04    0.44E-06
   2      8    10.771    69.010    0.42E-03    0.99E-04    0.45E-06
   0      9    10.771    54.797    0.10E-03    0.56E-04    0.74E-07
   0      9    10.771    24.266    0.89E-04    0.49E-04    0.67E-07
 Optimization of the real space projectors (new method)

 maximal supplied QI-value         = 19.84
 optimisation between [QCUT,QGAM] = [ 10.71, 21.63] = [ 32.15,130.99] Ry 
 Optimized for a Real-space Cutoff    1.19 Angstroem

   l    n(q)    QCUT    max X(q) W(low)/X(q) W(high)/X(q)  e(spline) 
   0      8    10.715   187.594    0.41E-03    0.53E-04    0.66E-07
   0      8    10.715   164.243    0.41E-03    0.53E-04    0.65E-07
   1      7    10.715    67.533    0.19E-03    0.59E-03    0.68E-07
   1      7    10.715    50.729    0.19E-03    0.58E-03    0.67E-07
  PAW_PBE Ni_pv 06Sep2000               :
 energy of atom  1       EATOM=-3501.1230
 kinetic energy error for atom=    0.0925 (will be added to EATOM!!)
  PAW_PBE S 06Sep2000                   :
 energy of atom  2       EATOM= -276.8230
 kinetic energy error for atom=    0.0033 (will be added to EATOM!!)
 
 
 POSCAR: Type_052 Type_152                       
  positions in cartesian coordinates
  No initial velocities read in
 exchange correlation table for  LEXCH =        8
   RHO(1)=    0.500       N(1)  =     2000
   RHO(2)=  100.500       N(2)  =     4000
 


--------------------------------------------------------------------------------------------------------


 ion  position               nearest neighbor table
   1  0.261  0.479  0.291-  79 2.25  63 2.26  87 2.26  59 2.36  64 2.36   8 2.53  23 2.53
   2  0.355  0.385  0.419-  57 2.14  80 2.21  59 2.26  64 2.26  65 2.36   3 2.41  71 2.45   9 2.53
                            24 2.53
   3  0.483  0.287  0.505-  65 2.02  71 2.03  57 2.08   2 2.41
   4  0.026  0.200  0.090-  68 1.98  69 2.12  88 2.15   5 2.29  60 2.34  14 2.41
   5  0.167  0.073  0.162-  69 2.25  60 2.26  88 2.26   4 2.29  61 2.36  89 2.36  38 2.53  32 2.53

   6  0.059  0.029  0.494-  54 2.03  83 2.06  78 2.09  84 2.12
   7  0.274  0.333  0.128-  62 2.07  55 2.14  60 2.25  56 2.36  63 2.36  13 2.53  30 2.53
   8  0.368  0.239  0.257-  61 2.25  63 2.26  56 2.26  64 2.36  66 2.36   1 2.53  23 2.53
   9  0.462  0.145  0.385-  67 2.12  85 2.25  64 2.26  66 2.26  65 2.36  18 2.44   2 2.53  24 2.53

  10  0.000  0.372  0.257-  63 2.25  69 2.26 100 2.26  53 2.36  72 2.36  15 2.53  21 2.53
  11  0.094  0.278  0.385-  58 2.03  64 2.25  53 2.26  72 2.26  54 2.36  22 2.53  16 2.53
  12  0.189  0.184  0.499-  54 2.02  83 2.05  58 2.09  65 2.15
  13  0.406  0.465  0.128-  55 2.00  86 2.24  75 2.25  39 2.31  56 2.36  87 2.36  30 2.53   7 2.53

  14  0.216  0.026  0.043-  81 2.02  60 2.04  88 2.08   4 2.41  31 2.47
  15  0.761  0.479  0.291-  92 2.25  76 2.26 100 2.26  72 2.36  77 2.36  21 2.53  10 2.53
  16  0.855  0.385  0.419-  70 2.10  58 2.14  78 2.20  93 2.25  72 2.26  77 2.26  22 2.53  11 2.53

  17  0.667  0.073  0.162- 101 2.11  73 2.25  56 2.25  74 2.36 102 2.36  45 2.49  51 2.53  46 2.53

  18  0.551  0.035  0.478-  96 2.03  67 2.10  97 2.12  65 2.15   9 2.44
  19  0.747  0.286  0.029-  68 2.07  73 2.11  20 2.38  26 2.51
  20  0.774  0.333  0.128-  73 2.15  75 2.26  68 2.26  69 2.36  76 2.36  19 2.38  25 2.53  43 2.53

  21  0.868  0.239  0.257-  74 2.25  76 2.26  69 2.26  77 2.36  53 2.36  15 2.53  10 2.53
  22  0.962  0.145  0.385-  78 2.02  98 2.25  77 2.26  53 2.26  54 2.36  16 2.53  11 2.53
  23  0.500  0.372  0.257-  76 2.25  56 2.26  87 2.26  66 2.36  59 2.36   1 2.53   8 2.53
  24  0.594  0.278  0.385-  71 2.06  67 2.11  77 2.25  66 2.26  59 2.26   9 2.53   2 2.53
  25  0.906  0.465  0.128-  62 2.09  68 2.26  99 2.26  69 2.36 100 2.36  43 2.53  20 2.53
  26  0.915  0.047  0.035-  88 2.13  73 2.18  94 2.22  51 2.33  45 2.50  19 2.51
  27  0.261  0.979  0.291-  53 2.25  89 2.26  61 2.26  85 2.36  90 2.36  33 2.53  49 2.53
  28  0.355  0.885  0.419-  97 2.05  54 2.25  85 2.26  90 2.26  29 2.29  91 2.36  34 2.53  50 2.53

  29  0.321  0.901  0.518-  83 2.00  97 2.19  91 2.19  28 2.29
  30  0.167  0.573  0.162-  62 2.07  86 2.20  95 2.25  87 2.36  63 2.36  13 2.53   7 2.53
  31  0.229  0.802  0.032-  86 2.12  81 2.13  32 2.31  88 2.46  14 2.47  39 2.51
  32  0.274  0.833  0.128-  86 2.15  88 2.26  81 2.26  31 2.31  82 2.36  89 2.36  38 2.53   5 2.53

  33  0.368  0.739  0.257-  87 2.25  89 2.26  82 2.26  90 2.36  92 2.36  27 2.53  49 2.53
  34  0.462  0.645  0.385-  93 2.16  59 2.25  90 2.26  92 2.26  91 2.36  44 2.45  28 2.53  50 2.53

  35  0.000  0.872  0.257-  89 2.25  95 2.26  74 2.26  79 2.36  98 2.36  40 2.53  47 2.53
  36  0.094  0.778  0.385-  84 2.07  80 2.19  90 2.25  79 2.26  98 2.26  37 2.49  48 2.53  41 2.53

  37  0.203  0.664  0.477-  80 2.05  91 2.07  57 2.09  84 2.14  36 2.49
  38  0.406  0.965  0.128- 101 2.12  81 2.26  60 2.26  82 2.36  61 2.36   5 2.53  32 2.53
  39  0.402  0.565  0.039-  86 2.09  55 2.17  75 2.18  13 2.31  31 2.51
  40  0.761  0.979  0.291-  66 2.25 102 2.26  74 2.26  98 2.36 103 2.36  47 2.53  35 2.53
  41  0.855  0.885  0.419- 104 2.07  96 2.11  98 2.26 103 2.26  84 2.26  67 2.32  48 2.53  36 2.53

  42  0.521  0.697  0.090-  81 1.98  75 2.11  82 2.11  43 2.30  99 2.40  52 2.42
  43  0.667  0.573  0.162-  82 2.25  99 2.26  75 2.26  42 2.30 100 2.36  76 2.36  25 2.53  20 2.53

  44  0.567  0.569  0.481-  70 2.02  93 2.07  71 2.09  91 2.13  34 2.45
  45  0.705  0.029  0.055-  94 2.03 101 2.07  73 2.08  17 2.49  26 2.50
  46  0.774  0.833  0.128- 101 2.11  94 2.23  99 2.25  95 2.36 102 2.36  51 2.53  17 2.53
  47  0.868  0.739  0.257- 100 2.25 102 2.26  95 2.26 103 2.36  79 2.36  40 2.53  35 2.53
  48  0.962  0.645  0.385- 104 1.98  80 2.13  72 2.25 103 2.26  79 2.26  41 2.53  36 2.53
  49  0.500  0.872  0.257- 102 2.25  82 2.26  61 2.26  92 2.36  85 2.36  27 2.53  33 2.53
  50  0.594  0.778  0.385-  93 2.08 103 2.25  92 2.26  85 2.26  97 2.31  34 2.53  28 2.53
  51  0.906  0.965  0.128-  94 2.06  73 2.17  88 2.25  26 2.33  95 2.36  74 2.36  17 2.53  46 2.53

  52  0.715  0.525  0.044-  68 2.01  99 2.04  75 2.06  42 2.42
  53  0.073  0.167  0.306-  27 2.25  11 2.26  22 2.26  10 2.36  21 2.36
  54  0.167  0.073  0.435-  12 2.02   6 2.03  28 2.25  11 2.36  22 2.36
  55  0.341  0.410  0.057-  13 2.00   7 2.14  39 2.17  86 2.74
  56  0.479  0.261  0.178-  17 2.25   8 2.26  23 2.26   7 2.36  13 2.36
  57  0.311  0.467  0.505-   3 2.08  37 2.09   2 2.14  71 2.67  80 2.68  65 2.76
  58  0.031  0.354  0.466-  11 2.03  12 2.09  16 2.14  78 2.77
  59  0.436  0.472  0.350-  34 2.25   2 2.26  24 2.26   1 2.36  23 2.36  71 2.76
  60  0.248  0.160  0.093-  14 2.04   7 2.25   5 2.26  38 2.26   4 2.34
  61  0.342  0.066  0.221-   8 2.25  27 2.26  49 2.26   5 2.36  38 2.36
  62  0.083  0.478  0.112-  30 2.07   7 2.07  25 2.09  63 2.70
  63  0.174  0.397  0.221-  10 2.25   8 2.26   1 2.26   7 2.36  30 2.36  62 2.70
  64  0.268  0.303  0.350-  11 2.25   2 2.26   9 2.26   1 2.36   8 2.36
  65  0.362  0.209  0.478-   3 2.02  12 2.15  18 2.15   2 2.36   9 2.36  57 2.76
  66  0.573  0.167  0.306-  40 2.25  24 2.26   9 2.26  23 2.36   8 2.36  67 2.67
  67  0.660  0.081  0.414-  18 2.10  24 2.11   9 2.12  41 2.32  96 2.43  66 2.67
  68  0.885  0.355  0.050-   4 1.98  52 2.01  19 2.07  25 2.26  20 2.26
  69  0.979  0.261  0.178-   4 2.12   5 2.25  21 2.26  10 2.26  20 2.36  25 2.36
  70  0.761  0.458  0.499-  44 2.02  16 2.10  93 2.47  78 2.69
  71  0.551  0.396  0.458-   3 2.03  24 2.06  44 2.09   2 2.45  57 2.67  59 2.76
  72  0.936  0.472  0.350-  48 2.25  16 2.26  11 2.26  15 2.36  10 2.36
  73  0.760  0.159  0.099-  45 2.08  19 2.11  20 2.15  51 2.17  26 2.18  17 2.25
  74  0.842  0.066  0.221-  21 2.25  40 2.26  35 2.26  17 2.36  51 2.36
  75  0.580  0.491  0.093-  52 2.06  42 2.11  39 2.18  13 2.25  20 2.26  43 2.26
  76  0.674  0.397  0.221-  23 2.25  21 2.26  15 2.26  20 2.36  43 2.36
  77  0.768  0.303  0.350-  24 2.25  16 2.26  22 2.26  15 2.36  21 2.36
  78  0.894  0.201  0.467-  22 2.02   6 2.09  16 2.20  70 2.69  58 2.77
  79  0.073  0.667  0.306-   1 2.25  36 2.26  48 2.26  35 2.36  47 2.36  80 2.59
  80  0.166  0.568  0.408-  37 2.05  48 2.13  36 2.19   2 2.21  79 2.59  57 2.68
  81  0.385  0.855  0.050-  42 1.98  14 2.02  31 2.13  38 2.26  32 2.26
  82  0.479  0.761  0.178-  42 2.11  43 2.25  33 2.26  49 2.26  32 2.36  38 2.36
  83  0.173  0.054  0.558-  29 2.00  12 2.05   6 2.06
  84  0.040  0.858  0.468-  36 2.07   6 2.12  37 2.14  41 2.26 104 2.73
  85  0.436  0.972  0.350-   9 2.25  28 2.26  50 2.26  27 2.36  49 2.36
  86  0.249  0.664  0.099-  39 2.09  31 2.12  32 2.15  30 2.20  13 2.24  55 2.74
  87  0.342  0.566  0.221-  33 2.25   1 2.26  23 2.26  30 2.36  13 2.36
  88  0.080  0.991  0.093-  14 2.08  26 2.13   4 2.15  51 2.25  32 2.26   5 2.26  31 2.46
  89  0.174  0.897  0.221-  35 2.25  33 2.26  27 2.26  32 2.36   5 2.36
  90  0.268  0.803  0.350-  36 2.25  28 2.26  34 2.26  27 2.36  33 2.36
  91  0.362  0.709  0.478-  37 2.07  44 2.13  29 2.19  28 2.36  34 2.36
  92  0.573  0.667  0.306-  15 2.25  50 2.26  34 2.26  49 2.36  33 2.36  93 2.55
  93  0.669  0.577  0.407-  44 2.07  50 2.08  34 2.16  16 2.25  70 2.47  92 2.55
  94  0.886  0.868  0.056-  45 2.03  51 2.06  26 2.22  46 2.23
  95  0.979  0.761  0.178-  30 2.25  47 2.26  35 2.26  46 2.36  51 2.36
  96  0.747  0.934  0.498-  18 2.03  41 2.11  67 2.43 104 2.45
  97  0.504  0.873  0.474-  28 2.05  18 2.12  29 2.19  50 2.31
  98  0.936  0.972  0.350-  22 2.25  41 2.26  36 2.26  40 2.36  35 2.36
  99  0.748  0.660  0.093-  52 2.04  46 2.25  43 2.26  25 2.26  42 2.40
 100  0.842  0.566  0.221-  47 2.25  15 2.26  10 2.26  43 2.36  25 2.36
 101  0.582  0.981  0.107-  45 2.07  46 2.11  17 2.11  38 2.12
 102  0.674  0.897  0.221-  49 2.25  47 2.26  40 2.26  46 2.36  17 2.36
 103  0.768  0.803  0.350-  50 2.25  41 2.26  48 2.26  40 2.36  47 2.36
 104  0.902  0.711  0.465-  48 1.98  41 2.07  96 2.45  84 2.73
 
  LATTYP: Found a base centered orthorhombic cell.
 ALAT       =    11.8257374459
 B/A-ratio  =     1.6199260857
 C/A-ratio  =     1.9350716598
  
  Lattice vectors:
  
 A1 = (  11.2564630382,   0.0000000000,   0.0000000000)
 A2 = (  -5.0445621212, -10.0628203371,   0.0000000000)
 A3 = (   0.0000000000,   0.0000000000, -22.8836493875)


Analysis of symmetry for initial positions (statically):
=====================================================================
 Subroutine PRICEL returns:
 Original cell was already a primitive cell.
 

 Routine SETGRP: Setting up the symmetry group for a 
 base centered orthorhombic supercell.


 Subroutine GETGRP returns: Found  1 space group operations
 (whereof  1 operations were pure point group operations)
 out of a pool of  8 trial point group operations.


The static configuration has the point symmetry C_1 .


Analysis of symmetry for dynamics (positions and initial velocities):
=====================================================================
 Subroutine PRICEL returns:
 Original cell was already a primitive cell.
 

 Routine SETGRP: Setting up the symmetry group for a 
 base centered orthorhombic supercell.


 Subroutine GETGRP returns: Found  1 space group operations
 (whereof  1 operations were pure point group operations)
 out of a pool of  8 trial point group operations.


The dynamic configuration has the point symmetry C_1 .


 Subroutine INISYM returns: Found  1 space group operations
 (whereof  1 operations are pure point group operations),
 and found     1 'primitive' translations

 
 
 KPOINTS: gamma-point-only calculation. no periodi

Automatic generation of k-mesh.
Space group operators:
 irot       det(A)        alpha          n_x          n_y          n_z        tau_x        tau_y        tau_z
    1     1.000000     0.000001     1.000000     0.000000     0.000000     0.000000     0.000000     0.000000
 
 Subroutine IBZKPT returns following result:
 ===========================================
 
 Found      1 irreducible k-points:
 
 Following reciprocal coordinates:
            Coordinates               Weight
  0.000000  0.000000  0.000000      1.000000
 
 Following cartesian coordinates:
            Coordinates               Weight
  0.000000  0.000000  0.000000      1.000000
 


--------------------------------------------------------------------------------------------------------




 Dimension of arrays:
   k-points           NKPTS =      1   k-points in BZ     NKDIM =      1   number of bands    NBANDS=    686
   number of dos      NEDOS =    301   number of ions     NIONS =    104
   non local maximal  LDIM  =      6   non local SUM 2l+1 LMDIM =     18
   total plane-waves  NPLWV = 432000
   max r-space proj   IRMAX =   1888   max aug-charges    IRDMAX=   5450
   dimension x,y,z NGX =    60 NGY =   60 NGZ =  120
   dimension x,y,z NGXF=   120 NGYF=  120 NGZF=  240
   support grid    NGXF=   120 NGYF=  120 NGZF=  240
   ions per type =              52  52
   NGX,Y,Z   is equivalent  to a cutoff of   8.86,  8.86,  8.72 a.u.
   NGXF,Y,Z  is equivalent  to a cutoff of  17.72, 17.72, 17.44 a.u.

 SYSTEM =  "Millerite NiS"                         
 POSCAR =  Type_052 Type_152                       

 Startparameter for this run:
   NWRITE =      2    write-flag & timer
   PREC   = normal    normal or accurate (medium, high low for compatibility)
   ISTART =      0    job   : 0-new  1-cont  2-samecut
   ICHARG =      2    charge: 1-file 2-atom 10-const
   ISPIN  =      1    spin polarized calculation?
   LNONCOLLINEAR =      F non collinear calculations
   LSORBIT =      F    spin-orbit coupling
   INIWAV =      1    electr: 0-lowe 1-rand  2-diag
   LASPH  =      F    aspherical Exc in radial PAW
   METAGGA=      F    non-selfconsistent MetaGGA calc.

 Electronic Relaxation 1
   ENCUT  =  450.0 eV  33.07 Ry    5.75 a.u.  19.47 19.47 39.58*2*pi/ulx,y,z
   ENINI  =  450.0     initial cutoff
   ENAUG  =  703.4 eV  augmentation charge cutoff
   NELM   =    100;   NELMIN=  2; NELMDL= -5     # of ELM steps 
   EDIFF  = 0.1E-03   stopping-criterion for ELM
   LREAL  =      T    real-space projection
   NLSPLINE    = F    spline interpolate recip. space projectors
   LCOMPAT=      F    compatible to vasp.4.4
   GGA_COMPAT  = T    GGA compatible to vasp.4.4-vasp.4.6
   LMAXPAW     = -100 max onsite density
   LMAXMIX     =    2 max onsite mixed and CHGCAR
   VOSKOWN=      0    Vosko Wilk Nusair interpolation
   ROPT   =   -0.00050  -0.00050
 Ionic relaxation
   EDIFFG = 0.1E-02   stopping-criterion for IOM
   NSW    =      0    number of steps for IOM
   NBLOCK =      1;   KBLOCK =      1    inner block; outer block 
   IBRION =     -1    ionic relax: 0-MD 1-quasi-New 2-CG
   NFREE  =      0    steps in history (QN), initial steepest desc. (CG)
   ISIF   =      2    stress and relaxation
   IWAVPR =     10    prediction:  0-non 1-charg 2-wave 3-comb
   ISYM   =      2    0-nonsym 1-usesym 2-fastsym
   LCORR  =      T    Harris-Foulkes like correction to forces

   POTIM  = 0.5000    time-step for ionic-motion
   TEIN   =    0.0    initial temperature
   TEBEG  =    0.0;   TEEND  =   0.0 temperature during run
   SMASS  =  -3.00    Nose mass-parameter (am)
   estimated Nose-frequenzy (Omega)   =  0.10E-29 period in steps =****** mass=  -0.290E-26a.u.
   SCALEE = 1.0000    scale energy and forces
   NPACO  =    256;   APACO  = 16.0  distance and # of slots for P.C.
   PSTRESS=    0.0 pullay stress

  Mass of Ions in am
   POMASS =  58.69 32.07
  Ionic Valenz
   ZVAL   =  16.00  6.00
  Atomic Wigner-Seitz radii
   RWIGS  =  -1.00 -1.00
  virtual crystal weights 
   VCA    =   1.00  1.00
   NELECT =    1144.0000    total number of electrons
   NUPDOWN=      -1.0000    fix difference up-down

 DOS related values:
   EMIN   =  10.00;   EMAX   =-10.00  energy-range for DOS
   EFERMI =   0.00
   ISMEAR =     0;   SIGMA  =   0.20  broadening in eV -4-tet -1-fermi 0-gaus

 Electronic relaxation 2 (details)
   IALGO  =     38    algorithm
   LDIAG  =      T    sub-space diagonalisation (order eigenvalues)
   LSUBROT=      F    optimize rotation matrix (better conditioning)
   TURBO    =      0    0=normal 1=particle mesh
   IRESTART =      0    0=no restart 2=restart with 2 vectors
   NREBOOT  =      0    no. of reboots
   NMIN     =      0    reboot dimension
   EREF     =   0.00    reference energy to select bands
   IMIX   =      4    mixing-type and parameters
     AMIX     =   0.40;   BMIX     =  1.00
     AMIX_MAG =   1.60;   BMIX_MAG =  1.00
     AMIN     =   0.10
     WC   =   100.;   INIMIX=   1;  MIXPRE=   1;  MAXMIX= -45

 Intra band minimization:
   WEIMIN = 0.0000     energy-eigenvalue tresh-hold
   EBREAK =  0.36E-07  absolut break condition
   DEPER  =   0.30     relativ break condition  

   TIME   =   0.40     timestep for ELM

  volume/ion in A,a.u.               =      24.92       168.19
  Fermi-wavevector in a.u.,A,eV,Ry     =   1.246430  2.355411 21.137841  1.553587
  Thomas-Fermi vector in A             =   2.380608
 
 Write flags
   LWAVE        =      F    write WAVECAR
   LDOWNSAMPLE  =      F    k-point downsampling of WAVECAR
   LCHARG       =      F    write CHGCAR
   LVTOT        =      F    write LOCPOT, total local potential
   LVHAR        =      F    write LOCPOT, Hartree potential only
   LELF         =      F    write electronic localiz. function (ELF)
   LORBIT       =      0    0 simple, 1 ext, 2 COOP (PROOUT), +10 PAW based schemes


 Dipole corrections
   LMONO  =      F    monopole corrections only (constant potential shift)
   LDIPOL =      F    correct potential (dipole corrections)
   IDIPOL =      0    1-x, 2-y, 3-z, 4-all directions 
   EPSILON=  1.0000000 bulk dielectric constant

 Exchange correlation treatment:
   GGA     =    --    GGA type
   LEXCH   =     8    internal setting for exchange type
   VOSKOWN=      0    Vosko Wilk Nusair interpolation
   LHFCALC =     F    Hartree Fock is set to
   LHFONE  =     F    Hartree Fock one center treatment
   AEXX    =    0.0000 exact exchange contribution

 Linear response parameters
   LEPSILON=     F    determine dielectric tensor
   LRPA    =     F    only Hartree local field effects (RPA)
   LNABLA  =     F    use nabla operator in PAW spheres
   LVEL    =     F    velocity operator in full k-point grid
   LINTERFAST=   F  fast interpolation
   KINTER  =     0    interpolate to denser k-point grid
   CSHIFT  =0.1000    complex shift for real part using Kramers Kronig
   OMEGAMAX=  -1.0    maximum frequency
   DEG_THRESHOLD= 0.2000000E-02 threshold for treating states as degnerate
   RTIME   =   -0.100 relaxation time in fs
  (WPLASMAI=    0.000 imaginary part of plasma frequency in eV, 0.658/RTIME)
   DFIELD  = 0.0000000 0.0000000 0.0000000 field for delta impulse in time
 
 Orbital magnetization related:
   ORBITALMAG=     F  switch on orbital magnetization
   LCHIMAG   =     F  perturbation theory with respect to B field
   DQ        =  0.001000  dq finite difference perturbation B field
   LLRAUG    =     F  two centre corrections for induced B field



--------------------------------------------------------------------------------------------------------


 Static calculation
 charge density and potential will be updated during run
 non-spin polarized calculation
 Variant of blocked Davidson
 Davidson routine will perform the subspace rotation
 perform sub-space diagonalisation
    after iterative eigenvector-optimisation
 modified Broyden-mixing scheme, WC =      100.0
 initial mixing is a Kerker type mixing with AMIX =  0.4000 and BMIX =      1.0000
 Hartree-type preconditioning will be used
 using additional bands          114
 real space projection scheme for non local part
 use partial core corrections
 calculate Harris-corrections to forces 
   (improved forces if not selfconsistent)
 use gradient corrections 
 use of overlap-Matrix (Vanderbilt PP)
 Gauss-broadening in eV      SIGMA  =   0.20


--------------------------------------------------------------------------------------------------------


  energy-cutoff  :      450.00
  volume of cell :     2592.07
      direct lattice vectors                 reciprocal lattice vectors
    11.256463038  0.000000000  0.000000000     0.088837852 -0.044535036  0.000000000
     5.044562121 10.062820337  0.000000000     0.000000000  0.099375718  0.000000000
     0.000000000  0.000000000 22.883649388     0.000000000  0.000000000  0.043699324

  length of vectors
    11.256463038 11.256463038 22.883649388     0.099375718  0.099375718  0.043699324


 
 k-points in units of 2pi/SCALE and weight: gamma-point-only calculation. no periodi
   0.00000000  0.00000000  0.00000000       1.000
 
 k-points in reciprocal lattice and weights: gamma-point-only calculation. no periodi
   0.00000000  0.00000000  0.00000000       1.000
 
 position of ions in fractional coordinates (direct lattice) 
   0.26092070  0.47878036  0.29050611
   0.35488056  0.38482049  0.41880986
   0.48288205  0.28700852  0.50535889
   0.02606351  0.19983062  0.09007005
   0.16696083  0.07274024  0.16220237
   0.05853092  0.02856549  0.49422831
   0.27423906  0.33335899  0.12830375
   0.36819893  0.23939913  0.25660749
   0.46215880  0.14543926  0.38491124
   0.00030194  0.37150212  0.25660749
   0.09426181  0.27754226  0.38491124
   0.18906039  0.18429698  0.49926987
   0.40634206  0.46546199  0.12830375
   0.21625983  0.02616376  0.04344259
   0.76092070  0.47878036  0.29050611
   0.85488056  0.38482049  0.41880986
   0.66696083  0.07274024  0.16220237
   0.55121366  0.03500691  0.47777175
   0.74726217  0.28618865  0.02904920
   0.77423906  0.33335899  0.12830375
   0.86819893  0.23939913  0.25660749
   0.96215880  0.14543926  0.38491124
   0.50030194  0.37150212  0.25660749
   0.59426181  0.27754226  0.38491124
   0.90634206  0.46546199  0.12830375
   0.91471700  0.04667965  0.03536806
   0.26092070  0.97878036  0.29050611
   0.35488056  0.88482049  0.41880986
   0.32089909  0.90075315  0.51787299
   0.16696083  0.57274024  0.16220237
   0.22886896  0.80246156  0.03246028
   0.27423907  0.83335899  0.12830375
   0.36819893  0.73939913  0.25660749
   0.46215880  0.64543926  0.38491124
   0.00030194  0.87150212  0.25660749
   0.09426181  0.77754226  0.38491124
   0.20313688  0.66383394  0.47707193
   0.40634206  0.96546199  0.12830375
   0.40160464  0.56507749  0.03934805
   0.76092070  0.97878036  0.29050611
   0.85488056  0.88482049  0.41880986
   0.52116380  0.69732057  0.09037746
   0.66696083  0.57274024  0.16220237
   0.56675441  0.56868359  0.48056251
   0.70535934  0.02856355  0.05543409
   0.77423907  0.83335899  0.12830375
   0.86819893  0.73939913  0.25660749
   0.96215880  0.64543926  0.38491124
   0.50030194  0.87150212  0.25660749
   0.59426181  0.77754226  0.38491124
   0.90634206  0.96546199  0.12830375
   0.71549819  0.52513115  0.04404094
   0.07287763  0.16682343  0.30639927
   0.16683750  0.07286357  0.43470302
   0.34120216  0.41021476  0.05694555
   0.47891775  0.26078330  0.17809552
   0.31126394  0.46722143  0.50479818
   0.03098099  0.35350488  0.46566081
   0.43627354  0.47164251  0.34956450
   0.24835381  0.15956225  0.09295701
   0.34231368  0.06560239  0.22126075
   0.08293449  0.47788781  0.11189954
   0.17409868  0.39738738  0.22126075
   0.26805855  0.30342751  0.34956450
   0.36201842  0.20946765  0.47786825
   0.57287763  0.16682343  0.30639927
   0.65961215  0.08089912  0.41435636
   0.88495789  0.35474317  0.04979178
   0.97891775  0.26078330  0.17809552
   0.76119778  0.45791401  0.49923375
   0.55138424  0.39627700  0.45832163
   0.93627354  0.47164251  0.34956450
   0.75971832  0.15878863  0.09869209
   0.84231368  0.06560239  0.22126075
   0.58013882  0.49134724  0.09295701
   0.67409868  0.39738738  0.22126075
   0.76805855  0.30342751  0.34956450
   0.89410121  0.20143671  0.46678851
   0.07287764  0.66682343  0.30639927
   0.16638911  0.56814890  0.40815819
   0.38495789  0.85474317  0.04979178
   0.47891775  0.76078330  0.17809552
   0.17336568  0.05434662  0.55803296
   0.04007100  0.85752398  0.46783786
   0.43627354  0.97164251  0.34956450
   0.24935085  0.66394909  0.09949286
   0.34231368  0.56560239  0.22126075
   0.08013882  0.99134724  0.09295701
   0.17409868  0.89738738  0.22126075
   0.26805855  0.80342751  0.34956450
   0.36201842  0.70946764  0.47786825
   0.57287764  0.66682343  0.30639927
   0.66933823  0.57732259  0.40707782
   0.88648195  0.86847558  0.05562421
   0.97891775  0.76078330  0.17809552
   0.74700233  0.93420506  0.49805134
   0.50375359  0.87343706  0.47355073
   0.93627354  0.97164251  0.34956450
   0.74835381  0.65956226  0.09295701
   0.84231368  0.56560239  0.22126075
   0.58239706  0.98061755  0.10703041
   0.67409868  0.89738738  0.22126075
   0.76805855  0.80342751  0.34956450
   0.90162401  0.71125521  0.46510525
 
 position of ions in cartesian coordinates  (Angst):
   5.35228144  4.81788074  6.64784006
   5.93595081  3.87237948  9.58389802
   6.88337628  2.88811518 11.56445559
   1.30144087  2.01085966  2.06113143
   2.24633106  0.73197198  3.71178210
   0.80295155  0.28744941 11.30974745
   4.76861205  3.35453166  2.93605796
   5.35228143  2.40903041  5.87211592
   5.93595082  1.46352916  8.80817388
   1.87746434  3.73835913  5.87211592
   2.46113373  2.79285788  8.80817388
   3.05784889  1.85454737 11.42511656
   6.92202632  4.68386039  2.93605796
   2.56630557  0.26328126  0.99412510
  10.98051296  4.81788074  6.64784006
  11.56418233  3.87237948  9.58389802
   7.87456258  0.73197198  3.71178210
   6.38131072  0.35226823 10.93316118
   9.85522546  2.87986496  0.66475171
  10.39684357  3.35453166  2.93605796
  10.98051295  2.40903041  5.87211592
  11.56418234  1.46352916  8.80817388
   7.50569586  3.73835913  5.87211592
   8.08936525  2.79285788  8.80817388
  12.55025784  4.68386039  2.93605796
  10.53195655  0.46972898  0.80935027
   7.87456250  9.84929091  6.64784006
   8.45823187  8.90378965  9.58389802
   8.15609400  9.06411708 11.85082398
   4.76861213  5.76338214  3.71178210
   6.62432218  8.07502653  0.74280963
   7.29089311  8.38594183  2.93605796
   7.87456249  7.44044058  5.87211592
   8.45823188  6.49493933  8.80817388
   4.39974540  8.76976930  5.87211592
   4.98341479  7.82426805  8.80817388
   5.63535432  6.68004171 10.91714684
   9.44430738  9.71527056  2.93605796
   7.37121625  5.68627322  0.90042709
  13.50279402  9.84929091  6.64784006
  14.08646339  8.90378965  9.58389802
   9.38413798  7.01701162  2.06816617
  10.39684364  5.76338214  3.71178210
   9.24840975  5.72256081 10.99702405
   8.08394187  0.28742983  1.26853438
  12.91912463  8.38594183  2.93605796
  13.50279401  7.44044058  5.87211592
  14.08646340  6.49493933  8.80817388
  10.02797692  8.76976930  5.87211592
  10.61164631  7.82426805  8.80817388
  15.07253890  9.71527056  2.93605796
  10.70303565  5.28430038  1.00781737
   1.66189559  1.67871425  7.01153347
   2.24556497  0.73321299  9.94759143
   5.91008337  4.12791739  1.30312195
   6.70645756  2.62421550  4.07547551
   5.86065856  4.70156527 11.55162464
   2.13201374  3.55725609 10.65601879
   7.29012694  4.74605381  7.99931146
   3.60050720  1.60564630  2.12719553
   4.18417657  0.66014504  5.06325349
   3.34428373  4.80889913  2.56066991
   3.96438069  3.99883779  5.06325349
   4.54805007  3.05333654  7.99931146
   5.13171946  2.10783528 10.93536942
   7.29012710  1.67871425  7.01153347
   7.83300038  0.81407331  9.48198574
  11.75101970  3.56971677  1.13941754
  12.33468908  2.62421550  4.07547551
  10.87837028  4.60790639 11.42429009
   8.20568034  3.98766430 10.48807150
  12.91835846  4.74605381  7.99931146
   9.35276033  1.59786150  2.25843521
   9.81240809  0.66014504  5.06325349
   9.00894284  4.94433905  2.12719553
   9.59261221  3.99883779  5.06325349
  10.17628159  3.05333654  7.99931146
  11.08057723  2.02702146 10.68182462
   4.18417665  6.71012442  7.01153347
   4.73901526  5.71718026  9.34014885
   8.64506925  8.60112693  1.13941754
   9.22873862  7.65562567  4.07547551
   2.22563923  0.54688028 12.76983068
   4.77689071  8.62910970 10.70583759
   9.81240800  9.77746398  7.99931146
   6.15614104  6.68120037  2.27675975
   6.70645763  5.69155521  5.06325349
   5.90299238  9.97574922  2.12719553
   6.48666175  9.03024796  5.06325349
   7.07033113  8.08474671  7.99931146
   7.65400052  7.13924545 10.93536942
   9.81240817  6.71012442  7.01153347
  10.44672075  5.80949353  9.31542618
  14.35973034  8.73931372  1.27288489
  14.85697014  7.65562567  4.07547551
  13.12125958  9.40073768 11.39723220
  10.07659120  8.78924021 10.83656895
  15.44063952  9.77746398  7.99931146
  11.75101978  6.63705647  2.12719553
  12.33468915  5.69155521  5.06325349
  11.50251715  9.86777828  2.44924636
  12.11489327  9.03024796  5.06325349
  12.69856265  8.08474671  7.99931146
  13.73706839  7.15723338 10.64330555
 


--------------------------------------------------------------------------------------------------------


 use parallel FFT for orbitals z direction half grid
 k-point  1 :   0.0000 0.0000 0.0000  plane waves:   28140

 maximum and minimum number of plane-waves per node :      4692     4687

 maximum number of plane-waves:     28140
 maximum index in each direction: 
   IXMAX=   19   IYMAX=   19   IZMAX=   39
   IXMIN=  -19   IYMIN=  -19   IZMIN=    0


 real space projection operators:
  total allocation   :      16756.77 KBytes
  max/ min on nodes  :       2819.84       2765.69


 parallel 3D FFT for wavefunctions:
    minimum data exchange during FFTs selected (reduces bandwidth)
 parallel 3D FFT for charge:
    minimum data exchange during FFTs selected (reduces bandwidth)


 total amount of memory used by VASP MPI-rank0    90328. kBytes
=======================================================================

   base      :      30000. kBytes
   nonlr-proj:       3431. kBytes
   fftplans  :      11276. kBytes
   grid      :      19113. kBytes
   one-center:        139. kBytes
   wavefun   :      26369. kBytes
 
     INWAV:  cpu time    0.0000: real time    0.0000
 Broyden mixing: mesh for mixing (old mesh)
   NGX = 39   NGY = 39   NGZ = 79
  (NGX  =120   NGY  =120   NGZ  =240)
  gives a total of 120159 points

 initial charge density was supplied:
 charge density of overlapping atoms calculated
 number of electron    1144.0000000 magnetization 
 keeping initial charge density in first step


--------------------------------------------------------------------------------------------------------


 Maximum index for non-local projection operator          316
 Maximum index for augmentation-charges          485 (set IRDMAX)


--------------------------------------------------------------------------------------------------------


 First call to EWALD:  gamma=   0.129
 Maximum number of real-space cells 4x 4x 2
 Maximum number of reciprocal cells 2x 2x 4

    FEWALD:  cpu time    0.0114: real time    0.0114


--------------------------------------- Iteration      1(   1)  ---------------------------------------


    POTLOK:  cpu time    0.3708: real time    0.3714
    SETDIJ:  cpu time    0.0267: real time    0.0267
     EDDAV:  cpu time   15.6748: real time   15.6780
       DOS:  cpu time    0.0018: real time    0.0018
    --------------------------------------------
      LOOP:  cpu time   16.0742: real time   16.0779

 eigenvalue-minimisations  :  1660
 total energy-change (2. order) : 0.1490543E+05  (-0.7425359E+05)
 number of electron    1144.0000000 magnetization 
 augmentation part     1144.0000000 magnetization 

 Free energy of the ion-electron system (eV)
  ---------------------------------------------------
  alpha Z        PSCENC =      2994.23548884
  Ewald energy   TEWEN  =    345885.48886668
  -Hartree energ DENC   =   -523404.46753068
  -exchange      EXHF   =         0.00000000
  -V(xc)+E(xc)   XCENC  =      5316.87465690
  PAW double counting   =    162831.54814933  -169926.62828172
  entropy T*S    EENTRO =        -0.39479156
  eigenvalues    EBANDS =     -5239.43757788
  atomic energy  EATOM  =    196448.20729987
  Solvation  Ediel_sol  =         0.00000000
  ---------------------------------------------------
  free energy    TOTEN  =     14905.42627977 eV

  energy without entropy =    14905.82107133  energy(sigma->0) =    14905.62367555


--------------------------------------------------------------------------------------------------------




--------------------------------------- Iteration      1(   2)  ---------------------------------------


     EDDAV:  cpu time   13.8681: real time   13.8705
       DOS:  cpu time    0.0015: real time    0.0015
    --------------------------------------------
      LOOP:  cpu time   13.8695: real time   13.8720

 eigenvalue-minimisations  :  1436
 total energy-change (2. order) :-0.1389501E+05  (-0.1342989E+05)
 number of electron    1144.0000000 magnetization 
 augmentation part     1144.0000000 magnetization 

 Free energy of the ion-electron system (eV)
  ---------------------------------------------------
  alpha Z        PSCENC =      2994.23548884
  Ewald energy   TEWEN  =    345885.48886668
  -Hartree energ DENC   =   -523404.46753068
  -exchange      EXHF   =         0.00000000
  -V(xc)+E(xc)   XCENC  =      5316.87465690
  PAW double counting   =    162831.54814933  -169926.62828172
  entropy T*S    EENTRO =        -0.92532753
  eigenvalues    EBANDS =    -19133.91930024
  atomic energy  EATOM  =    196448.20729987
  Solvation  Ediel_sol  =         0.00000000
  ---------------------------------------------------
  free energy    TOTEN  =      1010.41402144 eV

  energy without entropy =     1011.33934897  energy(sigma->0) =     1010.87668521


--------------------------------------------------------------------------------------------------------




--------------------------------------- Iteration      1(   3)  ---------------------------------------


     EDDAV:  cpu time   14.8600: real time   14.8630
       DOS:  cpu time    0.0016: real time    0.0016
    --------------------------------------------
      LOOP:  cpu time   14.8616: real time   14.8647

 eigenvalue-minimisations  :  1552
 total energy-change (2. order) :-0.1480624E+04  (-0.1396619E+04)
 number of electron    1144.0000000 magnetization 
 augmentation part     1144.0000000 magnetization 

 Free energy of the ion-electron system (eV)
  ---------------------------------------------------
  alpha Z        PSCENC =      2994.23548884
  Ewald energy   TEWEN  =    345885.48886668
  -Hartree energ DENC   =   -523404.46753068
  -exchange      EXHF   =         0.00000000
  -V(xc)+E(xc)   XCENC  =      5316.87465690
  PAW double counting   =    162831.54814933  -169926.62828172
  entropy T*S    EENTRO =        -1.34700010
  eigenvalues    EBANDS =    -20614.12212148
  atomic energy  EATOM  =    196448.20729987
  Solvation  Ediel_sol  =         0.00000000
  ---------------------------------------------------
  free energy    TOTEN  =      -470.21047237 eV

  energy without entropy =     -468.86347226  energy(sigma->0) =     -469.53697231


--------------------------------------------------------------------------------------------------------




--------------------------------------- Iteration      1(   4)  ---------------------------------------


     EDDAV:  cpu time   14.9608: real time   14.9637
       DOS:  cpu time    0.0015: real time    0.0015
    --------------------------------------------
      LOOP:  cpu time   14.9623: real time   14.9652

 eigenvalue-minimisations  :  1568
 total energy-change (2. order) :-0.9953039E+02  (-0.9800734E+02)
 number of electron    1144.0000000 magnetization 
 augmentation part     1144.0000000 magnetization 

 Free energy of the ion-electron system (eV)
  ---------------------------------------------------
  alpha Z        PSCENC =      2994.23548884
  Ewald energy   TEWEN  =    345885.48886668
  -Hartree energ DENC   =   -523404.46753068
  -exchange      EXHF   =         0.00000000
  -V(xc)+E(xc)   XCENC  =      5316.87465690
  PAW double counting   =    162831.54814933  -169926.62828172
  entropy T*S    EENTRO =        -1.41612624
  eigenvalues    EBANDS =    -20713.58338043
  atomic energy  EATOM  =    196448.20729987
  Solvation  Ediel_sol  =         0.00000000
  ---------------------------------------------------
  free energy    TOTEN  =      -569.74085747 eV

  energy without entropy =     -568.32473122  energy(sigma->0) =     -569.03279434


--------------------------------------------------------------------------------------------------------




--------------------------------------- Iteration      1(   5)  ---------------------------------------


     EDDAV:  cpu time   16.8239: real time   16.8270
       DOS:  cpu time    0.0016: real time    0.0016
    CHARGE:  cpu time    0.4332: real time    0.4332
    MIXING:  cpu time    0.0111: real time    0.0111
    --------------------------------------------
      LOOP:  cpu time   17.2698: real time   17.2729

 eigenvalue-minimisations  :  1824
 total energy-change (2. order) :-0.4294528E+01  (-0.4287033E+01)
 number of electron    1143.9998863 magnetization 
 augmentation part      414.6506803 magnetization 

 Broyden mixing:
  rms(total) = 0.11628E+02    rms(broyden)= 0.11616E+02
  rms(prec ) = 0.11959E+02
  weight for this iteration     100.00

 Free energy of the ion-electron system (eV)
  ---------------------------------------------------
  alpha Z        PSCENC =      2994.23548884
  Ewald energy   TEWEN  =    345885.48886668
  -Hartree energ DENC   =   -523404.46753068
  -exchange      EXHF   =         0.00000000
  -V(xc)+E(xc)   XCENC  =      5316.87465690
  PAW double counting   =    162831.54814933  -169926.62828172
  entropy T*S    EENTRO =        -1.39756055
  eigenvalues    EBANDS =    -20717.89647415
  atomic energy  EATOM  =    196448.20729987
  Solvation  Ediel_sol  =         0.00000000
  ---------------------------------------------------
  free energy    TOTEN  =      -574.03538548 eV

  energy without entropy =     -572.63782494  energy(sigma->0) =     -573.33660521


--------------------------------------------------------------------------------------------------------




--------------------------------------- Iteration      1(   6)  ---------------------------------------


    POTLOK:  cpu time    0.3581: real time    0.3587
    SETDIJ:  cpu time    0.0263: real time    0.0263
     EDDAV:  cpu time   16.3557: real time   16.3589
       DOS:  cpu time    0.0017: real time    0.0017
    CHARGE:  cpu time    0.4214: real time    0.4214
    MIXING:  cpu time    0.0122: real time    0.0122
    --------------------------------------------
      LOOP:  cpu time   17.1755: real time   17.1792

 eigenvalue-minimisations  :  1744
 total energy-change (2. order) :-0.1036097E+03  (-0.1298577E+03)
 number of electron    1143.9998640 magnetization 
 augmentation part      497.8486559 magnetization 

 Broyden mixing:
  rms(total) = 0.18941E+02    rms(broyden)= 0.18937E+02
  rms(prec ) = 0.19621E+02
  weight for this iteration     100.00

 eigenvalues of (default mixing * dielectric matrix)
  average eigenvalue GAMMA=   0.2462
  0.2462

 Free energy of the ion-electron system (eV)
  ---------------------------------------------------
  alpha Z        PSCENC =      2994.23548884
  Ewald energy   TEWEN  =    345885.48886668
  -Hartree energ DENC   =   -519480.30453754
  -exchange      EXHF   =         0.00000000
  -V(xc)+E(xc)   XCENC  =      5210.78228625
  PAW double counting   =    169810.66555512  -176575.42692726
  entropy T*S    EENTRO =        -1.01143131
  eigenvalues    EBANDS =    -24970.28172070
  atomic energy  EATOM  =    196448.20729987
  Solvation  Ediel_sol  =         0.00000000
  ---------------------------------------------------
  free energy    TOTEN  =      -677.64512005 eV

  energy without entropy =     -676.63368874  energy(sigma->0) =     -677.13940439


--------------------------------------------------------------------------------------------------------




--------------------------------------- Iteration      1(   7)  ---------------------------------------


    POTLOK:  cpu time    0.3564: real time    0.3564
    SETDIJ:  cpu time    0.0261: real time    0.0261
     EDDAV:  cpu time   14.9668: real time   14.9694
       DOS:  cpu time    0.0016: real time    0.0016
    CHARGE:  cpu time    0.4247: real time    0.4248
    MIXING:  cpu time    0.0123: real time    0.0123
    --------------------------------------------
      LOOP:  cpu time   15.7879: real time   15.7905

 eigenvalue-minimisations  :  1544
 total energy-change (2. order) : 0.1425026E+03  (-0.2715992E+02)
 number of electron    1143.9998693 magnetization 
 augmentation part      478.7057716 magnetization 

 Broyden mixing:
  rms(total) = 0.84262E+01    rms(broyden)= 0.84240E+01
  rms(prec ) = 0.87033E+01
  weight for this iteration     100.00

 eigenvalues of (default mixing * dielectric matrix)
  average eigenvalue GAMMA=   0.4821
  0.4821  0.4821

 Free energy of the ion-electron system (eV)
  ---------------------------------------------------
  alpha Z        PSCENC =      2994.23548884
  Ewald energy   TEWEN  =    345885.48886668
  -Hartree energ DENC   =   -521243.16587562
  -exchange      EXHF   =         0.00000000
  -V(xc)+E(xc)   XCENC  =      5246.53531261
  PAW double counting   =    175978.26020847  -182933.88096315
  entropy T*S    EENTRO =        -1.02049293
  eigenvalues    EBANDS =    -22909.80235136
  atomic energy  EATOM  =    196448.20729987
  Solvation  Ediel_sol  =         0.00000000
  ---------------------------------------------------
  free energy    TOTEN  =      -535.14250659 eV

  energy without entropy =     -534.12201366  energy(sigma->0) =     -534.63226013


--------------------------------------------------------------------------------------------------------




--------------------------------------- Iteration      1(   8)  ---------------------------------------


    POTLOK:  cpu time    0.3638: real time    0.3638
    SETDIJ:  cpu time    0.0260: real time    0.0260
     EDDAV:  cpu time   16.8509: real time   16.8540
       DOS:  cpu time    0.0016: real time    0.0016
    CHARGE:  cpu time    0.4264: real time    0.4265
    MIXING:  cpu time    0.0139: real time    0.0139
    --------------------------------------------
      LOOP:  cpu time   17.6826: real time   17.6858

 eigenvalue-minimisations  :  1816
 total energy-change (2. order) :-0.1090443E+03  (-0.3064303E+02)
 number of electron    1143.9998823 magnetization 
 augmentation part      440.8221373 magnetization 

 Broyden mixing:
  rms(total) = 0.17423E+02    rms(broyden)= 0.17420E+02
  rms(prec ) = 0.20165E+02
  weight for this iteration     100.00

 eigenvalues of (default mixing * dielectric matrix)
  average eigenvalue GAMMA=   0.4767
  0.8285  0.4371  0.1647

 Free energy of the ion-electron system (eV)
  ---------------------------------------------------
  alpha Z        PSCENC =      2994.23548884
  Ewald energy   TEWEN  =    345885.48886668
  -Hartree energ DENC   =   -522065.32653523
  -exchange      EXHF   =         0.00000000
  -V(xc)+E(xc)   XCENC  =      5285.15018371
  PAW double counting   =    185628.70295087  -192790.20390534
  entropy T*S    EENTRO =        -1.41421448
  eigenvalues    EBANDS =    -22029.02692519
  atomic energy  EATOM  =    196448.20729987
  Solvation  Ediel_sol  =         0.00000000
  ---------------------------------------------------
  free energy    TOTEN  =      -644.18679027 eV

  energy without entropy =     -642.77257579  energy(sigma->0) =     -643.47968303


--------------------------------------------------------------------------------------------------------




--------------------------------------- Iteration      1(   9)  ---------------------------------------


    POTLOK:  cpu time    0.3583: real time    0.3587
    SETDIJ:  cpu time    0.0262: real time    0.0262
     EDDAV:  cpu time   16.3746: real time   16.3777
       DOS:  cpu time    0.0016: real time    0.0016
    CHARGE:  cpu time    0.4306: real time    0.4308
    MIXING:  cpu time    0.0134: real time    0.0134
    --------------------------------------------
      LOOP:  cpu time   17.2046: real time   17.2084

 eigenvalue-minimisations  :  1768
 total energy-change (2. order) : 0.8315283E+02  (-0.2499319E+02)
 number of electron    1143.9998750 magnetization 
 augmentation part      437.2115904 magnetization 

 Broyden mixing:
  rms(total) = 0.10001E+02    rms(broyden)= 0.99921E+01
  rms(prec ) = 0.11639E+02
  weight for this iteration     100.00

 eigenvalues of (default mixing * dielectric matrix)
  average eigenvalue GAMMA=   0.5235
  1.2744  0.3495  0.3495  0.1206

 Free energy of the ion-electron system (eV)
  ---------------------------------------------------
  alpha Z        PSCENC =      2994.23548884
  Ewald energy   TEWEN  =    345885.48886668
  -Hartree energ DENC   =   -522618.55771517
  -exchange      EXHF   =         0.00000000
  -V(xc)+E(xc)   XCENC  =      5284.95617168
  PAW double counting   =    190784.33410154  -197983.32594941
  entropy T*S    EENTRO =        -1.63350186
  eigenvalues    EBANDS =    -21354.73872342
  atomic energy  EATOM  =    196448.20729987
  Solvation  Ediel_sol  =         0.00000000
  ---------------------------------------------------
  free energy    TOTEN  =      -561.03396125 eV

  energy without entropy =     -559.40045939  energy(sigma->0) =     -560.21721032


--------------------------------------------------------------------------------------------------------




--------------------------------------- Iteration      1(  10)  ---------------------------------------


    POTLOK:  cpu time    0.4529: real time    0.4531
    SETDIJ:  cpu time    0.0539: real time    0.0539
     EDDAV:  cpu time   18.2322: real time   18.2352
       DOS:  cpu time    0.0018: real time    0.0018
    CHARGE:  cpu time    0.4314: real time    0.4314
    MIXING:  cpu time    0.0142: real time    0.0142
    --------------------------------------------
      LOOP:  cpu time   19.1864: real time   19.1896

 eigenvalue-minimisations  :  2016
 total energy-change (2. order) :-0.4245457E+02  (-0.1990748E+02)
 number of electron    1143.9999067 magnetization 
 augmentation part      436.4399392 magnetization 

 Broyden mixing:
  rms(total) = 0.11711E+02    rms(broyden)= 0.11706E+02
  rms(prec ) = 0.13826E+02
  weight for this iteration     100.00

 eigenvalues of (default mixing * dielectric matrix)
  average eigenvalue GAMMA=   0.5699
  1.8251  0.3891  0.3891  0.1232  0.1232

 Free energy of the ion-electron system (eV)
  ---------------------------------------------------
  alpha Z        PSCENC =      2994.23548884
  Ewald energy   TEWEN  =    345885.48886668
  -Hartree energ DENC   =   -522656.98151484
  -exchange      EXHF   =         0.00000000
  -V(xc)+E(xc)   XCENC  =      5279.25554216
  PAW double counting   =    195582.23857638  -202799.84926639
  entropy T*S    EENTRO =        -1.61592429
  eigenvalues    EBANDS =    -21334.46759991
  atomic energy  EATOM  =    196448.20729987
  Solvation  Ediel_sol  =         0.00000000
  ---------------------------------------------------
  free energy    TOTEN  =      -603.48853149 eV

  energy without entropy =     -601.87260720  energy(sigma->0) =     -602.68056934


--------------------------------------------------------------------------------------------------------




--------------------------------------- Iteration      1(  11)  ---------------------------------------


    POTLOK:  cpu time    0.3565: real time    0.3565
    SETDIJ:  cpu time    0.0260: real time    0.0260
     EDDAV:  cpu time   17.8762: real time   17.8795
       DOS:  cpu time    0.0016: real time    0.0016
    CHARGE:  cpu time    0.4307: real time    0.4307
    MIXING:  cpu time    0.0146: real time    0.0146
    --------------------------------------------
      LOOP:  cpu time   18.7055: real time   18.7089

 eigenvalue-minimisations  :  1968
 total energy-change (2. order) : 0.2567639E+01  (-0.1433251E+02)
 number of electron    1143.9998423 magnetization 
 augmentation part      437.3403486 magnetization 

 Broyden mixing:
  rms(total) = 0.14493E+02    rms(broyden)= 0.14489E+02
  rms(prec ) = 0.16943E+02
  weight for this iteration     100.00

 eigenvalues of (default mixing * dielectric matrix)
  average eigenvalue GAMMA=   0.5828
  2.3113  0.4058  0.4058  0.1425  0.1425  0.0889

 Free energy of the ion-electron system (eV)
  ---------------------------------------------------
  alpha Z        PSCENC =      2994.23548884
  Ewald energy   TEWEN  =    345885.48886668
  -Hartree energ DENC   =   -522396.16036000
  -exchange      EXHF   =         0.00000000
  -V(xc)+E(xc)   XCENC  =      5274.28879311
  PAW double counting   =    201705.26679099  -208957.20225738
  entropy T*S    EENTRO =        -1.65546250
  eigenvalues    EBANDS =    -21553.39005181
  atomic energy  EATOM  =    196448.20729987
  Solvation  Ediel_sol  =         0.00000000
  ---------------------------------------------------
  free energy    TOTEN  =      -600.92089220 eV

  energy without entropy =     -599.26542970  energy(sigma->0) =     -600.09316095


--------------------------------------------------------------------------------------------------------




--------------------------------------- Iteration      1(  12)  ---------------------------------------


    POTLOK:  cpu time    0.3568: real time    0.3569
    SETDIJ:  cpu time    0.0260: real time    0.0260
     EDDAV:  cpu time   17.5290: real time   17.5318
       DOS:  cpu time    0.0015: real time    0.0016
    CHARGE:  cpu time    0.4209: real time    0.4209
    MIXING:  cpu time    0.0161: real time    0.0161
    --------------------------------------------
      LOOP:  cpu time   18.3504: real time   18.3533

 eigenvalue-minimisations  :  1880
 total energy-change (2. order) : 0.4735985E+02  (-0.8465582E+01)
 number of electron    1143.9998782 magnetization 
 augmentation part      450.8340112 magnetization 

 Broyden mixing:
  rms(total) = 0.75747E+01    rms(broyden)= 0.75716E+01
  rms(prec ) = 0.85692E+01
  weight for this iteration     100.00

 eigenvalues of (default mixing * dielectric matrix)
  average eigenvalue GAMMA=   0.5571
  2.4668  0.4166  0.4166  0.1957  0.1957  0.1291  0.0794

 Free energy of the ion-electron system (eV)
  ---------------------------------------------------
  alpha Z        PSCENC =      2994.23548884
  Ewald energy   TEWEN  =    345885.48886668
  -Hartree energ DENC   =   -522139.24392105
  -exchange      EXHF   =         0.00000000
  -V(xc)+E(xc)   XCENC  =      5268.08703021
  PAW double counting   =    207119.13891545  -214392.49136326
  entropy T*S    EENTRO =        -1.39998902
  eigenvalues    EBANDS =    -21735.58337328
  atomic energy  EATOM  =    196448.20729987
  Solvation  Ediel_sol  =         0.00000000
  ---------------------------------------------------
  free energy    TOTEN  =      -553.56104556 eV

  energy without entropy =     -552.16105653  energy(sigma->0) =     -552.86105105


--------------------------------------------------------------------------------------------------------




--------------------------------------- Iteration      1(  13)  ---------------------------------------


    POTLOK:  cpu time    0.3578: real time    0.3581
    SETDIJ:  cpu time    0.0260: real time    0.0260
     EDDAV:  cpu time   17.0839: real time   17.0872
       DOS:  cpu time    0.0018: real time    0.0018
    CHARGE:  cpu time    0.4237: real time    0.4237
    MIXING:  cpu time    0.0159: real time    0.0159
    --------------------------------------------
      LOOP:  cpu time   17.9092: real time   17.9128

 eigenvalue-minimisations  :  1848
 total energy-change (2. order) : 0.1831729E+02  (-0.5804030E+01)
 number of electron    1143.9998871 magnetization 
 augmentation part      453.8321635 magnetization 

 Broyden mixing:
  rms(total) = 0.57933E+01    rms(broyden)= 0.57889E+01
  rms(prec ) = 0.65341E+01
  weight for this iteration     100.00

 eigenvalues of (default mixing * dielectric matrix)
  average eigenvalue GAMMA=   0.5280
  2.3401  0.5318  0.3944  0.3944  0.2090  0.1353  0.1353  0.0839

 Free energy of the ion-electron system (eV)
  ---------------------------------------------------
  alpha Z        PSCENC =      2994.23548884
  Ewald energy   TEWEN  =    345885.48886668
  -Hartree energ DENC   =   -522096.02875665
  -exchange      EXHF   =         0.00000000
  -V(xc)+E(xc)   XCENC  =      5267.69383619
  PAW double counting   =    208796.08922629  -216082.82814357
  entropy T*S    EENTRO =        -1.14787550
  eigenvalues    EBANDS =    -21746.95369958
  atomic energy  EATOM  =    196448.20729987
  Solvation  Ediel_sol  =         0.00000000
  ---------------------------------------------------
  free energy    TOTEN  =      -535.24375744 eV

  energy without entropy =     -534.09588194  energy(sigma->0) =     -534.66981969


--------------------------------------------------------------------------------------------------------




--------------------------------------- Iteration      1(  14)  ---------------------------------------


    POTLOK:  cpu time    0.3588: real time    0.3587
    SETDIJ:  cpu time    0.0262: real time    0.0262
     EDDAV:  cpu time   17.0370: real time   17.0405
       DOS:  cpu time    0.0015: real time    0.0015
    CHARGE:  cpu time    0.4211: real time    0.4212
    MIXING:  cpu time    0.0161: real time    0.0161
    --------------------------------------------
      LOOP:  cpu time   17.8607: real time   17.8643

 eigenvalue-minimisations  :  1848
 total energy-change (2. order) : 0.1145257E+02  (-0.3648355E+01)
 number of electron    1143.9998835 magnetization 
 augmentation part      452.7533557 magnetization 

 Broyden mixing:
  rms(total) = 0.50907E+01    rms(broyden)= 0.50884E+01
  rms(prec ) = 0.58598E+01
  weight for this iteration     100.00

 eigenvalues of (default mixing * dielectric matrix)
  average eigenvalue GAMMA=   0.5013
  2.2611  0.5595  0.4176  0.4176  0.3450  0.1508  0.1508  0.1266  0.0827

 Free energy of the ion-electron system (eV)
  ---------------------------------------------------
  alpha Z        PSCENC =      2994.23548884
  Ewald energy   TEWEN  =    345885.48886668
  -Hartree energ DENC   =   -522170.76372300
  -exchange      EXHF   =         0.00000000
  -V(xc)+E(xc)   XCENC  =      5269.57216036
  PAW double counting   =    207455.82350611  -214733.83679785
  entropy T*S    EENTRO =        -1.21000550
  eigenvalues    EBANDS =    -21671.30798325
  atomic energy  EATOM  =    196448.20729987
  Solvation  Ediel_sol  =         0.00000000
  ---------------------------------------------------
  free energy    TOTEN  =      -523.79118774 eV

  energy without entropy =     -522.58118224  energy(sigma->0) =     -523.18618499


--------------------------------------------------------------------------------------------------------




--------------------------------------- Iteration      1(  15)  ---------------------------------------


    POTLOK:  cpu time    0.3617: real time    0.3617
    SETDIJ:  cpu time    0.0262: real time    0.0262
     EDDAV:  cpu time   17.3461: real time   17.3498
       DOS:  cpu time    0.0015: real time    0.0015
    CHARGE:  cpu time    0.5677: real time    0.5677
    MIXING:  cpu time    0.0184: real time    0.0184
    --------------------------------------------
      LOOP:  cpu time   18.3216: real time   18.3253

 eigenvalue-minimisations  :  1880
 total energy-change (2. order) : 0.8001075E+01  (-0.2249607E+01)
 number of electron    1143.9998819 magnetization 
 augmentation part      453.2630116 magnetization 

 Broyden mixing:
  rms(total) = 0.36978E+01    rms(broyden)= 0.36952E+01
  rms(prec ) = 0.42170E+01
  weight for this iteration     100.00

 eigenvalues of (default mixing * dielectric matrix)
  average eigenvalue GAMMA=   0.4733
  2.1896  0.4987  0.4987  0.4334  0.4334  0.1669  0.1669  0.0833  0.1313  0.1313

 Free energy of the ion-electron system (eV)
  ---------------------------------------------------
  alpha Z        PSCENC =      2994.23548884
  Ewald energy   TEWEN  =    345885.48886668
  -Hartree energ DENC   =   -522161.42337881
  -exchange      EXHF   =         0.00000000
  -V(xc)+E(xc)   XCENC  =      5270.58715378
  PAW double counting   =    206695.96011459  -213968.13904185
  entropy T*S    EENTRO =        -1.14446378
  eigenvalues    EBANDS =    -21679.56215257
  atomic energy  EATOM  =    196448.20729987
  Solvation  Ediel_sol  =         0.00000000
  ---------------------------------------------------
  free energy    TOTEN  =      -515.79011324 eV

  energy without entropy =     -514.64564946  energy(sigma->0) =     -515.21788135


--------------------------------------------------------------------------------------------------------




--------------------------------------- Iteration      1(  16)  ---------------------------------------


    POTLOK:  cpu time    0.3583: real time    0.3584
    SETDIJ:  cpu time    0.0260: real time    0.0260
     EDDAV:  cpu time   17.4196: real time   17.4227
       DOS:  cpu time    0.0016: real time    0.0016
    CHARGE:  cpu time    0.4476: real time    0.4476
    MIXING:  cpu time    0.0172: real time    0.0172
    --------------------------------------------
      LOOP:  cpu time   18.2702: real time   18.2736

 eigenvalue-minimisations  :  1904
 total energy-change (2. order) : 0.4054533E+01  (-0.7599551E+00)
 number of electron    1143.9998799 magnetization 
 augmentation part      452.2664126 magnetization 

 Broyden mixing:
  rms(total) = 0.26594E+01    rms(broyden)= 0.26585E+01
  rms(prec ) = 0.29721E+01
  weight for this iteration     100.00

 eigenvalues of (default mixing * dielectric matrix)
  average eigenvalue GAMMA=   0.4650
  2.1566  0.6189  0.6189  0.4043  0.4043  0.2099  0.2099  0.1432  0.1432  0.0831
  0.1227

 Free energy of the ion-electron system (eV)
  ---------------------------------------------------
  alpha Z        PSCENC =      2994.23548884
  Ewald energy   TEWEN  =    345885.48886668
  -Hartree energ DENC   =   -522193.20347375
  -exchange      EXHF   =         0.00000000
  -V(xc)+E(xc)   XCENC  =      5271.66445974
  PAW double counting   =    205982.39046836  -213250.15128731
  entropy T*S    EENTRO =        -1.19078409
  eigenvalues    EBANDS =    -21649.17661854
  atomic energy  EATOM  =    196448.20729987
  Solvation  Ediel_sol  =         0.00000000
  ---------------------------------------------------
  free energy    TOTEN  =      -511.73558019 eV

  energy without entropy =     -510.54479611  energy(sigma->0) =     -511.14018815


--------------------------------------------------------------------------------------------------------




--------------------------------------- Iteration      1(  17)  ---------------------------------------


    POTLOK:  cpu time    0.3608: real time    0.3608
    SETDIJ:  cpu time    0.0265: real time    0.0265
     EDDAV:  cpu time   17.0033: real time   17.0070
       DOS:  cpu time    0.0018: real time    0.0018
    CHARGE:  cpu time    0.4205: real time    0.4206
    MIXING:  cpu time    0.0191: real time    0.0191
    --------------------------------------------
      LOOP:  cpu time   17.8321: real time   17.8358

 eigenvalue-minimisations  :  1848
 total energy-change (2. order) : 0.1243979E+01  (-0.2638875E+00)
 number of electron    1143.9998804 magnetization 
 augmentation part      451.8758310 magnetization 

 Broyden mixing:
  rms(total) = 0.24152E+01    rms(broyden)= 0.24149E+01
  rms(prec ) = 0.27378E+01
  weight for this iteration     100.00

 eigenvalues of (default mixing * dielectric matrix)
  average eigenvalue GAMMA=   0.4610
  2.1416  0.6893  0.6893  0.3919  0.3919  0.2945  0.2945  0.1509  0.1509  0.0831
  0.1270  0.1270

 Free energy of the ion-electron system (eV)
  ---------------------------------------------------
  alpha Z        PSCENC =      2994.23548884
  Ewald energy   TEWEN  =    345885.48886668
  -Hartree energ DENC   =   -522211.16390714
  -exchange      EXHF   =         0.00000000
  -V(xc)+E(xc)   XCENC  =      5272.01860588
  PAW double counting   =    205413.60408577  -212675.79368173
  entropy T*S    EENTRO =        -1.19561068
  eigenvalues    EBANDS =    -21635.89274909
  atomic energy  EATOM  =    196448.20729987
  Solvation  Ediel_sol  =         0.00000000
  ---------------------------------------------------
  free energy    TOTEN  =      -510.49160160 eV

  energy without entropy =     -509.29599092  energy(sigma->0) =     -509.89379626


--------------------------------------------------------------------------------------------------------




--------------------------------------- Iteration      1(  18)  ---------------------------------------


    POTLOK:  cpu time    0.3576: real time    0.3579
    SETDIJ:  cpu time    0.0260: real time    0.0260
     EDDAV:  cpu time   17.1776: real time   17.1803
       DOS:  cpu time    0.0017: real time    0.0017
    CHARGE:  cpu time    0.6596: real time    0.6596
    MIXING:  cpu time    0.0203: real time    0.0203
    --------------------------------------------
      LOOP:  cpu time   18.2428: real time   18.2458

 eigenvalue-minimisations  :  1864
 total energy-change (2. order) : 0.5994405E+00  (-0.9990840E-01)
 number of electron    1143.9998793 magnetization 
 augmentation part      451.5774017 magnetization 

 Broyden mixing:
  rms(total) = 0.23010E+01    rms(broyden)= 0.23009E+01
  rms(prec ) = 0.26042E+01
  weight for this iteration     100.00

 eigenvalues of (default mixing * dielectric matrix)
  average eigenvalue GAMMA=   0.4975
  2.1303  0.9538  0.9538  0.4528  0.4164  0.4164  0.3302  0.0831  0.1579  0.1579
  0.1460  0.1460  0.1237

 Free energy of the ion-electron system (eV)
  ---------------------------------------------------
  alpha Z        PSCENC =      2994.23548884
  Ewald energy   TEWEN  =    345885.48886668
  -Hartree energ DENC   =   -522224.02862593
  -exchange      EXHF   =         0.00000000
  -V(xc)+E(xc)   XCENC  =      5272.21236118
  PAW double counting   =    204963.50988235  -212221.04792056
  entropy T*S    EENTRO =        -1.17778426
  eigenvalues    EBANDS =    -21627.29172932
  atomic energy  EATOM  =    196448.20729987
  Solvation  Ediel_sol  =         0.00000000
  ---------------------------------------------------
  free energy    TOTEN  =      -509.89216114 eV

  energy without entropy =     -508.71437688  energy(sigma->0) =     -509.30326901


--------------------------------------------------------------------------------------------------------




--------------------------------------- Iteration      1(  19)  ---------------------------------------


    POTLOK:  cpu time    0.3589: real time    0.3592
    SETDIJ:  cpu time    0.0260: real time    0.0260
     EDDAV:  cpu time   17.2759: real time   17.2797
       DOS:  cpu time    0.0017: real time    0.0017
    CHARGE:  cpu time    0.4253: real time    0.4253
    MIXING:  cpu time    0.0216: real time    0.0216
    --------------------------------------------
      LOOP:  cpu time   18.1095: real time   18.1135

 eigenvalue-minimisations  :  1888
 total energy-change (2. order) : 0.9187517E+00  (-0.9669072E-01)
 number of electron    1143.9998791 magnetization 
 augmentation part      451.4885997 magnetization 

 Broyden mixing:
  rms(total) = 0.20546E+01    rms(broyden)= 0.20544E+01
  rms(prec ) = 0.23416E+01
  weight for this iteration     100.00

 eigenvalues of (default mixing * dielectric matrix)
  average eigenvalue GAMMA=   0.5114
  2.1168  1.1545  1.1545  0.4274  0.4274  0.4314  0.4314  0.1904  0.1904  0.0831
  0.1476  0.1476  0.1255  0.1311

 Free energy of the ion-electron system (eV)
  ---------------------------------------------------
  alpha Z        PSCENC =      2994.23548884
  Ewald energy   TEWEN  =    345885.48886668
  -Hartree energ DENC   =   -522239.65204726
  -exchange      EXHF   =         0.00000000
  -V(xc)+E(xc)   XCENC  =      5272.42715739
  PAW double counting   =    204060.29065134  -211307.67546036
  entropy T*S    EENTRO =        -1.19263510
  eigenvalues    EBANDS =    -21621.10273085
  atomic energy  EATOM  =    196448.20729987
  Solvation  Ediel_sol  =         0.00000000
  ---------------------------------------------------
  free energy    TOTEN  =      -508.97340944 eV

  energy without entropy =     -507.78077434  energy(sigma->0) =     -508.37709189


--------------------------------------------------------------------------------------------------------




--------------------------------------- Iteration      1(  20)  ---------------------------------------


    POTLOK:  cpu time    0.3598: real time    0.3598
    SETDIJ:  cpu time    0.0260: real time    0.0260
     EDDAV:  cpu time   17.3703: real time   17.3734
       DOS:  cpu time    0.0016: real time    0.0016
    CHARGE:  cpu time    0.4216: real time    0.4216
    MIXING:  cpu time    0.0211: real time    0.0211
    --------------------------------------------
      LOOP:  cpu time   18.2004: real time   18.2035

 eigenvalue-minimisations  :  1896
 total energy-change (2. order) : 0.9491931E+00  (-0.6591364E-01)
 number of electron    1143.9998789 magnetization 
 augmentation part      451.2556025 magnetization 

 Broyden mixing:
  rms(total) = 0.17163E+01    rms(broyden)= 0.17161E+01
  rms(prec ) = 0.19534E+01
  weight for this iteration     100.00

 eigenvalues of (default mixing * dielectric matrix)
  average eigenvalue GAMMA=   0.5313
  2.1017  1.3676  1.3676  0.5046  0.5046  0.4292  0.4292  0.2340  0.2340  0.0831
  0.1517  0.1517  0.1431  0.1431  0.1240

 Free energy of the ion-electron system (eV)
  ---------------------------------------------------
  alpha Z        PSCENC =      2994.23548884
  Ewald energy   TEWEN  =    345885.48886668
  -Hartree energ DENC   =   -522259.27461652
  -exchange      EXHF   =         0.00000000
  -V(xc)+E(xc)   XCENC  =      5272.71391465
  PAW double counting   =    203315.90722289  -210554.66715279
  entropy T*S    EENTRO =        -1.19187762
  eigenvalues    EBANDS =    -21609.44336230
  atomic energy  EATOM  =    196448.20729987
  Solvation  Ediel_sol  =         0.00000000
  ---------------------------------------------------
  free energy    TOTEN  =      -508.02421629 eV

  energy without entropy =     -506.83233868  energy(sigma->0) =     -507.42827749


--------------------------------------------------------------------------------------------------------




--------------------------------------- Iteration      1(  21)  ---------------------------------------


    POTLOK:  cpu time    0.3588: real time    0.3588
    SETDIJ:  cpu time    0.0261: real time    0.0261
     EDDAV:  cpu time   17.4886: real time   17.4916
       DOS:  cpu time    0.0015: real time    0.0015
    CHARGE:  cpu time    0.4172: real time    0.4174
    MIXING:  cpu time    0.0216: real time    0.0216
    --------------------------------------------
      LOOP:  cpu time   18.3139: real time   18.3171

 eigenvalue-minimisations  :  1904
 total energy-change (2. order) : 0.8487567E+00  (-0.6061368E-01)
 number of electron    1143.9998782 magnetization 
 augmentation part      450.9521479 magnetization 

 Broyden mixing:
  rms(total) = 0.13821E+01    rms(broyden)= 0.13818E+01
  rms(prec ) = 0.15563E+01
  weight for this iteration     100.00

 eigenvalues of (default mixing * dielectric matrix)
  average eigenvalue GAMMA=   0.5568
  2.0811  1.5982  1.5982  0.6405  0.6405  0.4128  0.4128  0.2848  0.2766  0.0831
  0.1508  0.1508  0.1596  0.1596  0.1244  0.1355

 Free energy of the ion-electron system (eV)
  ---------------------------------------------------
  alpha Z        PSCENC =      2994.23548884
  Ewald energy   TEWEN  =    345885.48886668
  -Hartree energ DENC   =   -522285.04391055
  -exchange      EXHF   =         0.00000000
  -V(xc)+E(xc)   XCENC  =      5273.03634408
  PAW double counting   =    202509.91934261  -209738.85477866
  entropy T*S    EENTRO =        -1.16595960
  eigenvalues    EBANDS =    -21592.99815283
  atomic energy  EATOM  =    196448.20729987
  Solvation  Ediel_sol  =         0.00000000
  ---------------------------------------------------
  free energy    TOTEN  =      -507.17545955 eV

  energy without entropy =     -506.00949995  energy(sigma->0) =     -506.59247975


--------------------------------------------------------------------------------------------------------




--------------------------------------- Iteration      1(  22)  ---------------------------------------


    POTLOK:  cpu time    0.3646: real time    0.3646
    SETDIJ:  cpu time    0.0259: real time    0.0259
     EDDAV:  cpu time   17.7796: real time   17.7879
       DOS:  cpu time    0.0019: real time    0.0019
    CHARGE:  cpu time    0.4213: real time    0.4243
    MIXING:  cpu time    0.0225: real time    0.0225
    --------------------------------------------
      LOOP:  cpu time   18.6158: real time   18.6271

 eigenvalue-minimisations  :  1968
 total energy-change (2. order) : 0.8462962E+00  (-0.6162747E-01)
 number of electron    1143.9998778 magnetization 
 augmentation part      450.6088606 magnetization 

 Broyden mixing:
  rms(total) = 0.94134E+00    rms(broyden)= 0.94101E+00
  rms(prec ) = 0.10549E+01
  weight for this iteration     100.00

 eigenvalues of (default mixing * dielectric matrix)
  average eigenvalue GAMMA=   0.5679
  2.0728  1.7190  1.7190  0.7187  0.7187  0.4157  0.4157  0.4158  0.2928  0.0831
  0.1877  0.1877  0.1502  0.1502  0.1242  0.1416  0.1416

 Free energy of the ion-electron system (eV)
  ---------------------------------------------------
  alpha Z        PSCENC =      2994.23548884
  Ewald energy   TEWEN  =    345885.48886668
  -Hartree energ DENC   =   -522320.23827775
  -exchange      EXHF   =         0.00000000
  -V(xc)+E(xc)   XCENC  =      5273.37808019
  PAW double counting   =    201513.61341966  -208729.69036964
  entropy T*S    EENTRO =        -1.17718224
  eigenvalues    EBANDS =    -21570.14648900
  atomic energy  EATOM  =    196448.20729987
  Solvation  Ediel_sol  =         0.00000000
  ---------------------------------------------------
  free energy    TOTEN  =      -506.32916339 eV

  energy without entropy =     -505.15198115  energy(sigma->0) =     -505.74057227


--------------------------------------------------------------------------------------------------------




--------------------------------------- Iteration      1(  23)  ---------------------------------------


    POTLOK:  cpu time    0.3644: real time    0.3644
    SETDIJ:  cpu time    0.0287: real time    0.0287
     EDDAV:  cpu time   17.1792: real time   17.1852
       DOS:  cpu time    0.0017: real time    0.0017
    CHARGE:  cpu time    0.4386: real time    0.4387
    MIXING:  cpu time    0.0271: real time    0.0271
    --------------------------------------------
      LOOP:  cpu time   18.0397: real time   18.0458

 eigenvalue-minimisations  :  1888
[...]
   0.380E+03 0.139E+03 -.558E+04   -.379E+03 -.138E+03 0.558E+04   -.166E+01 -.138E+01 -.120E+01   0.179E-02 0.635E-02 -.135E-02
   -.921E+03 -.422E+03 0.357E+04   0.922E+03 0.424E+03 -.357E+04   -.203E+01 -.253E+01 -.138E+01   0.800E-02 0.709E-02 0.236E-01
   0.372E+03 0.436E+03 0.618E+04   -.374E+03 -.434E+03 -.618E+04   0.307E+01 -.163E+01 -.833E-01   0.133E-02 -.253E-02 -.651E-02
   0.248E+03 -.338E+03 -.825E+03   -.248E+03 0.339E+03 0.824E+03   0.514E+00 -.708E+00 0.743E+00   0.397E-02 -.196E-02 0.319E-01
   0.260E+03 -.279E+03 -.416E+04   -.259E+03 0.282E+03 0.416E+04   -.476E+00 -.163E+01 0.108E+01   0.374E-02 0.443E-02 0.258E-02
   -.389E+03 -.388E+03 0.472E+04   0.392E+03 0.387E+03 -.473E+04   -.178E+01 0.108E+01 0.357E+01   0.948E-02 0.272E-02 0.506E-02
   -.111E+03 -.309E+03 0.190E+04   0.113E+03 0.309E+03 -.189E+04   -.135E+01 -.880E-01 -.360E+01   0.948E-02 0.400E-04 0.333E-01
   -.406E+03 0.146E+03 -.573E+04   0.403E+03 -.143E+03 0.573E+04   0.161E+01 -.179E+01 -.197E+01   -.356E-02 0.815E-03 0.776E-03
   0.105E+04 -.786E+02 0.598E+04   -.106E+04 0.778E+02 -.598E+04   0.356E+01 0.180E+01 0.509E+01   -.526E-02 0.128E-02 -.447E-02
   0.209E+03 0.800E+03 0.370E+04   -.210E+03 -.803E+03 -.370E+04   0.926E+00 0.181E+01 0.273E+00   0.861E-03 -.146E-01 0.319E-01
   0.225E+03 0.491E+03 0.294E+03   -.226E+03 -.491E+03 -.295E+03   0.894E+00 0.511E+00 0.122E+01   0.470E-02 0.142E-02 0.333E-01
   0.450E+03 0.524E+03 -.316E+04   -.454E+03 -.528E+03 0.316E+04   0.351E+01 0.314E+01 -.279E+00   0.103E-02 0.529E-02 0.930E-02
   -.607E+03 -.614E+02 0.239E+03   0.609E+03 0.629E+02 -.239E+03   -.118E+01 -.132E+01 0.192E+00   0.743E-02 0.750E-02 0.317E-01
   -.790E+03 0.730E+02 -.303E+04   0.793E+03 -.696E+02 0.303E+04   -.304E+01 -.221E+01 -.468E+00   0.180E-02 0.685E-02 0.161E-01
   -.286E+03 0.520E+03 0.300E+04   0.288E+03 -.523E+03 -.300E+04   -.140E+01 0.204E+01 -.309E+01   0.584E-02 -.798E-02 0.362E-01
   -.560E+03 -.514E+03 0.626E+04   0.561E+03 0.517E+03 -.627E+04   -.827E+00 -.248E+01 0.491E+01   0.742E-02 -.119E-02 -.106E-01
   -.723E+02 0.920E+02 -.282E+03   0.736E+02 -.939E+02 0.280E+03   -.118E+01 0.178E+01 0.132E+01   -.355E-02 -.555E-04 0.112E-01
   -.264E+02 0.964E+01 -.128E+04   0.275E+02 -.114E+02 0.128E+04   -.328E+00 0.378E+00 0.975E+00   -.241E-02 -.125E-02 0.814E-02
   0.281E+03 0.264E+03 0.232E+04   -.283E+03 -.267E+03 -.233E+04   0.123E+01 0.141E+01 0.193E+01   -.523E-02 -.308E-02 0.323E-02
   -.862E+01 0.134E+03 0.988E+03   0.995E+01 -.135E+03 -.990E+03   -.108E+01 0.164E+01 0.116E+01   -.519E-02 0.196E-02 0.168E-01
   0.201E+03 -.113E+03 -.232E+04   -.205E+03 0.114E+03 0.233E+04   0.317E+01 0.713E-01 -.406E+01   -.258E-03 0.621E-03 -.200E-02
   -.480E+02 -.435E+03 -.210E+04   0.511E+02 0.439E+03 0.211E+04   -.189E+01 -.141E+01 -.115E+01   0.179E-02 -.492E-02 0.233E-02
   -.722E+02 -.131E+03 -.696E+03   0.731E+02 0.134E+03 0.695E+03   -.994E+00 -.249E+01 -.895E+00   0.599E-03 -.346E-02 0.681E-02
   -.398E+03 -.350E+03 0.183E+04   0.401E+03 0.352E+03 -.183E+04   -.156E+01 -.102E+01 0.245E+01   0.345E-02 0.302E-02 0.294E-02
   -.122E+03 -.193E+03 0.420E+03   0.123E+03 0.195E+03 -.421E+03   -.106E+01 -.259E+01 0.725E+00   0.520E-02 0.338E-02 0.157E-01
   0.539E+02 -.138E+03 0.182E+04   -.550E+02 0.140E+03 -.182E+04   -.724E-01 -.118E+01 0.368E+01   0.181E-02 0.937E-03 0.108E-01
   0.150E+03 -.224E+02 0.455E+03   -.153E+03 0.221E+02 -.454E+03   0.260E+01 0.595E-01 -.803E-01   0.204E-02 0.382E-03 0.981E-02
   0.199E+03 -.284E+02 -.723E+03   -.202E+03 0.287E+02 0.723E+03   0.271E+01 -.606E+00 -.752E+00   0.157E-02 -.244E-02 0.510E-02
   0.208E+03 -.670E+02 -.199E+04   -.211E+03 0.661E+02 0.199E+04   0.155E+01 -.542E+00 -.238E+01   -.317E-02 -.356E-02 -.977E-03
   -.780E+02 0.122E+03 -.238E+03   0.793E+02 -.123E+03 0.235E+03   -.146E+01 0.159E+01 0.178E+01   0.156E-03 -.220E-03 0.101E-01
   -.304E+03 0.135E+03 -.141E+04   0.307E+03 -.134E+03 0.140E+04   -.125E+01 -.103E+01 0.370E+01   0.699E-03 0.356E-03 0.159E-02
   -.453E+03 -.125E+03 0.234E+04   0.457E+03 0.125E+03 -.234E+04   -.288E+01 0.701E+00 0.311E+01   0.389E-03 0.469E-02 -.348E-02
   -.126E+03 0.106E+02 0.670E+03   0.127E+03 -.116E+02 -.668E+03   -.112E+01 0.112E+01 -.261E+00   0.321E-03 0.376E-02 0.174E-01
   -.208E+03 -.196E+01 -.231E+04   0.210E+03 0.178E+01 0.231E+04   -.117E+01 0.428E+00 -.359E+01   -.166E-02 -.512E-03 -.117E-02
   -.263E+03 0.614E+01 -.188E+04   0.265E+03 -.649E+01 0.188E+04   -.119E+01 -.172E+00 0.763E+00   0.123E-02 -.494E-03 -.128E-02
   -.912E+02 -.187E+03 -.817E+03   0.919E+02 0.190E+03 0.817E+03   -.532E+00 -.267E+01 -.675E+00   0.115E-02 0.125E-02 0.502E-02
   0.249E+03 -.174E+03 0.142E+04   -.249E+03 0.177E+03 -.142E+04   0.164E+00 -.165E+01 -.193E+01   0.300E-03 0.356E-02 0.469E-02
   -.303E+02 -.124E+03 0.348E+03   0.315E+02 0.127E+03 -.348E+03   -.105E+01 -.265E+01 0.617E+00   0.135E-02 -.661E-04 0.207E-01
   0.228E+03 0.194E+03 0.160E+04   -.232E+03 -.196E+03 -.160E+04   0.120E+01 0.341E-01 -.130E+01   0.221E-02 -.181E-02 0.162E-02
   0.187E+03 0.805E+01 0.353E+03   -.190E+03 -.786E+01 -.353E+03   0.300E+01 -.137E+00 0.231E+00   -.379E-04 -.433E-02 0.191E-01
   0.155E+03 0.160E+02 -.785E+03   -.157E+03 -.156E+02 0.785E+03   0.233E+01 -.541E+00 -.277E+00   -.510E-03 -.465E-02 0.529E-02
   0.341E+03 -.111E+03 -.211E+04   -.345E+03 0.109E+03 0.212E+04   0.126E+01 0.208E+01 -.105E+01   0.247E-02 -.627E-02 -.126E-02
   -.255E+02 0.121E+03 -.249E+03   0.264E+02 -.123E+03 0.246E+03   -.917E+00 0.188E+01 0.135E+01   -.383E-02 0.231E-02 0.786E-02
   0.156E+03 0.191E+03 -.133E+04   -.156E+03 -.193E+03 0.133E+04   0.336E+00 0.872E+00 0.189E+01   -.193E-02 0.143E-02 0.342E-02
   -.423E+03 -.737E+02 0.235E+04   0.427E+03 0.734E+02 -.236E+04   -.378E+01 0.467E+00 0.300E+01   0.315E-02 0.424E-02 -.371E-02
   -.118E+03 0.319E+02 0.674E+03   0.119E+03 -.329E+02 -.673E+03   -.111E+01 0.119E+01 -.492E-01   0.324E-02 0.297E-02 0.150E-01
   0.102E+03 -.127E+03 -.247E+04   -.102E+03 0.127E+03 0.248E+04   -.166E+00 0.471E-01 -.293E+00   0.761E-03 -.186E-02 -.111E-01
   0.200E+03 -.621E+02 -.208E+04   -.200E+03 0.635E+02 0.209E+04   -.577E+00 -.606E+00 -.184E+01   0.222E-02 0.493E-02 -.499E-03
   -.983E+02 -.138E+03 -.695E+03   0.995E+02 0.141E+03 0.695E+03   -.152E+01 -.296E+01 -.457E+00   -.890E-04 0.383E-02 0.752E-02
   0.423E+03 0.443E+02 0.155E+04   -.427E+03 -.410E+02 -.155E+04   0.243E+01 -.215E+01 -.420E+00   -.833E-02 -.322E-02 0.100E-01
   -.953E+01 -.115E+03 0.401E+03   0.110E+02 0.118E+03 -.402E+03   -.127E+01 -.262E+01 0.895E+00   -.475E-02 -.316E-02 0.125E-01
   0.173E+03 0.160E+03 0.154E+04   -.176E+03 -.162E+03 -.154E+04   0.151E+01 -.131E+00 -.267E+01   -.112E-03 0.227E-03 0.262E-02
   0.194E+03 0.171E+02 0.355E+03   -.197E+03 -.169E+02 -.355E+03   0.292E+01 -.130E+00 0.543E-01   -.525E-02 -.108E-03 0.177E-01
   0.179E+03 -.352E+01 -.694E+03   -.182E+03 0.374E+01 0.694E+03   0.290E+01 0.805E-01 -.545E+00   -.149E-02 0.269E-02 0.107E-01
   0.527E+02 0.120E+03 -.205E+04   -.534E+02 -.121E+03 0.205E+04   0.136E+01 0.193E+01 -.212E+01   0.711E-03 0.451E-02 0.977E-03
   -.108E+03 0.113E+03 -.268E+03   0.109E+03 -.114E+03 0.265E+03   -.124E+01 0.153E+01 0.163E+01   0.169E-02 -.113E-02 0.784E-02
   -.302E+03 0.925E+02 -.134E+04   0.304E+03 -.925E+02 0.133E+04   -.103E+01 -.323E-01 0.405E+01   -.150E-02 -.241E-02 0.572E-02
   0.298E+02 0.620E+03 0.225E+04   -.291E+02 -.625E+03 -.226E+04   -.210E+00 0.327E+01 0.104E+01   0.598E-03 -.535E-02 -.325E-03
   -.397E+02 0.209E+03 0.976E+03   0.404E+02 -.210E+03 -.977E+03   -.622E+00 0.111E+01 0.156E+01   0.440E-03 -.549E-02 0.166E-01
   -.137E+03 0.141E+03 -.229E+04   0.139E+03 -.141E+03 0.230E+04   -.108E+01 -.124E+01 -.506E+01   0.620E-04 0.153E-02 -.487E-02
   -.348E+03 0.189E+03 -.207E+04   0.351E+03 -.191E+03 0.208E+04   -.866E+00 0.214E+01 -.179E+01   -.461E-02 0.420E-02 0.249E-02
   -.325E+02 -.153E+03 -.765E+03   0.336E+02 0.156E+03 0.765E+03   -.933E+00 -.259E+01 -.809E+00   -.151E-02 0.190E-02 0.744E-02
   -.383E+03 -.283E+03 0.183E+04   0.385E+03 0.285E+03 -.183E+04   -.158E+01 -.114E+01 0.257E+01   0.300E-02 -.270E-02 0.197E-02
   -.135E+03 -.179E+03 0.408E+03   0.136E+03 0.182E+03 -.409E+03   -.996E+00 -.260E+01 0.590E+00   0.536E-02 0.103E-02 0.147E-01
   0.271E+03 -.845E+02 0.171E+04   -.273E+03 0.847E+02 -.171E+04   0.443E+00 0.252E+00 0.657E+00   -.556E-02 -.105E-03 0.702E-02
   0.152E+03 0.399E+01 0.414E+03   -.154E+03 -.371E+01 -.414E+03   0.237E+01 -.438E+00 0.960E+00   0.131E-02 -.161E-02 0.188E-01
   0.152E+03 0.422E+02 -.800E+03   -.155E+03 -.418E+02 0.801E+03   0.243E+01 -.331E+00 -.894E+00   0.616E-02 0.203E-02 0.434E-02
   0.211E+03 0.207E+03 -.226E+04   -.210E+03 -.212E+03 0.226E+04   -.175E+01 0.438E+01 -.854E+00   0.146E-02 0.168E-02 -.319E-02
 -----------------------------------------------------------------------------------------------
   -.116E+00 0.115E+02 -.132E+02   0.171E-12 0.284E-13 -.105E-10   -.312E-01 -.115E+02 0.119E+02   0.126E-01 0.158E-01 0.115E+01
 
 
 POSITION                                       TOTAL-FORCE (eV/Angst)
 -----------------------------------------------------------------------------------
      5.35228      4.81788      6.64784         0.143071     -0.400608     -0.220890
      5.93595      3.87238      9.58390        -0.377429     -0.107641     -1.091851
      6.88338      2.88812     11.56446         1.163395     -0.889020      1.589316
      1.30144      2.01086      2.06113         0.343362     -0.229758     -0.800085
      2.24633      0.73197      3.71178         0.829462     -0.405667      1.584197
      0.80295      0.28745     11.30975        -1.293054     -0.804709      0.120747
      4.76861      3.35453      2.93606         0.198800     -1.106509      1.082129
      5.35228      2.40903      5.87212        -0.069628      0.039652      0.037339
      5.93595      1.46353      8.80817        -0.971123      0.326228     -1.452497
      1.87746      3.73836      5.87212         0.076306      0.101190      0.102745
      2.46113      2.79286      8.80817         0.357206     -0.787409     -1.894096
      3.05785      1.85455     11.42512         1.258623      0.826068      0.416485
      6.92203      4.68386      2.93606         0.519491     -0.373354      3.370642
      2.56631      0.26328      0.99413        -0.293981      0.385778     -1.477930
     10.98051      4.81788      6.64784         0.139699     -0.226100     -0.159420
     11.56418      3.87238      9.58390         0.364553     -0.643828     -0.879081
      7.87456      0.73197      3.71178        -0.139770      0.642147      1.507185
      6.38131      0.35227     10.93316        -0.574646      0.650125      0.479323
      9.85523      2.87986      0.66475        -0.603640      0.017645     -0.829796
     10.39684      3.35453      2.93606         0.318797      0.099287      1.737077
     10.98051      2.40903      5.87212        -0.048049      0.012276      0.036094
     11.56418      1.46353      8.80817         0.370448     -0.787957     -2.034069
      7.50570      3.73836      5.87212        -0.175649      0.057011      0.117475
      8.08937      2.79286      8.80817         0.740687      0.412801     -1.761440
     12.55026      4.68386      2.93606        -0.228177      0.051483      0.836395
     10.53196      0.46973      0.80935         0.403305      0.317553     -0.964090
      7.87456      9.84929      6.64784         0.129210     -0.314103     -0.136079
      8.45823      8.90379      9.58390        -1.038019      0.218174     -2.774729
      8.15609      9.06412     11.85082         0.193335     -0.837291      0.142084
      4.76861      5.76338      3.71178         0.096159      0.467020      1.426458
      6.62432      8.07503      0.74281        -0.541185      0.180745     -1.087957
      7.29089      8.38594      2.93606         0.500662     -0.036730      2.312478
      7.87456      7.44044      5.87212        -0.065434      0.045120      0.054536
      8.45823      6.49494      8.80817        -0.674018      0.566156     -1.260311
      4.39975      8.76977      5.87212        -0.150314      0.069509      0.041343
      4.98341      7.82427      8.80817         0.431632      0.261796     -2.449561
      5.63535      6.68004     10.91715         0.137960      0.131920      0.958077
      9.44431      9.71527      2.93606        -0.162701      0.126903      0.590759
      7.37122      5.68627      0.90043         0.571423      0.277192     -1.034725
     13.50279      9.84929      6.64784         0.172200     -0.268871     -0.074531
     14.08646      8.90379      9.58390         0.804209      0.911821     -1.032138
      9.38414      7.01701      2.06817         0.570289     -0.219711     -0.784008
     10.39684      5.76338      3.71178         0.838938     -0.355857      1.530462
      9.24841      5.72256     10.99702        -0.920700      0.622382      1.163106
      8.08394      0.28743      1.26853        -0.820592      0.992643     -1.660740
     12.91912      8.38594      2.93606         0.084467     -1.253949      0.834052
     13.50279      7.44044      5.87212        -0.098794      0.093190      0.041305
     14.08646      6.49494      8.80817        -0.572932     -0.832620     -2.768451
     10.02798      8.76977      5.87212         0.195114      0.178479      0.081441
     10.61165      7.82427      8.80817         0.118628      1.161394     -0.543293
     15.07254      9.71527      2.93606         0.727271     -0.538735      3.116877
     10.70304      5.28430      1.00782        -0.296202      0.247980     -1.581355
      1.66190      1.67871      7.01153         0.163319     -0.155014     -0.116504
      2.24556      0.73321      9.94759         0.819903     -1.399810     -3.099346
      5.91008      4.12792      1.30312        -0.406069     -1.522452     -3.672329
      6.70646      2.62422      4.07548         0.249667     -0.093359     -0.296953
      5.86066      4.70157     11.55162        -1.215832      0.939787      2.517811
      2.13201      3.55726     10.65602         1.224635      2.557238      2.226284
      7.29013      4.74605      7.99931        -0.149061      0.183342     -1.041363
      3.60051      1.60565      2.12720         1.244237      1.588698      0.513480
      4.18418      0.66015      5.06325        -0.073700     -0.000115      0.197978
      3.34428      4.80890      2.56067        -1.159585      0.911163     -2.243186
      3.96438      3.99884      5.06325        -0.041118     -0.234079      0.594030
      4.54805      3.05334      7.99931        -0.130944     -0.391821     -0.556714
      5.13172      2.10784     10.93537        -0.936113     -1.379697     -0.177684
      7.29013      1.67871      7.01153        -0.162307      0.171630     -0.734673
      7.83300      0.81407      9.48199         0.959890     -0.432001      0.803472
     11.75102      3.56972      1.13942         1.068316      0.309120     -2.995399
     12.33469      2.62422      4.07548        -0.185955      0.178319      1.417649
     10.87837      4.60791     11.42429         0.780893      0.249431      2.399796
      8.20568      3.98766     10.48807         0.504409     -0.516239      1.772469
     12.91836      4.74605      7.99931         0.148811      0.106830     -0.875755
      9.35276      1.59786      2.25844        -0.508748      1.448136      0.146943
      9.81241      0.66015      5.06325         0.124233      0.065406     -0.010170
      9.00894      4.94434      2.12720        -1.900214     -1.620339     -0.024341
      9.59261      3.99884      5.06325         0.013173      0.051012     -0.135310
     10.17628      3.05334      7.99931        -0.096110     -0.165749     -0.806937
     11.08058      2.02702     10.68182        -2.516824      0.228089      2.338953
      4.18418      6.71012      7.01153        -0.093268      0.282558     -1.018155
      4.73902      5.71718      9.34015        -0.521301     -0.687605      0.331095
      8.64507      8.60113      1.13942         0.603777      0.182331     -3.074454
      9.22874      7.65563      4.07548        -0.148018      0.225246      1.460692
      2.22564      0.54688     12.76983        -0.142861      0.430708      4.116534
      4.77689      8.62911     10.70584         0.135691      0.804871      2.141830
      9.81241      9.77746      7.99931        -0.385670      0.052586     -0.310082
      6.15614      6.68120      2.27676        -0.833829      1.080786     -0.107497
      6.70646      5.69156      5.06325         0.235083      0.204739      0.106441
      5.90299      9.97575      2.12720        -1.308478     -1.338693      0.053969
      6.48666      9.03025      5.06325         0.069616      0.095382     -0.026214
      7.07033      8.08475      7.99931         0.073669      0.298066     -0.238608
      7.65400      7.13925     10.93537         0.673494      0.727180      0.693262
      9.81241      6.71012      7.01153        -0.214905      0.343660     -1.072253
     10.44672      5.80949      9.31543         0.786940     -0.072153      0.395797
     14.35973      8.73931      1.27288         0.530648     -2.438200     -2.863300
     14.85697      7.65563      4.07548         0.107532     -0.074831      0.068843
     13.12126      9.40074     11.39723         0.672935     -0.818814      2.219806
     10.07659      8.78924     10.83657         1.484757     -0.522275      1.754850
     15.44064      9.77746      7.99931         0.212827      0.167314     -0.748548
     11.75102      6.63706      2.12720         1.115649      1.474781      0.576177
     12.33469      5.69156      5.06325        -0.034688      0.013807      0.243918
     11.50252      9.86778      2.44925        -1.643227      0.457602     -1.287646
     12.11489      9.03025      5.06325         0.049942     -0.154478      0.610655
     12.69856      8.08475      7.99931        -0.437785      0.090260     -0.505981
     13.73707      7.15723     10.64331        -1.490103     -0.973598      3.779664
 -----------------------------------------------------------------------------------
    total drift:                               -0.134735      0.045372     -0.117794


--------------------------------------------------------------------------------------------------------



  FREE ENERGIE OF THE ION-ELECTRON SYSTEM (eV)
  ---------------------------------------------------
  free  energy   TOTEN  =      -505.78352660 eV

  energy  without entropy=     -504.60284486  energy(sigma->0) =     -505.19318573
 


--------------------------------------------------------------------------------------------------------


    POTLOK:  cpu time    0.3872: real time    0.3878


--------------------------------------------------------------------------------------------------------


     LOOP+:  cpu time  767.9723: real time  768.1901
    4ORBIT:  cpu time    0.0000: real time    0.0000

 total amount of memory used by VASP MPI-rank0    90328. kBytes
=======================================================================

   base      :      30000. kBytes
   nonlr-proj:       3431. kBytes
   fftplans  :      11276. kBytes
   grid      :      19113. kBytes
   one-center:        139. kBytes
   wavefun   :      26369. kBytes
 
  
  
 General timing and accounting informations for this job:
 ========================================================
  
                  Total CPU time used (sec):      772.672
                            User time (sec):      772.082
                          System time (sec):        0.590
                         Elapsed time (sec):      773.136
  
                   Maximum memory used (kb):      265636.
                   Average memory used (kb):           0.
  
                          Minor page faults:       154654
                          Major page faults:            0
                 Voluntary context switches:          269
