<?xml version="1.0" encoding="ISO-8859-1"?>
<modeling>
 <generator>
  <i name="program" type="string">vasp </i>
  <i name="version" type="string">5.4.4.18Apr17-6-g9f103f2a35  </i>
  <i name="subversion" type="string">(build Aug 13 2019 17:33:20) gamma-only         parallel </i>
  <i name="platform" type="string">LinuxIFC </i>
  <i name="date" type="string">2020 05 11 </i>
  <i name="time" type="string">03:28:59 </i>
 </generator>
 <incar>
  <i type="string" name="SYSTEM">"Millerite NiS"</i>
  <i type="string" name="PREC">normal</i>
  <i type="int" name="NSIM">     4</i>
  <i type="int" name="NELM">   100</i>
  <i name="ENCUT">    450.00000000</i>
  <i type="string" name="LREAL">A</i>
  <i type="int" name="ISMEAR">     0</i>
  <i type="int" name="NWRITE">     2</i>
  <i type="logical" name="LWAVE"> F  </i>
  <i type="logical" name="LCHARG"> F  </i>
  <v type="int" name="KPOINT_BSE">    -1     0     0     0</v>
  <i type="int" name="NELM">   100</i>
 </incar>
 <structure name="primitive_cell" >
  <crystal>
   <varray name="basis" >
    <v>      11.25646304       0.00000000       0.00000000 </v>
    <v>       5.04456212      10.06282034       0.00000000 </v>
    <v>       0.00000000       0.00000000      22.88364939 </v>
   </varray>
   <i name="volume">   2592.07135999 </i>
   <varray name="rec_basis" >
    <v>       0.08883785      -0.04453504       0.00000000 </v>
    <v>       0.00000000       0.09937572       0.00000000 </v>
    <v>       0.00000000       0.00000000       0.04369932 </v>
   </varray>
  </crystal>
  <varray name="positions" >
   <v>       0.26092070       0.47878036       0.29050611 </v>
   <v>       0.07287764      -0.33317657       0.30639927 </v>
   <v>       0.17409868       0.39738738       0.22126075 </v>
   <v>       0.34231368      -0.43439761       0.22126075 </v>
   <v>       0.43627354       0.47164251       0.34956450 </v>
   <v>       0.26805855       0.30342751       0.34956450 </v>
   <v>       0.36819893       0.23939913       0.25660749 </v>
   <v>      -0.49969806       0.37150212       0.25660749 </v>
   <v>       0.16638911      -0.43185110       0.40815819 </v>
   <v>       0.35488056       0.38482049       0.41880986 </v>
   <v>       0.16696083      -0.42725976       0.16220237 </v>
   <v>       0.47891775       0.26078330       0.17809552 </v>
   <v>      -0.42712237       0.16682343       0.30639927 </v>
   <v>       0.00030194       0.37150212       0.25660749 </v>
   <v>       0.09426181      -0.22245774       0.38491124 </v>
   <v>      -0.03784120      -0.35456074       0.38491124 </v>
   <v>       0.36819893      -0.26060087       0.25660749 </v>
   <v>       0.26805855      -0.19657249       0.34956450 </v>
   <v>      -0.06372646       0.47164251       0.34956450 </v>
   <v>       0.46215880       0.14543926       0.38491124 </v>
   <v>       0.40634206       0.46546199       0.12830375 </v>
   <v>       0.27423906       0.33335899       0.12830375 </v>
   <v>      -0.40573819       0.27754226       0.38491124 </v>
   <v>       0.09426181       0.27754226       0.38491124 </v>
   <v>       0.46215880      -0.35456074       0.38491124 </v>
   <v>       0.00030194      -0.12849788       0.25660749 </v>
   <v>      -0.13180107      -0.26060087       0.25660749 </v>
   <v>      -0.02108225      -0.23921670       0.17809552 </v>
   <v>       0.08293449       0.47788781       0.11189954 </v>
   <v>       0.34231368       0.06560239       0.22126075 </v>
   <v>      -0.32590132       0.39738738       0.22126075 </v>
   <v>      -0.15768632      -0.43439761       0.22126075 </v>
   <v>       0.17409868      -0.10261262       0.22126075 </v>
   <v>       0.20313688      -0.33616606       0.47707193 </v>
   <v>       0.24935085      -0.33605091       0.09949286 </v>
   <v>      -0.44861576       0.39627700       0.45832163 </v>
   <v>       0.07287763       0.16682343       0.30639927 </v>
   <v>      -0.42712236      -0.33317657       0.30639927 </v>
   <v>       0.31126394       0.46722143      -0.49520182 </v>
   <v>       0.36201842       0.20946765       0.47786825 </v>
   <v>      -0.06372646      -0.02835749       0.34956450 </v>
   <v>      -0.23194145      -0.19657249       0.34956450 </v>
   <v>       0.03098099       0.35350488       0.46566081 </v>
   <v>      -0.23194145       0.30342751       0.34956450 </v>
   <v>       0.43627354      -0.02835749       0.34956450 </v>
   <v>       0.36201842      -0.29053236       0.47786825 </v>
   <v>       0.34120216       0.41021476       0.05694555 </v>
   <v>      -0.09837599      -0.28874479       0.46510525 </v>
   <v>       0.47891775      -0.23921670       0.17809552 </v>
   <v>      -0.02108225       0.26078330       0.17809552 </v>
   <v>      -0.34038785       0.08089912       0.41435636 </v>
   <v>       0.48288205       0.28700852      -0.49464111 </v>
   <v>       0.27423907      -0.16664101       0.12830375 </v>
   <v>      -0.09365794       0.46546199       0.12830375 </v>
   <v>       0.04007100      -0.14247602       0.46783786 </v>
   <v>      -0.33303917       0.07274024       0.16220237 </v>
   <v>      -0.14511944      -0.11517951       0.41880986 </v>
   <v>       0.26092070      -0.02121964       0.29050611 </v>
   <v>      -0.23907930       0.47878036       0.29050611 </v>
   <v>       0.24835381       0.15956225       0.09295701 </v>
   <v>      -0.41986118       0.49134724       0.09295701 </v>
   <v>      -0.33066177      -0.42267741       0.40707782 </v>
   <v>      -0.43324559      -0.43131641       0.48056251 </v>
   <v>       0.16696083       0.07274024       0.16220237 </v>
   <v>       0.35488056      -0.11517951       0.41880986 </v>
   <v>      -0.14511944       0.38482049       0.41880986 </v>
   <v>      -0.23907930      -0.02121964       0.29050611 </v>
   <v>      -0.33303917      -0.42725976       0.16220237 </v>
   <v>       0.18906039       0.18429698       0.49926987 </v>
   <v>       0.16683750       0.07286357       0.43470302 </v>
   <v>       0.40160464      -0.43492251       0.03934805 </v>
   <v>      -0.13180107       0.23939913       0.25660749 </v>
   <v>      -0.49969806      -0.12849788       0.25660749 </v>
   <v>      -0.44878634       0.03500691       0.47777175 </v>
   <v>      -0.15768632       0.06560239       0.22126075 </v>
   <v>      -0.32590132      -0.10261262       0.22126075 </v>
   <v>      -0.22576093      -0.16664101       0.12830375 </v>
   <v>      -0.09365794      -0.03453801       0.12830375 </v>
   <v>      -0.03784120       0.14543926       0.38491124 </v>
   <v>      -0.22576094       0.33335899       0.12830375 </v>
   <v>       0.40634206      -0.03453801       0.12830375 </v>
   <v>      -0.40573819      -0.22245774       0.38491124 </v>
   <v>      -0.47883620      -0.30267943       0.09037746 </v>
   <v>      -0.41760294      -0.01938245       0.10703041 </v>
   <v>       0.02606351       0.19983062       0.09007005 </v>
   <v>      -0.24028168       0.15878863       0.09869209 </v>
   <v>       0.22886896      -0.19753844       0.03246028 </v>
   <v>      -0.25164619      -0.34043774       0.09295701 </v>
   <v>       0.08013882      -0.00865276       0.09295701 </v>
   <v>      -0.11351805      -0.13152442       0.05562421 </v>
   <v>       0.05853092       0.02856549       0.49422831 </v>
   <v>       0.32089909      -0.09924685      -0.48212701 </v>
   <v>      -0.23880222       0.45791401       0.49923375 </v>
   <v>      -0.10589879       0.20143671       0.46678851 </v>
   <v>      -0.49624641      -0.12656294       0.47355073 </v>
   <v>       0.38495789      -0.14525683       0.04979178 </v>
   <v>      -0.11504211       0.35474317       0.04979178 </v>
   <v>      -0.25299767      -0.06579494       0.49805134 </v>
   <v>      -0.29464066       0.02856355       0.05543409 </v>
   <v>      -0.25273783       0.28618865       0.02904920 </v>
   <v>       0.21625983       0.02616376       0.04344259 </v>
   <v>      -0.28450181      -0.47486885       0.04404094 </v>
   <v>       0.17336568       0.05434662      -0.44196704 </v>
   <v>      -0.08528300       0.04667965       0.03536806 </v>
  </varray>
 </structure>
 <varray name="primitive_index" >
  <v type="int" >        1 </v>
  <v type="int" >       79 </v>
  <v type="int" >       63 </v>
  <v type="int" >       87 </v>
  <v type="int" >       59 </v>
  <v type="int" >       64 </v>
  <v type="int" >        8 </v>
  <v type="int" >       23 </v>
  <v type="int" >       80 </v>
  <v type="int" >        2 </v>
  <v type="int" >       30 </v>
  <v type="int" >       56 </v>
  <v type="int" >       66 </v>
  <v type="int" >       10 </v>
  <v type="int" >       36 </v>
  <v type="int" >       48 </v>
  <v type="int" >       33 </v>
  <v type="int" >       90 </v>
  <v type="int" >       72 </v>
  <v type="int" >        9 </v>
  <v type="int" >       13 </v>
  <v type="int" >        7 </v>
  <v type="int" >       24 </v>
  <v type="int" >       11 </v>
  <v type="int" >       34 </v>
  <v type="int" >       35 </v>
  <v type="int" >       47 </v>
  <v type="int" >       95 </v>
  <v type="int" >       62 </v>
  <v type="int" >       61 </v>
  <v type="int" >       76 </v>
  <v type="int" >      100 </v>
  <v type="int" >       89 </v>
  <v type="int" >       37 </v>
  <v type="int" >       86 </v>
  <v type="int" >       71 </v>
  <v type="int" >       53 </v>
  <v type="int" >       92 </v>
  <v type="int" >       57 </v>
  <v type="int" >       65 </v>
  <v type="int" >       98 </v>
  <v type="int" >      103 </v>
  <v type="int" >       58 </v>
  <v type="int" >       77 </v>
  <v type="int" >       85 </v>
  <v type="int" >       91 </v>
  <v type="int" >       55 </v>
  <v type="int" >      104 </v>
  <v type="int" >       82 </v>
  <v type="int" >       69 </v>
  <v type="int" >       67 </v>
  <v type="int" >        3 </v>
  <v type="int" >       32 </v>
  <v type="int" >       25 </v>
  <v type="int" >       84 </v>
  <v type="int" >       17 </v>
  <v type="int" >       41 </v>
  <v type="int" >       27 </v>
  <v type="int" >       15 </v>
  <v type="int" >       60 </v>
  <v type="int" >       75 </v>
  <v type="int" >       93 </v>
  <v type="int" >       44 </v>
  <v type="int" >        5 </v>
  <v type="int" >       28 </v>
  <v type="int" >       16 </v>
  <v type="int" >       40 </v>
  <v type="int" >       43 </v>
  <v type="int" >       12 </v>
  <v type="int" >       54 </v>
  <v type="int" >       39 </v>
  <v type="int" >       21 </v>
  <v type="int" >       49 </v>
  <v type="int" >       18 </v>
  <v type="int" >       74 </v>
  <v type="int" >      102 </v>
  <v type="int" >       46 </v>
  <v type="int" >       51 </v>
  <v type="int" >       22 </v>
  <v type="int" >       20 </v>
  <v type="int" >       38 </v>
  <v type="int" >       50 </v>
  <v type="int" >       42 </v>
  <v type="int" >      101 </v>
  <v type="int" >        4 </v>
  <v type="int" >       73 </v>
  <v type="int" >       31 </v>
  <v type="int" >       99 </v>
  <v type="int" >       88 </v>
  <v type="int" >       94 </v>
  <v type="int" >        6 </v>
  <v type="int" >       29 </v>
  <v type="int" >       70 </v>
  <v type="int" >       78 </v>
  <v type="int" >       97 </v>
  <v type="int" >       81 </v>
  <v type="int" >       68 </v>
  <v type="int" >       96 </v>
  <v type="int" >       45 </v>
  <v type="int" >       19 </v>
  <v type="int" >       14 </v>
  <v type="int" >       52 </v>
  <v type="int" >       83 </v>
  <v type="int" >       26 </v>
 </varray>
 <kpoints>
  <generation param="Gamma">
   <v type="int" name="divisions">       1        1        1 </v>
   <v name="usershift">      0.00000000       0.00000000       0.00000000 </v>
   <v name="genvec1">      1.00000000       0.00000000       0.00000000 </v>
   <v name="genvec2">      0.00000000       1.00000000       0.00000000 </v>
   <v name="genvec3">      0.00000000       0.00000000       1.00000000 </v>
   <v name="shift">      0.00000000       0.00000000       0.00000000 </v>
  </generation>
  <varray name="kpointlist" >
   <v>       0.00000000       0.00000000       0.00000000 </v>
  </varray>
  <varray name="weights" >
   <v>       1.00000000 </v>
  </varray>
 </kpoints>
 <parameters>
  <separator name="general" >
   <i type="string" name="SYSTEM">"Millerite NiS"</i>
   <i type="logical" name="LCOMPAT"> F  </i>
  </separator>
  <separator name="electronic" >
   <i type="string" name="PREC">normal</i>
   <i name="ENMAX">    450.00000000</i>
   <i name="ENAUG">    703.44300000</i>
   <i name="EDIFF">      0.00010000</i>
   <i type="int" name="IALGO">    38</i>
   <i type="int" name="IWAVPR">    10</i>
   <i type="int" name="NBANDS">   686</i>
   <i name="NELECT">   1144.00000000</i>
   <i type="int" name="TURBO">     0</i>
   <i type="int" name="IRESTART">     0</i>
   <i type="int" name="NREBOOT">     0</i>
   <i type="int" name="NMIN">     0</i>
   <i name="EREF">      0.00000000</i>
   <separator name="electronic smearing" >
    <i type="int" name="ISMEAR">     0</i>
    <i name="SIGMA">      0.20000000</i>
    <i name="KSPACING">      0.50000000</i>
    <i type="logical" name="KGAMMA"> T  </i>
   </separator>
   <separator name="electronic projectors" >
    <i type="logical" name="LREAL"> T  </i>
    <v name="ROPT">     -0.00050000     -0.00050000</v>
    <i type="int" name="LMAXPAW">  -100</i>
    <i type="int" name="LMAXMIX">     2</i>
    <i type="logical" name="NLSPLINE"> F  </i>
   </separator>
   <separator name="electronic startup" >
    <i type="int" name="ISTART">     0</i>
    <i type="int" name="ICHARG">     2</i>
    <i type="int" name="INIWAV">     1</i>
   </separator>
   <separator name="electronic spin" >
    <i type="int" name="ISPIN">     1</i>
    <i type="logical" name="LNONCOLLINEAR"> F  </i>
    <v name="MAGMOM">      1.00000000      1.00000000      1.00000000      1.00000000      1.00000000      1.00000000      1.00000000      1.00000000      1.00000000      1.00000000      1.00000000      1.00000000      1.00000000      1.00000000      1.00000000      1.00000000      1.00000000      1.00000000      1.00000000      1.00000000
      1.00000000      1.00000000      1.00000000      1.00000000      1.00000000      1.00000000      1.00000000      1.00000000      1.00000000      1.00000000      1.00000000      1.00000000      1.00000000      1.00000000      1.00000000      1.00000000      1.00000000      1.00000000      1.00000000      1.00000000
      1.00000000      1.00000000      1.00000000      1.00000000      1.00000000      1.00000000      1.00000000      1.00000000      1.00000000      1.00000000      1.00000000      1.00000000      1.00000000      1.00000000      1.00000000      1.00000000      1.00000000      1.00000000      1.00000000      1.00000000
      1.00000000      1.00000000      1.00000000      1.00000000      1.00000000      1.00000000      1.00000000      1.00000000      1.00000000      1.00000000      1.00000000      1.00000000      1.00000000      1.00000000      1.00000000      1.00000000      1.00000000      1.00000000      1.00000000      1.00000000
      1.00000000      1.00000000      1.00000000      1.00000000      1.00000000      1.00000000      1.00000000      1.00000000      1.00000000      1.00000000      1.00000000      1.00000000      1.00000000      1.00000000      1.00000000      1.00000000      1.00000000      1.00000000      1.00000000      1.00000000
      1.00000000      1.00000000      1.00000000      1.00000000</v>
    <i name="NUPDOWN">     -1.00000000</i>
    <i type="logical" name="LSORBIT"> F  </i>
    <v name="SAXIS">      0.00000000      0.00000000      1.00000000</v>
    <i type="logical" name="LSPIRAL"> F  </i>
    <v name="QSPIRAL">      0.00000000      0.00000000      0.00000000</v>
    <i type="logical" name="LZEROZ"> F  </i>
   </separator>
   <separator name="electronic exchange-correlation" >
    <i type="logical" name="LASPH"> F  </i>
    <i type="logical" name="LMETAGGA"> F  </i>
   </separator>
   <separator name="electronic convergence" >
    <i type="int" name="NELM">   100</i>
    <i type="int" name="NELMDL">    -5</i>
    <i type="int" name="NELMIN">     2</i>
    <i name="ENINI">    450.00000000</i>
    <separator name="electronic convergence detail" >
     <i type="logical" name="LDIAG"> T  </i>
     <i type="logical" name="LSUBROT"> F  </i>
     <i name="WEIMIN">      0.00000000</i>
     <i name="EBREAK">      0.00000004</i>
     <i name="DEPER">      0.30000000</i>
     <i type="int" name="NRMM">     4</i>
     <i name="TIME">      0.40000000</i>
    </separator>
   </separator>
   <separator name="electronic mixer" >
    <i name="AMIX">      0.40000000</i>
    <i name="BMIX">      1.00000000</i>
    <i name="AMIN">      0.10000000</i>
    <i name="AMIX_MAG">      1.60000000</i>
    <i name="BMIX_MAG">      1.00000000</i>
    <separator name="electronic mixer details" >
     <i type="int" name="IMIX">     4</i>
     <i type="logical" name="MIXFIRST"> F  </i>
     <i type="int" name="MAXMIX">   -45</i>
     <i name="WC">    100.00000000</i>
     <i type="int" name="INIMIX">     1</i>
     <i type="int" name="MIXPRE">     1</i>
     <i type="int" name="MREMOVE">     5</i>
    </separator>
   </separator>
   <separator name="electronic dipolcorrection" >
    <i type="logical" name="LDIPOL"> F  </i>
    <i type="logical" name="LMONO"> F  </i>
    <i type="int" name="IDIPOL">     0</i>
    <i name="EPSILON">      1.00000000</i>
    <v name="DIPOL">   -100.00000000   -100.00000000   -100.00000000</v>
    <i name="EFIELD">      0.00000000</i>
   </separator>
  </separator>
  <separator name="grids" >
   <i type="int" name="NGX">    60</i>
   <i type="int" name="NGY">    60</i>
   <i type="int" name="NGZ">   120</i>
   <i type="int" name="NGXF">   120</i>
   <i type="int" name="NGYF">   120</i>
   <i type="int" name="NGZF">   240</i>
   <i type="logical" name="ADDGRID"> F  </i>
  </separator>
  <separator name="ionic" >
   <i type="int" name="NSW">     0</i>
   <i type="int" name="IBRION">    -1</i>
   <i type="int" name="MDALGO">     0</i>
   <i type="int" name="ISIF">     2</i>
   <i name="PSTRESS">      0.00000000</i>
   <i name="EDIFFG">      0.00100000</i>
   <i type="int" name="NFREE">     0</i>
   <i name="POTIM">      0.50000000</i>
   <i name="SMASS">     -3.00000000</i>
   <i name="SCALEE">      1.00000000</i>
  </separator>
  <separator name="ionic md" >
   <i name="TEBEG">      0.00010000</i>
   <i name="TEEND">      0.00010000</i>
   <i type="int" name="NBLOCK">     1</i>
   <i type="int" name="KBLOCK">     1</i>
   <i type="int" name="NPACO">   256</i>
   <i name="APACO">     16.00000000</i>
  </separator>
  <separator name="symmetry" >
   <i type="int" name="ISYM">     2</i>
   <i name="SYMPREC">      0.00001000</i>
  </separator>
  <separator name="dos" >
   <i type="int" name="LORBIT">     0</i>
   <v name="RWIGS">     -1.00000000     -1.00000000</v>
   <i type="int" name="NEDOS">   301</i>
   <i name="EMIN">     10.00000000</i>
   <i name="EMAX">    -10.00000000</i>
   <i name="EFERMI">      0.00000000</i>
  </separator>
  <separator name="writing" >
   <i type="int" name="NWRITE">     2</i>
   <i type="logical" name="LWAVE"> F  </i>
   <i type="logical" name="LDOWNSAMPLE"> F  </i>
   <i type="logical" name="LCHARG"> F  </i>
   <i type="logical" name="LPARD"> F  </i>
   <i type="logical" name="LVTOT"> F  </i>
   <i type="logical" name="LVHAR"> F  </i>
   <i type="logical" name="LELF"> F  </i>
   <i type="logical" name="LOPTICS"> F  </i>
   <v name="STM">      0.00000000      0.00000000      0.00000000      0.00000000      0.00000000      0.00000000      0.00000000</v>
  </separator>
  <separator name="performance" >
   <i type="int" name="NPAR">     2</i>
   <i type="int" name="NSIM">     4</i>
   <i type="int" name="NBLK">    -1</i>
   <i type="logical" name="LPLANE"> T  </i>
   <i type="logical" name="LSCALAPACK"> T  </i>
   <i type="logical" name="LSCAAWARE"> F  </i>
   <i type="logical" name="LSCALU"> F  </i>
   <i type="logical" name="LASYNC"> F  </i>
   <i type="logical" name="LORBITALREAL"> F  </i>
  </separator>
  <separator name="miscellaneous" >
   <i type="int" name="IDIOT">     3</i>
   <i type="int" name="ISPECIAL">     0</i>
   <i type="logical" name="LMUSIC"> F  </i>
   <v name="POMASS">     58.69000000     32.06600000</v>
   <v name="DARWINR">      0.00000000      0.00000000</v>
   <v name="DARWINV">      1.00000000      1.00000000</v>
   <i type="logical" name="LCORR"> T  </i>
  </separator>
  <i type="logical" name="GGA_COMPAT"> T  </i>
  <i type="logical" name="LBERRY"> F  </i>
  <i type="int" name="ICORELEVEL">     0</i>
  <i type="logical" name="LDAU"> F  </i>
  <i type="int" name="I_CONSTRAINED_M">     0</i>
  <separator name="electronic exchange-correlation" >
   <i type="string" name="GGA">--</i>
   <i type="int" name="VOSKOWN">     0</i>
   <i type="logical" name="LHFCALC"> F  </i>
   <i type="string" name="PRECFOCK"></i>
   <i type="logical" name="LSYMGRAD"> F  </i>
   <i type="logical" name="LHFONE"> F  </i>
   <i type="logical" name="LRHFCALC"> F  </i>
   <i type="logical" name="LTHOMAS"> F  </i>
   <i type="logical" name="LMODELHF"> F  </i>
   <i name="ENCUT4O">     -1.00000000</i>
   <i type="int" name="EXXOEP">     0</i>
   <i type="int" name="FOURORBIT">     0</i>
   <i name="AEXX">      0.00000000</i>
   <i name="HFALPHA">      0.00000000</i>
   <i name="MCALPHA">      0.00000000</i>
   <i name="ALDAX">      1.00000000</i>
   <i name="AGGAX">      1.00000000</i>
   <i name="ALDAC">      1.00000000</i>
   <i name="AGGAC">      1.00000000</i>
   <i type="int" name="NKREDX">     1</i>
   <i type="int" name="NKREDY">     1</i>
   <i type="int" name="NKREDZ">     1</i>
   <i type="logical" name="SHIFTRED"> F  </i>
   <i type="logical" name="ODDONLY"> F  </i>
   <i type="logical" name="EVENONLY"> F  </i>
   <i type="int" name="LMAXFOCK">     0</i>
   <i type="int" name="NMAXFOCKAE">     0</i>
   <i type="logical" name="LFOCKAEDFT"> F  </i>
   <i name="HFSCREEN">      0.00000000</i>
   <i name="HFSCREENC">      0.00000000</i>
   <i type="int" name="NBANDSGWLOW">     0</i>
  </separator>
  <separator name="vdW DFT" >
   <i type="logical" name="LUSE_VDW"> F  </i>
   <i name="Zab_VDW">     -0.84910000</i>
   <i name="PARAM1">      0.12340000</i>
   <i name="PARAM2">      1.00000000</i>
   <i name="PARAM3">      0.00000000</i>
  </separator>
  <separator name="model GW" >
   <i type="int" name="MODEL_GW">     0</i>
   <i name="MODEL_EPS0">     14.95425785</i>
   <i name="MODEL_ALPHA">      1.00000000</i>
  </separator>
  <separator name="linear response parameters" >
   <i type="logical" name="LEPSILON"> F  </i>
   <i type="logical" name="LRPA"> F  </i>
   <i type="logical" name="LNABLA"> F  </i>
   <i type="logical" name="LVEL"> F  </i>
   <i type="int" name="KINTER">     0</i>
   <i name="CSHIFT">      0.10000000</i>
   <i name="OMEGAMAX">     -1.00000000</i>
   <i name="DEG_THRESHOLD">      0.00200000</i>
   <i name="RTIME">     -0.10000000</i>
   <i name="WPLASMAI">      0.00000000</i>
   <v name="DFIELD">      0.00000000      0.00000000      0.00000000</v>
   <v name="WPLASMA">      0.00000000      0.00000000      0.00000000      0.00000000      0.00000000      0.00000000      0.00000000      0.00000000      0.00000000</v>
  </separator>
  <separator name="orbital magnetization" >
   <i type="logical" name="NUCIND"> F  </i>
   <v name="MAGPOS">      0.00000000      0.00000000      0.00000000</v>
   <i type="logical" name="LNICSALL"> T  </i>
   <i type="logical" name="ORBITALMAG"> F  </i>
   <i type="logical" name="LMAGBLOCH"> F  </i>
   <i type="logical" name="LCHIMAG"> F  </i>
   <i type="logical" name="LGAUGE"> T  </i>
   <i type="int" name="MAGATOM">     0</i>
   <v name="MAGDIPOL">      0.00000000      0.00000000      0.00000000</v>
   <v name="AVECCONST">      0.00000000      0.00000000      0.00000000</v>
  </separator>
  <separator name="response functions" >
   <i type="logical" name="LADDER"> F  </i>
   <i type="logical" name="LRPAFORCE"> F  </i>
   <i type="logical" name="LFXC"> F  </i>
   <i type="logical" name="LHARTREE"> T  </i>
   <i type="int" name="IBSE">     0</i>
   <v type="int" name="KPOINT">    -1     0     0     0</v>
   <i type="logical" name="LTCTE"> F  </i>
   <i type="logical" name="LTETE"> F  </i>
   <i type="logical" name="LTRIPLET"> F  </i>
   <i type="logical" name="LFXCEPS"> F  </i>
   <i type="logical" name="LFXHEG"> F  </i>
   <i type="int" name="NATURALO">     2</i>
   <i type="logical" name="L2ORDER"> F  </i>
   <i type="logical" name="LMP2LT"> F  </i>
   <i type="logical" name="LUSEW"> F  </i>
   <i name="ENCUTGW">     -2.00000000</i>
   <i name="ENCUTGWSOFT">     -2.00000000</i>
   <i name="ENCUTLF">     -1.00000000</i>
   <i type="int" name="LMAXMP2">    -1</i>
   <i name="SCISSOR">      0.00000000</i>
   <i type="int" name="NOMEGA">     0</i>
   <i type="int" name="NOMEGAR">     0</i>
   <i type="int" name="NBANDSGW">    -1</i>
   <i type="int" name="NBANDSO">    -1</i>
   <i type="int" name="NBANDSV">    -1</i>
   <i type="int" name="NELM">   100</i>
   <i type="int" name="NELMHF">     1</i>
   <i type="int" name="DIM">     3</i>
   <i type="int" name="ANTIRES">     0</i>
   <i name="OMEGAMAX">    -30.00000000</i>
   <i name="OMEGAMIN">    -30.00000000</i>
   <i name="OMEGATL">   -200.00000000</i>
   <i type="int" name="OMEGAGRID">   140</i>
   <i name="CSHIFT">     -0.10000000</i>
   <i type="logical" name="SELFENERGY"> F  </i>
   <i type="logical" name="LSPECTRAL"> F  </i>
   <i type="logical" name="LSPECTRALGW"> F  </i>
   <i type="logical" name="LSINGLES"> F  </i>
   <i type="logical" name="LFERMIGW"> F  </i>
   <i type="logical" name="ODDONLYGW"> F  </i>
   <i type="logical" name="EVENONLYGW"> F  </i>
   <i type="int" name="NKREDLFX">     1</i>
   <i type="int" name="NKREDLFY">     1</i>
   <i type="int" name="NKREDLFZ">     1</i>
   <i type="int" name="MAXMEM">  2800</i>
   <i type="int" name="TELESCOPE">     0</i>
   <i type="int" name="TAUPAR">     1</i>
   <i type="int" name="OMEGAPAR">    -1</i>
   <i name="LAMBDA">      1.00000000</i>
  </separator>
  <separator name="External order field" >
   <i name="OFIELD_KAPPA">      0.00000000</i>
   <v name="OFIELD_K">      0.00000000      0.00000000      0.00000000</v>
   <i name="OFIELD_Q6_NEAR">      0.00000000</i>
   <i name="OFIELD_Q6_FAR">      0.00000000</i>
   <i name="OFIELD_A">      0.00000000</i>
  </separator>
 </parameters>
 <atominfo>
  <atoms>     104 </atoms>
  <types>       2 </types>
  <array name="atoms" >
   <dimension dim="1">ion</dimension>
   <field type="string">element</field>
   <field type="int">atomtype</field>
   <set>
    <rc><c>Ni</c><c>   1</c></rc>
    <rc><c>Ni</c><c>   1</c></rc>
    <rc><c>Ni</c><c>   1</c></rc>
    <rc><c>Ni</c><c>   1</c></rc>
    <rc><c>Ni</c><c>   1</c></rc>
    <rc><c>Ni</c><c>   1</c></rc>
    <rc><c>Ni</c><c>   1</c></rc>
    <rc><c>Ni</c><c>   1</c></rc>
    <rc><c>Ni</c><c>   1</c></rc>
    <rc><c>Ni</c><c>   1</c></rc>
    <rc><c>Ni</c><c>   1</c></rc>
    <rc><c>Ni</c><c>   1</c></rc>
    <rc><c>Ni</c><c>   1</c></rc>
    <rc><c>Ni</c><c>   1</c></rc>
    <rc><c>Ni</c><c>   1</c></rc>
    <rc><c>Ni</c><c>   1</c></rc>
    <rc><c>Ni</c><c>   1</c></rc>
    <rc><c>Ni</c><c>   1</c></rc>
    <rc><c>Ni</c><c>   1</c></rc>
    <rc><c>Ni</c><c>   1</c></rc>
    <rc><c>Ni</c><c>   1</c></rc>
    <rc><c>Ni</c><c>   1</c></rc>
    <rc><c>Ni</c><c>   1</c></rc>
    <rc><c>Ni</c><c>   1</c></rc>
    <rc><c>Ni</c><c>   1</c></rc>
    <rc><c>Ni</c><c>   1</c></rc>
    <rc><c>Ni</c><c>   1</c></rc>
    <rc><c>Ni</c><c>   1</c></rc>
    <rc><c>Ni</c><c>   1</c></rc>
    <rc><c>Ni</c><c>   1</c></rc>
    <rc><c>Ni</c><c>   1</c></rc>
    <rc><c>Ni</c><c>   1</c></rc>
    <rc><c>Ni</c><c>   1</c></rc>
    <rc><c>Ni</c><c>   1</c></rc>
    <rc><c>Ni</c><c>   1</c></rc>
    <rc><c>Ni</c><c>   1</c></rc>
    <rc><c>Ni</c><c>   1</c></rc>
    <rc><c>Ni</c><c>   1</c></rc>
    <rc><c>Ni</c><c>   1</c></rc>
    <rc><c>Ni</c><c>   1</c></rc>
    <rc><c>Ni</c><c>   1</c></rc>
    <rc><c>Ni</c><c>   1</c></rc>
    <rc><c>Ni</c><c>   1</c></rc>
    <rc><c>Ni</c><c>   1</c></rc>
    <rc><c>Ni</c><c>   1</c></rc>
    <rc><c>Ni</c><c>   1</c></rc>
    <rc><c>Ni</c><c>   1</c></rc>
    <rc><c>Ni</c><c>   1</c></rc>
    <rc><c>Ni</c><c>   1</c></rc>
    <rc><c>Ni</c><c>   1</c></rc>
    <rc><c>Ni</c><c>   1</c></rc>
    <rc><c>Ni</c><c>   1</c></rc>
    <rc><c>S </c><c>   2</c></rc>
    <rc><c>S </c><c>   2</c></rc>
    <rc><c>S </c><c>   2</c></rc>
    <rc><c>S </c><c>   2</c></rc>
    <rc><c>S </c><c>   2</c></rc>
    <rc><c>S </c><c>   2</c></rc>
    <rc><c>S </c><c>   2</c></rc>
    <rc><c>S </c><c>   2</c></rc>
    <rc><c>S </c><c>   2</c></rc>
    <rc><c>S </c><c>   2</c></rc>
    <rc><c>S </c><c>   2</c></rc>
    <rc><c>S </c><c>   2</c></rc>
    <rc><c>S </c><c>   2</c></rc>
    <rc><c>S </c><c>   2</c></rc>
    <rc><c>S </c><c>   2</c></rc>
    <rc><c>S </c><c>   2</c></rc>
    <rc><c>S </c><c>   2</c></rc>
    <rc><c>S </c><c>   2</c></rc>
    <rc><c>S </c><c>   2</c></rc>
    <rc><c>S </c><c>   2</c></rc>
    <rc><c>S </c><c>   2</c></rc>
    <rc><c>S </c><c>   2</c></rc>
    <rc><c>S </c><c>   2</c></rc>
    <rc><c>S </c><c>   2</c></rc>
    <rc><c>S </c><c>   2</c></rc>
    <rc><c>S </c><c>   2</c></rc>
    <rc><c>S </c><c>   2</c></rc>
    <rc><c>S </c><c>   2</c></rc>
    <rc><c>S </c><c>   2</c></rc>
    <rc><c>S </c><c>   2</c></rc>
    <rc><c>S </c><c>   2</c></rc>
    <rc><c>S </c><c>   2</c></rc>
    <rc><c>S </c><c>   2</c></rc>
    <rc><c>S </c><c>   2</c></rc>
    <rc><c>S </c><c>   2</c></rc>
    <rc><c>S </c><c>   2</c></rc>
    <rc><c>S </c><c>   2</c></rc>
    <rc><c>S </c><c>   2</c></rc>
    <rc><c>S </c><c>   2</c></rc>
    <rc><c>S </c><c>   2</c></rc>
    <rc><c>S </c><c>   2</c></rc>
    <rc><c>S </c><c>   2</c></rc>
    <rc><c>S </c><c>   2</c></rc>
    <rc><c>S </c><c>   2</c></rc>
    <rc><c>S </c><c>   2</c></rc>
    <rc><c>S </c><c>   2</c></rc>
    <rc><c>S </c><c>   2</c></rc>
    <rc><c>S </c><c>   2</c></rc>
    <rc><c>S </c><c>   2</c></rc>
    <rc><c>S </c><c>   2</c></rc>
    <rc><c>S </c><c>   2</c></rc>
    <rc><c>S </c><c>   2</c></rc>
   </set>
  </array>
  <array name="atomtypes" >
   <dimension dim="1">type</dimension>
   <field type="int">atomspertype</field>
   <field type="string">element</field>
   <field>mass</field>
   <field>valence</field>
   <field type="string">pseudopotential</field>
   <set>
    <rc><c>  52</c><c>Ni</c><c>     58.69000000</c><c>     16.00000000</c><c>  PAW_PBE Ni_pv 06Sep2000               </c></rc>
    <rc><c>  52</c><c>S </c><c>     32.06600000</c><c>      6.00000000</c><c>  PAW_PBE S 06Sep2000                   </c></rc>
   </set>
  </array>
 </atominfo>
 <structure name="initialpos" >
  <crystal>
   <varray name="basis" >
    <v>      11.25646304       0.00000000       0.00000000 </v>
    <v>       5.04456212      10.06282034       0.00000000 </v>
    <v>       0.00000000       0.00000000      22.88364939 </v>
   </varray>
   <i name="volume">   2592.07135999 </i>
   <varray name="rec_basis" >
    <v>       0.08883785      -0.04453504       0.00000000 </v>
    <v>       0.00000000       0.09937572       0.00000000 </v>
    <v>       0.00000000       0.00000000       0.04369932 </v>
   </varray>
  </crystal>
  <varray name="positions" >
   <v>       0.26092070       0.47878036       0.29050611 </v>
   <v>       0.35488056       0.38482049       0.41880986 </v>
   <v>       0.48288205       0.28700852       0.50535889 </v>
   <v>       0.02606351       0.19983062       0.09007005 </v>
   <v>       0.16696083       0.07274024       0.16220237 </v>
   <v>       0.05853092       0.02856549       0.49422831 </v>
   <v>       0.27423906       0.33335899       0.12830375 </v>
   <v>       0.36819893       0.23939913       0.25660749 </v>
   <v>       0.46215880       0.14543926       0.38491124 </v>
   <v>       0.00030194       0.37150212       0.25660749 </v>
   <v>       0.09426181       0.27754226       0.38491124 </v>
   <v>       0.18906039       0.18429698       0.49926987 </v>
   <v>       0.40634206       0.46546199       0.12830375 </v>
   <v>       0.21625983       0.02616376       0.04344259 </v>
   <v>       0.76092070       0.47878036       0.29050611 </v>
   <v>       0.85488056       0.38482049       0.41880986 </v>
   <v>       0.66696083       0.07274024       0.16220237 </v>
   <v>       0.55121366       0.03500691       0.47777175 </v>
   <v>       0.74726217       0.28618865       0.02904920 </v>
   <v>       0.77423906       0.33335899       0.12830375 </v>
   <v>       0.86819893       0.23939913       0.25660749 </v>
   <v>       0.96215880       0.14543926       0.38491124 </v>
   <v>       0.50030194       0.37150212       0.25660749 </v>
   <v>       0.59426181       0.27754226       0.38491124 </v>
   <v>       0.90634206       0.46546199       0.12830375 </v>
   <v>       0.91471700       0.04667965       0.03536806 </v>
   <v>       0.26092070       0.97878036       0.29050611 </v>
   <v>       0.35488056       0.88482049       0.41880986 </v>
   <v>       0.32089909       0.90075315       0.51787299 </v>
   <v>       0.16696083       0.57274024       0.16220237 </v>
   <v>       0.22886896       0.80246156       0.03246028 </v>
   <v>       0.27423907       0.83335899       0.12830375 </v>
   <v>       0.36819893       0.73939913       0.25660749 </v>
   <v>       0.46215880       0.64543926       0.38491124 </v>
   <v>       0.00030194       0.87150212       0.25660749 </v>
   <v>       0.09426181       0.77754226       0.38491124 </v>
   <v>       0.20313688       0.66383394       0.47707193 </v>
   <v>       0.40634206       0.96546199       0.12830375 </v>
   <v>       0.40160464       0.56507749       0.03934805 </v>
   <v>       0.76092070       0.97878036       0.29050611 </v>
   <v>       0.85488056       0.88482049       0.41880986 </v>
   <v>       0.52116380       0.69732057       0.09037746 </v>
   <v>       0.66696083       0.57274024       0.16220237 </v>
   <v>       0.56675441       0.56868359       0.48056251 </v>
   <v>       0.70535934       0.02856355       0.05543409 </v>
   <v>       0.77423907       0.83335899       0.12830375 </v>
   <v>       0.86819893       0.73939913       0.25660749 </v>
   <v>       0.96215880       0.64543926       0.38491124 </v>
   <v>       0.50030194       0.87150212       0.25660749 </v>
   <v>       0.59426181       0.77754226       0.38491124 </v>
   <v>       0.90634206       0.96546199       0.12830375 </v>
   <v>       0.71549819       0.52513115       0.04404094 </v>
   <v>       0.07287763       0.16682343       0.30639927 </v>
   <v>       0.16683750       0.07286357       0.43470302 </v>
   <v>       0.34120216       0.41021476       0.05694555 </v>
   <v>       0.47891775       0.26078330       0.17809552 </v>
   <v>       0.31126394       0.46722143       0.50479818 </v>
   <v>       0.03098099       0.35350488       0.46566081 </v>
   <v>       0.43627354       0.47164251       0.34956450 </v>
   <v>       0.24835381       0.15956225       0.09295701 </v>
   <v>       0.34231368       0.06560239       0.22126075 </v>
   <v>       0.08293449       0.47788781       0.11189954 </v>
   <v>       0.17409868       0.39738738       0.22126075 </v>
   <v>       0.26805855       0.30342751       0.34956450 </v>
   <v>       0.36201842       0.20946765       0.47786825 </v>
   <v>       0.57287763       0.16682343       0.30639927 </v>
   <v>       0.65961215       0.08089912       0.41435636 </v>
   <v>       0.88495789       0.35474317       0.04979178 </v>
   <v>       0.97891775       0.26078330       0.17809552 </v>
   <v>       0.76119778       0.45791401       0.49923375 </v>
   <v>       0.55138424       0.39627700       0.45832163 </v>
   <v>       0.93627354       0.47164251       0.34956450 </v>
   <v>       0.75971832       0.15878863       0.09869209 </v>
   <v>       0.84231368       0.06560239       0.22126075 </v>
   <v>       0.58013882       0.49134724       0.09295701 </v>
   <v>       0.67409868       0.39738738       0.22126075 </v>
   <v>       0.76805855       0.30342751       0.34956450 </v>
   <v>       0.89410121       0.20143671       0.46678851 </v>
   <v>       0.07287764       0.66682343       0.30639927 </v>
   <v>       0.16638911       0.56814890       0.40815819 </v>
   <v>       0.38495789       0.85474317       0.04979178 </v>
   <v>       0.47891775       0.76078330       0.17809552 </v>
   <v>       0.17336568       0.05434662       0.55803296 </v>
   <v>       0.04007100       0.85752398       0.46783786 </v>
   <v>       0.43627354       0.97164251       0.34956450 </v>
   <v>       0.24935085       0.66394909       0.09949286 </v>
   <v>       0.34231368       0.56560239       0.22126075 </v>
   <v>       0.08013882       0.99134724       0.09295701 </v>
   <v>       0.17409868       0.89738738       0.22126075 </v>
   <v>       0.26805855       0.80342751       0.34956450 </v>
   <v>       0.36201842       0.70946764       0.47786825 </v>
   <v>       0.57287764       0.66682343       0.30639927 </v>
   <v>       0.66933823       0.57732259       0.40707782 </v>
   <v>       0.88648195       0.86847558       0.05562421 </v>
   <v>       0.97891775       0.76078330       0.17809552 </v>
   <v>       0.74700233       0.93420506       0.49805134 </v>
   <v>       0.50375359       0.87343706       0.47355073 </v>
   <v>       0.93627354       0.97164251       0.34956450 </v>
   <v>       0.74835381       0.65956226       0.09295701 </v>
   <v>       0.84231368       0.56560239       0.22126075 </v>
   <v>       0.58239706       0.98061755       0.10703041 </v>
   <v>       0.67409868       0.89738738       0.22126075 </v>
   <v>       0.76805855       0.80342751       0.34956450 </v>
   <v>       0.90162401       0.71125521       0.46510525 </v>
  </varray>
 </structure>
 <calculation>
  <scstep>
   <time name="dav">   15.67   15.68</time>
   <time name="total">   16.07   16.08</time>
   <energy>
    <i name="alphaZ">   2994.23548884 </i>
    <i name="ewald"> 345885.48886668 </i>
    <i name="hartreedc">-523404.46753068 </i>
    <i name="XCdc">   5316.87465690 </i>
    <i name="pawpsdc"> 162831.54814933 </i>
    <i name="pawaedc">-169926.62828172 </i>
    <i name="eentropy">     -0.39479156 </i>
    <i name="bandstr">  -5239.43757788 </i>
    <i name="atom"> 196448.20729987 </i>
    <i name="e_fr_energy">  14905.42627977 </i>
    <i name="e_wo_entrp">  14905.82107133 </i>
    <i name="e_0_energy">  14905.62367555 </i>
   </energy>
  </scstep>
  <scstep>
   <time name="dav">   13.87   13.87</time>
   <time name="total">   13.87   13.87</time>
   <energy>
    <i name="e_fr_energy">   1010.41402144 </i>
    <i name="e_wo_entrp">   1011.33934897 </i>
    <i name="e_0_energy">   1010.87668521 </i>
   </energy>
  </scstep>
  <scstep>
   <time name="dav">   14.86   14.86</time>
   <time name="total">   14.86   14.86</time>
   <energy>
    <i name="e_fr_energy">   -470.21047237 </i>
    <i name="e_wo_entrp">   -468.86347226 </i>
    <i name="e_0_energy">   -469.53697231 </i>
   </energy>
  </scstep>
  <scstep>
   <time name="dav">   14.96   14.96</time>
   <time name="total">   14.96   14.97</time>
   <energy>
    <i name="e_fr_energy">   -569.74085747 </i>
    <i name="e_wo_entrp">   -568.32473122 </i>
    <i name="e_0_energy">   -569.03279434 </i>
   </energy>
  </scstep>
  <scstep>
   <time name="dav">   16.82   16.83</time>
   <time name="total">   17.27   17.27</time>
   <energy>
    <i name="e_fr_energy">   -574.03538548 </i>
    <i name="e_wo_entrp">   -572.63782494 </i>
    <i name="e_0_energy">   -573.33660521 </i>
   </energy>
  </scstep>
  <scstep>
   <time name="dav">   16.36   16.36</time>
   <time name="total">   17.18   17.18</time>
   <energy>
    <i name="e_fr_energy">   -677.64512005 </i>
    <i name="e_wo_entrp">   -676.63368874 </i>
    <i name="e_0_energy">   -677.13940439 </i>
   </energy>
  </scstep>
  <scstep>
   <time name="dav">   14.97   14.97</time>
   <time name="total">   15.79   15.79</time>
   <energy>
    <i name="e_fr_energy">   -535.14250659 </i>
    <i name="e_wo_entrp">   -534.12201366 </i>
    <i name="e_0_energy">   -534.63226013 </i>
   </energy>
  </scstep>
  <scstep>
   <time name="dav">   16.85   16.85</time>
   <time name="total">   17.68   17.69</time>
   <energy>
    <i name="e_fr_energy">   -644.18679027 </i>
    <i name="e_wo_entrp">   -642.77257579 </i>
    <i name="e_0_energy">   -643.47968303 </i>
   </energy>
  </scstep>
  <scstep>
   <time name="dav">   16.37   16.38</time>
   <time name="total">   17.20   17.21</time>
   <energy>
    <i name="e_fr_energy">   -561.03396125 </i>
    <i name="e_wo_entrp">   -559.40045939 </i>
    <i name="e_0_energy">   -560.21721032 </i>
   </energy>
  </scstep>
  <scstep>
   <time name="dav">   18.23   18.24</time>
   <time name="total">   19.19   19.19</time>
   <energy>
    <i name="e_fr_energy">   -603.48853149 </i>
    <i name="e_wo_entrp">   -601.87260720 </i>
    <i name="e_0_energy">   -602.68056934 </i>
   </energy>
  </scstep>
  <scstep>
   <time name="dav">   17.88   17.88</time>
   <time name="total">   18.71   18.71</time>
   <energy>
    <i name="e_fr_energy">   -600.92089220 </i>
    <i name="e_wo_entrp">   -599.26542970 </i>
    <i name="e_0_energy">   -600.09316095 </i>
   </energy>
  </scstep>
  <scstep>
   <time name="dav">   17.53   17.53</time>
   <time name="total">   18.35   18.35</time>
   <energy>
    <i name="e_fr_energy">   -553.56104556 </i>
    <i name="e_wo_entrp">   -552.16105653 </i>
    <i name="e_0_energy">   -552.86105105 </i>
   </energy>
  </scstep>
  <scstep>
   <time name="dav">   17.08   17.09</time>
   <time name="total">   17.91   17.91</time>
   <energy>
    <i name="e_fr_energy">   -535.24375744 </i>
    <i name="e_wo_entrp">   -534.09588194 </i>
    <i name="e_0_energy">   -534.66981969 </i>
   </energy>
  </scstep>
  <scstep>
   <time name="dav">   17.04   17.04</time>
   <time name="total">   17.86   17.86</time>
   <energy>
    <i name="e_fr_energy">   -523.79118774 </i>
    <i name="e_wo_entrp">   -522.58118224 </i>
    <i name="e_0_energy">   -523.18618499 </i>
   </energy>
  </scstep>
  <scstep>
   <time name="dav">   17.35   17.35</time>
   <time name="total">   18.32   18.33</time>
   <energy>
    <i name="e_fr_energy">   -515.79011324 </i>
    <i name="e_wo_entrp">   -514.64564946 </i>
    <i name="e_0_energy">   -515.21788135 </i>
   </energy>
  </scstep>
  <scstep>
   <time name="dav">   17.42   17.42</time>
   <time name="total">   18.27   18.27</time>
   <energy>
    <i name="e_fr_energy">   -511.73558019 </i>
    <i name="e_wo_entrp">   -510.54479611 </i>
    <i name="e_0_energy">   -511.14018815 </i>
   </energy>
  </scstep>
  <scstep>
   <time name="dav">   17.00   17.01</time>
   <time name="total">   17.83   17.84</time>
   <energy>
    <i name="e_fr_energy">   -510.49160160 </i>
    <i name="e_wo_entrp">   -509.29599092 </i>
    <i name="e_0_energy">   -509.89379626 </i>
   </energy>
  </scstep>
  <scstep>
   <time name="dav">   17.18   17.18</time>
   <time name="total">   18.24   18.25</time>
   <energy>
    <i name="e_fr_energy">   -509.89216114 </i>
    <i name="e_wo_entrp">   -508.71437688 </i>
    <i name="e_0_energy">   -509.30326901 </i>
   </energy>
  </scstep>
  <scstep>
   <time name="dav">   17.28   17.28</time>
   <time name="total">   18.11   18.11</time>
   <energy>
    <i name="e_fr_energy">   -508.97340944 </i>
    <i name="e_wo_entrp">   -507.78077434 </i>
    <i name="e_0_energy">   -508.37709189 </i>
   </energy>
  </scstep>
  <scstep>
   <time name="dav">   17.37   17.37</time>
   <time name="total">   18.20   18.20</time>
   <energy>
    <i name="e_fr_energy">   -508.02421629 </i>
    <i name="e_wo_entrp">   -506.83233868 </i>
    <i name="e_0_energy">   -507.42827749 </i>
   </energy>
  </scstep>
  <scstep>
   <time name="dav">   17.49   17.49</time>
   <time name="total">   18.31   18.32</time>
   <energy>
    <i name="e_fr_energy">   -507.17545955 </i>
    <i name="e_wo_entrp">   -506.00949995 </i>
    <i name="e_0_energy">   -506.59247975 </i>
   </energy>
  </scstep>
  <scstep>
   <time name="dav">   17.78   17.79</time>
   <time name="total">   18.62   18.63</time>
   <energy>
    <i name="e_fr_energy">   -506.32916339 </i>
    <i name="e_wo_entrp">   -505.15198115 </i>
    <i name="e_0_energy">   -505.74057227 </i>
   </energy>
  </scstep>
  <scstep>
   <time name="dav">   17.18   17.19</time>
   <time name="total">   18.04   18.05</time>
   <energy>
    <i name="e_fr_energy">   -505.96037964 </i>
    <i name="e_wo_entrp">   -504.77606578 </i>
    <i name="e_0_energy">   -505.36822271 </i>
   </energy>
  </scstep>
  <scstep>
   <time name="dav">   16.63   16.63</time>
   <time name="total">   17.72   17.72</time>
   <energy>
    <i name="e_fr_energy">   -505.86756861 </i>
    <i name="e_wo_entrp">   -504.67913200 </i>
    <i name="e_0_energy">   -505.27335031 </i>
   </energy>
  </scstep>
  <scstep>
   <time name="dav">   16.61   16.61</time>
   <time name="total">   17.45   17.47</time>
   <energy>
    <i name="e_fr_energy">   -505.83580634 </i>
    <i name="e_wo_entrp">   -504.64875422 </i>
    <i name="e_0_energy">   -505.24228028 </i>
   </energy>
  </scstep>
  <scstep>
   <time name="dav">   16.07   16.07</time>
   <time name="total">   16.91   16.92</time>
   <energy>
    <i name="e_fr_energy">   -505.81961211 </i>
    <i name="e_wo_entrp">   -504.63311035 </i>
    <i name="e_0_energy">   -505.22636123 </i>
   </energy>
  </scstep>
  <scstep>
   <time name="dav">   17.23   17.23</time>
   <time name="total">   18.08   18.08</time>
   <energy>
    <i name="e_fr_energy">   -505.82035129 </i>
    <i name="e_wo_entrp">   -504.63558800 </i>
    <i name="e_0_energy">   -505.22796964 </i>
   </energy>
  </scstep>
  <scstep>
   <time name="dav">   15.96   15.97</time>
   <time name="total">   16.82   16.82</time>
   <energy>
    <i name="e_fr_energy">   -505.79196459 </i>
    <i name="e_wo_entrp">   -504.60530672 </i>
    <i name="e_0_energy">   -505.19863565 </i>
   </energy>
  </scstep>
  <scstep>
   <time name="dav">   16.87   16.88</time>
   <time name="total">   17.95   17.96</time>
   <energy>
    <i name="e_fr_energy">   -505.78699688 </i>
    <i name="e_wo_entrp">   -504.60716603 </i>
    <i name="e_0_energy">   -505.19708146 </i>
   </energy>
  </scstep>
  <scstep>
   <time name="dav">   16.30   16.30</time>
   <time name="total">   17.15   17.16</time>
   <energy>
    <i name="e_fr_energy">   -505.78091185 </i>
    <i name="e_wo_entrp">   -504.60156170 </i>
    <i name="e_0_energy">   -505.19123678 </i>
   </energy>
  </scstep>
  <scstep>
   <time name="dav">   17.00   17.01</time>
   <time name="total">   17.86   17.86</time>
   <energy>
    <i name="e_fr_energy">   -505.78024634 </i>
    <i name="e_wo_entrp">   -504.60099886 </i>
    <i name="e_0_energy">   -505.19062260 </i>
   </energy>
  </scstep>
  <scstep>
   <time name="dav">   15.43   15.44</time>
   <time name="total">   16.30   16.30</time>
   <energy>
    <i name="e_fr_energy">   -505.78042306 </i>
    <i name="e_wo_entrp">   -504.60038061 </i>
    <i name="e_0_energy">   -505.19040183 </i>
   </energy>
  </scstep>
  <scstep>
   <time name="dav">   15.34   15.34</time>
   <time name="total">   16.20   16.20</time>
   <energy>
    <i name="e_fr_energy">   -505.78054900 </i>
    <i name="e_wo_entrp">   -504.59994644 </i>
    <i name="e_0_energy">   -505.19024772 </i>
   </energy>
  </scstep>
  <scstep>
   <time name="dav">   16.05   16.05</time>
   <time name="total">   16.95   16.95</time>
   <energy>
    <i name="e_fr_energy">   -505.78031263 </i>
    <i name="e_wo_entrp">   -504.60045147 </i>
    <i name="e_0_energy">   -505.19038205 </i>
   </energy>
  </scstep>
  <scstep>
   <time name="dav">   14.04   14.05</time>
   <time name="total">   14.91   14.92</time>
   <energy>
    <i name="e_fr_energy">   -505.78016763 </i>
    <i name="e_wo_entrp">   -504.59963657 </i>
    <i name="e_0_energy">   -505.18990210 </i>
   </energy>
  </scstep>
  <scstep>
   <time name="dav">   11.89   11.89</time>
   <time name="total">   12.76   12.77</time>
   <energy>
    <i name="e_fr_energy">   -505.78032754 </i>
    <i name="e_wo_entrp">   -504.60002798 </i>
    <i name="e_0_energy">   -505.19017776 </i>
   </energy>
  </scstep>
  <scstep>
   <time name="dav">    9.71    9.72</time>
   <time name="total">   10.59   10.59</time>
   <energy>
    <i name="e_fr_energy">   -505.78065601 </i>
    <i name="e_wo_entrp">   -504.60045427 </i>
    <i name="e_0_energy">   -505.19055514 </i>
   </energy>
  </scstep>
  <scstep>
   <time name="dav">    9.72    9.72</time>
   <time name="total">   10.61   10.61</time>
   <energy>
    <i name="e_fr_energy">   -505.78086392 </i>
    <i name="e_wo_entrp">   -504.60045770 </i>
    <i name="e_0_energy">   -505.19066081 </i>
   </energy>
  </scstep>
  <scstep>
   <time name="dav">    9.82    9.83</time>
   <time name="total">   10.71   10.72</time>
   <energy>
    <i name="e_fr_energy">   -505.78135234 </i>
    <i name="e_wo_entrp">   -504.60092697 </i>
    <i name="e_0_energy">   -505.19113965 </i>
   </energy>
  </scstep>
  <scstep>
   <time name="dav">    9.85    9.85</time>
   <time name="total">   10.75   10.75</time>
   <energy>
    <i name="e_fr_energy">   -505.78162050 </i>
    <i name="e_wo_entrp">   -504.60099692 </i>
    <i name="e_0_energy">   -505.19130871 </i>
   </energy>
  </scstep>
  <scstep>
   <time name="dav">    9.78    9.78</time>
   <time name="total">   10.69   10.69</time>
   <energy>
    <i name="e_fr_energy">   -505.78199961 </i>
    <i name="e_wo_entrp">   -504.60147547 </i>
    <i name="e_0_energy">   -505.19173754 </i>
   </energy>
  </scstep>
  <scstep>
   <time name="dav">    9.65    9.66</time>
   <time name="total">   10.57   10.57</time>
   <energy>
    <i name="e_fr_energy">   -505.78223824 </i>
    <i name="e_wo_entrp">   -504.60153951 </i>
    <i name="e_0_energy">   -505.19188888 </i>
   </energy>
  </scstep>
  <scstep>
   <time name="dav">    9.65    9.65</time>
   <time name="total">   10.57   10.57</time>
   <energy>
    <i name="e_fr_energy">   -505.78252573 </i>
    <i name="e_wo_entrp">   -504.60182680 </i>
    <i name="e_0_energy">   -505.19217626 </i>
   </energy>
  </scstep>
  <scstep>
   <time name="dav">    9.78    9.78</time>
   <time name="total">   10.70   10.70</time>
   <energy>
    <i name="e_fr_energy">   -505.78279419 </i>
    <i name="e_wo_entrp">   -504.60206905 </i>
    <i name="e_0_energy">   -505.19243162 </i>
   </energy>
  </scstep>
  <scstep>
   <time name="dav">    9.67    9.67</time>
   <time name="total">   10.60   10.60</time>
   <energy>
    <i name="e_fr_energy">   -505.78303189 </i>
    <i name="e_wo_entrp">   -504.60217049 </i>
    <i name="e_0_energy">   -505.19260119 </i>
   </energy>
  </scstep>
  <scstep>
   <time name="dav">    9.64    9.64</time>
   <time name="total">   10.57   10.57</time>
   <energy>
    <i name="e_fr_energy">   -505.78325142 </i>
    <i name="e_wo_entrp">   -504.60245127 </i>
    <i name="e_0_energy">   -505.19285134 </i>
   </energy>
  </scstep>
  <scstep>
   <time name="dav">    9.46    9.46</time>
   <time name="total">   10.55   10.55</time>
   <energy>
    <i name="e_fr_energy">   -505.78338764 </i>
    <i name="e_wo_entrp">   -504.60261346 </i>
    <i name="e_0_energy">   -505.19300055 </i>
   </energy>
  </scstep>
  <scstep>
   <time name="dav">    9.36    9.36</time>
   <time name="total">   10.57   10.57</time>
   <energy>
    <i name="e_fr_energy">   -505.78349129 </i>
    <i name="e_wo_entrp">   -504.60278745 </i>
    <i name="e_0_energy">   -505.19313937 </i>
   </energy>
  </scstep>
  <scstep>
   <time name="dav">    9.35    9.35</time>
   <time name="total">    9.74    9.74</time>
   <energy>
    <i name="alphaZ">   2994.23548884 </i>
    <i name="ewald"> 345885.48886668 </i>
    <i name="hartreedc">-522403.05062477 </i>
    <i name="XCdc">   5273.19423506 </i>
    <i name="pawpsdc"> 200342.54404048 </i>
    <i name="pawaedc">-207541.04814963 </i>
    <i name="eentropy">     -1.18068174 </i>
    <i name="bandstr"> -21504.17400139 </i>
    <i name="atom"> 196448.20729987 </i>
    <i name="e_fr_energy">   -505.78352660 </i>
    <i name="e_wo_entrp">   -504.60284486 </i>
    <i name="e_0_energy">   -505.19318573 </i>
   </energy>
  </scstep>
  <structure>
   <crystal>
    <varray name="basis" >
     <v>      11.25646304       0.00000000       0.00000000 </v>
     <v>       5.04456212      10.06282034       0.00000000 </v>
     <v>       0.00000000       0.00000000      22.88364939 </v>
    </varray>
    <i name="volume">   2592.07135999 </i>
    <varray name="rec_basis" >
     <v>       0.08883785      -0.04453504       0.00000000 </v>
     <v>       0.00000000       0.09937572       0.00000000 </v>
     <v>       0.00000000       0.00000000       0.04369932 </v>
    </varray>
   </crystal>
   <varray name="positions" >
    <v>       0.26092070       0.47878036       0.29050611 </v>
    <v>       0.35488056       0.38482049       0.41880986 </v>
    <v>       0.48288205       0.28700852       0.50535889 </v>
    <v>       0.02606351       0.19983062       0.09007005 </v>
    <v>       0.16696083       0.07274024       0.16220237 </v>
    <v>       0.05853092       0.02856549       0.49422831 </v>
    <v>       0.27423906       0.33335899       0.12830375 </v>
    <v>       0.36819893       0.23939913       0.25660749 </v>
    <v>       0.46215880       0.14543926       0.38491124 </v>
    <v>       0.00030194       0.37150212       0.25660749 </v>
    <v>       0.09426181       0.27754226       0.38491124 </v>
    <v>       0.18906039       0.18429698       0.49926987 </v>
    <v>       0.40634206       0.46546199       0.12830375 </v>
    <v>       0.21625983       0.02616376       0.04344259 </v>
    <v>       0.76092070       0.47878036       0.29050611 </v>
    <v>       0.85488056       0.38482049       0.41880986 </v>
    <v>       0.66696083       0.07274024       0.16220237 </v>
    <v>       0.55121366       0.03500691       0.47777175 </v>
    <v>       0.74726217       0.28618865       0.02904920 </v>
    <v>       0.77423906       0.33335899       0.12830375 </v>
    <v>       0.86819893       0.23939913       0.25660749 </v>
    <v>       0.96215880       0.14543926       0.38491124 </v>
    <v>       0.50030194       0.37150212       0.25660749 </v>
    <v>       0.59426181       0.27754226       0.38491124 </v>
    <v>       0.90634206       0.46546199       0.12830375 </v>
    <v>       0.91471700       0.04667965       0.03536806 </v>
    <v>       0.26092070       0.97878036       0.29050611 </v>
    <v>       0.35488056       0.88482049       0.41880986 </v>
    <v>       0.32089909       0.90075315       0.51787299 </v>
    <v>       0.16696083       0.57274024       0.16220237 </v>
    <v>       0.22886896       0.80246156       0.03246028 </v>
    <v>       0.27423907       0.83335899       0.12830375 </v>
    <v>       0.36819893       0.73939913       0.25660749 </v>
    <v>       0.46215880       0.64543926       0.38491124 </v>
    <v>       0.00030194       0.87150212       0.25660749 </v>
    <v>       0.09426181       0.77754226       0.38491124 </v>
    <v>       0.20313688       0.66383394       0.47707193 </v>
    <v>       0.40634206       0.96546199       0.12830375 </v>
    <v>       0.40160464       0.56507749       0.03934805 </v>
    <v>       0.76092070       0.97878036       0.29050611 </v>
    <v>       0.85488056       0.88482049       0.41880986 </v>
    <v>       0.52116380       0.69732057       0.09037746 </v>
    <v>       0.66696083       0.57274024       0.16220237 </v>
    <v>       0.56675441       0.56868359       0.48056251 </v>
    <v>       0.70535934       0.02856355       0.05543409 </v>
    <v>       0.77423907       0.83335899       0.12830375 </v>
    <v>       0.86819893       0.73939913       0.25660749 </v>
    <v>       0.96215880       0.64543926       0.38491124 </v>
    <v>       0.50030194       0.87150212       0.25660749 </v>
    <v>       0.59426181       0.77754226       0.38491124 </v>
    <v>       0.90634206       0.96546199       0.12830375 </v>
    <v>       0.71549819       0.52513115       0.04404094 </v>
    <v>       0.07287763       0.16682343       0.30639927 </v>
    <v>       0.16683750       0.07286357       0.43470302 </v>
    <v>       0.34120216       0.41021476       0.05694555 </v>
    <v>       0.47891775       0.26078330       0.17809552 </v>
    <v>       0.31126394       0.46722143       0.50479818 </v>
    <v>       0.03098099       0.35350488       0.46566081 </v>
    <v>       0.43627354       0.47164251       0.34956450 </v>
    <v>       0.24835381       0.15956225       0.09295701 </v>
    <v>       0.34231368       0.06560239       0.22126075 </v>
    <v>       0.08293449       0.47788781       0.11189954 </v>
    <v>       0.17409868       0.39738738       0.22126075 </v>
    <v>       0.26805855       0.30342751       0.34956450 </v>
    <v>       0.36201842       0.20946765       0.47786825 </v>
    <v>       0.57287763       0.16682343       0.30639927 </v>
    <v>       0.65961215       0.08089912       0.41435636 </v>
    <v>       0.88495789       0.35474317       0.04979178 </v>
    <v>       0.97891775       0.26078330       0.17809552 </v>
    <v>       0.76119778       0.45791401       0.49923375 </v>
    <v>       0.55138424       0.39627700       0.45832163 </v>
    <v>       0.93627354       0.47164251       0.34956450 </v>
    <v>       0.75971832       0.15878863       0.09869209 </v>
    <v>       0.84231368       0.06560239       0.22126075 </v>
    <v>       0.58013882       0.49134724       0.09295701 </v>
    <v>       0.67409868       0.39738738       0.22126075 </v>
    <v>       0.76805855       0.30342751       0.34956450 </v>
    <v>       0.89410121       0.20143671       0.46678851 </v>
    <v>       0.07287764       0.66682343       0.30639927 </v>
    <v>       0.16638911       0.56814890       0.40815819 </v>
    <v>       0.38495789       0.85474317       0.04979178 </v>
    <v>       0.47891775       0.76078330       0.17809552 </v>
    <v>       0.17336568       0.05434662       0.55803296 </v>
    <v>       0.04007100       0.85752398       0.46783786 </v>
    <v>       0.43627354       0.97164251       0.34956450 </v>
    <v>       0.24935085       0.66394909       0.09949286 </v>
    <v>       0.34231368       0.56560239       0.22126075 </v>
    <v>       0.08013882       0.99134724       0.09295701 </v>
    <v>       0.17409868       0.89738738       0.22126075 </v>
    <v>       0.26805855       0.80342751       0.34956450 </v>
    <v>       0.36201842       0.70946764       0.47786825 </v>
    <v>       0.57287764       0.66682343       0.30639927 </v>
    <v>       0.66933823       0.57732259       0.40707782 </v>
    <v>       0.88648195       0.86847558       0.05562421 </v>
    <v>       0.97891775       0.76078330       0.17809552 </v>
    <v>       0.74700233       0.93420506       0.49805134 </v>
    <v>       0.50375359       0.87343706       0.47355073 </v>
    <v>       0.93627354       0.97164251       0.34956450 </v>
    <v>       0.74835381       0.65956226       0.09295701 </v>
    <v>       0.84231368       0.56560239       0.22126075 </v>
    <v>       0.58239706       0.98061755       0.10703041 </v>
    <v>       0.67409868       0.89738738       0.22126075 </v>
    <v>       0.76805855       0.80342751       0.34956450 </v>
    <v>       0.90162401       0.71125521       0.46510525 </v>
   </varray>
  </structure>
  <varray name="forces" >
   <v>       0.14307094      -0.40060777      -0.22089009 </v>
   <v>      -0.37742869      -0.10764075      -1.09185148 </v>
   <v>       1.16339527      -0.88902022       1.58931592 </v>
   <v>       0.34336181      -0.22975787      -0.80008511 </v>
   <v>       0.82946174      -0.40566664       1.58419671 </v>
   <v>      -1.29305448      -0.80470937       0.12074687 </v>
   <v>       0.19879997      -1.10650876       1.08212949 </v>
   <v>      -0.06962800       0.03965192       0.03733943 </v>
   <v>      -0.97112260       0.32622769      -1.45249651 </v>
   <v>       0.07630608       0.10118983       0.10274478 </v>
   <v>       0.35720580      -0.78740897      -1.89409587 </v>
   <v>       1.25862328       0.82606846       0.41648539 </v>
   <v>       0.51949084      -0.37335383       3.37064180 </v>
   <v>      -0.29398077       0.38577789      -1.47792999 </v>
   <v>       0.13969871      -0.22609962      -0.15942037 </v>
   <v>       0.36455345      -0.64382841      -0.87908083 </v>
   <v>      -0.13977015       0.64214737       1.50718528 </v>
   <v>      -0.57464569       0.65012539       0.47932303 </v>
   <v>      -0.60364044       0.01764460      -0.82979585 </v>
   <v>       0.31879721       0.09928747       1.73707724 </v>
   <v>      -0.04804947       0.01227593       0.03609352 </v>
   <v>       0.37044806      -0.78795678      -2.03406900 </v>
   <v>      -0.17564902       0.05701135       0.11747467 </v>
   <v>       0.74068718       0.41280122      -1.76144027 </v>
   <v>      -0.22817655       0.05148297       0.83639518 </v>
   <v>       0.40330467       0.31755347      -0.96408971 </v>
   <v>       0.12920962      -0.31410282      -0.13607883 </v>
   <v>      -1.03801924       0.21817432      -2.77472859 </v>
   <v>       0.19333484      -0.83729095       0.14208395 </v>
   <v>       0.09615925       0.46701993       1.42645816 </v>
   <v>      -0.54118450       0.18074546      -1.08795674 </v>
   <v>       0.50066206      -0.03672955       2.31247820 </v>
   <v>      -0.06543408       0.04511955       0.05453569 </v>
   <v>      -0.67401813       0.56615557      -1.26031138 </v>
   <v>      -0.15031361       0.06950921       0.04134288 </v>
   <v>       0.43163216       0.26179648      -2.44956125 </v>
   <v>       0.13795954       0.13192020       0.95807677 </v>
   <v>      -0.16270103       0.12690330       0.59075883 </v>
   <v>       0.57142280       0.27719237      -1.03472550 </v>
   <v>       0.17220030      -0.26887142      -0.07453145 </v>
   <v>       0.80420859       0.91182086      -1.03213844 </v>
   <v>       0.57028938      -0.21971141      -0.78400814 </v>
   <v>       0.83893794      -0.35585667       1.53046197 </v>
   <v>      -0.92070007       0.62238184       1.16310619 </v>
   <v>      -0.82059190       0.99264300      -1.66073969 </v>
   <v>       0.08446711      -1.25394877       0.83405154 </v>
   <v>      -0.09879412       0.09318958       0.04130532 </v>
   <v>      -0.57293196      -0.83261990      -2.76845076 </v>
   <v>       0.19511418       0.17847877       0.08144130 </v>
   <v>       0.11862800       1.16139411      -0.54329269 </v>
   <v>       0.72727068      -0.53873524       3.11687728 </v>
   <v>      -0.29620197       0.24798028      -1.58135503 </v>
   <v>       0.16331870      -0.15501390      -0.11650406 </v>
   <v>       0.81990324      -1.39981006      -3.09934626 </v>
   <v>      -0.40606939      -1.52245191      -3.67232872 </v>
   <v>       0.24966728      -0.09335870      -0.29695276 </v>
   <v>      -1.21583223       0.93978711       2.51781146 </v>
   <v>       1.22463510       2.55723779       2.22628445 </v>
   <v>      -0.14906056       0.18334191      -1.04136284 </v>
   <v>       1.24423667       1.58869843       0.51348034 </v>
   <v>      -0.07369966      -0.00011470       0.19797848 </v>
   <v>      -1.15958508       0.91116264      -2.24318579 </v>
   <v>      -0.04111845      -0.23407945       0.59402978 </v>
   <v>      -0.13094407      -0.39182077      -0.55671379 </v>
   <v>      -0.93611253      -1.37969705      -0.17768388 </v>
   <v>      -0.16230738       0.17163038      -0.73467317 </v>
   <v>       0.95989044      -0.43200129       0.80347202 </v>
   <v>       1.06831622       0.30912004      -2.99539907 </v>
   <v>      -0.18595529       0.17831941       1.41764897 </v>
   <v>       0.78089341       0.24943133       2.39979554 </v>
   <v>       0.50440885      -0.51623943       1.77246921 </v>
   <v>       0.14881097       0.10682962      -0.87575529 </v>
   <v>      -0.50874772       1.44813632       0.14694275 </v>
   <v>       0.12423340       0.06540567      -0.01016978 </v>
   <v>      -1.90021419      -1.62033879      -0.02434103 </v>
   <v>       0.01317319       0.05101222      -0.13531049 </v>
   <v>      -0.09610957      -0.16574948      -0.80693714 </v>
   <v>      -2.51682353       0.22808876       2.33895254 </v>
   <v>      -0.09326840       0.28255821      -1.01815489 </v>
   <v>      -0.52130111      -0.68760536       0.33109462 </v>
   <v>       0.60377722       0.18233135      -3.07445372 </v>
   <v>      -0.14801805       0.22524576       1.46069208 </v>
   <v>      -0.14286064       0.43070844       4.11653386 </v>
   <v>       0.13569106       0.80487050       2.14183018 </v>
   <v>      -0.38567015       0.05258555      -0.31008207 </v>
   <v>      -0.83382925       1.08078561      -0.10749670 </v>
   <v>       0.23508348       0.20473918       0.10644113 </v>
   <v>      -1.30847817      -1.33869330       0.05396883 </v>
   <v>       0.06961642       0.09538173      -0.02621392 </v>
   <v>       0.07366859       0.29806587      -0.23860767 </v>
   <v>       0.67349384       0.72718045       0.69326242 </v>
   <v>      -0.21490520       0.34366029      -1.07225282 </v>
   <v>       0.78694047      -0.07215294       0.39579656 </v>
   <v>       0.53064789      -2.43819953      -2.86330035 </v>
   <v>       0.10753212      -0.07483113       0.06884298 </v>
   <v>       0.67293455      -0.81881367       2.21980598 </v>
   <v>       1.48475703      -0.52227470       1.75485000 </v>
   <v>       0.21282679       0.16731371      -0.74854784 </v>
   <v>       1.11564939       1.47478105       0.57617691 </v>
   <v>      -0.03468754       0.01380674       0.24391751 </v>
   <v>      -1.64322750       0.45760168      -1.28764643 </v>
   <v>       0.04994236      -0.15447826       0.61065543 </v>
   <v>      -0.43778493       0.09026044      -0.50598118 </v>
   <v>      -1.49010301      -0.97359848       3.77966383 </v>
  </varray>
  <varray name="stress" >
   <v>      70.25741856      -2.73256334       3.33502188 </v>
   <v>      -2.73256356      74.30935986      -0.18798718 </v>
   <v>       3.33502196      -0.18798744      80.85269987 </v>
  </varray>
  <energy>
   <i name="e_fr_energy">   -505.78352660 </i>
   <i name="e_wo_entrp">   -505.19318573 </i>
   <i name="e_0_energy">     -1.18068174 </i>
  </energy>
  <time name="totalsc">  767.97  768.19</time>
  <eigenvalues>
   <array>
    <dimension dim="1">band</dimension>
    <dimension dim="2">kpoint</dimension>
    <dimension dim="3">spin</dimension>
    <field>eigene</field>
    <field>occ</field>
    <set>
     <set comment="spin 1">
      <set comment="kpoint 1">
       <r>  -62.9088    1.0000 </r>
       <r>  -62.7799    1.0000 </r>
       <r>  -62.5930    1.0000 </r>
       <r>  -62.5718    1.0000 </r>
       <r>  -62.5562    1.0000 </r>
       <r>  -62.5509    1.0000 </r>
       <r>  -62.4931    1.0000 </r>
       <r>  -62.4840    1.0000 </r>
       <r>  -62.4818    1.0000 </r>
       <r>  -62.4731    1.0000 </r>
       <r>  -62.4621    1.0000 </r>
       <r>  -62.4510    1.0000 </r>
       <r>  -62.4425    1.0000 </r>
       <r>  -62.4329    1.0000 </r>
       <r>  -62.4315    1.0000 </r>
       <r>  -62.4305    1.0000 </r>
       <r>  -62.4081    1.0000 </r>
       <r>  -62.4054    1.0000 </r>
       <r>  -62.3964    1.0000 </r>
       <r>  -62.3939    1.0000 </r>
       <r>  -62.3938    1.0000 </r>
       <r>  -62.3622    1.0000 </r>
       <r>  -62.3508    1.0000 </r>
       <r>  -62.3413    1.0000 </r>
       <r>  -62.3411    1.0000 </r>
       <r>  -62.3316    1.0000 </r>
       <r>  -62.3270    1.0000 </r>
       <r>  -62.3257    1.0000 </r>
       <r>  -62.2891    1.0000 </r>
       <r>  -62.2780    1.0000 </r>
       <r>  -62.2747    1.0000 </r>
       <r>  -62.2416    1.0000 </r>
       <r>  -62.2296    1.0000 </r>
       <r>  -62.2265    1.0000 </r>
       <r>  -62.2170    1.0000 </r>
       <r>  -62.2075    1.0000 </r>
       <r>  -62.2029    1.0000 </r>
       <r>  -62.1878    1.0000 </r>
       <r>  -62.1746    1.0000 </r>
       <r>  -62.1618    1.0000 </r>
       <r>  -62.1607    1.0000 </r>
       <r>  -62.1558    1.0000 </r>
       <r>  -62.1495    1.0000 </r>
       <r>  -62.1454    1.0000 </r>
       <r>  -62.1392    1.0000 </r>
       <r>  -62.1366    1.0000 </r>
       <r>  -62.1349    1.0000 </r>
       <r>  -62.1320    1.0000 </r>
       <r>  -62.1217    1.0000 </r>
       <r>  -62.1208    1.0000 </r>
       <r>  -62.1197    1.0000 </r>
       <r>  -62.0965    1.0000 </r>
       <r>  -62.0795    1.0000 </r>
       <r>  -62.0786    1.0000 </r>
       <r>  -62.0779    1.0000 </r>
       <r>  -62.0718    1.0000 </r>
       <r>  -62.0712    1.0000 </r>
       <r>  -62.0691    1.0000 </r>
       <r>  -62.0683    1.0000 </r>
       <r>  -62.0574    1.0000 </r>
       <r>  -62.0536    1.0000 </r>
       <r>  -62.0477    1.0000 </r>
       <r>  -62.0384    1.0000 </r>
       <r>  -62.0373    1.0000 </r>
       <r>  -62.0321    1.0000 </r>
       <r>  -62.0315    1.0000 </r>
       <r>  -62.0213    1.0000 </r>
       <r>  -62.0170    1.0000 </r>
       <r>  -62.0115    1.0000 </r>
       <r>  -62.0100    1.0000 </r>
       <r>  -62.0067    1.0000 </r>
       <r>  -62.0046    1.0000 </r>
       <r>  -62.0044    1.0000 </r>
       <r>  -62.0001    1.0000 </r>
       <r>  -61.9973    1.0000 </r>
       <r>  -61.9948    1.0000 </r>
       <r>  -61.9938    1.0000 </r>
       <r>  -61.9934    1.0000 </r>
       <r>  -61.9924    1.0000 </r>
       <r>  -61.9893    1.0000 </r>
       <r>  -61.9888    1.0000 </r>
       <r>  -61.9860    1.0000 </r>
       <r>  -61.9851    1.0000 </r>
       <r>  -61.9801    1.0000 </r>
       <r>  -61.9769    1.0000 </r>
       <r>  -61.9684    1.0000 </r>
       <r>  -61.9678    1.0000 </r>
       <r>  -61.9675    1.0000 </r>
       <r>  -61.9663    1.0000 </r>
       <r>  -61.9613    1.0000 </r>
       <r>  -61.9544    1.0000 </r>
       <r>  -61.9531    1.0000 </r>
       <r>  -61.9482    1.0000 </r>
       <r>  -61.9457    1.0000 </r>
       <r>  -61.9433    1.0000 </r>
       <r>  -61.9404    1.0000 </r>
       <r>  -61.9373    1.0000 </r>
       <r>  -61.9358    1.0000 </r>
       <r>  -61.9316    1.0000 </r>
       <r>  -61.9308    1.0000 </r>
       <r>  -61.9276    1.0000 </r>
       <r>  -61.9257    1.0000 </r>
       <r>  -61.9246    1.0000 </r>
       <r>  -61.9230    1.0000 </r>
       <r>  -61.9225    1.0000 </r>
       <r>  -61.9183    1.0000 </r>
       <r>  -61.9173    1.0000 </r>
       <r>  -61.9131    1.0000 </r>
       <r>  -61.9112    1.0000 </r>
       <r>  -61.9084    1.0000 </r>
       <r>  -61.9068    1.0000 </r>
       <r>  -61.9060    1.0000 </r>
       <r>  -61.9010    1.0000 </r>
       <r>  -61.8985    1.0000 </r>
       <r>  -61.8981    1.0000 </r>
       <r>  -61.8936    1.0000 </r>
       <r>  -61.8935    1.0000 </r>
       <r>  -61.8917    1.0000 </r>
       <r>  -61.8853    1.0000 </r>
       <r>  -61.8841    1.0000 </r>
       <r>  -61.8608    1.0000 </r>
       <r>  -61.8584    1.0000 </r>
       <r>  -61.8286    1.0000 </r>
       <r>  -61.8002    1.0000 </r>
       <r>  -61.7916    1.0000 </r>
       <r>  -61.7907    1.0000 </r>
       <r>  -61.7878    1.0000 </r>
       <r>  -61.7797    1.0000 </r>
       <r>  -61.7448    1.0000 </r>
       <r>  -61.7403    1.0000 </r>
       <r>  -61.7361    1.0000 </r>
       <r>  -61.7351    1.0000 </r>
       <r>  -61.7267    1.0000 </r>
       <r>  -61.7254    1.0000 </r>
       <r>  -61.7247    1.0000 </r>
       <r>  -61.7241    1.0000 </r>
       <r>  -61.7241    1.0000 </r>
       <r>  -61.7187    1.0000 </r>
       <r>  -61.7130    1.0000 </r>
       <r>  -61.6874    1.0000 </r>
       <r>  -61.6790    1.0000 </r>
       <r>  -61.6278    1.0000 </r>
       <r>  -61.6214    1.0000 </r>
       <r>  -61.5555    1.0000 </r>
       <r>  -61.5438    1.0000 </r>
       <r>  -61.5358    1.0000 </r>
       <r>  -61.4698    1.0000 </r>
       <r>  -61.4419    1.0000 </r>
       <r>  -61.4388    1.0000 </r>
       <r>  -61.4261    1.0000 </r>
       <r>  -61.3781    1.0000 </r>
       <r>  -61.3711    1.0000 </r>
       <r>  -61.3632    1.0000 </r>
       <r>  -61.1731    1.0000 </r>
       <r>  -61.1646    1.0000 </r>
       <r>  -61.1247    1.0000 </r>
       <r>  -14.2937    1.0000 </r>
       <r>  -14.1505    1.0000 </r>
       <r>  -13.8369    1.0000 </r>
       <r>  -13.6379    1.0000 </r>
       <r>  -13.5721    1.0000 </r>
       <r>  -13.5485    1.0000 </r>
       <r>  -13.5161    1.0000 </r>
       <r>  -13.3161    1.0000 </r>
       <r>  -13.2648    1.0000 </r>
       <r>  -13.1878    1.0000 </r>
       <r>  -13.0750    1.0000 </r>
       <r>  -12.9296    1.0000 </r>
       <r>  -12.8171    1.0000 </r>
       <r>  -12.7093    1.0000 </r>
       <r>  -12.6553    1.0000 </r>
       <r>  -12.6383    1.0000 </r>
       <r>  -12.5643    1.0000 </r>
       <r>  -12.5111    1.0000 </r>
       <r>  -12.4220    1.0000 </r>
       <r>  -12.3485    1.0000 </r>
       <r>  -12.3080    1.0000 </r>
       <r>  -12.2602    1.0000 </r>
       <r>  -12.1894    1.0000 </r>
       <r>  -12.1597    1.0000 </r>
       <r>  -12.1102    1.0000 </r>
       <r>  -12.0739    1.0000 </r>
       <r>  -12.0009    1.0000 </r>
       <r>  -11.9709    1.0000 </r>
       <r>  -11.9405    1.0000 </r>
       <r>  -11.9036    1.0000 </r>
       <r>  -11.8836    1.0000 </r>
       <r>  -11.8387    1.0000 </r>
       <r>  -11.7485    1.0000 </r>
       <r>  -11.6460    1.0000 </r>
       <r>  -11.6203    1.0000 </r>
       <r>  -11.5678    1.0000 </r>
       <r>  -11.5388    1.0000 </r>
       <r>  -11.5270    1.0000 </r>
       <r>  -11.4597    1.0000 </r>
       <r>  -11.4421    1.0000 </r>
       <r>  -11.3868    1.0000 </r>
       <r>  -11.3701    1.0000 </r>
       <r>  -11.3310    1.0000 </r>
       <r>  -11.2858    1.0000 </r>
       <r>  -11.2357    1.0000 </r>
       <r>  -11.1949    1.0000 </r>
       <r>  -11.0940    1.0000 </r>
       <r>  -11.0230    1.0000 </r>
       <r>  -10.9602    1.0000 </r>
       <r>  -10.8689    1.0000 </r>
       <r>  -10.6166    1.0000 </r>
       <r>  -10.4142    1.0000 </r>
       <r>   -6.1446    1.0000 </r>
       <r>   -6.0836    1.0000 </r>
       <r>   -6.0576    1.0000 </r>
       <r>   -5.9318    1.0000 </r>
       <r>   -5.8565    1.0000 </r>
       <r>   -5.7856    1.0000 </r>
       <r>   -5.7703    1.0000 </r>
       <r>   -5.6987    1.0000 </r>
       <r>   -5.5521    1.0000 </r>
       <r>   -5.5095    1.0000 </r>
       <r>   -5.4760    1.0000 </r>
       <r>   -5.4511    1.0000 </r>
       <r>   -5.3324    1.0000 </r>
       <r>   -5.2877    1.0000 </r>
       <r>   -5.2614    1.0000 </r>
       <r>   -5.1732    1.0000 </r>
       <r>   -5.1278    1.0000 </r>
       <r>   -5.0502    1.0000 </r>
       <r>   -5.0375    1.0000 </r>
       <r>   -4.9959    1.0000 </r>
       <r>   -4.9521    1.0000 </r>
       <r>   -4.8934    1.0000 </r>
       <r>   -4.8815    1.0000 </r>
       <r>   -4.8116    1.0000 </r>
       <r>   -4.7684    1.0000 </r>
       <r>   -4.7319    1.0000 </r>
       <r>   -4.7134    1.0000 </r>
       <r>   -4.6728    1.0000 </r>
       <r>   -4.6362    1.0000 </r>
       <r>   -4.6129    1.0000 </r>
       <r>   -4.5552    1.0000 </r>
       <r>   -4.5348    1.0000 </r>
       <r>   -4.5304    1.0000 </r>
       <r>   -4.4909    1.0000 </r>
       <r>   -4.4648    1.0000 </r>
       <r>   -4.4196    1.0000 </r>
       <r>   -4.3957    1.0000 </r>
       <r>   -4.3929    1.0000 </r>
       <r>   -4.3694    1.0000 </r>
       <r>   -4.3117    1.0000 </r>
       <r>   -4.2477    1.0000 </r>
       <r>   -4.2066    1.0000 </r>
       <r>   -4.1968    1.0000 </r>
       <r>   -4.1601    1.0000 </r>
       <r>   -4.1519    1.0000 </r>
       <r>   -4.1347    1.0000 </r>
       <r>   -4.1146    1.0000 </r>
       <r>   -4.0920    1.0000 </r>
       <r>   -4.0386    1.0000 </r>
       <r>   -4.0205    1.0000 </r>
       <r>   -3.9653    1.0000 </r>
       <r>   -3.9593    1.0000 </r>
       <r>   -3.9260    1.0000 </r>
       <r>   -3.9004    1.0000 </r>
       <r>   -3.8502    1.0000 </r>
       <r>   -3.8130    1.0000 </r>
       <r>   -3.7864    1.0000 </r>
       <r>   -3.7672    1.0000 </r>
       <r>   -3.7260    1.0000 </r>
       <r>   -3.7074    1.0000 </r>
       <r>   -3.6631    1.0000 </r>
       <r>   -3.6461    1.0000 </r>
       <r>   -3.5983    1.0000 </r>
       <r>   -3.5879    1.0000 </r>
       <r>   -3.5496    1.0000 </r>
       <r>   -3.5193    1.0000 </r>
       <r>   -3.4678    1.0000 </r>
       <r>   -3.4550    1.0000 </r>
       <r>   -3.4344    1.0000 </r>
       <r>   -3.3912    1.0000 </r>
       <r>   -3.3508    1.0000 </r>
       <r>   -3.3356    1.0000 </r>
       <r>   -3.3188    1.0000 </r>
       <r>   -3.2760    1.0000 </r>
       <r>   -3.2389    1.0000 </r>
       <r>   -3.2278    1.0000 </r>
       <r>   -3.1859    1.0000 </r>
       <r>   -3.1628    1.0000 </r>
       <r>   -3.1313    1.0000 </r>
       <r>   -3.1025    1.0000 </r>
       <r>   -3.0844    1.0000 </r>
       <r>   -3.0458    1.0000 </r>
       <r>   -3.0218    1.0000 </r>
       <r>   -3.0212    1.0000 </r>
       <r>   -2.9907    1.0000 </r>
       <r>   -2.9740    1.0000 </r>
       <r>   -2.9529    1.0000 </r>
       <r>   -2.9177    1.0000 </r>
       <r>   -2.8944    1.0000 </r>
       <r>   -2.8810    1.0000 </r>
       <r>   -2.8535    1.0000 </r>
       <r>   -2.8431    1.0000 </r>
       <r>   -2.8350    1.0000 </r>
       <r>   -2.7969    1.0000 </r>
       <r>   -2.7784    1.0000 </r>
       <r>   -2.7599    1.0000 </r>
       <r>   -2.7528    1.0000 </r>
       <r>   -2.7255    1.0000 </r>
       <r>   -2.7038    1.0000 </r>
       <r>   -2.6854    1.0000 </r>
       <r>   -2.6646    1.0000 </r>
       <r>   -2.6309    1.0000 </r>
       <r>   -2.6203    1.0000 </r>
       <r>   -2.6014    1.0000 </r>
       <r>   -2.5466    1.0000 </r>
       <r>   -2.5163    1.0000 </r>
       <r>   -2.4971    1.0000 </r>
       <r>   -2.4630    1.0000 </r>
       <r>   -2.4565    1.0000 </r>
       <r>   -2.4140    1.0000 </r>
       <r>   -2.4106    1.0000 </r>
       <r>   -2.3706    1.0000 </r>
       <r>   -2.3113    1.0000 </r>
       <r>   -2.3028    1.0000 </r>
       <r>   -2.2728    1.0000 </r>
       <r>   -2.2608    1.0000 </r>
       <r>   -2.2479    1.0000 </r>
       <r>   -2.2143    1.0000 </r>
       <r>   -2.2073    1.0000 </r>
       <r>   -2.1708    1.0000 </r>
       <r>   -2.1378    1.0000 </r>
       <r>   -2.1215    1.0000 </r>
       <r>   -2.1093    1.0000 </r>
       <r>   -2.0918    1.0000 </r>
       <r>   -2.0694    1.0000 </r>
       <r>   -2.0591    1.0000 </r>
       <r>   -2.0069    1.0000 </r>
       <r>   -1.9994    1.0000 </r>
       <r>   -1.9697    1.0000 </r>
       <r>   -1.9641    1.0000 </r>
       <r>   -1.9423    1.0000 </r>
       <r>   -1.9368    1.0000 </r>
       <r>   -1.8699    1.0000 </r>
       <r>   -1.8644    1.0000 </r>
       <r>   -1.8452    1.0000 </r>
       <r>   -1.8264    1.0000 </r>
       <r>   -1.7933    1.0000 </r>
       <r>   -1.7672    1.0000 </r>
       <r>   -1.7560    1.0000 </r>
       <r>   -1.7086    1.0000 </r>
       <r>   -1.6900    1.0000 </r>
       <r>   -1.5737    1.0000 </r>
       <r>   -1.5465    1.0000 </r>
       <r>   -1.5275    1.0000 </r>
       <r>   -1.4816    1.0000 </r>
       <r>   -1.4583    1.0000 </r>
       <r>   -1.4208    1.0000 </r>
       <r>   -1.3740    1.0000 </r>
       <r>   -1.3610    1.0000 </r>
       <r>   -1.3437    1.0000 </r>
       <r>   -1.3146    1.0000 </r>
[...]
       <r>   -55.7712     0.0000   312.0000 </r>
       <r>   -55.5104     0.0000   312.0000 </r>
       <r>   -55.2495     0.0000   312.0000 </r>
       <r>   -54.9887     0.0000   312.0000 </r>
       <r>   -54.7279     0.0000   312.0000 </r>
       <r>   -54.4670     0.0000   312.0000 </r>
       <r>   -54.2062     0.0000   312.0000 </r>
       <r>   -53.9453     0.0000   312.0000 </r>
       <r>   -53.6845     0.0000   312.0000 </r>
       <r>   -53.4236     0.0000   312.0000 </r>
       <r>   -53.1628     0.0000   312.0000 </r>
       <r>   -52.9020     0.0000   312.0000 </r>
       <r>   -52.6411     0.0000   312.0000 </r>
       <r>   -52.3803     0.0000   312.0000 </r>
       <r>   -52.1194     0.0000   312.0000 </r>
       <r>   -51.8586     0.0000   312.0000 </r>
       <r>   -51.5978     0.0000   312.0000 </r>
       <r>   -51.3369     0.0000   312.0000 </r>
       <r>   -51.0761     0.0000   312.0000 </r>
       <r>   -50.8152     0.0000   312.0000 </r>
       <r>   -50.5544     0.0000   312.0000 </r>
       <r>   -50.2936     0.0000   312.0000 </r>
       <r>   -50.0327     0.0000   312.0000 </r>
       <r>   -49.7719     0.0000   312.0000 </r>
       <r>   -49.5110     0.0000   312.0000 </r>
       <r>   -49.2502     0.0000   312.0000 </r>
       <r>   -48.9893     0.0000   312.0000 </r>
       <r>   -48.7285     0.0000   312.0000 </r>
       <r>   -48.4677     0.0000   312.0000 </r>
       <r>   -48.2068     0.0000   312.0000 </r>
       <r>   -47.9460     0.0000   312.0000 </r>
       <r>   -47.6851     0.0000   312.0000 </r>
       <r>   -47.4243     0.0000   312.0000 </r>
       <r>   -47.1635     0.0000   312.0000 </r>
       <r>   -46.9026     0.0000   312.0000 </r>
       <r>   -46.6418     0.0000   312.0000 </r>
       <r>   -46.3809     0.0000   312.0000 </r>
       <r>   -46.1201     0.0000   312.0000 </r>
       <r>   -45.8593     0.0000   312.0000 </r>
       <r>   -45.5984     0.0000   312.0000 </r>
       <r>   -45.3376     0.0000   312.0000 </r>
       <r>   -45.0767     0.0000   312.0000 </r>
       <r>   -44.8159     0.0000   312.0000 </r>
       <r>   -44.5551     0.0000   312.0000 </r>
       <r>   -44.2942     0.0000   312.0000 </r>
       <r>   -44.0334     0.0000   312.0000 </r>
       <r>   -43.7725     0.0000   312.0000 </r>
       <r>   -43.5117     0.0000   312.0000 </r>
       <r>   -43.2508     0.0000   312.0000 </r>
       <r>   -42.9900     0.0000   312.0000 </r>
       <r>   -42.7292     0.0000   312.0000 </r>
       <r>   -42.4683     0.0000   312.0000 </r>
       <r>   -42.2075     0.0000   312.0000 </r>
       <r>   -41.9466     0.0000   312.0000 </r>
       <r>   -41.6858     0.0000   312.0000 </r>
       <r>   -41.4250     0.0000   312.0000 </r>
       <r>   -41.1641     0.0000   312.0000 </r>
       <r>   -40.9033     0.0000   312.0000 </r>
       <r>   -40.6424     0.0000   312.0000 </r>
       <r>   -40.3816     0.0000   312.0000 </r>
       <r>   -40.1208     0.0000   312.0000 </r>
       <r>   -39.8599     0.0000   312.0000 </r>
       <r>   -39.5991     0.0000   312.0000 </r>
       <r>   -39.3382     0.0000   312.0000 </r>
       <r>   -39.0774     0.0000   312.0000 </r>
       <r>   -38.8165     0.0000   312.0000 </r>
       <r>   -38.5557     0.0000   312.0000 </r>
       <r>   -38.2949     0.0000   312.0000 </r>
       <r>   -38.0340     0.0000   312.0000 </r>
       <r>   -37.7732     0.0000   312.0000 </r>
       <r>   -37.5123     0.0000   312.0000 </r>
       <r>   -37.2515     0.0000   312.0000 </r>
       <r>   -36.9907     0.0000   312.0000 </r>
       <r>   -36.7298     0.0000   312.0000 </r>
       <r>   -36.4690     0.0000   312.0000 </r>
       <r>   -36.2081     0.0000   312.0000 </r>
       <r>   -35.9473     0.0000   312.0000 </r>
       <r>   -35.6865     0.0000   312.0000 </r>
       <r>   -35.4256     0.0000   312.0000 </r>
       <r>   -35.1648     0.0000   312.0000 </r>
       <r>   -34.9039     0.0000   312.0000 </r>
       <r>   -34.6431     0.0000   312.0000 </r>
       <r>   -34.3822     0.0000   312.0000 </r>
       <r>   -34.1214     0.0000   312.0000 </r>
       <r>   -33.8606     0.0000   312.0000 </r>
       <r>   -33.5997     0.0000   312.0000 </r>
       <r>   -33.3389     0.0000   312.0000 </r>
       <r>   -33.0780     0.0000   312.0000 </r>
       <r>   -32.8172     0.0000   312.0000 </r>
       <r>   -32.5564     0.0000   312.0000 </r>
       <r>   -32.2955     0.0000   312.0000 </r>
       <r>   -32.0347     0.0000   312.0000 </r>
       <r>   -31.7738     0.0000   312.0000 </r>
       <r>   -31.5130     0.0000   312.0000 </r>
       <r>   -31.2522     0.0000   312.0000 </r>
       <r>   -30.9913     0.0000   312.0000 </r>
       <r>   -30.7305     0.0000   312.0000 </r>
       <r>   -30.4696     0.0000   312.0000 </r>
       <r>   -30.2088     0.0000   312.0000 </r>
       <r>   -29.9480     0.0000   312.0000 </r>
       <r>   -29.6871     0.0000   312.0000 </r>
       <r>   -29.4263     0.0000   312.0000 </r>
       <r>   -29.1654     0.0000   312.0000 </r>
       <r>   -28.9046     0.0000   312.0000 </r>
       <r>   -28.6437     0.0000   312.0000 </r>
       <r>   -28.3829     0.0000   312.0000 </r>
       <r>   -28.1221     0.0000   312.0000 </r>
       <r>   -27.8612     0.0000   312.0000 </r>
       <r>   -27.6004     0.0000   312.0000 </r>
       <r>   -27.3395     0.0000   312.0000 </r>
       <r>   -27.0787     0.0000   312.0000 </r>
       <r>   -26.8179     0.0000   312.0000 </r>
       <r>   -26.5570     0.0000   312.0000 </r>
       <r>   -26.2962     0.0000   312.0000 </r>
       <r>   -26.0353     0.0000   312.0000 </r>
       <r>   -25.7745     0.0000   312.0000 </r>
       <r>   -25.5137     0.0000   312.0000 </r>
       <r>   -25.2528     0.0000   312.0000 </r>
       <r>   -24.9920     0.0000   312.0000 </r>
       <r>   -24.7311     0.0000   312.0000 </r>
       <r>   -24.4703     0.0000   312.0000 </r>
       <r>   -24.2094     0.0000   312.0000 </r>
       <r>   -23.9486     0.0000   312.0000 </r>
       <r>   -23.6878     0.0000   312.0000 </r>
       <r>   -23.4269     0.0000   312.0000 </r>
       <r>   -23.1661     0.0000   312.0000 </r>
       <r>   -22.9052     0.0000   312.0000 </r>
       <r>   -22.6444     0.0000   312.0000 </r>
       <r>   -22.3836     0.0000   312.0000 </r>
       <r>   -22.1227     0.0000   312.0000 </r>
       <r>   -21.8619     0.0000   312.0000 </r>
       <r>   -21.6010     0.0000   312.0000 </r>
       <r>   -21.3402     0.0000   312.0000 </r>
       <r>   -21.0794     0.0000   312.0000 </r>
       <r>   -20.8185     0.0000   312.0000 </r>
       <r>   -20.5577     0.0000   312.0000 </r>
       <r>   -20.2968     0.0000   312.0000 </r>
       <r>   -20.0360     0.0000   312.0000 </r>
       <r>   -19.7751     0.0000   312.0000 </r>
       <r>   -19.5143     0.0000   312.0000 </r>
       <r>   -19.2535     0.0000   312.0000 </r>
       <r>   -18.9926     0.0000   312.0000 </r>
       <r>   -18.7318     0.0000   312.0000 </r>
       <r>   -18.4709     0.0000   312.0000 </r>
       <r>   -18.2101     0.0000   312.0000 </r>
       <r>   -17.9493     0.0000   312.0000 </r>
       <r>   -17.6884     0.0000   312.0000 </r>
       <r>   -17.4276     0.0000   312.0000 </r>
       <r>   -17.1667     0.0000   312.0000 </r>
       <r>   -16.9059     0.0000   312.0000 </r>
       <r>   -16.6451     0.0000   312.0000 </r>
       <r>   -16.3842     0.0000   312.0000 </r>
       <r>   -16.1234     0.0000   312.0000 </r>
       <r>   -15.8625     0.0000   312.0000 </r>
       <r>   -15.6017     0.0000   312.0000 </r>
       <r>   -15.3408     0.0000   312.0000 </r>
       <r>   -15.0800     0.0000   312.0000 </r>
       <r>   -14.8192     0.0008   312.0002 </r>
       <r>   -14.5583     0.2495   312.0653 </r>
       <r>   -14.2975     4.6517   313.2786 </r>
       <r>   -14.0366     9.1855   315.6746 </r>
       <r>   -13.7758     8.8410   317.9807 </r>
       <r>   -13.5150    20.6193   323.3591 </r>
       <r>   -13.2541    22.1424   329.1347 </r>
       <r>   -12.9933    19.1580   334.1319 </r>
       <r>   -12.7324    21.0484   339.6222 </r>
       <r>   -12.4716    31.1589   347.7497 </r>
       <r>   -12.2108    35.5336   357.0183 </r>
       <r>   -11.9499    43.9001   368.4693 </r>
       <r>   -11.6891    40.9680   379.1554 </r>
       <r>   -11.4282    46.3092   391.2347 </r>
       <r>   -11.1674    43.4720   402.5740 </r>
       <r>   -10.9066    26.3895   409.4575 </r>
       <r>   -10.6457    12.7698   412.7884 </r>
       <r>   -10.3849     8.7185   415.0625 </r>
       <r>   -10.1240     3.4381   415.9594 </r>
       <r>    -9.8632     0.1555   415.9999 </r>
       <r>    -9.6023     0.0004   416.0000 </r>
       <r>    -9.3415     0.0000   416.0000 </r>
       <r>    -9.0807     0.0000   416.0000 </r>
       <r>    -8.8198     0.0000   416.0000 </r>
       <r>    -8.5590     0.0000   416.0000 </r>
       <r>    -8.2981     0.0000   416.0000 </r>
       <r>    -8.0373     0.0000   416.0000 </r>
       <r>    -7.7765     0.0000   416.0000 </r>
       <r>    -7.5156     0.0000   416.0000 </r>
       <r>    -7.2548     0.0000   416.0000 </r>
       <r>    -6.9939     0.0000   416.0000 </r>
       <r>    -6.7331     0.0001   416.0000 </r>
       <r>    -6.4723     0.1150   416.0300 </r>
       <r>    -6.2114     5.0393   417.3445 </r>
       <r>    -5.9506    21.5381   422.9625 </r>
       <r>    -5.6897    28.5757   430.4162 </r>
       <r>    -5.4289    31.0521   438.5159 </r>
       <r>    -5.1680    35.5226   447.7816 </r>
       <r>    -4.9072    43.2503   459.0631 </r>
       <r>    -4.6464    53.5404   473.0286 </r>
       <r>    -4.3855    64.2922   489.7987 </r>
       <r>    -4.1247    66.1400   507.0507 </r>
       <r>    -3.8638    66.8604   524.4906 </r>
       <r>    -3.6030    64.6408   541.3516 </r>
       <r>    -3.3422    66.3840   558.6673 </r>
       <r>    -3.0813    73.6401   577.8756 </r>
       <r>    -2.8205    89.5559   601.2355 </r>
       <r>    -2.5596    88.0401   624.2000 </r>
       <r>    -2.2988    78.1294   644.5793 </r>
       <r>    -2.0380    87.6546   667.4433 </r>
       <r>    -1.7771    82.0357   688.8415 </r>
       <r>    -1.5163    58.4059   704.0762 </r>
       <r>    -1.2554    69.0481   722.0868 </r>
       <r>    -0.9946    91.6404   745.9904 </r>
       <r>    -0.7337   100.7500   772.2701 </r>
       <r>    -0.4729   112.1612   801.5264 </r>
       <r>    -0.2121   144.9813   839.3435 </r>
       <r>     0.0488   173.2308   884.5292 </r>
       <r>     0.3096   195.5656   935.5407 </r>
       <r>     0.5705   195.4558   986.5236 </r>
       <r>     0.8313   163.8785  1029.2698 </r>
       <r>     1.0921   126.2066  1062.1897 </r>
       <r>     1.3530   100.9127  1088.5119 </r>
       <r>     1.6138    88.2832  1111.5398 </r>
       <r>     1.8747    75.3976  1131.2066 </r>
       <r>     2.1355    62.5420  1147.5201 </r>
       <r>     2.3963    59.5003  1163.0402 </r>
       <r>     2.6572    69.2717  1181.1091 </r>
       <r>     2.9180    73.0751  1200.1701 </r>
       <r>     3.1789    71.1592  1218.7313 </r>
       <r>     3.4397    52.5468  1232.4377 </r>
       <r>     3.7005    31.6805  1240.7013 </r>
       <r>     3.9614    20.6517  1246.0881 </r>
       <r>     4.2222    13.5851  1249.6316 </r>
       <r>     4.4831     7.9416  1251.7032 </r>
       <r>     4.7439     7.2539  1253.5953 </r>
       <r>     5.0048     6.2271  1255.2195 </r>
       <r>     5.2656    11.3846  1258.1891 </r>
       <r>     5.5264    15.4307  1262.2141 </r>
       <r>     5.7873    18.5899  1267.0631 </r>
       <r>     6.0481    18.4995  1271.8885 </r>
       <r>     6.3090    26.9221  1278.9109 </r>
       <r>     6.5698    37.2056  1288.6157 </r>
       <r>     6.8306    34.9335  1297.7277 </r>
       <r>     7.0915    38.0928  1307.6639 </r>
       <r>     7.3523    44.1880  1319.1900 </r>
       <r>     7.6132    57.5940  1334.2128 </r>
       <r>     7.8740    61.3837  1350.2242 </r>
       <r>     8.1348    53.9894  1364.3069 </r>
       <r>     8.3957    27.0252  1371.3562 </r>
       <r>     8.6565     2.4510  1371.9955 </r>
       <r>     8.9174     0.0173  1372.0000 </r>
       <r>     9.1782     0.0000  1372.0000 </r>
       <r>     9.4391     0.0000  1372.0000 </r>
       <r>     9.6999     0.0000  1372.0000 </r>
       <r>     9.9607     0.0000  1372.0000 </r>
       <r>    10.2216     0.0000  1372.0000 </r>
       <r>    10.4824     0.0000  1372.0000 </r>
       <r>    10.7433     0.0000  1372.0000 </r>
       <r>    11.0041     0.0000  1372.0000 </r>
       <r>    11.2649     0.0000  1372.0000 </r>
       <r>    11.5258     0.0000  1372.0000 </r>
       <r>    11.7866     0.0000  1372.0000 </r>
      </set>
     </set>
    </array>
   </total>
  </dos>
 </calculation>
 <structure name="finalpos" >
  <crystal>
   <varray name="basis" >
    <v>      11.25646304       0.00000000       0.00000000 </v>
    <v>       5.04456212      10.06282034       0.00000000 </v>
    <v>       0.00000000       0.00000000      22.88364939 </v>
   </varray>
   <i name="volume">   2592.07135999 </i>
   <varray name="rec_basis" >
    <v>       0.08883785      -0.04453504       0.00000000 </v>
    <v>       0.00000000       0.09937572       0.00000000 </v>
    <v>       0.00000000       0.00000000       0.04369932 </v>
   </varray>
  </crystal>
  <varray name="positions" >
   <v>       0.26092070       0.47878036       0.29050611 </v>
   <v>       0.35488056       0.38482049       0.41880986 </v>
   <v>       0.48288205       0.28700852       0.50535889 </v>
   <v>       0.02606351       0.19983062       0.09007005 </v>
   <v>       0.16696083       0.07274024       0.16220237 </v>
   <v>       0.05853092       0.02856549       0.49422831 </v>
   <v>       0.27423906       0.33335899       0.12830375 </v>
   <v>       0.36819893       0.23939913       0.25660749 </v>
   <v>       0.46215880       0.14543926       0.38491124 </v>
   <v>       0.00030194       0.37150212       0.25660749 </v>
   <v>       0.09426181       0.27754226       0.38491124 </v>
   <v>       0.18906039       0.18429698       0.49926987 </v>
   <v>       0.40634206       0.46546199       0.12830375 </v>
   <v>       0.21625983       0.02616376       0.04344259 </v>
   <v>       0.76092070       0.47878036       0.29050611 </v>
   <v>       0.85488056       0.38482049       0.41880986 </v>
   <v>       0.66696083       0.07274024       0.16220237 </v>
   <v>       0.55121366       0.03500691       0.47777175 </v>
   <v>       0.74726217       0.28618865       0.02904920 </v>
   <v>       0.77423906       0.33335899       0.12830375 </v>
   <v>       0.86819893       0.23939913       0.25660749 </v>
   <v>       0.96215880       0.14543926       0.38491124 </v>
   <v>       0.50030194       0.37150212       0.25660749 </v>
   <v>       0.59426181       0.27754226       0.38491124 </v>
   <v>       0.90634206       0.46546199       0.12830375 </v>
   <v>       0.91471700       0.04667965       0.03536806 </v>
   <v>       0.26092070       0.97878036       0.29050611 </v>
   <v>       0.35488056       0.88482049       0.41880986 </v>
   <v>       0.32089909       0.90075315       0.51787299 </v>
   <v>       0.16696083       0.57274024       0.16220237 </v>
   <v>       0.22886896       0.80246156       0.03246028 </v>
   <v>       0.27423907       0.83335899       0.12830375 </v>
   <v>       0.36819893       0.73939913       0.25660749 </v>
   <v>       0.46215880       0.64543926       0.38491124 </v>
   <v>       0.00030194       0.87150212       0.25660749 </v>
   <v>       0.09426181       0.77754226       0.38491124 </v>
   <v>       0.20313688       0.66383394       0.47707193 </v>
   <v>       0.40634206       0.96546199       0.12830375 </v>
   <v>       0.40160464       0.56507749       0.03934805 </v>
   <v>       0.76092070       0.97878036       0.29050611 </v>
   <v>       0.85488056       0.88482049       0.41880986 </v>
   <v>       0.52116380       0.69732057       0.09037746 </v>
   <v>       0.66696083       0.57274024       0.16220237 </v>
   <v>       0.56675441       0.56868359       0.48056251 </v>
   <v>       0.70535934       0.02856355       0.05543409 </v>
   <v>       0.77423907       0.83335899       0.12830375 </v>
   <v>       0.86819893       0.73939913       0.25660749 </v>
   <v>       0.96215880       0.64543926       0.38491124 </v>
   <v>       0.50030194       0.87150212       0.25660749 </v>
   <v>       0.59426181       0.77754226       0.38491124 </v>
   <v>       0.90634206       0.96546199       0.12830375 </v>
   <v>       0.71549819       0.52513115       0.04404094 </v>
   <v>       0.07287763       0.16682343       0.30639927 </v>
   <v>       0.16683750       0.07286357       0.43470302 </v>
   <v>       0.34120216       0.41021476       0.05694555 </v>
   <v>       0.47891775       0.26078330       0.17809552 </v>
   <v>       0.31126394       0.46722143       0.50479818 </v>
   <v>       0.03098099       0.35350488       0.46566081 </v>
   <v>       0.43627354       0.47164251       0.34956450 </v>
   <v>       0.24835381       0.15956225       0.09295701 </v>
   <v>       0.34231368       0.06560239       0.22126075 </v>
   <v>       0.08293449       0.47788781       0.11189954 </v>
   <v>       0.17409868       0.39738738       0.22126075 </v>
   <v>       0.26805855       0.30342751       0.34956450 </v>
   <v>       0.36201842       0.20946765       0.47786825 </v>
   <v>       0.57287763       0.16682343       0.30639927 </v>
   <v>       0.65961215       0.08089912       0.41435636 </v>
   <v>       0.88495789       0.35474317       0.04979178 </v>
   <v>       0.97891775       0.26078330       0.17809552 </v>
   <v>       0.76119778       0.45791401       0.49923375 </v>
   <v>       0.55138424       0.39627700       0.45832163 </v>
   <v>       0.93627354       0.47164251       0.34956450 </v>
   <v>       0.75971832       0.15878863       0.09869209 </v>
   <v>       0.84231368       0.06560239       0.22126075 </v>
   <v>       0.58013882       0.49134724       0.09295701 </v>
   <v>       0.67409868       0.39738738       0.22126075 </v>
   <v>       0.76805855       0.30342751       0.34956450 </v>
   <v>       0.89410121       0.20143671       0.46678851 </v>
   <v>       0.07287764       0.66682343       0.30639927 </v>
   <v>       0.16638911       0.56814890       0.40815819 </v>
   <v>       0.38495789       0.85474317       0.04979178 </v>
   <v>       0.47891775       0.76078330       0.17809552 </v>
   <v>       0.17336568       0.05434662       0.55803296 </v>
   <v>       0.04007100       0.85752398       0.46783786 </v>
   <v>       0.43627354       0.97164251       0.34956450 </v>
   <v>       0.24935085       0.66394909       0.09949286 </v>
   <v>       0.34231368       0.56560239       0.22126075 </v>
   <v>       0.08013882       0.99134724       0.09295701 </v>
   <v>       0.17409868       0.89738738       0.22126075 </v>
   <v>       0.26805855       0.80342751       0.34956450 </v>
   <v>       0.36201842       0.70946764       0.47786825 </v>
   <v>       0.57287764       0.66682343       0.30639927 </v>
   <v>       0.66933823       0.57732259       0.40707782 </v>
   <v>       0.88648195       0.86847558       0.05562421 </v>
   <v>       0.97891775       0.76078330       0.17809552 </v>
   <v>       0.74700233       0.93420506       0.49805134 </v>
   <v>       0.50375359       0.87343706       0.47355073 </v>
   <v>       0.93627354       0.97164251       0.34956450 </v>
   <v>       0.74835381       0.65956226       0.09295701 </v>
   <v>       0.84231368       0.56560239       0.22126075 </v>
   <v>       0.58239706       0.98061755       0.10703041 </v>
   <v>       0.67409868       0.89738738       0.22126075 </v>
   <v>       0.76805855       0.80342751       0.34956450 </v>
   <v>       0.90162401       0.71125521       0.46510525 </v>
  </varray>
 </structure>
</modeling>
