
72 atoms
2 atom types
   0.0000000000    9.5784100000 xlo xhi
   0.0000000000   10.4033537511 ylo yhi
   0.0000000000   19.9969559647 zlo zhi
  -4.7892049999    0.0000000000    0.0000000000 xy xz yz

Atoms # atomic

     1      1    4.0556245250    4.4635129129    1.0228076832
     2      1    4.0556245298    6.3581094339    3.5259223267
     3      1    4.0556245346    8.2527059550    6.0290369902
     4      1    4.0556245299   10.1473024761    8.5321516338
     5      1    4.0556245250    0.6856046174    5.1946654424
     6      1    4.0556245298    2.5802011385    7.6977800859
     7      1   -0.7335804702    7.2997653159    0.1884361353
     8      1   -0.7335804654    9.1943618370    2.6915507789
     9      1   -0.7335804654    1.6272604994    1.8571792310
    10      1   -0.7335804702    3.5218570205    4.3602938746
    11      1   -0.7335804654    5.4164535415    6.8634085381
    12      1   -0.7335804702    7.3110500626    9.3665231816
    13      1    5.3209612260    2.7160119697    2.3454834989
    14      1    5.3209612213    4.6106084908    4.8485981425
    15      1    5.3209612261    6.5052050118    7.3517128060
    16      1    5.3209612309    8.3998015329    9.8548274495
    17      1    5.3209612212    0.8327001953    9.0204559017
    18      1    0.5317562308    5.5522643728    1.5111119511
    19      1    0.5317562261    7.4468608938    4.0142265946
    20      1    0.5317562261    9.3414574253    6.5173412582
    21      1    0.5317562308    1.7743560773    5.6829697103
    22      1    0.5317562260    3.6689525984    8.1860843539
    23      1   -4.2574487739   10.2831133073    3.1798550468
    24      1    5.3209612213    8.3885167862    0.6767404032
    25      1   -2.9921120729    8.2527059550    6.0290369902
    26      1   -2.9921120777   10.1473024761    8.5321516338
    27      1    6.5862979175    4.4635129129    1.0228076832
    28      1    6.5862979223    6.3581094339    3.5259223267
    29      1    6.5862979175    0.6856046174    5.1946654424
    30      1    6.5862979223    2.5802011385    7.6977800859
    31      1    1.7970929223    7.2997653159    0.1884361353
    32      1    1.7970929271    9.1943618370    2.6915507789
    33      1    1.7970929270    1.6272604994    1.8571792310
    34      1    1.7970929223    3.5218570205    4.3602938746
    35      1    1.7970929271    5.4164535415    6.8634085381
    36      1    1.7970929223    7.3110500626    9.3665231816
    37      2   -2.6462165358    6.0272031990    5.8406008349
    38      2   -2.6462165358    7.9217997305    8.3437154985
    39      2    6.9321934642    2.2380101568    0.8343715478
    40      2    6.9321934690    4.1326066779    3.3374861914
    41      2    6.9321934690    0.3546983825    7.5093439506
    42      2    2.1429884642    5.0742625703    0.0000000000
    43      2    2.1429884690    6.9688590914    2.5031146435
    44      2    2.1429884642    8.8634556124    5.0062292871
    45      2    2.1429884642    1.2963542749    4.1718577392
    46      2    2.1429884594    3.1909507959    6.6749723828
    47      2    2.1429884642    5.0855473170    9.1780870463
    48      2   -2.6462165406    9.8051115048    1.6687430957
    49      2    0.5317562212    1.6382445892    9.1625844062
    50      2   -4.2574487691   10.1470018087    6.6594697627
    51      2    5.3209612309    6.3578087666    1.6532404756
    52      2    5.3209612261    8.2524052877    4.1563551191
    53      2    5.3209612260    0.6853039501    3.3219835713
    54      2    5.3209612308    2.5799004711    5.8250982148
    55      2    5.3209612261    4.4744969922    8.3282128583
    56      2    0.5317562213    9.1940611801    0.8188689277
    57      2    0.5317562260    3.5215563635    2.4876120234
    58      2    0.5317562213    5.4161528846    4.9907266670
    59      2    0.5317562261    7.3107494057    7.4938413105
    60      2    0.5317562213    9.2053459267    9.9969559740
    61      2    3.7097289879    2.2380101568    0.8343715478
    62      2    3.7097289927    4.1326066779    3.3374861914
    63      2    3.7097289879    6.0272031990    5.8406008349
    64      2    3.7097289879    7.9217997305    8.3437154985
    65      2    3.7097289927    0.3546983825    7.5093439506
    66      2   -1.0794760121    5.0742625703    0.0000000000
    67      2   -1.0794760073    6.9688590914    2.5031146435
    68      2   -1.0794760121    8.8634556124    5.0062292871
    69      2   -1.0794760169    3.1909507959    6.6749723828
    70      2   -1.0794760121    5.0855473170    9.1780870463
    71      2    8.4989339879    1.2963542749    4.1718577392
    72      2    3.7097289831    9.8051115048    1.6687430957
