"Millerite NiS"                         
           1
    16.884694    0.000000    0.000000
     0.000000    9.578410    0.000000
     0.000000    0.000000   16.654646
   Ni   S 
    37    37
Direct configuration=     1
   0.78004630  0.14529696  0.12347080
   0.81461426  0.14529696  0.30867699
   0.26276233  0.64529696  0.03086770
   0.29733028  0.64529696  0.21607389
   0.43519032  0.14529696  0.06173540
   0.46975828  0.14529696  0.24694159
   0.95247430  0.64529696  0.15433850
   0.98704225  0.64529696  0.33954469
   0.09033433  0.14529696  0.00000000
   0.12490229  0.14529696  0.18520619
   0.15947025  0.14529696  0.37041239
   0.60761831  0.64529696  0.09260310
   0.64218627  0.64529696  0.27780929
   0.90758277  0.01319396  0.09900450
   0.94215073  0.01319396  0.28421070
   0.39029880  0.51319396  0.00640140
   0.42486675  0.51319396  0.19160760
   0.45943471  0.51319396  0.37681380
   0.56272679  0.01319396  0.03726910
   0.59729475  0.01319396  0.22247530
   0.08001077  0.51319396  0.12987220
   0.11457872  0.51319396  0.31507840
   0.25243876  0.01319396  0.16073990
   0.28700672  0.01319396  0.34594610
   0.73515478  0.51319396  0.06813680
   0.76972274  0.51319396  0.25334300
   0.90758277  0.27739996  0.09900450
   0.94215073  0.27739996  0.28421070
   0.39029880  0.77739996  0.00640140
   0.42486675  0.77739996  0.19160760
   0.56272679  0.27739996  0.03726910
   0.59729475  0.27739996  0.22247530
   0.08001077  0.77739996  0.12987220
   0.11457872  0.77739996  0.31507840
   0.25243876  0.27739996  0.16073990
   0.73515478  0.77739996  0.06813680
   0.76972274  0.77739996  0.25334300
   0.02602916  0.14529696  0.36869923
   0.99146120  0.14529696  0.18349304
   0.47417722  0.64529696  0.09088994
   0.50874518  0.64529696  0.27609614
   0.64660522  0.14529696  0.12175764
   0.68117317  0.14529696  0.30696383
   0.12932124  0.64529696  0.02915454
   0.16388920  0.64529696  0.21436074
   0.19845715  0.64529696  0.39956693
   0.30174923  0.14529696  0.06002224
   0.33631719  0.14529696  0.24522844
   0.81903321  0.64529696  0.15262534
   0.85360117  0.64529696  0.33783153
   0.79449310  0.31351196  0.02944130
   0.82906105  0.31351196  0.21464750
   0.31177707  0.81351196  0.12204440
   0.34634503  0.81351196  0.30725060
   0.48420507  0.31351196  0.15291210
   0.51877302  0.31351196  0.33811830
   0.00148905  0.81351196  0.24551520
   0.96692109  0.81351196  0.06030900
   0.13934908  0.31351196  0.09117670
   0.17391704  0.31351196  0.27638290
   0.65663306  0.81351196  0.18377980
   0.69120102  0.81351196  0.36898599
   0.31177707  0.47708196  0.12204440
   0.34634503  0.47708196  0.30725060
   0.79449310  0.97708196  0.02944130
   0.82906105  0.97708196  0.21464750
   0.00148905  0.47708196  0.24551520
   0.96692109  0.47708196  0.06030900
   0.48420507  0.97708196  0.15291210
   0.51877302  0.97708196  0.33811830
   0.65663306  0.47708196  0.18377980
   0.69120102  0.47708196  0.36898599
   0.13934908  0.97708196  0.09117670
   0.17391704  0.97708196  0.27638290
