<?xml version="1.0" encoding="ISO-8859-1"?>
<modeling>
 <generator>
  <i name="program" type="string">vasp </i>
  <i name="version" type="string">5.4.4.18Apr17-6-g9f103f2a35  </i>
  <i name="subversion" type="string">(build Aug 13 2019 17:33:20) gamma-only         parallel </i>
  <i name="platform" type="string">LinuxIFC </i>
  <i name="date" type="string">2020 05 12 </i>
  <i name="time" type="string">05:43:41 </i>
 </generator>
 <incar>
  <i type="string" name="SYSTEM">"Millerite NiS"</i>
  <i type="string" name="PREC">normal</i>
  <i type="int" name="NSIM">     4</i>
  <i type="int" name="NELM">   100</i>
  <i name="ENCUT">    450.00000000</i>
  <i type="string" name="LREAL">A</i>
  <i type="int" name="ISMEAR">     0</i>
  <i type="int" name="NWRITE">     2</i>
  <i type="logical" name="LWAVE"> F  </i>
  <i type="logical" name="LCHARG"> F  </i>
  <v type="int" name="KPOINT_BSE">    -1     0     0     0</v>
  <i type="int" name="NELM">   100</i>
 </incar>
 <structure name="primitive_cell" >
  <crystal>
   <varray name="basis" >
    <v>      16.88469405       0.00000000       0.00000000 </v>
    <v>       0.00000000       9.57841000       0.00000000 </v>
    <v>       0.00000000       0.00000000      16.29945638 </v>
   </varray>
   <i name="volume">   2636.08699611 </i>
   <varray name="rec_basis" >
    <v>       0.05922524       0.00000000       0.00000000 </v>
    <v>       0.00000000       0.10440146       0.00000000 </v>
    <v>       0.00000000       0.00000000       0.06135174 </v>
   </varray>
  </crystal>
  <varray name="positions" >
   <v>      -0.21995369       0.14529695       0.12761889 </v>
   <v>      -0.19474457      -0.02863047       0.05700768 </v>
   <v>      -0.19475335       0.31928806       0.05704323 </v>
   <v>      -0.35339478       0.14529695       0.12586840 </v>
   <v>      -0.17093895       0.31351195       0.22078247 </v>
   <v>      -0.17093895      -0.02291805       0.22078247 </v>
   <v>      -0.09149785       0.00645619       0.12429324 </v>
   <v>      -0.09149032       0.28417812       0.12429665 </v>
   <v>      -0.20213837       0.14529591       0.28949561 </v>
   <v>      -0.32443457       0.14519818       0.29236144 </v>
   <v>      -0.25701063      -0.20459915       0.09876412 </v>
   <v>      -0.25707629       0.49524831       0.09872862 </v>
   <v>      -0.39801314      -0.06707954       0.09401873 </v>
   <v>      -0.39833366       0.35761777       0.09407495 </v>
   <v>      -0.00853879       0.14529695       0.18894910 </v>
   <v>      -0.40270525       0.27739995       0.22878085 </v>
   <v>      -0.40270525       0.01319395       0.22878085 </v>
   <v>      -0.05777328       0.01284007       0.27666809 </v>
   <v>      -0.05776924       0.27776852       0.27666516 </v>
   <v>      -0.34336694       0.47708195       0.18924211 </v>
   <v>      -0.34336694      -0.18648805       0.18924211 </v>
   <v>      -0.23027726      -0.48680605       0.26032120 </v>
   <v>      -0.23027726      -0.22260005       0.26032120 </v>
   <v>      -0.34969820       0.49575131       0.01576877 </v>
   <v>      -0.34954028      -0.20544034       0.01570745 </v>
   <v>      -0.03263049      -0.17639208       0.08822512 </v>
   <v>      -0.03255006       0.46698540       0.08824743 </v>
   <v>      -0.18096679      -0.35470305       0.15740875 </v>
   <v>      -0.30472278      -0.49954247       0.35666440 </v>
   <v>      -0.30470543      -0.20990405       0.35667227 </v>
   <v>       0.48420507       0.31351195       0.15770176 </v>
   <v>       0.48420507      -0.02291805       0.15770176 </v>
   <v>      -0.00081740       0.14530390       0.35811082 </v>
   <v>       0.00148905       0.47708195       0.25232282 </v>
   <v>       0.00148905      -0.18648805       0.25232282 </v>
   <v>      -0.39238169      -0.35470305       0.09607854 </v>
   <v>      -0.04752570      -0.35470305       0.15915924 </v>
   <v>       0.46975828       0.14529695       0.25378030 </v>
   <v>      -0.47801404       0.29515838       0.32909672 </v>
   <v>      -0.47877679      -0.00661745       0.32844370 </v>
   <v>      -0.15285124      -0.35470672       0.32425157 </v>
   <v>       0.12490229       0.14529695       0.19069959 </v>
   <v>      -0.35781373      -0.35470305       0.28532065 </v>
   <v>       0.08001077      -0.48680605       0.13415979 </v>
   <v>       0.08001077      -0.22260005       0.13415979 </v>
   <v>       0.13961574       0.32043156       0.11097585 </v>
   <v>       0.14044923      -0.03090772       0.11092136 </v>
   <v>       0.39681111       0.14517264       0.13492502 </v>
   <v>      -0.03116118      -0.35470806       0.32001835 </v>
   <v>       0.11843267       0.14527194       0.33973184 </v>
   <v>       0.17727464       0.14509813       0.05042860 </v>
   <v>       0.48297225      -0.35520014       0.10995363 </v>
   <v>       0.42486676      -0.48680605       0.19724049 </v>
   <v>       0.42486676      -0.22260005       0.19724049 </v>
   <v>      -0.49125482      -0.35470305       0.28357016 </v>
   <v>       0.11221220      -0.21265734       0.29779175 </v>
   <v>       0.11216601      -0.49671519       0.29787170 </v>
   <v>       0.46148795       0.47529692       0.34174369 </v>
   <v>       0.46003235      -0.18601283       0.34196457 </v>
   <v>       0.17391704       0.31351195       0.28386317 </v>
   <v>       0.17391704      -0.02291805       0.28386317 </v>
   <v>       0.11266303      -0.35477729       0.04062530 </v>
   <v>       0.33631719       0.14529695       0.25202981 </v>
   <v>       0.25243876       0.27739995       0.16570014 </v>
   <v>       0.25243876       0.01319395       0.16570014 </v>
   <v>       0.16388920      -0.35470305       0.22048946 </v>
   <v>       0.29525115       0.14539730       0.06958326 </v>
   <v>       0.36521987      -0.35981334       0.07813514 </v>
   <v>       0.34738406       0.48941783       0.30113900 </v>
   <v>       0.34618319      -0.19602030       0.29985216 </v>
   <v>       0.31177708      -0.18648805       0.12616141 </v>
   <v>       0.30078620       0.48279730       0.13211147 </v>
   <v>       0.21751953      -0.34487949       0.10193699 </v>
   <v>       0.28927356       0.30276922       0.32045295 </v>
   <v>       0.28859807      -0.00960571       0.32175931 </v>
   <v>       0.29733029      -0.35470305       0.22223994 </v>
  </varray>
 </structure>
 <varray name="primitive_index" >
  <v type="int" >        1 </v>
  <v type="int" >       66 </v>
  <v type="int" >       51 </v>
  <v type="int" >       43 </v>
  <v type="int" >       52 </v>
  <v type="int" >       67 </v>
  <v type="int" >       14 </v>
  <v type="int" >       26 </v>
  <v type="int" >        2 </v>
  <v type="int" >       44 </v>
  <v type="int" >       37 </v>
  <v type="int" >       24 </v>
  <v type="int" >       18 </v>
  <v type="int" >       31 </v>
  <v type="int" >       40 </v>
  <v type="int" >       32 </v>
  <v type="int" >       19 </v>
  <v type="int" >       15 </v>
  <v type="int" >       27 </v>
  <v type="int" >       73 </v>
  <v type="int" >       62 </v>
  <v type="int" >       25 </v>
  <v type="int" >       38 </v>
  <v type="int" >       72 </v>
  <v type="int" >       61 </v>
  <v type="int" >       58 </v>
  <v type="int" >       69 </v>
  <v type="int" >       49 </v>
  <v type="int" >       74 </v>
  <v type="int" >       63 </v>
  <v type="int" >       55 </v>
  <v type="int" >       70 </v>
  <v type="int" >       39 </v>
  <v type="int" >       68 </v>
  <v type="int" >       57 </v>
  <v type="int" >       12 </v>
  <v type="int" >        7 </v>
  <v type="int" >        6 </v>
  <v type="int" >       56 </v>
  <v type="int" >       71 </v>
  <v type="int" >       50 </v>
  <v type="int" >       10 </v>
  <v type="int" >       13 </v>
  <v type="int" >       20 </v>
  <v type="int" >       33 </v>
  <v type="int" >       59 </v>
  <v type="int" >       75 </v>
  <v type="int" >        5 </v>
  <v type="int" >        8 </v>
  <v type="int" >       11 </v>
  <v type="int" >        9 </v>
  <v type="int" >       41 </v>
  <v type="int" >       16 </v>
  <v type="int" >       29 </v>
  <v type="int" >       42 </v>
  <v type="int" >       34 </v>
  <v type="int" >       21 </v>
  <v type="int" >       17 </v>
  <v type="int" >       30 </v>
  <v type="int" >       60 </v>
  <v type="int" >       76 </v>
  <v type="int" >       45 </v>
  <v type="int" >       48 </v>
  <v type="int" >       35 </v>
  <v type="int" >       22 </v>
  <v type="int" >       46 </v>
  <v type="int" >       47 </v>
  <v type="int" >       28 </v>
  <v type="int" >       65 </v>
  <v type="int" >       54 </v>
  <v type="int" >       53 </v>
  <v type="int" >       64 </v>
  <v type="int" >        3 </v>
  <v type="int" >       36 </v>
  <v type="int" >       23 </v>
  <v type="int" >        4 </v>
 </varray>
 <kpoints>
  <generation param="Gamma">
   <v type="int" name="divisions">       1        1        1 </v>
   <v name="usershift">      0.00000000       0.00000000       0.00000000 </v>
   <v name="genvec1">      1.00000000       0.00000000       0.00000000 </v>
   <v name="genvec2">      0.00000000       1.00000000       0.00000000 </v>
   <v name="genvec3">      0.00000000       0.00000000       1.00000000 </v>
   <v name="shift">      0.00000000       0.00000000       0.00000000 </v>
  </generation>
  <varray name="kpointlist" >
   <v>       0.00000000       0.00000000       0.00000000 </v>
  </varray>
  <varray name="weights" >
   <v>       1.00000000 </v>
  </varray>
 </kpoints>
 <parameters>
  <separator name="general" >
   <i type="string" name="SYSTEM">"Millerite NiS"</i>
   <i type="logical" name="LCOMPAT"> F  </i>
  </separator>
  <separator name="electronic" >
   <i type="string" name="PREC">normal</i>
   <i name="ENMAX">    450.00000000</i>
   <i name="ENAUG">    703.44300000</i>
   <i name="EDIFF">      0.00010000</i>
   <i type="int" name="IALGO">    38</i>
   <i type="int" name="IWAVPR">    10</i>
   <i type="int" name="NBANDS">   502</i>
   <i name="NELECT">    836.00000000</i>
   <i type="int" name="TURBO">     0</i>
   <i type="int" name="IRESTART">     0</i>
   <i type="int" name="NREBOOT">     0</i>
   <i type="int" name="NMIN">     0</i>
   <i name="EREF">      0.00000000</i>
   <separator name="electronic smearing" >
    <i type="int" name="ISMEAR">     0</i>
    <i name="SIGMA">      0.20000000</i>
    <i name="KSPACING">      0.50000000</i>
    <i type="logical" name="KGAMMA"> T  </i>
   </separator>
   <separator name="electronic projectors" >
    <i type="logical" name="LREAL"> T  </i>
    <v name="ROPT">     -0.00050000     -0.00050000</v>
    <i type="int" name="LMAXPAW">  -100</i>
    <i type="int" name="LMAXMIX">     2</i>
    <i type="logical" name="NLSPLINE"> F  </i>
   </separator>
   <separator name="electronic startup" >
    <i type="int" name="ISTART">     0</i>
    <i type="int" name="ICHARG">     2</i>
    <i type="int" name="INIWAV">     1</i>
   </separator>
   <separator name="electronic spin" >
    <i type="int" name="ISPIN">     1</i>
    <i type="logical" name="LNONCOLLINEAR"> F  </i>
    <v name="MAGMOM">      1.00000000      1.00000000      1.00000000      1.00000000      1.00000000      1.00000000      1.00000000      1.00000000      1.00000000      1.00000000      1.00000000      1.00000000      1.00000000      1.00000000      1.00000000      1.00000000      1.00000000      1.00000000      1.00000000      1.00000000
      1.00000000      1.00000000      1.00000000      1.00000000      1.00000000      1.00000000      1.00000000      1.00000000      1.00000000      1.00000000      1.00000000      1.00000000      1.00000000      1.00000000      1.00000000      1.00000000      1.00000000      1.00000000      1.00000000      1.00000000
      1.00000000      1.00000000      1.00000000      1.00000000      1.00000000      1.00000000      1.00000000      1.00000000      1.00000000      1.00000000      1.00000000      1.00000000      1.00000000      1.00000000      1.00000000      1.00000000      1.00000000      1.00000000      1.00000000      1.00000000
      1.00000000      1.00000000      1.00000000      1.00000000      1.00000000      1.00000000      1.00000000      1.00000000      1.00000000      1.00000000      1.00000000      1.00000000      1.00000000      1.00000000      1.00000000      1.00000000</v>
    <i name="NUPDOWN">     -1.00000000</i>
    <i type="logical" name="LSORBIT"> F  </i>
    <v name="SAXIS">      0.00000000      0.00000000      1.00000000</v>
    <i type="logical" name="LSPIRAL"> F  </i>
    <v name="QSPIRAL">      0.00000000      0.00000000      0.00000000</v>
    <i type="logical" name="LZEROZ"> F  </i>
   </separator>
   <separator name="electronic exchange-correlation" >
    <i type="logical" name="LASPH"> F  </i>
    <i type="logical" name="LMETAGGA"> F  </i>
   </separator>
   <separator name="electronic convergence" >
    <i type="int" name="NELM">   100</i>
    <i type="int" name="NELMDL">    -5</i>
    <i type="int" name="NELMIN">     2</i>
    <i name="ENINI">    450.00000000</i>
    <separator name="electronic convergence detail" >
     <i type="logical" name="LDIAG"> T  </i>
     <i type="logical" name="LSUBROT"> F  </i>
     <i name="WEIMIN">      0.00000000</i>
     <i name="EBREAK">      0.00000005</i>
     <i name="DEPER">      0.30000000</i>
     <i type="int" name="NRMM">     4</i>
     <i name="TIME">      0.40000000</i>
    </separator>
   </separator>
   <separator name="electronic mixer" >
    <i name="AMIX">      0.40000000</i>
    <i name="BMIX">      1.00000000</i>
    <i name="AMIN">      0.10000000</i>
    <i name="AMIX_MAG">      1.60000000</i>
    <i name="BMIX_MAG">      1.00000000</i>
    <separator name="electronic mixer details" >
     <i type="int" name="IMIX">     4</i>
     <i type="logical" name="MIXFIRST"> F  </i>
     <i type="int" name="MAXMIX">   -45</i>
     <i name="WC">    100.00000000</i>
     <i type="int" name="INIMIX">     1</i>
     <i type="int" name="MIXPRE">     1</i>
     <i type="int" name="MREMOVE">     5</i>
    </separator>
   </separator>
   <separator name="electronic dipolcorrection" >
    <i type="logical" name="LDIPOL"> F  </i>
    <i type="logical" name="LMONO"> F  </i>
    <i type="int" name="IDIPOL">     0</i>
    <i name="EPSILON">      1.00000000</i>
    <v name="DIPOL">   -100.00000000   -100.00000000   -100.00000000</v>
    <i name="EFIELD">      0.00000000</i>
   </separator>
  </separator>
  <separator name="grids" >
   <i type="int" name="NGX">    90</i>
   <i type="int" name="NGY">    50</i>
   <i type="int" name="NGZ">    90</i>
   <i type="int" name="NGXF">   180</i>
   <i type="int" name="NGYF">   100</i>
   <i type="int" name="NGZF">   180</i>
   <i type="logical" name="ADDGRID"> F  </i>
  </separator>
  <separator name="ionic" >
   <i type="int" name="NSW">     0</i>
   <i type="int" name="IBRION">    -1</i>
   <i type="int" name="MDALGO">     0</i>
   <i type="int" name="ISIF">     2</i>
   <i name="PSTRESS">      0.00000000</i>
   <i name="EDIFFG">      0.00100000</i>
   <i type="int" name="NFREE">     0</i>
   <i name="POTIM">      0.50000000</i>
   <i name="SMASS">     -3.00000000</i>
   <i name="SCALEE">      1.00000000</i>
  </separator>
  <separator name="ionic md" >
   <i name="TEBEG">      0.00010000</i>
   <i name="TEEND">      0.00010000</i>
   <i type="int" name="NBLOCK">     1</i>
   <i type="int" name="KBLOCK">     1</i>
   <i type="int" name="NPACO">   256</i>
   <i name="APACO">     16.00000000</i>
  </separator>
  <separator name="symmetry" >
   <i type="int" name="ISYM">     2</i>
   <i name="SYMPREC">      0.00001000</i>
  </separator>
  <separator name="dos" >
   <i type="int" name="LORBIT">     0</i>
   <v name="RWIGS">     -1.00000000     -1.00000000</v>
   <i type="int" name="NEDOS">   301</i>
   <i name="EMIN">     10.00000000</i>
   <i name="EMAX">    -10.00000000</i>
   <i name="EFERMI">      0.00000000</i>
  </separator>
  <separator name="writing" >
   <i type="int" name="NWRITE">     2</i>
   <i type="logical" name="LWAVE"> F  </i>
   <i type="logical" name="LDOWNSAMPLE"> F  </i>
   <i type="logical" name="LCHARG"> F  </i>
   <i type="logical" name="LPARD"> F  </i>
   <i type="logical" name="LVTOT"> F  </i>
   <i type="logical" name="LVHAR"> F  </i>
   <i type="logical" name="LELF"> F  </i>
   <i type="logical" name="LOPTICS"> F  </i>
   <v name="STM">      0.00000000      0.00000000      0.00000000      0.00000000      0.00000000      0.00000000      0.00000000</v>
  </separator>
  <separator name="performance" >
   <i type="int" name="NPAR">     2</i>
   <i type="int" name="NSIM">     4</i>
   <i type="int" name="NBLK">    -1</i>
   <i type="logical" name="LPLANE"> T  </i>
   <i type="logical" name="LSCALAPACK"> T  </i>
   <i type="logical" name="LSCAAWARE"> F  </i>
   <i type="logical" name="LSCALU"> F  </i>
   <i type="logical" name="LASYNC"> F  </i>
   <i type="logical" name="LORBITALREAL"> F  </i>
  </separator>
  <separator name="miscellaneous" >
   <i type="int" name="IDIOT">     3</i>
   <i type="int" name="ISPECIAL">     0</i>
   <i type="logical" name="LMUSIC"> F  </i>
   <v name="POMASS">     58.69000000     32.06600000</v>
   <v name="DARWINR">      0.00000000      0.00000000</v>
   <v name="DARWINV">      1.00000000      1.00000000</v>
   <i type="logical" name="LCORR"> T  </i>
  </separator>
  <i type="logical" name="GGA_COMPAT"> T  </i>
  <i type="logical" name="LBERRY"> F  </i>
  <i type="int" name="ICORELEVEL">     0</i>
  <i type="logical" name="LDAU"> F  </i>
  <i type="int" name="I_CONSTRAINED_M">     0</i>
  <separator name="electronic exchange-correlation" >
   <i type="string" name="GGA">--</i>
   <i type="int" name="VOSKOWN">     0</i>
   <i type="logical" name="LHFCALC"> F  </i>
   <i type="string" name="PRECFOCK"></i>
   <i type="logical" name="LSYMGRAD"> F  </i>
   <i type="logical" name="LHFONE"> F  </i>
   <i type="logical" name="LRHFCALC"> F  </i>
   <i type="logical" name="LTHOMAS"> F  </i>
   <i type="logical" name="LMODELHF"> F  </i>
   <i name="ENCUT4O">     -1.00000000</i>
   <i type="int" name="EXXOEP">     0</i>
   <i type="int" name="FOURORBIT">     0</i>
   <i name="AEXX">      0.00000000</i>
   <i name="HFALPHA">      0.00000000</i>
   <i name="MCALPHA">      0.00000000</i>
   <i name="ALDAX">      1.00000000</i>
   <i name="AGGAX">      1.00000000</i>
   <i name="ALDAC">      1.00000000</i>
   <i name="AGGAC">      1.00000000</i>
   <i type="int" name="NKREDX">     1</i>
   <i type="int" name="NKREDY">     1</i>
   <i type="int" name="NKREDZ">     1</i>
   <i type="logical" name="SHIFTRED"> F  </i>
   <i type="logical" name="ODDONLY"> F  </i>
   <i type="logical" name="EVENONLY"> F  </i>
   <i type="int" name="LMAXFOCK">     0</i>
   <i type="int" name="NMAXFOCKAE">     0</i>
   <i type="logical" name="LFOCKAEDFT"> F  </i>
   <i name="HFSCREEN">      0.00000000</i>
   <i name="HFSCREENC">      0.00000000</i>
   <i type="int" name="NBANDSGWLOW">     0</i>
  </separator>
  <separator name="vdW DFT" >
   <i type="logical" name="LUSE_VDW"> F  </i>
   <i name="Zab_VDW">     -0.84910000</i>
   <i name="PARAM1">      0.12340000</i>
   <i name="PARAM2">      1.00000000</i>
   <i name="PARAM3">      0.00000000</i>
  </separator>
  <separator name="model GW" >
   <i type="int" name="MODEL_GW">     0</i>
   <i name="MODEL_EPS0">     20.81121313</i>
   <i name="MODEL_ALPHA">      1.00000000</i>
  </separator>
  <separator name="linear response parameters" >
   <i type="logical" name="LEPSILON"> F  </i>
   <i type="logical" name="LRPA"> F  </i>
   <i type="logical" name="LNABLA"> F  </i>
   <i type="logical" name="LVEL"> F  </i>
   <i type="int" name="KINTER">     0</i>
   <i name="CSHIFT">      0.10000000</i>
   <i name="OMEGAMAX">     -1.00000000</i>
   <i name="DEG_THRESHOLD">      0.00200000</i>
   <i name="RTIME">     -0.10000000</i>
   <i name="WPLASMAI">      0.00000000</i>
   <v name="DFIELD">      0.00000000      0.00000000      0.00000000</v>
   <v name="WPLASMA">      0.00000000      0.00000000      0.00000000      0.00000000      0.00000000      0.00000000      0.00000000      0.00000000      0.00000000</v>
  </separator>
  <separator name="orbital magnetization" >
   <i type="logical" name="NUCIND"> F  </i>
   <v name="MAGPOS">      0.00000000      0.00000000      0.00000000</v>
   <i type="logical" name="LNICSALL"> T  </i>
   <i type="logical" name="ORBITALMAG"> F  </i>
   <i type="logical" name="LMAGBLOCH"> F  </i>
   <i type="logical" name="LCHIMAG"> F  </i>
   <i type="logical" name="LGAUGE"> T  </i>
   <i type="int" name="MAGATOM">     0</i>
   <v name="MAGDIPOL">      0.00000000      0.00000000      0.00000000</v>
   <v name="AVECCONST">      0.00000000      0.00000000      0.00000000</v>
  </separator>
  <separator name="response functions" >
   <i type="logical" name="LADDER"> F  </i>
   <i type="logical" name="LRPAFORCE"> F  </i>
   <i type="logical" name="LFXC"> F  </i>
   <i type="logical" name="LHARTREE"> T  </i>
   <i type="int" name="IBSE">     0</i>
   <v type="int" name="KPOINT">    -1     0     0     0</v>
   <i type="logical" name="LTCTE"> F  </i>
   <i type="logical" name="LTETE"> F  </i>
   <i type="logical" name="LTRIPLET"> F  </i>
   <i type="logical" name="LFXCEPS"> F  </i>
   <i type="logical" name="LFXHEG"> F  </i>
   <i type="int" name="NATURALO">     2</i>
   <i type="logical" name="L2ORDER"> F  </i>
   <i type="logical" name="LMP2LT"> F  </i>
   <i type="logical" name="LUSEW"> F  </i>
   <i name="ENCUTGW">     -2.00000000</i>
   <i name="ENCUTGWSOFT">     -2.00000000</i>
   <i name="ENCUTLF">     -1.00000000</i>
   <i type="int" name="LMAXMP2">    -1</i>
   <i name="SCISSOR">      0.00000000</i>
   <i type="int" name="NOMEGA">     0</i>
   <i type="int" name="NOMEGAR">     0</i>
   <i type="int" name="NBANDSGW">    -1</i>
   <i type="int" name="NBANDSO">    -1</i>
   <i type="int" name="NBANDSV">    -1</i>
   <i type="int" name="NELM">   100</i>
   <i type="int" name="NELMHF">     1</i>
   <i type="int" name="DIM">     3</i>
   <i type="int" name="ANTIRES">     0</i>
   <i name="OMEGAMAX">    -30.00000000</i>
   <i name="OMEGAMIN">    -30.00000000</i>
   <i name="OMEGATL">   -200.00000000</i>
   <i type="int" name="OMEGAGRID">   140</i>
   <i name="CSHIFT">     -0.10000000</i>
   <i type="logical" name="SELFENERGY"> F  </i>
   <i type="logical" name="LSPECTRAL"> F  </i>
   <i type="logical" name="LSPECTRALGW"> F  </i>
   <i type="logical" name="LSINGLES"> F  </i>
   <i type="logical" name="LFERMIGW"> F  </i>
   <i type="logical" name="ODDONLYGW"> F  </i>
   <i type="logical" name="EVENONLYGW"> F  </i>
   <i type="int" name="NKREDLFX">     1</i>
   <i type="int" name="NKREDLFY">     1</i>
   <i type="int" name="NKREDLFZ">     1</i>
   <i type="int" name="MAXMEM">  2800</i>
   <i type="int" name="TELESCOPE">     0</i>
   <i type="int" name="TAUPAR">     1</i>
   <i type="int" name="OMEGAPAR">    -1</i>
   <i name="LAMBDA">      1.00000000</i>
  </separator>
  <separator name="External order field" >
   <i name="OFIELD_KAPPA">      0.00000000</i>
   <v name="OFIELD_K">      0.00000000      0.00000000      0.00000000</v>
   <i name="OFIELD_Q6_NEAR">      0.00000000</i>
   <i name="OFIELD_Q6_FAR">      0.00000000</i>
   <i name="OFIELD_A">      0.00000000</i>
  </separator>
 </parameters>
 <atominfo>
  <atoms>      76 </atoms>
  <types>       2 </types>
  <array name="atoms" >
   <dimension dim="1">ion</dimension>
   <field type="string">element</field>
   <field type="int">atomtype</field>
   <set>
    <rc><c>Ni</c><c>   1</c></rc>
    <rc><c>Ni</c><c>   1</c></rc>
    <rc><c>Ni</c><c>   1</c></rc>
    <rc><c>Ni</c><c>   1</c></rc>
    <rc><c>Ni</c><c>   1</c></rc>
    <rc><c>Ni</c><c>   1</c></rc>
    <rc><c>Ni</c><c>   1</c></rc>
    <rc><c>Ni</c><c>   1</c></rc>
    <rc><c>Ni</c><c>   1</c></rc>
    <rc><c>Ni</c><c>   1</c></rc>
    <rc><c>Ni</c><c>   1</c></rc>
    <rc><c>Ni</c><c>   1</c></rc>
    <rc><c>Ni</c><c>   1</c></rc>
    <rc><c>Ni</c><c>   1</c></rc>
    <rc><c>Ni</c><c>   1</c></rc>
    <rc><c>Ni</c><c>   1</c></rc>
    <rc><c>Ni</c><c>   1</c></rc>
    <rc><c>Ni</c><c>   1</c></rc>
    <rc><c>Ni</c><c>   1</c></rc>
    <rc><c>Ni</c><c>   1</c></rc>
    <rc><c>Ni</c><c>   1</c></rc>
    <rc><c>Ni</c><c>   1</c></rc>
    <rc><c>Ni</c><c>   1</c></rc>
    <rc><c>Ni</c><c>   1</c></rc>
    <rc><c>Ni</c><c>   1</c></rc>
    <rc><c>Ni</c><c>   1</c></rc>
    <rc><c>Ni</c><c>   1</c></rc>
    <rc><c>Ni</c><c>   1</c></rc>
    <rc><c>Ni</c><c>   1</c></rc>
    <rc><c>Ni</c><c>   1</c></rc>
    <rc><c>Ni</c><c>   1</c></rc>
    <rc><c>Ni</c><c>   1</c></rc>
    <rc><c>Ni</c><c>   1</c></rc>
    <rc><c>Ni</c><c>   1</c></rc>
    <rc><c>Ni</c><c>   1</c></rc>
    <rc><c>Ni</c><c>   1</c></rc>
    <rc><c>Ni</c><c>   1</c></rc>
    <rc><c>Ni</c><c>   1</c></rc>
    <rc><c>S </c><c>   2</c></rc>
    <rc><c>S </c><c>   2</c></rc>
    <rc><c>S </c><c>   2</c></rc>
    <rc><c>S </c><c>   2</c></rc>
    <rc><c>S </c><c>   2</c></rc>
    <rc><c>S </c><c>   2</c></rc>
    <rc><c>S </c><c>   2</c></rc>
    <rc><c>S </c><c>   2</c></rc>
    <rc><c>S </c><c>   2</c></rc>
    <rc><c>S </c><c>   2</c></rc>
    <rc><c>S </c><c>   2</c></rc>
    <rc><c>S </c><c>   2</c></rc>
    <rc><c>S </c><c>   2</c></rc>
    <rc><c>S </c><c>   2</c></rc>
    <rc><c>S </c><c>   2</c></rc>
    <rc><c>S </c><c>   2</c></rc>
    <rc><c>S </c><c>   2</c></rc>
    <rc><c>S </c><c>   2</c></rc>
    <rc><c>S </c><c>   2</c></rc>
    <rc><c>S </c><c>   2</c></rc>
    <rc><c>S </c><c>   2</c></rc>
    <rc><c>S </c><c>   2</c></rc>
    <rc><c>S </c><c>   2</c></rc>
    <rc><c>S </c><c>   2</c></rc>
    <rc><c>S </c><c>   2</c></rc>
    <rc><c>S </c><c>   2</c></rc>
    <rc><c>S </c><c>   2</c></rc>
    <rc><c>S </c><c>   2</c></rc>
    <rc><c>S </c><c>   2</c></rc>
    <rc><c>S </c><c>   2</c></rc>
    <rc><c>S </c><c>   2</c></rc>
    <rc><c>S </c><c>   2</c></rc>
    <rc><c>S </c><c>   2</c></rc>
    <rc><c>S </c><c>   2</c></rc>
    <rc><c>S </c><c>   2</c></rc>
    <rc><c>S </c><c>   2</c></rc>
    <rc><c>S </c><c>   2</c></rc>
    <rc><c>S </c><c>   2</c></rc>
   </set>
  </array>
  <array name="atomtypes" >
   <dimension dim="1">type</dimension>
   <field type="int">atomspertype</field>
   <field type="string">element</field>
   <field>mass</field>
   <field>valence</field>
   <field type="string">pseudopotential</field>
   <set>
    <rc><c>  38</c><c>Ni</c><c>     58.69000000</c><c>     16.00000000</c><c>  PAW_PBE Ni_pv 06Sep2000               </c></rc>
    <rc><c>  38</c><c>S </c><c>     32.06600000</c><c>      6.00000000</c><c>  PAW_PBE S 06Sep2000                   </c></rc>
   </set>
  </array>
 </atominfo>
 <structure name="initialpos" >
  <crystal>
   <varray name="basis" >
    <v>      16.88469405       0.00000000       0.00000000 </v>
    <v>       0.00000000       9.57841000       0.00000000 </v>
    <v>       0.00000000       0.00000000      16.29945638 </v>
   </varray>
   <i name="volume">   2636.08699611 </i>
   <varray name="rec_basis" >
    <v>       0.05922524       0.00000000       0.00000000 </v>
    <v>       0.00000000       0.10440146       0.00000000 </v>
    <v>       0.00000000       0.00000000       0.06135174 </v>
   </varray>
  </crystal>
  <varray name="positions" >
   <v>       0.78004631       0.14529695       0.12761889 </v>
   <v>       0.79786163       0.14529591       0.28949561 </v>
   <v>       0.21751953       0.65512051       0.10193699 </v>
   <v>       0.29733029       0.64529695       0.22223994 </v>
   <v>       0.39681111       0.14517264       0.13492502 </v>
   <v>       0.46975828       0.14529695       0.25378030 </v>
   <v>       0.95247430       0.64529695       0.15915924 </v>
   <v>       0.96883882       0.64529194       0.32001835 </v>
   <v>       0.17727464       0.14509813       0.05042860 </v>
   <v>       0.12490229       0.14529695       0.19069959 </v>
   <v>       0.11843267       0.14527194       0.33973184 </v>
   <v>       0.60761831       0.64529695       0.09607854 </v>
   <v>       0.64218627       0.64529695       0.28532065 </v>
   <v>       0.90850215       0.00645619       0.12429324 </v>
   <v>       0.94222672       0.01284007       0.27666809 </v>
   <v>       0.42486676       0.51319395       0.19724049 </v>
   <v>       0.46148795       0.47529692       0.34174369 </v>
   <v>       0.60198686       0.93292046       0.09401873 </v>
   <v>       0.59729475       0.01319395       0.22878085 </v>
   <v>       0.08001077       0.51319395       0.13415979 </v>
   <v>       0.11216601       0.50328481       0.29787170 </v>
   <v>       0.25243876       0.01319395       0.16570014 </v>
   <v>       0.28859807       0.99039429       0.32175931 </v>
   <v>       0.74292371       0.49524831       0.09872862 </v>
   <v>       0.76972274       0.51319395       0.26032120 </v>
   <v>       0.90850968       0.28417812       0.12429665 </v>
   <v>       0.94223076       0.27776852       0.27666516 </v>
   <v>       0.36521987       0.64018666       0.07813514 </v>
   <v>       0.42486676       0.77739995       0.19724049 </v>
   <v>       0.46003235       0.81398717       0.34196457 </v>
   <v>       0.60166634       0.35761777       0.09407495 </v>
   <v>       0.59729475       0.27739995       0.22878085 </v>
   <v>       0.08001077       0.77739995       0.13415979 </v>
   <v>       0.11221220       0.78734266       0.29779175 </v>
   <v>       0.25243876       0.27739995       0.16570014 </v>
   <v>       0.28927356       0.30276922       0.32045295 </v>
   <v>       0.74298937       0.79540085       0.09876412 </v>
   <v>       0.76972274       0.77739995       0.26032120 </v>
   <v>       0.99918260       0.14530390       0.35811082 </v>
   <v>       0.99146121       0.14529695       0.18894910 </v>
   <v>       0.48297225       0.64479986       0.10995363 </v>
   <v>       0.50874518       0.64529695       0.28357016 </v>
   <v>       0.64660522       0.14529695       0.12586840 </v>
   <v>       0.67556543       0.14519818       0.29236144 </v>
   <v>       0.11266303       0.64522271       0.04062530 </v>
   <v>       0.16388920       0.64529695       0.22048946 </v>
   <v>       0.29525115       0.14539730       0.06958326 </v>
   <v>       0.33631719       0.14529695       0.25202981 </v>
   <v>       0.81903321       0.64529695       0.15740875 </v>
   <v>       0.84714876       0.64529328       0.32425157 </v>
   <v>       0.80524665       0.31928806       0.05704323 </v>
   <v>       0.82906105       0.31351195       0.22078247 </v>
   <v>       0.31177708       0.81351195       0.12616141 </v>
   <v>       0.34618319       0.80397970       0.29985216 </v>
   <v>       0.48420507       0.31351195       0.15770176 </v>
   <v>       0.52198596       0.29515838       0.32909672 </v>
   <v>       0.00148905       0.81351195       0.25232282 </v>
   <v>       0.96736951       0.82360792       0.08822512 </v>
   <v>       0.13961574       0.32043156       0.11097585 </v>
   <v>       0.17391704       0.31351195       0.28386317 </v>
   <v>       0.65045972       0.79455966       0.01570745 </v>
   <v>       0.65663306       0.81351195       0.18924211 </v>
   <v>       0.69529457       0.79009595       0.35667227 </v>
   <v>       0.30078620       0.48279730       0.13211147 </v>
   <v>       0.34738406       0.48941783       0.30113900 </v>
   <v>       0.80525543       0.97136953       0.05700768 </v>
   <v>       0.82906105       0.97708195       0.22078247 </v>
   <v>       0.00148905       0.47708195       0.25232282 </v>
   <v>       0.96744994       0.46698540       0.08824743 </v>
   <v>       0.48420507       0.97708195       0.15770176 </v>
   <v>       0.52122321       0.99338255       0.32844370 </v>
   <v>       0.65030180       0.49575131       0.01576877 </v>
   <v>       0.65663306       0.47708195       0.18924211 </v>
   <v>       0.69527722       0.50045753       0.35666440 </v>
   <v>       0.14044923       0.96909228       0.11092136 </v>
   <v>       0.17391704       0.97708195       0.28386317 </v>
  </varray>
 </structure>
 <calculation>
  <scstep>
   <time name="dav">    9.60    9.61</time>
   <time name="total">    9.98    9.99</time>
   <energy>
    <i name="alphaZ">   1572.29369994 </i>
    <i name="ewald"> 160053.29690904 </i>
    <i name="hartreedc">-287324.66701920 </i>
    <i name="XCdc">   3886.22682952 </i>
    <i name="pawpsdc"> 118992.28518605 </i>
    <i name="pawaedc">-124177.15143664 </i>
    <i name="eentropy">     -0.42920295 </i>
    <i name="bandstr">  -6987.04481236 </i>
    <i name="atom"> 143558.30533452 </i>
    <i name="e_fr_energy">   9573.11548793 </i>
    <i name="e_wo_entrp">   9573.54469088 </i>
    <i name="e_0_energy">   9573.33008940 </i>
   </energy>
  </scstep>
  <scstep>
   <time name="dav">    8.75    8.76</time>
   <time name="total">    8.76    8.76</time>
   <energy>
    <i name="e_fr_energy">    522.45176373 </i>
    <i name="e_wo_entrp">    523.12203944 </i>
    <i name="e_0_energy">    522.78690159 </i>
   </energy>
  </scstep>
  <scstep>
   <time name="dav">    9.02    9.03</time>
   <time name="total">    9.02    9.03</time>
   <energy>
    <i name="e_fr_energy">   -370.25573669 </i>
    <i name="e_wo_entrp">   -369.00442317 </i>
    <i name="e_0_energy">   -369.63007993 </i>
   </energy>
  </scstep>
  <scstep>
   <time name="dav">    9.00    9.00</time>
   <time name="total">    9.00    9.00</time>
   <energy>
    <i name="e_fr_energy">   -417.74589860 </i>
    <i name="e_wo_entrp">   -416.49099518 </i>
    <i name="e_0_energy">   -417.11844689 </i>
   </energy>
  </scstep>
  <scstep>
   <time name="dav">   10.13   10.13</time>
   <time name="total">   10.45   10.45</time>
   <energy>
    <i name="e_fr_energy">   -419.77373244 </i>
    <i name="e_wo_entrp">   -418.52614636 </i>
    <i name="e_0_energy">   -419.14993940 </i>
   </energy>
  </scstep>
  <scstep>
   <time name="dav">    9.60    9.60</time>
   <time name="total">   10.27   10.28</time>
   <energy>
    <i name="e_fr_energy">   -491.54618763 </i>
    <i name="e_wo_entrp">   -490.71713478 </i>
    <i name="e_0_energy">   -491.13166121 </i>
   </energy>
  </scstep>
  <scstep>
   <time name="dav">    8.87    8.87</time>
   <time name="total">    9.80    9.81</time>
   <energy>
    <i name="e_fr_energy">   -386.44749033 </i>
    <i name="e_wo_entrp">   -385.50869907 </i>
    <i name="e_0_energy">   -385.97809470 </i>
   </energy>
  </scstep>
  <scstep>
   <time name="dav">   10.08   10.08</time>
   <time name="total">   10.97   10.97</time>
   <energy>
    <i name="e_fr_energy">   -460.66042854 </i>
    <i name="e_wo_entrp">   -459.54962653 </i>
    <i name="e_0_energy">   -460.10502753 </i>
   </energy>
  </scstep>
  <scstep>
   <time name="dav">    9.85    9.85</time>
   <time name="total">   10.79   10.79</time>
   <energy>
    <i name="e_fr_energy">   -385.42833978 </i>
    <i name="e_wo_entrp">   -384.36354809 </i>
    <i name="e_0_energy">   -384.89594394 </i>
   </energy>
  </scstep>
  <scstep>
   <time name="dav">   10.33   10.33</time>
   <time name="total">   11.00   11.01</time>
   <energy>
    <i name="e_fr_energy">   -408.11351939 </i>
    <i name="e_wo_entrp">   -406.89391032 </i>
    <i name="e_0_energy">   -407.50371485 </i>
   </energy>
  </scstep>
  <scstep>
   <time name="dav">   10.47   10.48</time>
   <time name="total">   11.15   11.16</time>
   <energy>
    <i name="e_fr_energy">   -390.57005731 </i>
    <i name="e_wo_entrp">   -389.53066031 </i>
    <i name="e_0_energy">   -390.05035881 </i>
   </energy>
  </scstep>
  <scstep>
   <time name="dav">   10.32   10.32</time>
   <time name="total">   11.01   11.02</time>
   <energy>
    <i name="e_fr_energy">   -373.07461607 </i>
    <i name="e_wo_entrp">   -372.06839868 </i>
    <i name="e_0_energy">   -372.57150737 </i>
   </energy>
  </scstep>
  <scstep>
   <time name="dav">   10.49   10.49</time>
   <time name="total">   11.17   11.17</time>
   <energy>
    <i name="e_fr_energy">   -369.33442291 </i>
    <i name="e_wo_entrp">   -368.34532107 </i>
    <i name="e_0_energy">   -368.83987199 </i>
   </energy>
  </scstep>
  <scstep>
   <time name="dav">   10.16   10.17</time>
   <time name="total">   10.85   10.86</time>
   <energy>
    <i name="e_fr_energy">   -367.07434760 </i>
    <i name="e_wo_entrp">   -366.05431995 </i>
    <i name="e_0_energy">   -366.56433377 </i>
   </energy>
  </scstep>
  <scstep>
   <time name="dav">   10.33   10.33</time>
   <time name="total">   11.02   11.02</time>
   <energy>
    <i name="e_fr_energy">   -366.46076845 </i>
    <i name="e_wo_entrp">   -365.42953206 </i>
    <i name="e_0_energy">   -365.94515025 </i>
   </energy>
  </scstep>
  <scstep>
   <time name="dav">    9.96    9.96</time>
   <time name="total">   10.64   10.65</time>
   <energy>
    <i name="e_fr_energy">   -366.16247683 </i>
    <i name="e_wo_entrp">   -365.11815470 </i>
    <i name="e_0_energy">   -365.64031576 </i>
   </energy>
  </scstep>
  <scstep>
   <time name="dav">    9.14    9.14</time>
   <time name="total">    9.98    9.99</time>
   <energy>
    <i name="e_fr_energy">   -366.07125760 </i>
    <i name="e_wo_entrp">   -365.02956154 </i>
    <i name="e_0_energy">   -365.55040957 </i>
   </energy>
  </scstep>
  <scstep>
   <time name="dav">   10.16   10.16</time>
   <time name="total">   11.15   11.15</time>
   <energy>
    <i name="e_fr_energy">   -365.80320311 </i>
    <i name="e_wo_entrp">   -364.75837243 </i>
    <i name="e_0_energy">   -365.28078777 </i>
   </energy>
  </scstep>
  <scstep>
   <time name="dav">   11.08   11.08</time>
   <time name="total">   11.78   11.78</time>
   <energy>
    <i name="e_fr_energy">   -365.47080598 </i>
    <i name="e_wo_entrp">   -364.40182047 </i>
    <i name="e_0_energy">   -364.93631323 </i>
   </energy>
  </scstep>
  <scstep>
   <time name="dav">   11.21   11.21</time>
   <time name="total">   11.91   11.91</time>
   <energy>
    <i name="e_fr_energy">   -364.93436628 </i>
    <i name="e_wo_entrp">   -363.82467883 </i>
    <i name="e_0_energy">   -364.37952256 </i>
   </energy>
  </scstep>
  <scstep>
   <time name="dav">   10.43   10.43</time>
   <time name="total">   11.12   11.12</time>
   <energy>
    <i name="e_fr_energy">   -364.87245635 </i>
    <i name="e_wo_entrp">   -363.72410815 </i>
    <i name="e_0_energy">   -364.29828225 </i>
   </energy>
  </scstep>
  <scstep>
   <time name="dav">    8.91    8.92</time>
   <time name="total">    9.61    9.61</time>
   <energy>
    <i name="e_fr_energy">   -364.85472510 </i>
    <i name="e_wo_entrp">   -363.72852540 </i>
    <i name="e_0_energy">   -364.29162525 </i>
   </energy>
  </scstep>
  <scstep>
   <time name="dav">    9.13    9.14</time>
   <time name="total">   10.08   10.09</time>
   <energy>
    <i name="e_fr_energy">   -364.84844485 </i>
    <i name="e_wo_entrp">   -363.71307937 </i>
    <i name="e_0_energy">   -364.28076211 </i>
   </energy>
  </scstep>
  <scstep>
   <time name="dav">    9.92    9.93</time>
   <time name="total">   10.88   10.88</time>
   <energy>
    <i name="e_fr_energy">   -364.80044691 </i>
    <i name="e_wo_entrp">   -363.67691360 </i>
    <i name="e_0_energy">   -364.23868026 </i>
   </energy>
  </scstep>
  <scstep>
   <time name="dav">   10.13   10.13</time>
   <time name="total">   11.07   11.07</time>
   <energy>
    <i name="e_fr_energy">   -364.78486735 </i>
    <i name="e_wo_entrp">   -363.66652589 </i>
    <i name="e_0_energy">   -364.22569662 </i>
   </energy>
  </scstep>
  <scstep>
   <time name="dav">    9.60    9.60</time>
   <time name="total">   10.54   10.54</time>
   <energy>
    <i name="e_fr_energy">   -364.78333635 </i>
    <i name="e_wo_entrp">   -363.66928782 </i>
    <i name="e_0_energy">   -364.22631209 </i>
   </energy>
  </scstep>
  <scstep>
   <time name="dav">    9.21    9.22</time>
   <time name="total">    9.91    9.92</time>
   <energy>
    <i name="e_fr_energy">   -364.77540019 </i>
    <i name="e_wo_entrp">   -363.66278339 </i>
    <i name="e_0_energy">   -364.21909179 </i>
   </energy>
  </scstep>
  <scstep>
   <time name="dav">   10.38   10.39</time>
   <time name="total">   11.08   11.09</time>
   <energy>
    <i name="e_fr_energy">   -364.77612175 </i>
    <i name="e_wo_entrp">   -363.67629312 </i>
    <i name="e_0_energy">   -364.22620744 </i>
   </energy>
  </scstep>
  <scstep>
   <time name="dav">   10.06   10.06</time>
   <time name="total">   10.77   10.77</time>
   <energy>
    <i name="e_fr_energy">   -364.77446163 </i>
    <i name="e_wo_entrp">   -363.66932501 </i>
    <i name="e_0_energy">   -364.22189332 </i>
   </energy>
  </scstep>
  <scstep>
   <time name="dav">   10.15   10.16</time>
   <time name="total">   10.86   10.86</time>
   <energy>
    <i name="e_fr_energy">   -364.77222947 </i>
    <i name="e_wo_entrp">   -363.66621957 </i>
    <i name="e_0_energy">   -364.21922452 </i>
   </energy>
  </scstep>
  <scstep>
   <time name="dav">    9.45    9.45</time>
   <time name="total">   10.15   10.15</time>
   <energy>
    <i name="e_fr_energy">   -364.77164163 </i>
    <i name="e_wo_entrp">   -363.66375451 </i>
    <i name="e_0_energy">   -364.21769807 </i>
   </energy>
  </scstep>
  <scstep>
   <time name="dav">    9.13    9.14</time>
   <time name="total">    9.84    9.85</time>
   <energy>
    <i name="e_fr_energy">   -364.77195501 </i>
    <i name="e_wo_entrp">   -363.66610430 </i>
    <i name="e_0_energy">   -364.21902965 </i>
   </energy>
  </scstep>
  <scstep>
   <time name="dav">    8.97    8.98</time>
   <time name="total">    9.68    9.69</time>
   <energy>
    <i name="e_fr_energy">   -364.77231433 </i>
    <i name="e_wo_entrp">   -363.66704692 </i>
    <i name="e_0_energy">   -364.21968062 </i>
   </energy>
  </scstep>
  <scstep>
   <time name="dav">    8.35    8.36</time>
   <time name="total">    9.07    9.07</time>
   <energy>
    <i name="e_fr_energy">   -364.77198172 </i>
    <i name="e_wo_entrp">   -363.66391638 </i>
    <i name="e_0_energy">   -364.21794905 </i>
   </energy>
  </scstep>
  <scstep>
   <time name="dav">    6.81    6.81</time>
   <time name="total">    7.66    7.66</time>
   <energy>
    <i name="e_fr_energy">   -364.77222143 </i>
    <i name="e_wo_entrp">   -363.66381764 </i>
    <i name="e_0_energy">   -364.21801953 </i>
   </energy>
  </scstep>
  <scstep>
   <time name="dav">    6.10    6.11</time>
   <time name="total">    6.82    6.82</time>
   <energy>
    <i name="e_fr_energy">   -364.77259946 </i>
    <i name="e_wo_entrp">   -363.66429730 </i>
    <i name="e_0_energy">   -364.21844838 </i>
   </energy>
  </scstep>
  <scstep>
   <time name="dav">    5.78    5.78</time>
   <time name="total">    6.50    6.50</time>
   <energy>
    <i name="e_fr_energy">   -364.77286917 </i>
    <i name="e_wo_entrp">   -363.66468328 </i>
    <i name="e_0_energy">   -364.21877622 </i>
   </energy>
  </scstep>
  <scstep>
   <time name="dav">    5.82    5.83</time>
   <time name="total">    6.80    6.81</time>
   <energy>
    <i name="e_fr_energy">   -364.77328022 </i>
    <i name="e_wo_entrp">   -363.66522180 </i>
    <i name="e_0_energy">   -364.21925101 </i>
   </energy>
  </scstep>
  <scstep>
   <time name="dav">    6.02    6.02</time>
   <time name="total">    6.75    6.76</time>
   <energy>
    <i name="e_fr_energy">   -364.77372470 </i>
    <i name="e_wo_entrp">   -363.66582240 </i>
    <i name="e_0_energy">   -364.21977355 </i>
   </energy>
  </scstep>
  <scstep>
   <time name="dav">    6.28    6.29</time>
   <time name="total">    7.02    7.03</time>
   <energy>
    <i name="e_fr_energy">   -364.77425754 </i>
    <i name="e_wo_entrp">   -363.66639979 </i>
    <i name="e_0_energy">   -364.22032867 </i>
   </energy>
  </scstep>
  <scstep>
   <time name="dav">    5.96    5.96</time>
   <time name="total">    6.74    6.74</time>
   <energy>
    <i name="e_fr_energy">   -364.77454239 </i>
    <i name="e_wo_entrp">   -363.66642942 </i>
    <i name="e_0_energy">   -364.22048590 </i>
   </energy>
  </scstep>
  <scstep>
   <time name="dav">    5.77    5.77</time>
   <time name="total">    6.79    6.79</time>
   <energy>
    <i name="e_fr_energy">   -364.77483931 </i>
    <i name="e_wo_entrp">   -363.66629914 </i>
    <i name="e_0_energy">   -364.22056923 </i>
   </energy>
  </scstep>
  <scstep>
   <time name="dav">    5.86    5.86</time>
   <time name="total">    6.62    6.62</time>
   <energy>
    <i name="e_fr_energy">   -364.77495944 </i>
    <i name="e_wo_entrp">   -363.66658639 </i>
    <i name="e_0_energy">   -364.22077292 </i>
   </energy>
  </scstep>
  <scstep>
   <time name="dav">    5.73    5.73</time>
   <time name="total">    6.50    6.51</time>
   <energy>
    <i name="e_fr_energy">   -364.77510359 </i>
    <i name="e_wo_entrp">   -363.66691735 </i>
    <i name="e_0_energy">   -364.22101047 </i>
   </energy>
  </scstep>
  <scstep>
   <time name="dav">    5.72    5.72</time>
   <time name="total">    6.49    6.50</time>
   <energy>
    <i name="e_fr_energy">   -364.77521658 </i>
    <i name="e_wo_entrp">   -363.66719772 </i>
    <i name="e_0_energy">   -364.22120715 </i>
   </energy>
  </scstep>
  <scstep>
   <time name="dav">    5.77    5.77</time>
   <time name="total">    6.14    6.14</time>
   <energy>
    <i name="alphaZ">   1572.29369994 </i>
    <i name="ewald"> 160053.29690904 </i>
    <i name="hartreedc">-286622.02595206 </i>
    <i name="XCdc">   3855.08048726 </i>
    <i name="pawpsdc"> 148256.11591342 </i>
    <i name="pawaedc">-153527.98972133 </i>
    <i name="eentropy">     -1.10801101 </i>
    <i name="bandstr"> -17508.74392536 </i>
    <i name="atom"> 143558.30533452 </i>
    <i name="e_fr_energy">   -364.77526558 </i>
    <i name="e_wo_entrp">   -363.66725456 </i>
    <i name="e_0_energy">   -364.22126007 </i>
   </energy>
  </scstep>
  <structure>
   <crystal>
    <varray name="basis" >
     <v>      16.88469405       0.00000000       0.00000000 </v>
     <v>       0.00000000       9.57841000       0.00000000 </v>
     <v>       0.00000000       0.00000000      16.29945638 </v>
    </varray>
    <i name="volume">   2636.08699611 </i>
    <varray name="rec_basis" >
     <v>       0.05922524       0.00000000       0.00000000 </v>
     <v>       0.00000000       0.10440146       0.00000000 </v>
     <v>       0.00000000       0.00000000       0.06135174 </v>
    </varray>
   </crystal>
   <varray name="positions" >
    <v>       0.78004631       0.14529695       0.12761889 </v>
    <v>       0.79786163       0.14529591       0.28949561 </v>
    <v>       0.21751953       0.65512051       0.10193699 </v>
    <v>       0.29733029       0.64529695       0.22223994 </v>
    <v>       0.39681111       0.14517264       0.13492502 </v>
    <v>       0.46975828       0.14529695       0.25378030 </v>
    <v>       0.95247430       0.64529695       0.15915924 </v>
    <v>       0.96883882       0.64529194       0.32001835 </v>
    <v>       0.17727464       0.14509813       0.05042860 </v>
    <v>       0.12490229       0.14529695       0.19069959 </v>
    <v>       0.11843267       0.14527194       0.33973184 </v>
    <v>       0.60761831       0.64529695       0.09607854 </v>
    <v>       0.64218627       0.64529695       0.28532065 </v>
    <v>       0.90850215       0.00645619       0.12429324 </v>
    <v>       0.94222672       0.01284007       0.27666809 </v>
    <v>       0.42486676       0.51319395       0.19724049 </v>
    <v>       0.46148795       0.47529692       0.34174369 </v>
    <v>       0.60198686       0.93292046       0.09401873 </v>
    <v>       0.59729475       0.01319395       0.22878085 </v>
    <v>       0.08001077       0.51319395       0.13415979 </v>
    <v>       0.11216601       0.50328481       0.29787170 </v>
    <v>       0.25243876       0.01319395       0.16570014 </v>
    <v>       0.28859807       0.99039429       0.32175931 </v>
    <v>       0.74292371       0.49524831       0.09872862 </v>
    <v>       0.76972274       0.51319395       0.26032120 </v>
    <v>       0.90850968       0.28417812       0.12429665 </v>
    <v>       0.94223076       0.27776852       0.27666516 </v>
    <v>       0.36521987       0.64018666       0.07813514 </v>
    <v>       0.42486676       0.77739995       0.19724049 </v>
    <v>       0.46003235       0.81398717       0.34196457 </v>
    <v>       0.60166634       0.35761777       0.09407495 </v>
    <v>       0.59729475       0.27739995       0.22878085 </v>
    <v>       0.08001077       0.77739995       0.13415979 </v>
    <v>       0.11221220       0.78734266       0.29779175 </v>
    <v>       0.25243876       0.27739995       0.16570014 </v>
    <v>       0.28927356       0.30276922       0.32045295 </v>
    <v>       0.74298937       0.79540085       0.09876412 </v>
    <v>       0.76972274       0.77739995       0.26032120 </v>
    <v>       0.99918260       0.14530390       0.35811082 </v>
    <v>       0.99146121       0.14529695       0.18894910 </v>
    <v>       0.48297225       0.64479986       0.10995363 </v>
    <v>       0.50874518       0.64529695       0.28357016 </v>
    <v>       0.64660522       0.14529695       0.12586840 </v>
    <v>       0.67556543       0.14519818       0.29236144 </v>
    <v>       0.11266303       0.64522271       0.04062530 </v>
    <v>       0.16388920       0.64529695       0.22048946 </v>
    <v>       0.29525115       0.14539730       0.06958326 </v>
    <v>       0.33631719       0.14529695       0.25202981 </v>
    <v>       0.81903321       0.64529695       0.15740875 </v>
    <v>       0.84714876       0.64529328       0.32425157 </v>
    <v>       0.80524665       0.31928806       0.05704323 </v>
    <v>       0.82906105       0.31351195       0.22078247 </v>
    <v>       0.31177708       0.81351195       0.12616141 </v>
    <v>       0.34618319       0.80397970       0.29985216 </v>
    <v>       0.48420507       0.31351195       0.15770176 </v>
    <v>       0.52198596       0.29515838       0.32909672 </v>
    <v>       0.00148905       0.81351195       0.25232282 </v>
    <v>       0.96736951       0.82360792       0.08822512 </v>
    <v>       0.13961574       0.32043156       0.11097585 </v>
    <v>       0.17391704       0.31351195       0.28386317 </v>
    <v>       0.65045972       0.79455966       0.01570745 </v>
    <v>       0.65663306       0.81351195       0.18924211 </v>
    <v>       0.69529457       0.79009595       0.35667227 </v>
    <v>       0.30078620       0.48279730       0.13211147 </v>
    <v>       0.34738406       0.48941783       0.30113900 </v>
    <v>       0.80525543       0.97136953       0.05700768 </v>
    <v>       0.82906105       0.97708195       0.22078247 </v>
    <v>       0.00148905       0.47708195       0.25232282 </v>
    <v>       0.96744994       0.46698540       0.08824743 </v>
    <v>       0.48420507       0.97708195       0.15770176 </v>
    <v>       0.52122321       0.99338255       0.32844370 </v>
    <v>       0.65030180       0.49575131       0.01576877 </v>
    <v>       0.65663306       0.47708195       0.18924211 </v>
    <v>       0.69527722       0.50045753       0.35666440 </v>
    <v>       0.14044923       0.96909228       0.11092136 </v>
    <v>       0.17391704       0.97708195       0.28386317 </v>
   </varray>
  </structure>
  <varray name="forces" >
   <v>      -0.17582281       0.00036923       1.81258617 </v>
   <v>      -0.01192332       0.00379805       1.19886804 </v>
   <v>       0.68287001       0.05306518      -0.21390399 </v>
   <v>      -0.41791750       0.30201003       0.58903502 </v>
   <v>       0.53351294       0.03590187      -0.40949130 </v>
   <v>       0.02418481      -0.02798634      -0.81022812 </v>
   <v>      -0.55399734      -0.00427520       1.80855532 </v>
   <v>       0.27069893       0.00296440       0.69661521 </v>
   <v>      -0.82259176       0.01483321      -1.91989342 </v>
   <v>      -1.04487714      -0.02872156       0.72653346 </v>
   <v>       0.89763828       0.00013498       1.07386936 </v>
   <v>       0.42186600      -0.00487585       0.82891994 </v>
   <v>      -2.12238388       0.01180981      -2.02952810 </v>
   <v>       0.74713577       0.52483553      -0.67392958 </v>
   <v>      -0.79488830      -0.65149152       0.38768219 </v>
   <v>       0.42067826      -0.80933027      -0.44463798 </v>
   <v>       0.22247724       0.23617818       1.15737189 </v>
   <v>      -0.96560640       0.78898169      -0.01168584 </v>
   <v>       0.08598345       0.06108620      -0.83898211 </v>
   <v>       0.13803613      -0.65194533       1.48847133 </v>
   <v>       0.50673503       0.15200446       0.85168165 </v>
   <v>       0.83731008      -0.61478365       1.01577950 </v>
   <v>       0.27059391      -0.10291520       0.78875387 </v>
   <v>       0.64103914       0.87915696      -0.07702441 </v>
   <v>       1.07736813      -0.41449213      -2.42103231 </v>
   <v>       0.72400347      -0.51192199      -0.66699125 </v>
   <v>      -0.79136182       0.64190766       0.39075641 </v>
   <v>       0.09022473      -0.27811480      -1.90863431 </v>
   <v>       0.60705418       0.79633350      -0.32499537 </v>
   <v>       0.23162388      -0.21552636       1.14225311 </v>
   <v>      -0.95297525      -0.78357797      -0.01107610 </v>
   <v>       0.11383581      -0.09657127      -0.86184606 </v>
   <v>       0.11882788       0.62427561       1.37971469 </v>
   <v>       0.46124895      -0.16902962       0.88410204 </v>
   <v>       0.66640369       0.64303179       0.96498604 </v>
   <v>       0.23310467       0.05421627       0.84078743 </v>
   <v>       0.62981653      -0.87563459      -0.08144668 </v>
   <v>       1.06453969       0.41894347      -2.41861787 </v>
   <v>      -0.03728000      -0.01204809       2.80598959 </v>
   <v>       1.63402664      -0.00075851      -2.46552909 </v>
   <v>       0.71573588       0.04184039      -1.46638581 </v>
   <v>       1.45730069       0.05080234       0.75439285 </v>
   <v>       0.65057276       0.01094858      -1.96298408 </v>
   <v>       1.17677851       0.01459950       2.82067252 </v>
   <v>       0.10688087      -0.04729715      -3.96369082 </v>
   <v>       1.23276354       0.10874959       0.79067491 </v>
   <v>       1.43618227       0.02057402      -3.09661529 </v>
   <v>       1.23790521       0.03656710       0.31136190 </v>
   <v>       1.35252536      -0.01238231      -0.92754083 </v>
   <v>       0.80271330      -0.00290189       2.59391065 </v>
   <v>       0.24154889       0.52025824      -2.84619314 </v>
   <v>      -0.81964233       1.50211224       1.62966961 </v>
   <v>      -0.87363450       1.43460530      -0.73902579 </v>
   <v>      -1.10234361       0.31719906       1.73415468 </v>
   <v>      -0.68389457       0.75770899      -1.00954799 </v>
   <v>       0.14037859       0.21635189       2.97008521 </v>
   <v>      -0.90967880       1.62224547       0.51467771 </v>
   <v>      -0.60449984       0.75986986      -2.88069663 </v>
   <v>      -0.95821067       0.71681303      -1.43428875 </v>
   <v>      -0.81105500       0.57186907       0.65652972 </v>
   <v>      -0.13886539       0.81972855      -3.92419421 </v>
   <v>      -1.24722604       0.34260598       1.96414007 </v>
   <v>      -0.51660674       1.42780380       3.59946451 </v>
   <v>      -0.25147445      -1.51120732      -1.17117148 </v>
   <v>      -1.11691375      -0.39468181       1.67866832 </v>
   <v>       0.24195496      -0.51813673      -2.85531241 </v>
   <v>      -0.80560672      -1.50693010       1.62242494 </v>
   <v>      -0.93810936      -1.62940711       0.53615952 </v>
   <v>      -0.60931753      -0.79022483      -2.86836563 </v>
   <v>      -0.58330212      -0.75353653      -1.04803439 </v>
   <v>       0.19173685      -0.20311723       2.95425669 </v>
   <v>      -0.14852514      -0.85163321      -3.93593735 </v>
   <v>      -1.27323872      -0.33569290       1.96405687 </v>
   <v>      -0.48312225      -1.42510359       3.60669884 </v>
   <v>      -0.95164591      -0.67314030      -1.41052254 </v>
   <v>      -0.81927697      -0.62969781       0.59466926 </v>
  </varray>
  <varray name="stress" >
   <v>      71.66428380       0.25058421      -0.26048382 </v>
   <v>       0.25058427      69.75166577       0.15445065 </v>
   <v>      -0.26048375       0.15445078      87.39009005 </v>
  </varray>
  <energy>
   <i name="e_fr_energy">   -364.77526558 </i>
   <i name="e_wo_entrp">   -364.22126007 </i>
   <i name="e_0_energy">     -1.10801101 </i>
  </energy>
  <time name="totalsc">  444.92  445.06</time>
  <eigenvalues>
   <array>
    <dimension dim="1">band</dimension>
    <dimension dim="2">kpoint</dimension>
    <dimension dim="3">spin</dimension>
    <field>eigene</field>
    <field>occ</field>
    <set>
     <set comment="spin 1">
      <set comment="kpoint 1">
       <r>  -64.7102    1.0000 </r>
       <r>  -64.6977    1.0000 </r>
       <r>  -64.6837    1.0000 </r>
       <r>  -64.6833    1.0000 </r>
       <r>  -64.6800    1.0000 </r>
       <r>  -64.6619    1.0000 </r>
       <r>  -64.6522    1.0000 </r>
       <r>  -64.6389    1.0000 </r>
       <r>  -64.6351    1.0000 </r>
       <r>  -64.6106    1.0000 </r>
       <r>  -64.6082    1.0000 </r>
       <r>  -64.6061    1.0000 </r>
       <r>  -64.5981    1.0000 </r>
       <r>  -64.5896    1.0000 </r>
       <r>  -64.5871    1.0000 </r>
       <r>  -64.5758    1.0000 </r>
       <r>  -64.5613    1.0000 </r>
       <r>  -64.5592    1.0000 </r>
       <r>  -64.5561    1.0000 </r>
       <r>  -64.5465    1.0000 </r>
       <r>  -64.5360    1.0000 </r>
       <r>  -64.5345    1.0000 </r>
       <r>  -64.5341    1.0000 </r>
       <r>  -64.5198    1.0000 </r>
       <r>  -64.5157    1.0000 </r>
       <r>  -64.4930    1.0000 </r>
       <r>  -64.4680    1.0000 </r>
       <r>  -64.4451    1.0000 </r>
       <r>  -64.4366    1.0000 </r>
       <r>  -64.4356    1.0000 </r>
       <r>  -64.4273    1.0000 </r>
       <r>  -64.4260    1.0000 </r>
       <r>  -64.4158    1.0000 </r>
       <r>  -64.4108    1.0000 </r>
       <r>  -64.4102    1.0000 </r>
       <r>  -64.4065    1.0000 </r>
       <r>  -64.3841    1.0000 </r>
       <r>  -64.3659    1.0000 </r>
       <r>  -64.3468    1.0000 </r>
       <r>  -64.3455    1.0000 </r>
       <r>  -64.3430    1.0000 </r>
       <r>  -64.3370    1.0000 </r>
       <r>  -64.3270    1.0000 </r>
       <r>  -64.3139    1.0000 </r>
       <r>  -64.2921    1.0000 </r>
       <r>  -64.2895    1.0000 </r>
       <r>  -64.2851    1.0000 </r>
       <r>  -64.2829    1.0000 </r>
       <r>  -64.2829    1.0000 </r>
       <r>  -64.2713    1.0000 </r>
       <r>  -64.2531    1.0000 </r>
       <r>  -64.2408    1.0000 </r>
       <r>  -64.2269    1.0000 </r>
       <r>  -64.2199    1.0000 </r>
       <r>  -64.2122    1.0000 </r>
       <r>  -64.2061    1.0000 </r>
       <r>  -64.1893    1.0000 </r>
       <r>  -64.1814    1.0000 </r>
       <r>  -64.1805    1.0000 </r>
       <r>  -64.1793    1.0000 </r>
       <r>  -64.1714    1.0000 </r>
       <r>  -64.1702    1.0000 </r>
       <r>  -64.1642    1.0000 </r>
       <r>  -64.1626    1.0000 </r>
       <r>  -64.1598    1.0000 </r>
       <r>  -64.1544    1.0000 </r>
       <r>  -64.1527    1.0000 </r>
       <r>  -64.1443    1.0000 </r>
       <r>  -64.1441    1.0000 </r>
       <r>  -64.1196    1.0000 </r>
       <r>  -64.1135    1.0000 </r>
       <r>  -64.0939    1.0000 </r>
       <r>  -64.0908    1.0000 </r>
       <r>  -64.0814    1.0000 </r>
       <r>  -64.0774    1.0000 </r>
       <r>  -64.0703    1.0000 </r>
       <r>  -64.0592    1.0000 </r>
       <r>  -64.0376    1.0000 </r>
       <r>  -64.0326    1.0000 </r>
       <r>  -64.0243    1.0000 </r>
       <r>  -64.0178    1.0000 </r>
       <r>  -64.0145    1.0000 </r>
       <r>  -64.0066    1.0000 </r>
       <r>  -64.0015    1.0000 </r>
       <r>  -63.9934    1.0000 </r>
       <r>  -63.9819    1.0000 </r>
       <r>  -63.9713    1.0000 </r>
       <r>  -63.9709    1.0000 </r>
       <r>  -63.9559    1.0000 </r>
       <r>  -63.9492    1.0000 </r>
       <r>  -63.9481    1.0000 </r>
       <r>  -63.9201    1.0000 </r>
       <r>  -63.9108    1.0000 </r>
       <r>  -63.9094    1.0000 </r>
       <r>  -63.9075    1.0000 </r>
       <r>  -63.8988    1.0000 </r>
       <r>  -63.8792    1.0000 </r>
       <r>  -63.8786    1.0000 </r>
       <r>  -63.8705    1.0000 </r>
       <r>  -63.8692    1.0000 </r>
       <r>  -63.8577    1.0000 </r>
       <r>  -63.8276    1.0000 </r>
       <r>  -63.7830    1.0000 </r>
       <r>  -63.6865    1.0000 </r>
       <r>  -63.6842    1.0000 </r>
       <r>  -63.6563    1.0000 </r>
       <r>  -63.6514    1.0000 </r>
       <r>  -63.6103    1.0000 </r>
       <r>  -63.5808    1.0000 </r>
       <r>  -63.5447    1.0000 </r>
       <r>  -63.5222    1.0000 </r>
       <r>  -63.4010    1.0000 </r>
       <r>  -63.3832    1.0000 </r>
       <r>  -63.3221    1.0000 </r>
       <r>  -16.2612    1.0000 </r>
       <r>  -16.0171    1.0000 </r>
       <r>  -15.8416    1.0000 </r>
       <r>  -15.5283    1.0000 </r>
       <r>  -15.3340    1.0000 </r>
       <r>  -15.3210    1.0000 </r>
       <r>  -15.1513    1.0000 </r>
       <r>  -15.0099    1.0000 </r>
       <r>  -14.9973    1.0000 </r>
       <r>  -14.9915    1.0000 </r>
       <r>  -14.8399    1.0000 </r>
       <r>  -14.7167    1.0000 </r>
       <r>  -14.6570    1.0000 </r>
       <r>  -14.5956    1.0000 </r>
       <r>  -14.5673    1.0000 </r>
       <r>  -14.4980    1.0000 </r>
       <r>  -14.3636    1.0000 </r>
       <r>  -14.3477    1.0000 </r>
       <r>  -14.2382    1.0000 </r>
       <r>  -14.1767    1.0000 </r>
       <r>  -14.1363    1.0000 </r>
       <r>  -14.1139    1.0000 </r>
       <r>  -13.9197    1.0000 </r>
       <r>  -13.8500    1.0000 </r>
       <r>  -13.8253    1.0000 </r>
       <r>  -13.7340    1.0000 </r>
       <r>  -13.6753    1.0000 </r>
       <r>  -13.6428    1.0000 </r>
       <r>  -13.5671    1.0000 </r>
       <r>  -13.5617    1.0000 </r>
       <r>  -13.3362    1.0000 </r>
       <r>  -13.2963    1.0000 </r>
       <r>  -13.2646    1.0000 </r>
       <r>  -13.1494    1.0000 </r>
       <r>  -13.0914    1.0000 </r>
       <r>  -13.0566    1.0000 </r>
       <r>  -12.9992    1.0000 </r>
       <r>  -12.6170    1.0000 </r>
       <r>   -8.0507    1.0000 </r>
       <r>   -7.8115    1.0000 </r>
       <r>   -7.7621    1.0000 </r>
       <r>   -7.6661    1.0000 </r>
       <r>   -7.5571    1.0000 </r>
       <r>   -7.5244    1.0000 </r>
       <r>   -7.5205    1.0000 </r>
       <r>   -7.4854    1.0000 </r>
       <r>   -7.3592    1.0000 </r>
       <r>   -7.3360    1.0000 </r>
       <r>   -7.1891    1.0000 </r>
       <r>   -7.1732    1.0000 </r>
       <r>   -7.1043    1.0000 </r>
       <r>   -7.0732    1.0000 </r>
       <r>   -7.0634    1.0000 </r>
       <r>   -7.0424    1.0000 </r>
       <r>   -7.0291    1.0000 </r>
       <r>   -6.9813    1.0000 </r>
       <r>   -6.9366    1.0000 </r>
       <r>   -6.8901    1.0000 </r>
       <r>   -6.8378    1.0000 </r>
       <r>   -6.7441    1.0000 </r>
       <r>   -6.6795    1.0000 </r>
       <r>   -6.5978    1.0000 </r>
       <r>   -6.5161    1.0000 </r>
       <r>   -6.5099    1.0000 </r>
       <r>   -6.4952    1.0000 </r>
       <r>   -6.4840    1.0000 </r>
       <r>   -6.4085    1.0000 </r>
       <r>   -6.3876    1.0000 </r>
       <r>   -6.3571    1.0000 </r>
       <r>   -6.2739    1.0000 </r>
       <r>   -6.2530    1.0000 </r>
       <r>   -6.2239    1.0000 </r>
       <r>   -6.1989    1.0000 </r>
       <r>   -6.1360    1.0000 </r>
       <r>   -6.0959    1.0000 </r>
       <r>   -6.0625    1.0000 </r>
       <r>   -5.9875    1.0000 </r>
       <r>   -5.9816    1.0000 </r>
       <r>   -5.9273    1.0000 </r>
       <r>   -5.8564    1.0000 </r>
       <r>   -5.8398    1.0000 </r>
       <r>   -5.8088    1.0000 </r>
       <r>   -5.7771    1.0000 </r>
       <r>   -5.7160    1.0000 </r>
       <r>   -5.7069    1.0000 </r>
       <r>   -5.6835    1.0000 </r>
       <r>   -5.6744    1.0000 </r>
       <r>   -5.6195    1.0000 </r>
       <r>   -5.5752    1.0000 </r>
       <r>   -5.5332    1.0000 </r>
       <r>   -5.5259    1.0000 </r>
       <r>   -5.4771    1.0000 </r>
       <r>   -5.4554    1.0000 </r>
       <r>   -5.4104    1.0000 </r>
       <r>   -5.3910    1.0000 </r>
       <r>   -5.3619    1.0000 </r>
       <r>   -5.3196    1.0000 </r>
       <r>   -5.2603    1.0000 </r>
       <r>   -5.2340    1.0000 </r>
       <r>   -5.2171    1.0000 </r>
       <r>   -5.1691    1.0000 </r>
       <r>   -5.1549    1.0000 </r>
       <r>   -5.1262    1.0000 </r>
       <r>   -5.1048    1.0000 </r>
       <r>   -5.0937    1.0000 </r>
       <r>   -5.0423    1.0000 </r>
       <r>   -4.9949    1.0000 </r>
       <r>   -4.9783    1.0000 </r>
       <r>   -4.9693    1.0000 </r>
       <r>   -4.9549    1.0000 </r>
       <r>   -4.9202    1.0000 </r>
       <r>   -4.8976    1.0000 </r>
       <r>   -4.8798    1.0000 </r>
       <r>   -4.8173    1.0000 </r>
       <r>   -4.8015    1.0000 </r>
       <r>   -4.7847    1.0000 </r>
       <r>   -4.7117    1.0000 </r>
       <r>   -4.6958    1.0000 </r>
       <r>   -4.6602    1.0000 </r>
       <r>   -4.5805    1.0000 </r>
       <r>   -4.5601    1.0000 </r>
       <r>   -4.5533    1.0000 </r>
       <r>   -4.5247    1.0000 </r>
       <r>   -4.4981    1.0000 </r>
       <r>   -4.4609    1.0000 </r>
       <r>   -4.4431    1.0000 </r>
       <r>   -4.3550    1.0000 </r>
       <r>   -4.2909    1.0000 </r>
       <r>   -4.2772    1.0000 </r>
       <r>   -4.2508    1.0000 </r>
       <r>   -4.2171    1.0000 </r>
       <r>   -4.1669    1.0000 </r>
       <r>   -4.1024    1.0000 </r>
       <r>   -4.0884    1.0000 </r>
       <r>   -4.0620    1.0000 </r>
       <r>   -3.9891    1.0000 </r>
       <r>   -3.9826    1.0000 </r>
       <r>   -3.9318    1.0000 </r>
       <r>   -3.8629    1.0000 </r>
       <r>   -3.8221    1.0000 </r>
       <r>   -3.7901    1.0000 </r>
       <r>   -3.7728    1.0000 </r>
       <r>   -3.7569    1.0000 </r>
       <r>   -3.7164    1.0000 </r>
       <r>   -3.6620    1.0000 </r>
       <r>   -3.5970    1.0000 </r>
       <r>   -3.5835    1.0000 </r>
       <r>   -3.5594    1.0000 </r>
       <r>   -3.4790    1.0000 </r>
       <r>   -3.3755    1.0000 </r>
       <r>   -3.3671    1.0000 </r>
       <r>   -3.3366    1.0000 </r>
       <r>   -3.3345    1.0000 </r>
       <r>   -3.2729    1.0000 </r>
       <r>   -3.2309    1.0000 </r>
       <r>   -3.2247    1.0000 </r>
       <r>   -3.1820    1.0000 </r>
       <r>   -3.1410    1.0000 </r>
       <r>   -3.1149    1.0000 </r>
       <r>   -3.0898    1.0000 </r>
       <r>   -3.0412    1.0000 </r>
       <r>   -3.0329    1.0000 </r>
       <r>   -3.0115    1.0000 </r>
       <r>   -2.9884    1.0000 </r>
       <r>   -2.9735    1.0000 </r>
       <r>   -2.9495    1.0000 </r>
       <r>   -2.9426    1.0000 </r>
       <r>   -2.9306    1.0000 </r>
       <r>   -2.9104    1.0000 </r>
       <r>   -2.8353    1.0000 </r>
       <r>   -2.8258    1.0000 </r>
       <r>   -2.8061    1.0000 </r>
       <r>   -2.8005    1.0000 </r>
       <r>   -2.7791    1.0000 </r>
       <r>   -2.7515    1.0000 </r>
       <r>   -2.7228    1.0000 </r>
       <r>   -2.6742    1.0000 </r>
       <r>   -2.6587    1.0000 </r>
       <r>   -2.6405    1.0000 </r>
       <r>   -2.6086    1.0000 </r>
       <r>   -2.5979    1.0000 </r>
       <r>   -2.5801    1.0000 </r>
       <r>   -2.5414    1.0000 </r>
       <r>   -2.5263    1.0000 </r>
       <r>   -2.5178    1.0000 </r>
       <r>   -2.4970    1.0000 </r>
       <r>   -2.4651    1.0000 </r>
       <r>   -2.4567    1.0000 </r>
       <r>   -2.4417    1.0000 </r>
       <r>   -2.4281    1.0000 </r>
       <r>   -2.4135    1.0000 </r>
       <r>   -2.3987    1.0000 </r>
       <r>   -2.3847    1.0000 </r>
       <r>   -2.3761    1.0000 </r>
       <r>   -2.3492    1.0000 </r>
       <r>   -2.3402    1.0000 </r>
       <r>   -2.3231    1.0000 </r>
       <r>   -2.3111    1.0000 </r>
       <r>   -2.2909    1.0000 </r>
       <r>   -2.2699    1.0000 </r>
       <r>   -2.2623    1.0000 </r>
       <r>   -2.2603    1.0000 </r>
       <r>   -2.2263    1.0000 </r>
       <r>   -2.2219    1.0000 </r>
       <r>   -2.2067    1.0000 </r>
       <r>   -2.1877    1.0000 </r>
       <r>   -2.1838    1.0000 </r>
       <r>   -2.1759    1.0000 </r>
       <r>   -2.1557    1.0000 </r>
       <r>   -2.1540    1.0000 </r>
       <r>   -2.1287    1.0000 </r>
       <r>   -2.1219    1.0000 </r>
       <r>   -2.1171    1.0000 </r>
       <r>   -2.1092    1.0000 </r>
       <r>   -2.0814    1.0000 </r>
       <r>   -2.0735    1.0000 </r>
       <r>   -2.0450    1.0000 </r>
       <r>   -2.0420    1.0000 </r>
       <r>   -2.0089    1.0000 </r>
       <r>   -2.0027    1.0000 </r>
       <r>   -2.0000    1.0000 </r>
       <r>   -1.9775    1.0000 </r>
       <r>   -1.9719    1.0000 </r>
       <r>   -1.9488    1.0000 </r>
       <r>   -1.9376    1.0000 </r>
       <r>   -1.9212    1.0000 </r>
       <r>   -1.9175    1.0000 </r>
       <r>   -1.9056    1.0000 </r>
       <r>   -1.8971    1.0000 </r>
       <r>   -1.8870    1.0000 </r>
       <r>   -1.8760    1.0000 </r>
       <r>   -1.8608    1.0000 </r>
       <r>   -1.8499    1.0000 </r>
       <r>   -1.8276    1.0000 </r>
       <r>   -1.8155    1.0000 </r>
       <r>   -1.8076    1.0000 </r>
       <r>   -1.7921    1.0000 </r>
       <r>   -1.7857    1.0000 </r>
       <r>   -1.7711    1.0000 </r>
       <r>   -1.7337    1.0000 </r>
       <r>   -1.7302    1.0000 </r>
       <r>   -1.6952    1.0000 </r>
       <r>   -1.6860    1.0000 </r>
       <r>   -1.6538    1.0000 </r>
       <r>   -1.6399    1.0000 </r>
       <r>   -1.6285    1.0000 </r>
       <r>   -1.5978    1.0000 </r>
       <r>   -1.5620    1.0000 </r>
       <r>   -1.5351    1.0000 </r>
       <r>   -1.5279    1.0000 </r>
       <r>   -1.5138    1.0000 </r>
       <r>   -1.4697    1.0000 </r>
       <r>   -1.4542    1.0000 </r>
       <r>   -1.4398    1.0000 </r>
       <r>   -1.4337    1.0000 </r>
       <r>   -1.4154    1.0000 </r>
       <r>   -1.3904    1.0000 </r>
       <r>   -1.3796    1.0000 </r>
       <r>   -1.3553    1.0000 </r>
       <r>   -1.3107    1.0000 </r>
       <r>   -1.3006    1.0000 </r>
       <r>   -1.2643    1.0000 </r>
       <r>   -1.2303    1.0000 </r>
       <r>   -1.2228    1.0000 </r>
       <r>   -1.1982    1.0000 </r>
       <r>   -1.1770    1.0000 </r>
       <r>   -1.1188    1.0000 </r>
       <r>   -1.1074    1.0000 </r>
       <r>   -1.1049    1.0000 </r>
       <r>   -1.0697    1.0000 </r>
       <r>   -1.0458    1.0000 </r>
       <r>   -0.9811    1.0000 </r>
       <r>   -0.9613    1.0000 </r>
       <r>   -0.9461    1.0000 </r>
       <r>   -0.9328    1.0000 </r>
       <r>   -0.9147    1.0000 </r>
       <r>   -0.8963    1.0000 </r>
       <r>   -0.8718    1.0000 </r>
       <r>   -0.8438    1.0000 </r>
       <r>   -0.8097    1.0000 </r>
       <r>   -0.7851    1.0000 </r>
       <r>   -0.7397    1.0000 </r>
       <r>   -0.6978    1.0000 </r>
       <r>   -0.6589    1.0000 </r>
       <r>   -0.6501    1.0000 </r>
       <r>   -0.6360    1.0000 </r>
       <r>   -0.5747    1.0000 </r>
       <r>   -0.5695    1.0000 </r>
       <r>   -0.5561    1.0000 </r>
       <r>   -0.5426    1.0000 </r>
       <r>   -0.4832    0.9998 </r>
       <r>   -0.4329    0.9992 </r>
       <r>   -0.4120    0.9986 </r>
       <r>   -0.3628    0.9960 </r>
       <r>   -0.3319    0.9925 </r>
       <r>   -0.2895    0.9835 </r>
       <r>   -0.2438    0.9648 </r>
       <r>   -0.2239    0.9524 </r>
       <r>   -0.1900    0.9235 </r>
       <r>   -0.1495    0.8734 </r>
       <r>   -0.1025    0.7913 </r>
       <r>   -0.0865    0.7571 </r>
       <r>   -0.0749    0.7309 </r>
       <r>    0.0097    0.5069 </r>
       <r>    0.0422    0.4158 </r>
       <r>    0.0792    0.3176 </r>
       <r>    0.0989    0.2698 </r>
       <r>    0.1154    0.2326 </r>
       <r>    0.1954    0.0975 </r>
       <r>    0.2269    0.0644 </r>
       <r>    0.2431    0.0512 </r>
       <r>    0.2608    0.0393 </r>
       <r>    0.2946    0.0229 </r>
       <r>    0.3340    0.0114 </r>
       <r>    0.3770    0.0049 </r>
       <r>    0.4468    0.0011 </r>
       <r>    0.4597    0.0008 </r>
       <r>    0.4752    0.0005 </r>
       <r>    0.5394    0.0001 </r>
       <r>    0.5768    0.0000 </r>
       <r>    0.5832    0.0000 </r>
       <r>    0.6601    0.0000 </r>
       <r>    0.7498    0.0000 </r>
       <r>    0.8888    0.0000 </r>
       <r>    0.9267    0.0000 </r>
       <r>    0.9700    0.0000 </r>
       <r>    1.0408    0.0000 </r>
       <r>    1.0512    0.0000 </r>
       <r>    1.1150    0.0000 </r>
       <r>    1.1529    0.0000 </r>
       <r>    1.1686    0.0000 </r>
       <r>    1.1912    0.0000 </r>
       <r>    1.2626    0.0000 </r>
       <r>    1.2764    0.0000 </r>
       <r>    1.3225    0.0000 </r>
       <r>    1.3604    0.0000 </r>
       <r>    1.4076    0.0000 </r>
       <r>    1.4976    0.0000 </r>
       <r>    1.6273    0.0000 </r>
       <r>    1.6480    0.0000 </r>
       <r>    1.7558    0.0000 </r>
       <r>    1.9283    0.0000 </r>
       <r>    2.3672    0.0000 </r>
       <r>    2.7081    0.0000 </r>
       <r>    3.0713    0.0000 </r>
       <r>    3.3725    0.0000 </r>
       <r>    3.4289    0.0000 </r>
       <r>    3.6181    0.0000 </r>
       <r>    3.8443    0.0000 </r>
       <r>    3.9087    0.0000 </r>
       <r>    4.0273    0.0000 </r>
       <r>    4.1499    0.0000 </r>
       <r>    4.1880    0.0000 </r>
       <r>    4.2407    0.0000 </r>
       <r>    4.3671    0.0000 </r>
       <r>    4.3766    0.0000 </r>
       <r>    4.4711    0.0000 </r>
       <r>    4.5052    0.0000 </r>
       <r>    4.6121    0.0000 </r>
       <r>    4.7150    0.0000 </r>
       <r>    4.7270    0.0000 </r>
       <r>    4.8516    0.0000 </r>
       <r>    4.8757    0.0000 </r>
       <r>    4.9987    0.0000 </r>
       <r>    5.0460    0.0000 </r>
       <r>    5.0597    0.0000 </r>
       <r>    5.1384    0.0000 </r>
       <r>    5.1436    0.0000 </r>
       <r>    5.1694    0.0000 </r>
       <r>    5.2301    0.0000 </r>
       <r>    5.3012    0.0000 </r>
       <r>    5.3456    0.0000 </r>
       <r>    5.3654    0.0000 </r>
       <r>    5.3844    0.0000 </r>
       <r>    5.4632    0.0000 </r>
       <r>    5.4742    0.0000 </r>
       <r>    5.5062    0.0000 </r>
       <r>    5.6062    0.0000 </r>
       <r>    5.6623    0.0000 </r>
       <r>    5.7264    0.0000 </r>
       <r>    5.7396    0.0000 </r>
       <r>    5.8167    0.0000 </r>
       <r>    5.8580    0.0000 </r>
       <r>    5.8696    0.0000 </r>
       <r>    5.9139    0.0000 </r>
       <r>    5.9600    0.0000 </r>
       <r>    6.0035    0.0000 </r>
       <r>    6.0361    0.0000 </r>
      </set>
     </set>
    </set>
   </array>
  </eigenvalues>
  <separator name="orbital magnetization" >
   <v name="MAGDIPOLOUT">      0.00000000      0.00000000      0.00000000</v>
  </separator>
  <dos>
   <i name="efermi">      0.01213186 </i>
   <total>
    <array>
     <dimension dim="1">gridpoints</dimension>
     <dimension dim="2">spin</dimension>
     <field>energy</field>
     <field>total</field>
     <field>integrated</field>
     <set>
      <set comment="spin 1">
       <r>   -68.2475     0.0000     0.0000 </r>
       <r>   -67.9881     0.0000     0.0000 </r>
       <r>   -67.7287     0.0000     0.0000 </r>
       <r>   -67.4693     0.0000     0.0000 </r>
       <r>   -67.2099     0.0000     0.0000 </r>
       <r>   -66.9505     0.0000     0.0000 </r>
       <r>   -66.6911     0.0000     0.0000 </r>
       <r>   -66.4317     0.0000     0.0000 </r>
       <r>   -66.1723     0.0000     0.0000 </r>
       <r>   -65.9129     0.0000     0.0000 </r>
       <r>   -65.6535     0.0000     0.0000 </r>
       <r>   -65.3941     0.0000     0.0000 </r>
       <r>   -65.1347     0.0481     0.0125 </r>
       <r>   -64.8753     7.4272     1.9391 </r>
       <r>   -64.6159    93.5918    26.2171 </r>
       <r>   -64.3565   204.1445    79.1729 </r>
       <r>   -64.0971   240.0054   141.4310 </r>
       <r>   -63.8377   198.0458   192.8047 </r>
       <r>   -63.5783    87.4318   215.4848 </r>
       <r>   -63.3189    38.1704   225.3863 </r>
       <r>   -63.0595     9.6779   227.8968 </r>
       <r>   -62.8001     0.3967   227.9997 </r>
       <r>   -62.5407     0.0011   228.0000 </r>
       <r>   -62.2813     0.0000   228.0000 </r>
       <r>   -62.0219     0.0000   228.0000 </r>
       <r>   -61.7624     0.0000   228.0000 </r>
       <r>   -61.5030     0.0000   228.0000 </r>
       <r>   -61.2436     0.0000   228.0000 </r>
       <r>   -60.9842     0.0000   228.0000 </r>
       <r>   -60.7248     0.0000   228.0000 </r>
       <r>   -60.4654     0.0000   228.0000 </r>
       <r>   -60.2060     0.0000   228.0000 </r>
       <r>   -59.9466     0.0000   228.0000 </r>
       <r>   -59.6872     0.0000   228.0000 </r>
       <r>   -59.4278     0.0000   228.0000 </r>
       <r>   -59.1684     0.0000   228.0000 </r>
       <r>   -58.9090     0.0000   228.0000 </r>
       <r>   -58.6496     0.0000   228.0000 </r>
       <r>   -58.3902     0.0000   228.0000 </r>
       <r>   -58.1308     0.0000   228.0000 </r>
       <r>   -57.8714     0.0000   228.0000 </r>
       <r>   -57.6120     0.0000   228.0000 </r>
       <r>   -57.3526     0.0000   228.0000 </r>
       <r>   -57.0932     0.0000   228.0000 </r>
       <r>   -56.8338     0.0000   228.0000 </r>
       <r>   -56.5744     0.0000   228.0000 </r>
       <r>   -56.3150     0.0000   228.0000 </r>
       <r>   -56.0556     0.0000   228.0000 </r>
       <r>   -55.7962     0.0000   228.0000 </r>
       <r>   -55.5368     0.0000   228.0000 </r>
       <r>   -55.2774     0.0000   228.0000 </r>
       <r>   -55.0180     0.0000   228.0000 </r>
       <r>   -54.7586     0.0000   228.0000 </r>
       <r>   -54.4992     0.0000   228.0000 </r>
       <r>   -54.2398     0.0000   228.0000 </r>
       <r>   -53.9804     0.0000   228.0000 </r>
       <r>   -53.7210     0.0000   228.0000 </r>
       <r>   -53.4615     0.0000   228.0000 </r>
       <r>   -53.2021     0.0000   228.0000 </r>
       <r>   -52.9427     0.0000   228.0000 </r>
       <r>   -52.6833     0.0000   228.0000 </r>
       <r>   -52.4239     0.0000   228.0000 </r>
       <r>   -52.1645     0.0000   228.0000 </r>
       <r>   -51.9051     0.0000   228.0000 </r>
       <r>   -51.6457     0.0000   228.0000 </r>
       <r>   -51.3863     0.0000   228.0000 </r>
       <r>   -51.1269     0.0000   228.0000 </r>
       <r>   -50.8675     0.0000   228.0000 </r>
       <r>   -50.6081     0.0000   228.0000 </r>
       <r>   -50.3487     0.0000   228.0000 </r>
       <r>   -50.0893     0.0000   228.0000 </r>
       <r>   -49.8299     0.0000   228.0000 </r>
       <r>   -49.5705     0.0000   228.0000 </r>
       <r>   -49.3111     0.0000   228.0000 </r>
       <r>   -49.0517     0.0000   228.0000 </r>
       <r>   -48.7923     0.0000   228.0000 </r>
       <r>   -48.5329     0.0000   228.0000 </r>
       <r>   -48.2735     0.0000   228.0000 </r>
       <r>   -48.0141     0.0000   228.0000 </r>
       <r>   -47.7547     0.0000   228.0000 </r>
       <r>   -47.4953     0.0000   228.0000 </r>
       <r>   -47.2359     0.0000   228.0000 </r>
       <r>   -46.9765     0.0000   228.0000 </r>
       <r>   -46.7171     0.0000   228.0000 </r>
       <r>   -46.4577     0.0000   228.0000 </r>
       <r>   -46.1983     0.0000   228.0000 </r>
       <r>   -45.9389     0.0000   228.0000 </r>
       <r>   -45.6795     0.0000   228.0000 </r>
       <r>   -45.4201     0.0000   228.0000 </r>
       <r>   -45.1606     0.0000   228.0000 </r>
       <r>   -44.9012     0.0000   228.0000 </r>
       <r>   -44.6418     0.0000   228.0000 </r>
       <r>   -44.3824     0.0000   228.0000 </r>
       <r>   -44.1230     0.0000   228.0000 </r>
       <r>   -43.8636     0.0000   228.0000 </r>
       <r>   -43.6042     0.0000   228.0000 </r>
       <r>   -43.3448     0.0000   228.0000 </r>
       <r>   -43.0854     0.0000   228.0000 </r>
       <r>   -42.8260     0.0000   228.0000 </r>
       <r>   -42.5666     0.0000   228.0000 </r>
       <r>   -42.3072     0.0000   228.0000 </r>
       <r>   -42.0478     0.0000   228.0000 </r>
       <r>   -41.7884     0.0000   228.0000 </r>
       <r>   -41.5290     0.0000   228.0000 </r>
       <r>   -41.2696     0.0000   228.0000 </r>
       <r>   -41.0102     0.0000   228.0000 </r>
       <r>   -40.7508     0.0000   228.0000 </r>
       <r>   -40.4914     0.0000   228.0000 </r>
       <r>   -40.2320     0.0000   228.0000 </r>
       <r>   -39.9726     0.0000   228.0000 </r>
       <r>   -39.7132     0.0000   228.0000 </r>
       <r>   -39.4538     0.0000   228.0000 </r>
       <r>   -39.1944     0.0000   228.0000 </r>
       <r>   -38.9350     0.0000   228.0000 </r>
       <r>   -38.6756     0.0000   228.0000 </r>
       <r>   -38.4162     0.0000   228.0000 </r>
       <r>   -38.1568     0.0000   228.0000 </r>
       <r>   -37.8974     0.0000   228.0000 </r>
       <r>   -37.6380     0.0000   228.0000 </r>
       <r>   -37.3786     0.0000   228.0000 </r>
       <r>   -37.1191     0.0000   228.0000 </r>
       <r>   -36.8597     0.0000   228.0000 </r>
       <r>   -36.6003     0.0000   228.0000 </r>
       <r>   -36.3409     0.0000   228.0000 </r>
       <r>   -36.0815     0.0000   228.0000 </r>
       <r>   -35.8221     0.0000   228.0000 </r>
       <r>   -35.5627     0.0000   228.0000 </r>
       <r>   -35.3033     0.0000   228.0000 </r>
       <r>   -35.0439     0.0000   228.0000 </r>
       <r>   -34.7845     0.0000   228.0000 </r>
       <r>   -34.5251     0.0000   228.0000 </r>
       <r>   -34.2657     0.0000   228.0000 </r>
       <r>   -34.0063     0.0000   228.0000 </r>
       <r>   -33.7469     0.0000   228.0000 </r>
       <r>   -33.4875     0.0000   228.0000 </r>
       <r>   -33.2281     0.0000   228.0000 </r>
       <r>   -32.9687     0.0000   228.0000 </r>
       <r>   -32.7093     0.0000   228.0000 </r>
       <r>   -32.4499     0.0000   228.0000 </r>
       <r>   -32.1905     0.0000   228.0000 </r>
       <r>   -31.9311     0.0000   228.0000 </r>
       <r>   -31.6717     0.0000   228.0000 </r>
       <r>   -31.4123     0.0000   228.0000 </r>
       <r>   -31.1529     0.0000   228.0000 </r>
       <r>   -30.8935     0.0000   228.0000 </r>
       <r>   -30.6341     0.0000   228.0000 </r>
       <r>   -30.3747     0.0000   228.0000 </r>
       <r>   -30.1153     0.0000   228.0000 </r>
       <r>   -29.8559     0.0000   228.0000 </r>
       <r>   -29.5965     0.0000   228.0000 </r>
       <r>   -29.3371     0.0000   228.0000 </r>
       <r>   -29.0777     0.0000   228.0000 </r>
       <r>   -28.8182     0.0000   228.0000 </r>
       <r>   -28.5588     0.0000   228.0000 </r>
       <r>   -28.2994     0.0000   228.0000 </r>
       <r>   -28.0400     0.0000   228.0000 </r>
       <r>   -27.7806     0.0000   228.0000 </r>
       <r>   -27.5212     0.0000   228.0000 </r>
       <r>   -27.2618     0.0000   228.0000 </r>
       <r>   -27.0024     0.0000   228.0000 </r>
       <r>   -26.7430     0.0000   228.0000 </r>
       <r>   -26.4836     0.0000   228.0000 </r>
       <r>   -26.2242     0.0000   228.0000 </r>
       <r>   -25.9648     0.0000   228.0000 </r>
       <r>   -25.7054     0.0000   228.0000 </r>
       <r>   -25.4460     0.0000   228.0000 </r>
       <r>   -25.1866     0.0000   228.0000 </r>
       <r>   -24.9272     0.0000   228.0000 </r>
       <r>   -24.6678     0.0000   228.0000 </r>
       <r>   -24.4084     0.0000   228.0000 </r>
       <r>   -24.1490     0.0000   228.0000 </r>
       <r>   -23.8896     0.0000   228.0000 </r>
       <r>   -23.6302     0.0000   228.0000 </r>
       <r>   -23.3708     0.0000   228.0000 </r>
       <r>   -23.1114     0.0000   228.0000 </r>
       <r>   -22.8520     0.0000   228.0000 </r>
       <r>   -22.5926     0.0000   228.0000 </r>
       <r>   -22.3332     0.0000   228.0000 </r>
       <r>   -22.0738     0.0000   228.0000 </r>
       <r>   -21.8144     0.0000   228.0000 </r>
       <r>   -21.5550     0.0000   228.0000 </r>
       <r>   -21.2956     0.0000   228.0000 </r>
       <r>   -21.0362     0.0000   228.0000 </r>
       <r>   -20.7768     0.0000   228.0000 </r>
       <r>   -20.5173     0.0000   228.0000 </r>
       <r>   -20.2579     0.0000   228.0000 </r>
       <r>   -19.9985     0.0000   228.0000 </r>
       <r>   -19.7391     0.0000   228.0000 </r>
       <r>   -19.4797     0.0000   228.0000 </r>
       <r>   -19.2203     0.0000   228.0000 </r>
       <r>   -18.9609     0.0000   228.0000 </r>
       <r>   -18.7015     0.0000   228.0000 </r>
       <r>   -18.4421     0.0000   228.0000 </r>
       <r>   -18.1827     0.0000   228.0000 </r>
       <r>   -17.9233     0.0000   228.0000 </r>
       <r>   -17.6639     0.0000   228.0000 </r>
       <r>   -17.4045     0.0000   228.0000 </r>
       <r>   -17.1451     0.0000   228.0000 </r>
       <r>   -16.8857     0.0000   228.0000 </r>
       <r>   -16.6263     0.0379   228.0099 </r>
       <r>   -16.3669     1.7681   228.4685 </r>
       <r>   -16.1075     7.0824   230.3057 </r>
       <r>   -15.8481     9.4312   232.7522 </r>
       <r>   -15.5887     7.6067   234.7254 </r>
       <r>   -15.3293    12.9652   238.0886 </r>
       <r>   -15.0699    19.9984   243.2763 </r>
       <r>   -14.8105    24.5022   249.6322 </r>
       <r>   -14.5511    27.1715   256.6806 </r>
       <r>   -14.2917    28.4884   264.0705 </r>
       <r>   -14.0323    27.8576   271.2969 </r>
       <r>   -13.7729    26.9525   278.2885 </r>
       <r>   -13.5135    30.5342   286.2091 </r>
       <r>   -13.2541    24.6748   292.6099 </r>
       <r>   -12.9947    26.5563   299.4987 </r>
       <r>   -12.7353    10.8085   302.3024 </r>
       <r>   -12.4758     5.3161   303.6814 </r>
       <r>   -12.2164     1.2103   303.9954 </r>
       <r>   -11.9570     0.0178   304.0000 </r>
       <r>   -11.6976     0.0000   304.0000 </r>
       <r>   -11.4382     0.0000   304.0000 </r>
       <r>   -11.1788     0.0000   304.0000 </r>
       <r>   -10.9194     0.0000   304.0000 </r>
       <r>   -10.6600     0.0000   304.0000 </r>
       <r>   -10.4006     0.0000   304.0000 </r>
       <r>   -10.1412     0.0000   304.0000 </r>
       <r>    -9.8818     0.0000   304.0000 </r>
       <r>    -9.6224     0.0000   304.0000 </r>
       <r>    -9.3630     0.0000   304.0000 </r>
       <r>    -9.1036     0.0000   304.0000 </r>
       <r>    -8.8442     0.0000   304.0000 </r>
       <r>    -8.5848     0.0006   304.0002 </r>
       <r>    -8.3254     0.2015   304.0524 </r>
       <r>    -8.0660     3.7406   305.0228 </r>
       <r>    -7.8066    12.2835   308.2091 </r>
       <r>    -7.5472    26.9180   315.1917 </r>
       <r>    -7.2878    33.0729   323.7709 </r>
       <r>    -7.0284    43.8519   335.1463 </r>
       <r>    -6.7690    42.8938   346.2731 </r>
       <r>    -6.5096    38.7194   356.3170 </r>
       <r>    -6.2502    50.3744   369.3843 </r>
       <r>    -5.9908    48.4970   381.9645 </r>
       <r>    -5.7314    53.6539   395.8825 </r>
       <r>    -5.4720    60.6321   411.6107 </r>
       <r>    -5.2126    61.6996   427.6158 </r>
       <r>    -4.9532    70.3664   445.8690 </r>
       <r>    -4.6938    64.4956   462.5994 </r>
       <r>    -4.4344    56.5325   477.2641 </r>
       <r>    -4.1749    50.7659   490.4329 </r>
       <r>    -3.9155    50.2003   503.4551 </r>
       <r>    -3.6561    51.3900   516.7858 </r>
       <r>    -3.3967    46.8538   528.9398 </r>
       <r>    -3.1373    60.1823   544.5513 </r>
       <r>    -2.8779    80.4429   565.4185 </r>
       <r>    -2.6185    87.0611   588.0024 </r>
       <r>    -2.3591   112.3900   617.1567 </r>
       <r>    -2.0997   141.6816   653.9094 </r>
       <r>    -1.8403   146.1234   691.8143 </r>
       <r>    -1.5809   115.7298   721.8349 </r>
       <r>    -1.3215    93.1290   745.9929 </r>
       <r>    -1.0621    80.5340   766.8837 </r>
       <r>    -0.8027    75.8214   786.5520 </r>
       <r>    -0.5433    68.3630   804.2856 </r>
       <r>    -0.2839    58.8254   819.5451 </r>
       <r>    -0.0245    55.6196   833.9730 </r>
       <r>     0.2349    56.2889   848.5745 </r>
       <r>     0.4943    54.1293   862.6158 </r>
       <r>     0.7537    38.4958   872.6017 </r>
       <r>     1.0131    33.6608   881.3334 </r>
       <r>     1.2725    48.0597   893.8003 </r>
       <r>     1.5319    36.6708   903.3128 </r>
       <r>     1.7913    21.6371   908.9256 </r>
       <r>     2.0507    10.2875   911.5942 </r>
       <r>     2.3101     4.2019   912.6842 </r>
       <r>     2.5695     5.7464   914.1748 </r>
       <r>     2.8289     5.8512   915.6926 </r>
       <r>     3.0883     5.6166   917.1496 </r>
       <r>     3.3477     8.8015   919.4327 </r>
       <r>     3.6071    12.8390   922.7632 </r>
       <r>     3.8666    13.0256   926.1421 </r>
       <r>     4.1260    20.5570   931.4746 </r>
       <r>     4.3854    27.7082   938.6622 </r>
       <r>     4.6448    28.1853   945.9736 </r>
       <r>     4.9042    28.5584   953.3817 </r>
       <r>     5.1636    39.2120   963.5534 </r>
       <r>     5.4230    46.4425   975.6008 </r>
       <r>     5.6824    41.3660   986.3313 </r>
       <r>     5.9418    42.4025   997.3306 </r>
       <r>     6.2012    23.4805  1003.4215 </r>
       <r>     6.4606     2.2128  1003.9955 </r>
       <r>     6.7200     0.0173  1004.0000 </r>
       <r>     6.9794     0.0000  1004.0000 </r>
       <r>     7.2388     0.0000  1004.0000 </r>
       <r>     7.4982     0.0000  1004.0000 </r>
       <r>     7.7576     0.0000  1004.0000 </r>
       <r>     8.0170     0.0000  1004.0000 </r>
       <r>     8.2764     0.0000  1004.0000 </r>
       <r>     8.5358     0.0000  1004.0000 </r>
       <r>     8.7952     0.0000  1004.0000 </r>
       <r>     9.0546     0.0000  1004.0000 </r>
       <r>     9.3140     0.0000  1004.0000 </r>
       <r>     9.5734     0.0000  1004.0000 </r>
      </set>
     </set>
    </array>
   </total>
  </dos>
 </calculation>
 <structure name="finalpos" >
  <crystal>
   <varray name="basis" >
    <v>      16.88469405       0.00000000       0.00000000 </v>
    <v>       0.00000000       9.57841000       0.00000000 </v>
    <v>       0.00000000       0.00000000      16.29945638 </v>
   </varray>
   <i name="volume">   2636.08699611 </i>
   <varray name="rec_basis" >
    <v>       0.05922524       0.00000000       0.00000000 </v>
    <v>       0.00000000       0.10440146       0.00000000 </v>
    <v>       0.00000000       0.00000000       0.06135174 </v>
   </varray>
  </crystal>
  <varray name="positions" >
   <v>       0.78004631       0.14529695       0.12761889 </v>
   <v>       0.79786163       0.14529591       0.28949561 </v>
   <v>       0.21751953       0.65512051       0.10193699 </v>
   <v>       0.29733029       0.64529695       0.22223994 </v>
   <v>       0.39681111       0.14517264       0.13492502 </v>
   <v>       0.46975828       0.14529695       0.25378030 </v>
   <v>       0.95247430       0.64529695       0.15915924 </v>
   <v>       0.96883882       0.64529194       0.32001835 </v>
   <v>       0.17727464       0.14509813       0.05042860 </v>
   <v>       0.12490229       0.14529695       0.19069959 </v>
   <v>       0.11843267       0.14527194       0.33973184 </v>
   <v>       0.60761831       0.64529695       0.09607854 </v>
   <v>       0.64218627       0.64529695       0.28532065 </v>
   <v>       0.90850215       0.00645619       0.12429324 </v>
   <v>       0.94222672       0.01284007       0.27666809 </v>
   <v>       0.42486676       0.51319395       0.19724049 </v>
   <v>       0.46148795       0.47529692       0.34174369 </v>
   <v>       0.60198686       0.93292046       0.09401873 </v>
   <v>       0.59729475       0.01319395       0.22878085 </v>
   <v>       0.08001077       0.51319395       0.13415979 </v>
   <v>       0.11216601       0.50328481       0.29787170 </v>
   <v>       0.25243876       0.01319395       0.16570014 </v>
   <v>       0.28859807       0.99039429       0.32175931 </v>
   <v>       0.74292371       0.49524831       0.09872862 </v>
   <v>       0.76972274       0.51319395       0.26032120 </v>
   <v>       0.90850968       0.28417812       0.12429665 </v>
   <v>       0.94223076       0.27776852       0.27666516 </v>
   <v>       0.36521987       0.64018666       0.07813514 </v>
   <v>       0.42486676       0.77739995       0.19724049 </v>
   <v>       0.46003235       0.81398717       0.34196457 </v>
   <v>       0.60166634       0.35761777       0.09407495 </v>
   <v>       0.59729475       0.27739995       0.22878085 </v>
   <v>       0.08001077       0.77739995       0.13415979 </v>
   <v>       0.11221220       0.78734266       0.29779175 </v>
   <v>       0.25243876       0.27739995       0.16570014 </v>
   <v>       0.28927356       0.30276922       0.32045295 </v>
   <v>       0.74298937       0.79540085       0.09876412 </v>
   <v>       0.76972274       0.77739995       0.26032120 </v>
   <v>       0.99918260       0.14530390       0.35811082 </v>
   <v>       0.99146121       0.14529695       0.18894910 </v>
   <v>       0.48297225       0.64479986       0.10995363 </v>
   <v>       0.50874518       0.64529695       0.28357016 </v>
   <v>       0.64660522       0.14529695       0.12586840 </v>
   <v>       0.67556543       0.14519818       0.29236144 </v>
   <v>       0.11266303       0.64522271       0.04062530 </v>
   <v>       0.16388920       0.64529695       0.22048946 </v>
   <v>       0.29525115       0.14539730       0.06958326 </v>
   <v>       0.33631719       0.14529695       0.25202981 </v>
   <v>       0.81903321       0.64529695       0.15740875 </v>
   <v>       0.84714876       0.64529328       0.32425157 </v>
   <v>       0.80524665       0.31928806       0.05704323 </v>
   <v>       0.82906105       0.31351195       0.22078247 </v>
   <v>       0.31177708       0.81351195       0.12616141 </v>
   <v>       0.34618319       0.80397970       0.29985216 </v>
   <v>       0.48420507       0.31351195       0.15770176 </v>
   <v>       0.52198596       0.29515838       0.32909672 </v>
   <v>       0.00148905       0.81351195       0.25232282 </v>
   <v>       0.96736951       0.82360792       0.08822512 </v>
   <v>       0.13961574       0.32043156       0.11097585 </v>
   <v>       0.17391704       0.31351195       0.28386317 </v>
   <v>       0.65045972       0.79455966       0.01570745 </v>
   <v>       0.65663306       0.81351195       0.18924211 </v>
   <v>       0.69529457       0.79009595       0.35667227 </v>
   <v>       0.30078620       0.48279730       0.13211147 </v>
   <v>       0.34738406       0.48941783       0.30113900 </v>
   <v>       0.80525543       0.97136953       0.05700768 </v>
   <v>       0.82906105       0.97708195       0.22078247 </v>
   <v>       0.00148905       0.47708195       0.25232282 </v>
   <v>       0.96744994       0.46698540       0.08824743 </v>
   <v>       0.48420507       0.97708195       0.15770176 </v>
   <v>       0.52122321       0.99338255       0.32844370 </v>
   <v>       0.65030180       0.49575131       0.01576877 </v>
   <v>       0.65663306       0.47708195       0.18924211 </v>
   <v>       0.69527722       0.50045753       0.35666440 </v>
   <v>       0.14044923       0.96909228       0.11092136 </v>
   <v>       0.17391704       0.97708195       0.28386317 </v>
  </varray>
 </structure>
</modeling>
