  60  60   0   0
  0.3182702E+02  0.9578410E-09  0.1125646E-08  0.1771136E-08  0.5000000E-15
  1.000000000000000E-004
  CAR 
 "Millerite NiS"                         
      9.92107333    -67.31806810  301      0.33724015      1.00000000
    -67.318  0.0000E+00  0.0000E+00
    -67.061  0.0000E+00  0.0000E+00
    -66.803  0.0000E+00  0.0000E+00
    -66.546  0.0000E+00  0.0000E+00
    -66.288  0.0000E+00  0.0000E+00
    -66.031  0.0000E+00  0.0000E+00
    -65.773  0.0000E+00  0.0000E+00
    -65.516  0.0000E+00  0.0000E+00
    -65.258  0.0000E+00  0.0000E+00
    -65.001  0.0000E+00  0.0000E+00
    -64.743  0.4482E-09  0.1154E-09
    -64.486  0.2442E-04  0.6289E-05
    -64.229  0.6247E-01  0.1609E-01
    -63.971  0.9144E+01  0.2370E+01
    -63.714  0.1098E+03  0.3064E+02
    -63.456  0.2000E+03  0.8213E+02
    -63.199  0.1407E+03  0.1184E+03
    -62.941  0.7420E+02  0.1375E+03
    -62.684  0.6734E+02  0.1548E+03
    -62.426  0.5407E+02  0.1687E+03
    -62.169  0.3155E+02  0.1769E+03
    -61.911  0.1139E+02  0.1798E+03
    -61.654  0.8421E+00  0.1800E+03
    -61.396  0.5025E-02  0.1800E+03
    -61.139  0.1550E-05  0.1800E+03
    -60.881  0.2049E-10  0.1800E+03
    -60.624  0.0000E+00  0.1800E+03
    -60.367  0.0000E+00  0.1800E+03
    -60.109  0.0000E+00  0.1800E+03
    -59.852  0.0000E+00  0.1800E+03
    -59.594  0.0000E+00  0.1800E+03
    -59.337  0.0000E+00  0.1800E+03
    -59.079  0.0000E+00  0.1800E+03
    -58.822  0.0000E+00  0.1800E+03
    -58.564  0.0000E+00  0.1800E+03
    -58.307  0.0000E+00  0.1800E+03
    -58.049  0.0000E+00  0.1800E+03
    -57.792  0.0000E+00  0.1800E+03
    -57.534  0.0000E+00  0.1800E+03
    -57.277  0.0000E+00  0.1800E+03
    -57.020  0.0000E+00  0.1800E+03
    -56.762  0.0000E+00  0.1800E+03
    -56.505  0.0000E+00  0.1800E+03
    -56.247  0.0000E+00  0.1800E+03
    -55.990  0.0000E+00  0.1800E+03
    -55.732  0.0000E+00  0.1800E+03
    -55.475  0.0000E+00  0.1800E+03
    -55.217  0.0000E+00  0.1800E+03
    -54.960  0.0000E+00  0.1800E+03
    -54.702  0.0000E+00  0.1800E+03
    -54.445  0.0000E+00  0.1800E+03
    -54.187  0.0000E+00  0.1800E+03
    -53.930  0.0000E+00  0.1800E+03
    -53.672  0.0000E+00  0.1800E+03
    -53.415  0.0000E+00  0.1800E+03
    -53.158  0.0000E+00  0.1800E+03
    -52.900  0.0000E+00  0.1800E+03
    -52.643  0.0000E+00  0.1800E+03
    -52.385  0.0000E+00  0.1800E+03
    -52.128  0.0000E+00  0.1800E+03
    -51.870  0.0000E+00  0.1800E+03
    -51.613  0.0000E+00  0.1800E+03
    -51.355  0.0000E+00  0.1800E+03
    -51.098  0.0000E+00  0.1800E+03
    -50.840  0.0000E+00  0.1800E+03
    -50.583  0.0000E+00  0.1800E+03
    -50.325  0.0000E+00  0.1800E+03
    -50.068  0.0000E+00  0.1800E+03
    -49.811  0.0000E+00  0.1800E+03
    -49.553  0.0000E+00  0.1800E+03
    -49.296  0.0000E+00  0.1800E+03
    -49.038  0.0000E+00  0.1800E+03
    -48.781  0.0000E+00  0.1800E+03
    -48.523  0.0000E+00  0.1800E+03
    -48.266  0.0000E+00  0.1800E+03
    -48.008  0.0000E+00  0.1800E+03
    -47.751  0.0000E+00  0.1800E+03
    -47.493  0.0000E+00  0.1800E+03
    -47.236  0.0000E+00  0.1800E+03
    -46.978  0.0000E+00  0.1800E+03
    -46.721  0.0000E+00  0.1800E+03
    -46.463  0.0000E+00  0.1800E+03
    -46.206  0.0000E+00  0.1800E+03
    -45.949  0.0000E+00  0.1800E+03
    -45.691  0.0000E+00  0.1800E+03
    -45.434  0.0000E+00  0.1800E+03
    -45.176  0.0000E+00  0.1800E+03
    -44.919  0.0000E+00  0.1800E+03
    -44.661  0.0000E+00  0.1800E+03
    -44.404  0.0000E+00  0.1800E+03
    -44.146  0.0000E+00  0.1800E+03
    -43.889  0.0000E+00  0.1800E+03
    -43.631  0.0000E+00  0.1800E+03
    -43.374  0.0000E+00  0.1800E+03
    -43.116  0.0000E+00  0.1800E+03
    -42.859  0.0000E+00  0.1800E+03
    -42.602  0.0000E+00  0.1800E+03
    -42.344  0.0000E+00  0.1800E+03
    -42.087  0.0000E+00  0.1800E+03
    -41.829  0.0000E+00  0.1800E+03
    -41.572  0.0000E+00  0.1800E+03
    -41.314  0.0000E+00  0.1800E+03
    -41.057  0.0000E+00  0.1800E+03
    -40.799  0.0000E+00  0.1800E+03
    -40.542  0.0000E+00  0.1800E+03
    -40.284  0.0000E+00  0.1800E+03
    -40.027  0.0000E+00  0.1800E+03
    -39.769  0.0000E+00  0.1800E+03
    -39.512  0.0000E+00  0.1800E+03
    -39.255  0.0000E+00  0.1800E+03
    -38.997  0.0000E+00  0.1800E+03
    -38.740  0.0000E+00  0.1800E+03
    -38.482  0.0000E+00  0.1800E+03
    -38.225  0.0000E+00  0.1800E+03
    -37.967  0.0000E+00  0.1800E+03
    -37.710  0.0000E+00  0.1800E+03
    -37.452  0.0000E+00  0.1800E+03
    -37.195  0.0000E+00  0.1800E+03
    -36.937  0.0000E+00  0.1800E+03
    -36.680  0.0000E+00  0.1800E+03
    -36.422  0.0000E+00  0.1800E+03
    -36.165  0.0000E+00  0.1800E+03
    -35.907  0.0000E+00  0.1800E+03
    -35.650  0.0000E+00  0.1800E+03
    -35.393  0.0000E+00  0.1800E+03
    -35.135  0.0000E+00  0.1800E+03
    -34.878  0.0000E+00  0.1800E+03
    -34.620  0.0000E+00  0.1800E+03
    -34.363  0.0000E+00  0.1800E+03
    -34.105  0.0000E+00  0.1800E+03
    -33.848  0.0000E+00  0.1800E+03
    -33.590  0.0000E+00  0.1800E+03
    -33.333  0.0000E+00  0.1800E+03
    -33.075  0.0000E+00  0.1800E+03
    -32.818  0.0000E+00  0.1800E+03
    -32.560  0.0000E+00  0.1800E+03
    -32.303  0.0000E+00  0.1800E+03
    -32.046  0.0000E+00  0.1800E+03
    -31.788  0.0000E+00  0.1800E+03
    -31.531  0.0000E+00  0.1800E+03
    -31.273  0.0000E+00  0.1800E+03
    -31.016  0.0000E+00  0.1800E+03
    -30.758  0.0000E+00  0.1800E+03
    -30.501  0.0000E+00  0.1800E+03
    -30.243  0.0000E+00  0.1800E+03
    -29.986  0.0000E+00  0.1800E+03
    -29.728  0.0000E+00  0.1800E+03
    -29.471  0.0000E+00  0.1800E+03
    -29.213  0.0000E+00  0.1800E+03
    -28.956  0.0000E+00  0.1800E+03
    -28.698  0.0000E+00  0.1800E+03
    -28.441  0.0000E+00  0.1800E+03
    -28.184  0.0000E+00  0.1800E+03
    -27.926  0.0000E+00  0.1800E+03
    -27.669  0.0000E+00  0.1800E+03
    -27.411  0.0000E+00  0.1800E+03
    -27.154  0.0000E+00  0.1800E+03
    -26.896  0.0000E+00  0.1800E+03
    -26.639  0.0000E+00  0.1800E+03
    -26.381  0.0000E+00  0.1800E+03
    -26.124  0.0000E+00  0.1800E+03
    -25.866  0.0000E+00  0.1800E+03
    -25.609  0.0000E+00  0.1800E+03
    -25.351  0.0000E+00  0.1800E+03
    -25.094  0.0000E+00  0.1800E+03
    -24.837  0.0000E+00  0.1800E+03
    -24.579  0.0000E+00  0.1800E+03
    -24.322  0.0000E+00  0.1800E+03
    -24.064  0.0000E+00  0.1800E+03
    -23.807  0.0000E+00  0.1800E+03
    -23.549  0.0000E+00  0.1800E+03
    -23.292  0.0000E+00  0.1800E+03
    -23.034  0.0000E+00  0.1800E+03
    -22.777  0.0000E+00  0.1800E+03
    -22.519  0.0000E+00  0.1800E+03
    -22.262  0.0000E+00  0.1800E+03
    -22.004  0.0000E+00  0.1800E+03
    -21.747  0.0000E+00  0.1800E+03
    -21.490  0.0000E+00  0.1800E+03
    -21.232  0.0000E+00  0.1800E+03
    -20.975  0.0000E+00  0.1800E+03
    -20.717  0.0000E+00  0.1800E+03
    -20.460  0.0000E+00  0.1800E+03
    -20.202  0.0000E+00  0.1800E+03
    -19.945  0.0000E+00  0.1800E+03
    -19.687  0.0000E+00  0.1800E+03
    -19.430  0.0000E+00  0.1800E+03
    -19.172  0.0000E+00  0.1800E+03
    -18.915  0.0000E+00  0.1800E+03
    -18.657  0.0000E+00  0.1800E+03
    -18.400  0.0000E+00  0.1800E+03
    -18.142  0.0000E+00  0.1800E+03
    -17.885  0.0000E+00  0.1800E+03
    -17.628  0.0000E+00  0.1800E+03
    -17.370  0.0000E+00  0.1800E+03
    -17.113  0.0000E+00  0.1800E+03
    -16.855  0.0000E+00  0.1800E+03
    -16.598  0.0000E+00  0.1800E+03
    -16.340  0.0000E+00  0.1800E+03
    -16.083  0.0000E+00  0.1800E+03
    -15.825  0.3967E-12  0.1800E+03
    -15.568  0.7522E-07  0.1800E+03
    -15.310  0.5687E-03  0.1800E+03
    -15.053  0.1863E+00  0.1800E+03
    -14.795  0.3216E+01  0.1809E+03
    -14.538  0.4041E+01  0.1819E+03
    -14.281  0.3504E+01  0.1828E+03
    -14.023  0.1460E+02  0.1866E+03
    -13.766  0.1261E+02  0.1898E+03
    -13.508  0.1928E+02  0.1948E+03
    -13.251  0.2414E+02  0.2010E+03
    -12.993  0.2828E+02  0.2083E+03
    -12.736  0.2723E+02  0.2153E+03
    -12.478  0.1914E+02  0.2202E+03
    -12.221  0.1971E+02  0.2253E+03
    -11.963  0.1895E+02  0.2302E+03
    -11.706  0.1495E+02  0.2340E+03
    -11.448  0.7156E+01  0.2359E+03
    -11.191  0.6621E+01  0.2376E+03
    -10.933  0.8178E+01  0.2397E+03
    -10.676  0.1238E+01  0.2400E+03
    -10.419  0.1420E-01  0.2400E+03
    -10.161  0.8348E-05  0.2400E+03
     -9.904  0.2073E-09  0.2400E+03
     -9.646  0.0000E+00  0.2400E+03
     -9.389  0.0000E+00  0.2400E+03
     -9.131  0.0000E+00  0.2400E+03
     -8.874  0.0000E+00  0.2400E+03
     -8.616  0.0000E+00  0.2400E+03
     -8.359  0.0000E+00  0.2400E+03
     -8.101  0.0000E+00  0.2400E+03
     -7.844  0.0000E+00  0.2400E+03
     -7.586  0.2215E-11  0.2400E+03
     -7.329  0.2789E-06  0.2400E+03
     -7.072  0.1421E-02  0.2400E+03
     -6.814  0.3360E+00  0.2401E+03
     -6.557  0.5850E+01  0.2416E+03
     -6.299  0.1914E+02  0.2465E+03
     -6.042  0.2105E+02  0.2519E+03
     -5.784  0.2374E+02  0.2580E+03
     -5.527  0.3466E+02  0.2670E+03
     -5.269  0.3686E+02  0.2765E+03
     -5.012  0.3455E+02  0.2854E+03
     -4.754  0.3746E+02  0.2950E+03
     -4.497  0.3354E+02  0.3036E+03
     -4.239  0.3952E+02  0.3138E+03
     -3.982  0.4513E+02  0.3254E+03
     -3.725  0.5370E+02  0.3393E+03
     -3.467  0.5584E+02  0.3536E+03
     -3.210  0.5442E+02  0.3676E+03
     -2.952  0.4746E+02  0.3799E+03
     -2.695  0.4535E+02  0.3915E+03
     -2.437  0.4715E+02  0.4037E+03
     -2.180  0.5661E+02  0.4183E+03
     -1.922  0.6434E+02  0.4348E+03
     -1.665  0.8284E+02  0.4562E+03
     -1.407  0.9894E+02  0.4816E+03
     -1.150  0.1346E+03  0.5163E+03
     -0.892  0.1371E+03  0.5516E+03
     -0.635  0.1155E+03  0.5813E+03
     -0.377  0.1048E+03  0.6083E+03
     -0.120  0.9104E+02  0.6317E+03
      0.137  0.6709E+02  0.6490E+03
      0.395  0.5422E+02  0.6630E+03
      0.652  0.4790E+02  0.6753E+03
      0.910  0.4690E+02  0.6874E+03
      1.167  0.4763E+02  0.6996E+03
      1.425  0.4488E+02  0.7112E+03
      1.682  0.3111E+02  0.7192E+03
      1.940  0.1287E+02  0.7225E+03
      2.197  0.1062E+02  0.7253E+03
      2.455  0.2906E+01  0.7260E+03
      2.712  0.2574E+01  0.7267E+03
      2.970  0.9512E+01  0.7291E+03
      3.227  0.1115E+02  0.7320E+03
      3.484  0.8873E+01  0.7343E+03
      3.742  0.7430E+01  0.7362E+03
      3.999  0.1064E+02  0.7389E+03
      4.257  0.1541E+02  0.7429E+03
      4.514  0.1701E+02  0.7473E+03
      4.772  0.1402E+02  0.7509E+03
      5.029  0.2037E+02  0.7561E+03
      5.287  0.2220E+02  0.7618E+03
      5.544  0.2544E+02  0.7684E+03
      5.802  0.3418E+02  0.7772E+03
      6.059  0.3422E+02  0.7860E+03
      6.317  0.3381E+02  0.7947E+03
      6.574  0.1871E+02  0.7995E+03
      6.832  0.1834E+01  0.8000E+03
      7.089  0.1546E-01  0.8000E+03
      7.346  0.7219E-05  0.8000E+03
      7.604  0.1506E-09  0.8000E+03
      7.861  0.0000E+00  0.8000E+03
      8.119  0.0000E+00  0.8000E+03
      8.376  0.0000E+00  0.8000E+03
      8.634  0.0000E+00  0.8000E+03
      8.891  0.0000E+00  0.8000E+03
      9.149  0.0000E+00  0.8000E+03
      9.406  0.0000E+00  0.8000E+03
      9.664  0.0000E+00  0.8000E+03
      9.921  0.0000E+00  0.8000E+03
