LAMMPS (5 Jun 2019)
OMP_NUM_THREADS environment is not set. Defaulting to 1 thread. (../comm.cpp:88)
  using 1 OpenMP thread(s) per MPI task
Reading data file ...
  triclinic box = (0 0 0) to (16.8847 9.57841 16.1976) with tilt (0 0 0)
  1 by 1 by 1 MPI processor grid
  reading atoms ...
  74 atoms
  read_data CPU = 0.000806611 secs
32 atoms in group bulk
WARNING: Using 'neigh_modify every 1 delay 0 check yes' setting during minimization (../min.cpp:168)
Neighbor list info ...
  update every 1 steps, delay 0 steps, check yes
  max neighbors/atom: 2000, page size: 100000
  master list distance cutoff = 8.5
  ghost atom cutoff = 8.5
  binsize = 4.25, bins = 4 3 4
  1 neighbor lists, perpetual/occasional/extra = 1 0 0
  (1) pair eam/alloy, perpetual
      attributes: half, newton on
      pair build: half/bin/newton/tri
      stencil: half/bin/3d/newton/tri
      bin: standard
Setting up cg style minimization ...
  Unit style    : metal
  Current step  : 0
Per MPI rank memory allocation (min/avg/max) = 4.107 | 4.107 | 4.107 Mbytes
Step Temp E_pair E_mol TotEng Press 
       0            0   -305.08787            0   -305.08787   -104620.75 
      65            0   -335.37032            0   -335.37032   -12130.498 
Loop time of 0.0362288 on 1 procs for 65 steps with 74 atoms

99.8% CPU use with 1 MPI tasks x 1 OpenMP threads

Minimization stats:
  Stopping criterion = energy tolerance
  Energy initial, next-to-last, final = 
        -305.087868636     -335.368737522     -335.370323421
  Force two-norm initial, final = 14.4303 0.174686
  Force max component initial, final = 2.88854 0.0659594
  Final line search alpha, max atom move = 1 0.0659594
  Iterations, force evaluations = 65 100

MPI task timing breakdown:
Section |  min time  |  avg time  |  max time  |%varavg| %total
---------------------------------------------------------------
Pair    | 0.032904   | 0.032904   | 0.032904   |   0.0 | 90.82
Neigh   | 0.0018273  | 0.0018273  | 0.0018273  |   0.0 |  5.04
Comm    | 0.00074397 | 0.00074397 | 0.00074397 |   0.0 |  2.05
Output  | 0          | 0          | 0          |   0.0 |  0.00
Modify  | 5.8435e-05 | 5.8435e-05 | 5.8435e-05 |   0.0 |  0.16
Other   |            | 0.0006948  |            |       |  1.92

Nlocal:    74 ave 74 max 74 min
Histogram: 1 0 0 0 0 0 0 0 0 0
Nghost:    734 ave 734 max 734 min
Histogram: 1 0 0 0 0 0 0 0 0 0
Neighs:    3549 ave 3549 max 3549 min
Histogram: 1 0 0 0 0 0 0 0 0 0

Total # of neighbors = 3549
Ave neighs/atom = 47.9595
Neighbor list builds = 4
Dangerous builds = 0
System init for write_data ...
Total wall time: 0:00:00
