<?xml version="1.0" encoding="ISO-8859-1"?>
<modeling>
 <generator>
  <i name="program" type="string">vasp </i>
  <i name="version" type="string">5.4.4.18Apr17-6-g9f103f2a35  </i>
  <i name="subversion" type="string">(build Aug 13 2019 17:33:20) gamma-only         parallel </i>
  <i name="platform" type="string">LinuxIFC </i>
  <i name="date" type="string">2020 05 11 </i>
  <i name="time" type="string">14:04:21 </i>
 </generator>
 <incar>
  <i type="string" name="SYSTEM">"Millerite NiS"</i>
  <i type="string" name="PREC">normal</i>
  <i type="int" name="NSIM">     4</i>
  <i type="int" name="NELM">   100</i>
  <i name="ENCUT">    450.00000000</i>
  <i type="string" name="LREAL">A</i>
  <i type="int" name="ISMEAR">     0</i>
  <i type="int" name="NWRITE">     2</i>
  <i type="logical" name="LWAVE"> F  </i>
  <i type="logical" name="LCHARG"> F  </i>
  <v type="int" name="KPOINT_BSE">    -1     0     0     0</v>
  <i type="int" name="NELM">   100</i>
 </incar>
 <structure name="primitive_cell" >
  <crystal>
   <varray name="basis" >
    <v>      11.25646304       0.00000000       0.00000000 </v>
    <v>       5.04456212      10.06282034       0.00000000 </v>
    <v>       0.00000000       0.00000000      22.51995597 </v>
   </varray>
   <i name="volume">   2550.87516496 </i>
   <varray name="rec_basis" >
    <v>       0.08883785      -0.04453504       0.00000000 </v>
    <v>       0.00000000       0.09937572       0.00000000 </v>
    <v>       0.00000000       0.00000000       0.04440506 </v>
   </varray>
  </crystal>
  <varray name="positions" >
   <v>       0.26092069       0.47878037       0.29519774 </v>
   <v>       0.07287763      -0.33317655       0.31134757 </v>
   <v>       0.17409868       0.39738739       0.22483408 </v>
   <v>       0.34231367      -0.43439760       0.22483408 </v>
   <v>       0.26805854       0.30342752       0.35520991 </v>
   <v>       0.43627354       0.47164252       0.35520991 </v>
   <v>       0.36819893       0.23939914       0.26075166 </v>
   <v>      -0.49969806       0.37150214       0.26075166 </v>
   <v>       0.17046496      -0.42694193       0.41518970 </v>
   <v>       0.35488056       0.38482050       0.42557357 </v>
   <v>       0.16696083      -0.42725975       0.16482191 </v>
   <v>       0.47891775       0.26078331       0.18097174 </v>
   <v>      -0.42712237       0.16682345       0.31134757 </v>
   <v>       0.00030194       0.37150214       0.26075166 </v>
   <v>       0.09426180      -0.22245773       0.39112749 </v>
   <v>      -0.03784121      -0.35456073       0.39112749 </v>
   <v>       0.36819893      -0.26060086       0.26075166 </v>
   <v>      -0.06372646       0.47164252       0.35520991 </v>
   <v>       0.26805854      -0.19657248       0.35520991 </v>
   <v>       0.40634206       0.46546200       0.13037583 </v>
   <v>       0.27423906       0.33335901       0.13037583 </v>
   <v>       0.46215879       0.14543927       0.39112749 </v>
   <v>      -0.40573820       0.27754227       0.39112749 </v>
   <v>       0.09426180       0.27754227       0.39112749 </v>
   <v>       0.46215879      -0.35456073       0.39112749 </v>
   <v>       0.00030194      -0.12849786       0.26075166 </v>
   <v>      -0.13180107      -0.26060086       0.26075166 </v>
   <v>      -0.02108225      -0.23921669       0.18097174 </v>
   <v>       0.34231367       0.06560240       0.22483408 </v>
   <v>      -0.32590132       0.39738739       0.22483408 </v>
   <v>      -0.15768633      -0.43439760       0.22483408 </v>
   <v>       0.17409868      -0.10261261       0.22483408 </v>
   <v>      -0.48164418       0.37378724       0.47082720 </v>
   <v>       0.35927408       0.22335463       0.47276161 </v>
   <v>       0.24706064      -0.33475756       0.10130691 </v>
   <v>       0.07287763       0.16682345       0.31134757 </v>
   <v>      -0.42712237      -0.33317655       0.31134757 </v>
   <v>       0.08013881       0.49134726       0.09445824 </v>
   <v>       0.35827461      -0.27844853       0.46825962 </v>
   <v>       0.02013748       0.36871971       0.47164249 </v>
   <v>      -0.06372646      -0.02835748       0.35520991 </v>
   <v>      -0.23194146      -0.19657248       0.35520991 </v>
   <v>      -0.23194146       0.30342752       0.35520991 </v>
   <v>       0.43627354      -0.02835748       0.35520991 </v>
   <v>      -0.07067559      -0.28693361       0.47675955 </v>
   <v>       0.03312438      -0.27220176       0.08983645 </v>
   <v>       0.39306103       0.34670507       0.06437320 </v>
   <v>      -0.02108225       0.26078331       0.18097174 </v>
   <v>       0.47891775      -0.23921669       0.18097174 </v>
   <v>       0.22644617      -0.48118663       0.05313089 </v>
   <v>       0.27423906      -0.16664099       0.13037583 </v>
   <v>      -0.09365794       0.46546200       0.13037583 </v>
   <v>       0.25790713       0.15728442       0.10802502 </v>
   <v>      -0.33303918       0.07274025       0.16482191 </v>
   <v>      -0.14511944      -0.11517949       0.42557357 </v>
   <v>       0.26092069      -0.02121963       0.29519774 </v>
   <v>      -0.23907931       0.47878037       0.29519774 </v>
   <v>       0.18930544       0.20747250       0.49356307 </v>
   <v>       0.01973672      -0.10291261       0.46565030 </v>
   <v>      -0.41986119       0.49134726       0.09445824 </v>
   <v>      -0.33316250       0.07286358       0.44172340 </v>
   <v>       0.16696082       0.07274025       0.16482191 </v>
   <v>      -0.14511944       0.38482050       0.42557357 </v>
   <v>       0.35488056      -0.11517949       0.42557357 </v>
   <v>      -0.23907931      -0.02121963       0.29519774 </v>
   <v>      -0.33303917      -0.42725975       0.16482191 </v>
   <v>       0.16683750       0.07286358       0.44172340 </v>
   <v>      -0.49969806      -0.12849786       0.26075166 </v>
   <v>      -0.13180107       0.23939914       0.26075166 </v>
   <v>      -0.47046921       0.05938941       0.49531077 </v>
   <v>      -0.31702303       0.20966892       0.49470086 </v>
   <v>      -0.15768633       0.06560240       0.22483408 </v>
   <v>      -0.32590132      -0.10261261       0.22483408 </v>
   <v>      -0.09365794      -0.03453800       0.13037583 </v>
   <v>      -0.22576094      -0.16664099       0.13037583 </v>
   <v>      -0.22576094       0.33335901       0.13037583 </v>
   <v>       0.40634206      -0.03453800       0.13037583 </v>
   <v>      -0.03784121       0.14543927       0.39112749 </v>
   <v>      -0.40573820      -0.22245773       0.39112749 </v>
   <v>      -0.45446478      -0.30926469       0.48660651 </v>
   <v>      -0.28705237      -0.40708746       0.43578917 </v>
   <v>      -0.24133611       0.15822030       0.11280526 </v>
   <v>      -0.41744331      -0.01967077       0.11220012 </v>
   <v>      -0.26429551      -0.24118725       0.46976663 </v>
   <v>      -0.46758232      -0.29739126       0.09093378 </v>
   <v>       0.08102327      -0.02005218       0.10229734 </v>
   <v>       0.17473867      -0.17314438       0.04095713 </v>
   <v>      -0.25577322      -0.33780520       0.10342964 </v>
   <v>      -0.13994865      -0.12090043       0.05929000 </v>
   <v>      -0.14738241       0.22474893       0.47178940 </v>
   <v>      -0.10121284       0.34110302       0.06497751 </v>
   <v>      -0.46976658      -0.12231735       0.48558574 </v>
   <v>       0.02487856       0.06608722       0.49478187 </v>
   <v>       0.38495788      -0.14525682       0.05059590 </v>
   <v>       0.21498634       0.02786434       0.05772946 </v>
   <v>      -0.26737719      -0.48748068       0.05370223 </v>
  </varray>
 </structure>
 <varray name="primitive_index" >
  <v type="int" >        1 </v>
  <v type="int" >       73 </v>
  <v type="int" >       58 </v>
  <v type="int" >       80 </v>
  <v type="int" >       59 </v>
  <v type="int" >       54 </v>
  <v type="int" >        7 </v>
  <v type="int" >       22 </v>
  <v type="int" >       74 </v>
  <v type="int" >        2 </v>
  <v type="int" >       30 </v>
  <v type="int" >       52 </v>
  <v type="int" >       61 </v>
  <v type="int" >        9 </v>
  <v type="int" >       36 </v>
  <v type="int" >       44 </v>
  <v type="int" >       33 </v>
  <v type="int" >       66 </v>
  <v type="int" >       83 </v>
  <v type="int" >       12 </v>
  <v type="int" >        6 </v>
  <v type="int" >        8 </v>
  <v type="int" >       23 </v>
  <v type="int" >       10 </v>
  <v type="int" >       34 </v>
  <v type="int" >       35 </v>
  <v type="int" >       43 </v>
  <v type="int" >       88 </v>
  <v type="int" >       56 </v>
  <v type="int" >       70 </v>
  <v type="int" >       92 </v>
  <v type="int" >       82 </v>
  <v type="int" >       65 </v>
  <v type="int" >       60 </v>
  <v type="int" >       79 </v>
  <v type="int" >       49 </v>
  <v type="int" >       85 </v>
  <v type="int" >       57 </v>
  <v type="int" >       84 </v>
  <v type="int" >       53 </v>
  <v type="int" >       90 </v>
  <v type="int" >       95 </v>
  <v type="int" >       71 </v>
  <v type="int" >       78 </v>
  <v type="int" >       96 </v>
  <v type="int" >       29 </v>
  <v type="int" >       51 </v>
  <v type="int" >       64 </v>
  <v type="int" >       76 </v>
  <v type="int" >        5 </v>
  <v type="int" >       32 </v>
  <v type="int" >       25 </v>
  <v type="int" >       55 </v>
  <v type="int" >       16 </v>
  <v type="int" >       39 </v>
  <v type="int" >       26 </v>
  <v type="int" >       14 </v>
  <v type="int" >       11 </v>
  <v type="int" >       77 </v>
  <v type="int" >       69 </v>
  <v type="int" >       62 </v>
  <v type="int" >        3 </v>
  <v type="int" >       15 </v>
  <v type="int" >       27 </v>
  <v type="int" >       38 </v>
  <v type="int" >       41 </v>
  <v type="int" >       50 </v>
  <v type="int" >       45 </v>
  <v type="int" >       20 </v>
  <v type="int" >       17 </v>
  <v type="int" >       24 </v>
  <v type="int" >       68 </v>
  <v type="int" >       94 </v>
  <v type="int" >       48 </v>
  <v type="int" >       42 </v>
  <v type="int" >       19 </v>
  <v type="int" >       37 </v>
  <v type="int" >       21 </v>
  <v type="int" >       46 </v>
  <v type="int" >       28 </v>
  <v type="int" >       86 </v>
  <v type="int" >       67 </v>
  <v type="int" >       93 </v>
  <v type="int" >       47 </v>
  <v type="int" >       40 </v>
  <v type="int" >       81 </v>
  <v type="int" >       31 </v>
  <v type="int" >       91 </v>
  <v type="int" >       87 </v>
  <v type="int" >       72 </v>
  <v type="int" >       63 </v>
  <v type="int" >       89 </v>
  <v type="int" >        4 </v>
  <v type="int" >       75 </v>
  <v type="int" >       13 </v>
  <v type="int" >       18 </v>
 </varray>
 <kpoints>
  <generation param="Gamma">
   <v type="int" name="divisions">       1        1        1 </v>
   <v name="usershift">      0.00000000       0.00000000       0.00000000 </v>
   <v name="genvec1">      1.00000000       0.00000000       0.00000000 </v>
   <v name="genvec2">      0.00000000       1.00000000       0.00000000 </v>
   <v name="genvec3">      0.00000000       0.00000000       1.00000000 </v>
   <v name="shift">      0.00000000       0.00000000       0.00000000 </v>
  </generation>
  <varray name="kpointlist" >
   <v>       0.00000000       0.00000000       0.00000000 </v>
  </varray>
  <varray name="weights" >
   <v>       1.00000000 </v>
  </varray>
 </kpoints>
 <parameters>
  <separator name="general" >
   <i type="string" name="SYSTEM">"Millerite NiS"</i>
   <i type="logical" name="LCOMPAT"> F  </i>
  </separator>
  <separator name="electronic" >
   <i type="string" name="PREC">normal</i>
   <i name="ENMAX">    450.00000000</i>
   <i name="ENAUG">    703.44300000</i>
   <i name="EDIFF">      0.00010000</i>
   <i type="int" name="IALGO">    38</i>
   <i type="int" name="IWAVPR">    10</i>
   <i type="int" name="NBANDS">   634</i>
   <i name="NELECT">   1056.00000000</i>
   <i type="int" name="TURBO">     0</i>
   <i type="int" name="IRESTART">     0</i>
   <i type="int" name="NREBOOT">     0</i>
   <i type="int" name="NMIN">     0</i>
   <i name="EREF">      0.00000000</i>
   <separator name="electronic smearing" >
    <i type="int" name="ISMEAR">     0</i>
    <i name="SIGMA">      0.20000000</i>
    <i name="KSPACING">      0.50000000</i>
    <i type="logical" name="KGAMMA"> T  </i>
   </separator>
   <separator name="electronic projectors" >
    <i type="logical" name="LREAL"> T  </i>
    <v name="ROPT">     -0.00050000     -0.00050000</v>
    <i type="int" name="LMAXPAW">  -100</i>
    <i type="int" name="LMAXMIX">     2</i>
    <i type="logical" name="NLSPLINE"> F  </i>
   </separator>
   <separator name="electronic startup" >
    <i type="int" name="ISTART">     0</i>
    <i type="int" name="ICHARG">     2</i>
    <i type="int" name="INIWAV">     1</i>
   </separator>
   <separator name="electronic spin" >
    <i type="int" name="ISPIN">     1</i>
    <i type="logical" name="LNONCOLLINEAR"> F  </i>
    <v name="MAGMOM">      1.00000000      1.00000000      1.00000000      1.00000000      1.00000000      1.00000000      1.00000000      1.00000000      1.00000000      1.00000000      1.00000000      1.00000000      1.00000000      1.00000000      1.00000000      1.00000000      1.00000000      1.00000000      1.00000000      1.00000000
      1.00000000      1.00000000      1.00000000      1.00000000      1.00000000      1.00000000      1.00000000      1.00000000      1.00000000      1.00000000      1.00000000      1.00000000      1.00000000      1.00000000      1.00000000      1.00000000      1.00000000      1.00000000      1.00000000      1.00000000
      1.00000000      1.00000000      1.00000000      1.00000000      1.00000000      1.00000000      1.00000000      1.00000000      1.00000000      1.00000000      1.00000000      1.00000000      1.00000000      1.00000000      1.00000000      1.00000000      1.00000000      1.00000000      1.00000000      1.00000000
      1.00000000      1.00000000      1.00000000      1.00000000      1.00000000      1.00000000      1.00000000      1.00000000      1.00000000      1.00000000      1.00000000      1.00000000      1.00000000      1.00000000      1.00000000      1.00000000      1.00000000      1.00000000      1.00000000      1.00000000
      1.00000000      1.00000000      1.00000000      1.00000000      1.00000000      1.00000000      1.00000000      1.00000000      1.00000000      1.00000000      1.00000000      1.00000000      1.00000000      1.00000000      1.00000000      1.00000000</v>
    <i name="NUPDOWN">     -1.00000000</i>
    <i type="logical" name="LSORBIT"> F  </i>
    <v name="SAXIS">      0.00000000      0.00000000      1.00000000</v>
    <i type="logical" name="LSPIRAL"> F  </i>
    <v name="QSPIRAL">      0.00000000      0.00000000      0.00000000</v>
    <i type="logical" name="LZEROZ"> F  </i>
   </separator>
   <separator name="electronic exchange-correlation" >
    <i type="logical" name="LASPH"> F  </i>
    <i type="logical" name="LMETAGGA"> F  </i>
   </separator>
   <separator name="electronic convergence" >
    <i type="int" name="NELM">   100</i>
    <i type="int" name="NELMDL">    -5</i>
    <i type="int" name="NELMIN">     2</i>
    <i name="ENINI">    450.00000000</i>
    <separator name="electronic convergence detail" >
     <i type="logical" name="LDIAG"> T  </i>
     <i type="logical" name="LSUBROT"> F  </i>
     <i name="WEIMIN">      0.00000000</i>
     <i name="EBREAK">      0.00000004</i>
     <i name="DEPER">      0.30000000</i>
     <i type="int" name="NRMM">     4</i>
     <i name="TIME">      0.40000000</i>
    </separator>
   </separator>
   <separator name="electronic mixer" >
    <i name="AMIX">      0.40000000</i>
    <i name="BMIX">      1.00000000</i>
    <i name="AMIN">      0.10000000</i>
    <i name="AMIX_MAG">      1.60000000</i>
    <i name="BMIX_MAG">      1.00000000</i>
    <separator name="electronic mixer details" >
     <i type="int" name="IMIX">     4</i>
     <i type="logical" name="MIXFIRST"> F  </i>
     <i type="int" name="MAXMIX">   -45</i>
     <i name="WC">    100.00000000</i>
     <i type="int" name="INIMIX">     1</i>
     <i type="int" name="MIXPRE">     1</i>
     <i type="int" name="MREMOVE">     5</i>
    </separator>
   </separator>
   <separator name="electronic dipolcorrection" >
    <i type="logical" name="LDIPOL"> F  </i>
    <i type="logical" name="LMONO"> F  </i>
    <i type="int" name="IDIPOL">     0</i>
    <i name="EPSILON">      1.00000000</i>
    <v name="DIPOL">   -100.00000000   -100.00000000   -100.00000000</v>
    <i name="EFIELD">      0.00000000</i>
   </separator>
  </separator>
  <separator name="grids" >
   <i type="int" name="NGX">    60</i>
   <i type="int" name="NGY">    60</i>
   <i type="int" name="NGZ">   120</i>
   <i type="int" name="NGXF">   120</i>
   <i type="int" name="NGYF">   120</i>
   <i type="int" name="NGZF">   240</i>
   <i type="logical" name="ADDGRID"> F  </i>
  </separator>
  <separator name="ionic" >
   <i type="int" name="NSW">     0</i>
   <i type="int" name="IBRION">    -1</i>
   <i type="int" name="MDALGO">     0</i>
   <i type="int" name="ISIF">     2</i>
   <i name="PSTRESS">      0.00000000</i>
   <i name="EDIFFG">      0.00100000</i>
   <i type="int" name="NFREE">     0</i>
   <i name="POTIM">      0.50000000</i>
   <i name="SMASS">     -3.00000000</i>
   <i name="SCALEE">      1.00000000</i>
  </separator>
  <separator name="ionic md" >
   <i name="TEBEG">      0.00010000</i>
   <i name="TEEND">      0.00010000</i>
   <i type="int" name="NBLOCK">     1</i>
   <i type="int" name="KBLOCK">     1</i>
   <i type="int" name="NPACO">   256</i>
   <i name="APACO">     16.00000000</i>
  </separator>
  <separator name="symmetry" >
   <i type="int" name="ISYM">     2</i>
   <i name="SYMPREC">      0.00001000</i>
  </separator>
  <separator name="dos" >
   <i type="int" name="LORBIT">     0</i>
   <v name="RWIGS">     -1.00000000     -1.00000000</v>
   <i type="int" name="NEDOS">   301</i>
   <i name="EMIN">     10.00000000</i>
   <i name="EMAX">    -10.00000000</i>
   <i name="EFERMI">      0.00000000</i>
  </separator>
  <separator name="writing" >
   <i type="int" name="NWRITE">     2</i>
   <i type="logical" name="LWAVE"> F  </i>
   <i type="logical" name="LDOWNSAMPLE"> F  </i>
   <i type="logical" name="LCHARG"> F  </i>
   <i type="logical" name="LPARD"> F  </i>
   <i type="logical" name="LVTOT"> F  </i>
   <i type="logical" name="LVHAR"> F  </i>
   <i type="logical" name="LELF"> F  </i>
   <i type="logical" name="LOPTICS"> F  </i>
   <v name="STM">      0.00000000      0.00000000      0.00000000      0.00000000      0.00000000      0.00000000      0.00000000</v>
  </separator>
  <separator name="performance" >
   <i type="int" name="NPAR">     2</i>
   <i type="int" name="NSIM">     4</i>
   <i type="int" name="NBLK">    -1</i>
   <i type="logical" name="LPLANE"> T  </i>
   <i type="logical" name="LSCALAPACK"> T  </i>
   <i type="logical" name="LSCAAWARE"> F  </i>
   <i type="logical" name="LSCALU"> F  </i>
   <i type="logical" name="LASYNC"> F  </i>
   <i type="logical" name="LORBITALREAL"> F  </i>
  </separator>
  <separator name="miscellaneous" >
   <i type="int" name="IDIOT">     3</i>
   <i type="int" name="ISPECIAL">     0</i>
   <i type="logical" name="LMUSIC"> F  </i>
   <v name="POMASS">     58.69000000     32.06600000</v>
   <v name="DARWINR">      0.00000000      0.00000000</v>
   <v name="DARWINV">      1.00000000      1.00000000</v>
   <i type="logical" name="LCORR"> T  </i>
  </separator>
  <i type="logical" name="GGA_COMPAT"> T  </i>
  <i type="logical" name="LBERRY"> F  </i>
  <i type="int" name="ICORELEVEL">     0</i>
  <i type="logical" name="LDAU"> F  </i>
  <i type="int" name="I_CONSTRAINED_M">     0</i>
  <separator name="electronic exchange-correlation" >
   <i type="string" name="GGA">--</i>
   <i type="int" name="VOSKOWN">     0</i>
   <i type="logical" name="LHFCALC"> F  </i>
   <i type="string" name="PRECFOCK"></i>
   <i type="logical" name="LSYMGRAD"> F  </i>
   <i type="logical" name="LHFONE"> F  </i>
   <i type="logical" name="LRHFCALC"> F  </i>
   <i type="logical" name="LTHOMAS"> F  </i>
   <i type="logical" name="LMODELHF"> F  </i>
   <i name="ENCUT4O">     -1.00000000</i>
   <i type="int" name="EXXOEP">     0</i>
   <i type="int" name="FOURORBIT">     0</i>
   <i name="AEXX">      0.00000000</i>
   <i name="HFALPHA">      0.00000000</i>
   <i name="MCALPHA">      0.00000000</i>
   <i name="ALDAX">      1.00000000</i>
   <i name="AGGAX">      1.00000000</i>
   <i name="ALDAC">      1.00000000</i>
   <i name="AGGAC">      1.00000000</i>
   <i type="int" name="NKREDX">     1</i>
   <i type="int" name="NKREDY">     1</i>
   <i type="int" name="NKREDZ">     1</i>
   <i type="logical" name="SHIFTRED"> F  </i>
   <i type="logical" name="ODDONLY"> F  </i>
   <i type="logical" name="EVENONLY"> F  </i>
   <i type="int" name="LMAXFOCK">     0</i>
   <i type="int" name="NMAXFOCKAE">     0</i>
   <i type="logical" name="LFOCKAEDFT"> F  </i>
   <i name="HFSCREEN">      0.00000000</i>
   <i name="HFSCREENC">      0.00000000</i>
   <i type="int" name="NBANDSGWLOW">     0</i>
  </separator>
  <separator name="vdW DFT" >
   <i type="logical" name="LUSE_VDW"> F  </i>
   <i name="Zab_VDW">     -0.84910000</i>
   <i name="PARAM1">      0.12340000</i>
   <i name="PARAM2">      1.00000000</i>
   <i name="PARAM3">      0.00000000</i>
  </separator>
  <separator name="model GW" >
   <i type="int" name="MODEL_GW">     0</i>
   <i name="MODEL_EPS0">     15.94296978</i>
   <i name="MODEL_ALPHA">      1.00000000</i>
  </separator>
  <separator name="linear response parameters" >
   <i type="logical" name="LEPSILON"> F  </i>
   <i type="logical" name="LRPA"> F  </i>
   <i type="logical" name="LNABLA"> F  </i>
   <i type="logical" name="LVEL"> F  </i>
   <i type="int" name="KINTER">     0</i>
   <i name="CSHIFT">      0.10000000</i>
   <i name="OMEGAMAX">     -1.00000000</i>
   <i name="DEG_THRESHOLD">      0.00200000</i>
   <i name="RTIME">     -0.10000000</i>
   <i name="WPLASMAI">      0.00000000</i>
   <v name="DFIELD">      0.00000000      0.00000000      0.00000000</v>
   <v name="WPLASMA">      0.00000000      0.00000000      0.00000000      0.00000000      0.00000000      0.00000000      0.00000000      0.00000000      0.00000000</v>
  </separator>
  <separator name="orbital magnetization" >
   <i type="logical" name="NUCIND"> F  </i>
   <v name="MAGPOS">      0.00000000      0.00000000      0.00000000</v>
   <i type="logical" name="LNICSALL"> T  </i>
   <i type="logical" name="ORBITALMAG"> F  </i>
   <i type="logical" name="LMAGBLOCH"> F  </i>
   <i type="logical" name="LCHIMAG"> F  </i>
   <i type="logical" name="LGAUGE"> T  </i>
   <i type="int" name="MAGATOM">     0</i>
   <v name="MAGDIPOL">      0.00000000      0.00000000      0.00000000</v>
   <v name="AVECCONST">      0.00000000      0.00000000      0.00000000</v>
  </separator>
  <separator name="response functions" >
   <i type="logical" name="LADDER"> F  </i>
   <i type="logical" name="LRPAFORCE"> F  </i>
   <i type="logical" name="LFXC"> F  </i>
   <i type="logical" name="LHARTREE"> T  </i>
   <i type="int" name="IBSE">     0</i>
   <v type="int" name="KPOINT">    -1     0     0     0</v>
   <i type="logical" name="LTCTE"> F  </i>
   <i type="logical" name="LTETE"> F  </i>
   <i type="logical" name="LTRIPLET"> F  </i>
   <i type="logical" name="LFXCEPS"> F  </i>
   <i type="logical" name="LFXHEG"> F  </i>
   <i type="int" name="NATURALO">     2</i>
   <i type="logical" name="L2ORDER"> F  </i>
   <i type="logical" name="LMP2LT"> F  </i>
   <i type="logical" name="LUSEW"> F  </i>
   <i name="ENCUTGW">     -2.00000000</i>
   <i name="ENCUTGWSOFT">     -2.00000000</i>
   <i name="ENCUTLF">     -1.00000000</i>
   <i type="int" name="LMAXMP2">    -1</i>
   <i name="SCISSOR">      0.00000000</i>
   <i type="int" name="NOMEGA">     0</i>
   <i type="int" name="NOMEGAR">     0</i>
   <i type="int" name="NBANDSGW">    -1</i>
   <i type="int" name="NBANDSO">    -1</i>
   <i type="int" name="NBANDSV">    -1</i>
   <i type="int" name="NELM">   100</i>
   <i type="int" name="NELMHF">     1</i>
   <i type="int" name="DIM">     3</i>
   <i type="int" name="ANTIRES">     0</i>
   <i name="OMEGAMAX">    -30.00000000</i>
   <i name="OMEGAMIN">    -30.00000000</i>
   <i name="OMEGATL">   -200.00000000</i>
   <i type="int" name="OMEGAGRID">   140</i>
   <i name="CSHIFT">     -0.10000000</i>
   <i type="logical" name="SELFENERGY"> F  </i>
   <i type="logical" name="LSPECTRAL"> F  </i>
   <i type="logical" name="LSPECTRALGW"> F  </i>
   <i type="logical" name="LSINGLES"> F  </i>
   <i type="logical" name="LFERMIGW"> F  </i>
   <i type="logical" name="ODDONLYGW"> F  </i>
   <i type="logical" name="EVENONLYGW"> F  </i>
   <i type="int" name="NKREDLFX">     1</i>
   <i type="int" name="NKREDLFY">     1</i>
   <i type="int" name="NKREDLFZ">     1</i>
   <i type="int" name="MAXMEM">  2800</i>
   <i type="int" name="TELESCOPE">     0</i>
   <i type="int" name="TAUPAR">     1</i>
   <i type="int" name="OMEGAPAR">    -1</i>
   <i name="LAMBDA">      1.00000000</i>
  </separator>
  <separator name="External order field" >
   <i name="OFIELD_KAPPA">      0.00000000</i>
   <v name="OFIELD_K">      0.00000000      0.00000000      0.00000000</v>
   <i name="OFIELD_Q6_NEAR">      0.00000000</i>
   <i name="OFIELD_Q6_FAR">      0.00000000</i>
   <i name="OFIELD_A">      0.00000000</i>
  </separator>
 </parameters>
 <atominfo>
  <atoms>      96 </atoms>
  <types>       2 </types>
  <array name="atoms" >
   <dimension dim="1">ion</dimension>
   <field type="string">element</field>
   <field type="int">atomtype</field>
   <set>
    <rc><c>Ni</c><c>   1</c></rc>
    <rc><c>Ni</c><c>   1</c></rc>
    <rc><c>Ni</c><c>   1</c></rc>
    <rc><c>Ni</c><c>   1</c></rc>
    <rc><c>Ni</c><c>   1</c></rc>
    <rc><c>Ni</c><c>   1</c></rc>
    <rc><c>Ni</c><c>   1</c></rc>
    <rc><c>Ni</c><c>   1</c></rc>
    <rc><c>Ni</c><c>   1</c></rc>
    <rc><c>Ni</c><c>   1</c></rc>
    <rc><c>Ni</c><c>   1</c></rc>
    <rc><c>Ni</c><c>   1</c></rc>
    <rc><c>Ni</c><c>   1</c></rc>
    <rc><c>Ni</c><c>   1</c></rc>
    <rc><c>Ni</c><c>   1</c></rc>
    <rc><c>Ni</c><c>   1</c></rc>
    <rc><c>Ni</c><c>   1</c></rc>
    <rc><c>Ni</c><c>   1</c></rc>
    <rc><c>Ni</c><c>   1</c></rc>
    <rc><c>Ni</c><c>   1</c></rc>
    <rc><c>Ni</c><c>   1</c></rc>
    <rc><c>Ni</c><c>   1</c></rc>
    <rc><c>Ni</c><c>   1</c></rc>
    <rc><c>Ni</c><c>   1</c></rc>
    <rc><c>Ni</c><c>   1</c></rc>
    <rc><c>Ni</c><c>   1</c></rc>
    <rc><c>Ni</c><c>   1</c></rc>
    <rc><c>Ni</c><c>   1</c></rc>
    <rc><c>Ni</c><c>   1</c></rc>
    <rc><c>Ni</c><c>   1</c></rc>
    <rc><c>Ni</c><c>   1</c></rc>
    <rc><c>Ni</c><c>   1</c></rc>
    <rc><c>Ni</c><c>   1</c></rc>
    <rc><c>Ni</c><c>   1</c></rc>
    <rc><c>Ni</c><c>   1</c></rc>
    <rc><c>Ni</c><c>   1</c></rc>
    <rc><c>Ni</c><c>   1</c></rc>
    <rc><c>Ni</c><c>   1</c></rc>
    <rc><c>Ni</c><c>   1</c></rc>
    <rc><c>Ni</c><c>   1</c></rc>
    <rc><c>Ni</c><c>   1</c></rc>
    <rc><c>Ni</c><c>   1</c></rc>
    <rc><c>Ni</c><c>   1</c></rc>
    <rc><c>Ni</c><c>   1</c></rc>
    <rc><c>Ni</c><c>   1</c></rc>
    <rc><c>Ni</c><c>   1</c></rc>
    <rc><c>Ni</c><c>   1</c></rc>
    <rc><c>Ni</c><c>   1</c></rc>
    <rc><c>S </c><c>   2</c></rc>
    <rc><c>S </c><c>   2</c></rc>
    <rc><c>S </c><c>   2</c></rc>
    <rc><c>S </c><c>   2</c></rc>
    <rc><c>S </c><c>   2</c></rc>
    <rc><c>S </c><c>   2</c></rc>
    <rc><c>S </c><c>   2</c></rc>
    <rc><c>S </c><c>   2</c></rc>
    <rc><c>S </c><c>   2</c></rc>
    <rc><c>S </c><c>   2</c></rc>
    <rc><c>S </c><c>   2</c></rc>
    <rc><c>S </c><c>   2</c></rc>
    <rc><c>S </c><c>   2</c></rc>
    <rc><c>S </c><c>   2</c></rc>
    <rc><c>S </c><c>   2</c></rc>
    <rc><c>S </c><c>   2</c></rc>
    <rc><c>S </c><c>   2</c></rc>
    <rc><c>S </c><c>   2</c></rc>
    <rc><c>S </c><c>   2</c></rc>
    <rc><c>S </c><c>   2</c></rc>
    <rc><c>S </c><c>   2</c></rc>
    <rc><c>S </c><c>   2</c></rc>
    <rc><c>S </c><c>   2</c></rc>
    <rc><c>S </c><c>   2</c></rc>
    <rc><c>S </c><c>   2</c></rc>
    <rc><c>S </c><c>   2</c></rc>
    <rc><c>S </c><c>   2</c></rc>
    <rc><c>S </c><c>   2</c></rc>
    <rc><c>S </c><c>   2</c></rc>
    <rc><c>S </c><c>   2</c></rc>
    <rc><c>S </c><c>   2</c></rc>
    <rc><c>S </c><c>   2</c></rc>
    <rc><c>S </c><c>   2</c></rc>
    <rc><c>S </c><c>   2</c></rc>
    <rc><c>S </c><c>   2</c></rc>
    <rc><c>S </c><c>   2</c></rc>
    <rc><c>S </c><c>   2</c></rc>
    <rc><c>S </c><c>   2</c></rc>
    <rc><c>S </c><c>   2</c></rc>
    <rc><c>S </c><c>   2</c></rc>
    <rc><c>S </c><c>   2</c></rc>
    <rc><c>S </c><c>   2</c></rc>
    <rc><c>S </c><c>   2</c></rc>
    <rc><c>S </c><c>   2</c></rc>
    <rc><c>S </c><c>   2</c></rc>
    <rc><c>S </c><c>   2</c></rc>
    <rc><c>S </c><c>   2</c></rc>
    <rc><c>S </c><c>   2</c></rc>
   </set>
  </array>
  <array name="atomtypes" >
   <dimension dim="1">type</dimension>
   <field type="int">atomspertype</field>
   <field type="string">element</field>
   <field>mass</field>
   <field>valence</field>
   <field type="string">pseudopotential</field>
   <set>
    <rc><c>  48</c><c>Ni</c><c>     58.69000000</c><c>     16.00000000</c><c>  PAW_PBE Ni_pv 06Sep2000               </c></rc>
    <rc><c>  48</c><c>S </c><c>     32.06600000</c><c>      6.00000000</c><c>  PAW_PBE S 06Sep2000                   </c></rc>
   </set>
  </array>
 </atominfo>
 <structure name="initialpos" >
  <crystal>
   <varray name="basis" >
    <v>      11.25646304       0.00000000       0.00000000 </v>
    <v>       5.04456212      10.06282034       0.00000000 </v>
    <v>       0.00000000       0.00000000      22.51995597 </v>
   </varray>
   <i name="volume">   2550.87516496 </i>
   <varray name="rec_basis" >
    <v>       0.08883785      -0.04453504       0.00000000 </v>
    <v>       0.00000000       0.09937572       0.00000000 </v>
    <v>       0.00000000       0.00000000       0.04440506 </v>
   </varray>
  </crystal>
  <varray name="positions" >
   <v>       0.26092069       0.47878037       0.29519774 </v>
   <v>       0.35488056       0.38482050       0.42557357 </v>
   <v>       0.16696082       0.07274025       0.16482191 </v>
   <v>       0.02487856       0.06608722       0.49478187 </v>
   <v>       0.22644617       0.51881337       0.05313089 </v>
   <v>       0.27423906       0.33335901       0.13037583 </v>
   <v>       0.36819893       0.23939914       0.26075166 </v>
   <v>       0.46215879       0.14543927       0.39112749 </v>
   <v>       0.00030194       0.37150214       0.26075166 </v>
   <v>       0.09426180       0.27754227       0.39112749 </v>
   <v>       0.18930544       0.20747250       0.49356307 </v>
   <v>       0.40634206       0.46546200       0.13037583 </v>
   <v>       0.21498634       0.02786434       0.05772946 </v>
   <v>       0.76092069       0.47878037       0.29519774 </v>
   <v>       0.85488056       0.38482050       0.42557357 </v>
   <v>       0.66696082       0.07274025       0.16482191 </v>
   <v>       0.52953079       0.05938941       0.49531077 </v>
   <v>       0.73262281       0.51251932       0.05370223 </v>
   <v>       0.77423906       0.33335901       0.13037583 </v>
   <v>       0.86819893       0.23939914       0.26075166 </v>
   <v>       0.96215879       0.14543927       0.39112749 </v>
   <v>       0.50030194       0.37150214       0.26075166 </v>
   <v>       0.59426180       0.27754227       0.39112749 </v>
   <v>       0.68297697       0.20966892       0.49470086 </v>
   <v>       0.90634206       0.46546200       0.13037583 </v>
   <v>       0.26092069       0.97878037       0.29519774 </v>
   <v>       0.35488056       0.88482051       0.42557357 </v>
   <v>       0.54553522       0.69073531       0.48660651 </v>
   <v>       0.03312438       0.72779824       0.08983645 </v>
   <v>       0.16696083       0.57274025       0.16482191 </v>
   <v>       0.17473867       0.82685562       0.04095713 </v>
   <v>       0.27423906       0.83335901       0.13037583 </v>
   <v>       0.36819893       0.73939914       0.26075166 </v>
   <v>       0.46215879       0.64543927       0.39112749 </v>
   <v>       0.00030194       0.87150214       0.26075166 </v>
   <v>       0.09426180       0.77754227       0.39112749 </v>
   <v>       0.40634206       0.96546200       0.13037583 </v>
   <v>       0.76092069       0.97878037       0.29519774 </v>
   <v>       0.85488056       0.88482051       0.42557357 </v>
   <v>       0.53241768       0.70260874       0.09093378 </v>
   <v>       0.66696083       0.57274025       0.16482191 </v>
   <v>       0.77423906       0.83335901       0.13037583 </v>
   <v>       0.86819893       0.73939914       0.26075166 </v>
   <v>       0.96215879       0.64543927       0.39112749 </v>
   <v>       0.50030194       0.87150214       0.26075166 </v>
   <v>       0.59426180       0.77754227       0.39112749 </v>
   <v>       0.73570449       0.75881275       0.46976663 </v>
   <v>       0.90634206       0.96546200       0.13037583 </v>
   <v>       0.07287763       0.16682345       0.31134757 </v>
   <v>       0.16683750       0.07286358       0.44172340 </v>
   <v>       0.39306103       0.34670507       0.06437320 </v>
   <v>       0.47891775       0.26078331       0.18097174 </v>
   <v>       0.02013748       0.36871971       0.47164249 </v>
   <v>       0.43627354       0.47164252       0.35520991 </v>
   <v>       0.25790713       0.15728442       0.10802502 </v>
   <v>       0.34231367       0.06560240       0.22483408 </v>
   <v>       0.08013881       0.49134726       0.09445824 </v>
   <v>       0.17409868       0.39738739       0.22483408 </v>
   <v>       0.26805854       0.30342752       0.35520991 </v>
   <v>       0.35927408       0.22335463       0.47276161 </v>
   <v>       0.57287763       0.16682345       0.31134757 </v>
   <v>       0.66683750       0.07286358       0.44172340 </v>
   <v>       0.89878716       0.34110302       0.06497751 </v>
   <v>       0.97891775       0.26078331       0.18097174 </v>
   <v>       0.51835582       0.37378724       0.47082720 </v>
   <v>       0.93627354       0.47164252       0.35520991 </v>
   <v>       0.75866389       0.15822030       0.11280526 </v>
   <v>       0.84231367       0.06560240       0.22483408 </v>
   <v>       0.58013881       0.49134726       0.09445824 </v>
   <v>       0.67409868       0.39738739       0.22483408 </v>
   <v>       0.76805854       0.30342752       0.35520991 </v>
   <v>       0.85261759       0.22474893       0.47178940 </v>
   <v>       0.07287763       0.66682345       0.31134757 </v>
   <v>       0.17046496       0.57305807       0.41518970 </v>
   <v>       0.38495788       0.85474318       0.05059590 </v>
   <v>       0.47891775       0.76078331       0.18097174 </v>
   <v>       0.01973672       0.89708739       0.46565030 </v>
   <v>       0.43627354       0.97164252       0.35520991 </v>
   <v>       0.24706064       0.66524244       0.10130691 </v>
   <v>       0.34231367       0.56560240       0.22483408 </v>
   <v>       0.08102327       0.97994782       0.10229734 </v>
   <v>       0.17409868       0.89738739       0.22483408 </v>
   <v>       0.26805854       0.80342752       0.35520991 </v>
   <v>       0.35827461       0.72155147       0.46825962 </v>
   <v>       0.57287763       0.66682345       0.31134757 </v>
   <v>       0.71294763       0.59291254       0.43578917 </v>
   <v>       0.86005135       0.87909957       0.05929000 </v>
   <v>       0.97891775       0.76078331       0.18097174 </v>
   <v>       0.53023342       0.87768265       0.48558574 </v>
   <v>       0.93627354       0.97164252       0.35520991 </v>
   <v>       0.74422678       0.66219480       0.10342964 </v>
   <v>       0.84231367       0.56560240       0.22483408 </v>
   <v>       0.58255669       0.98032923       0.11220012 </v>
   <v>       0.67409868       0.89738739       0.22483408 </v>
   <v>       0.76805854       0.80342752       0.35520991 </v>
   <v>       0.92932441       0.71306639       0.47675955 </v>
  </varray>
 </structure>
 <calculation>
  <scstep>
   <time name="dav">   13.50   13.50</time>
   <time name="total">   14.02   14.02</time>
   <energy>
    <i name="alphaZ">   2592.50432107 </i>
    <i name="ewald"> 335308.69730275 </i>
    <i name="hartreedc">-498527.64477026 </i>
    <i name="XCdc">   4905.53904902 </i>
    <i name="pawpsdc"> 150306.04444553 </i>
    <i name="pawaedc">-156855.34918313 </i>
    <i name="eentropy">     -0.39045936 </i>
    <i name="bandstr">  -5639.01249874 </i>
    <i name="atom"> 181336.80673834 </i>
    <i name="e_fr_energy">  13427.19494524 </i>
    <i name="e_wo_entrp">  13427.58540460 </i>
    <i name="e_0_energy">  13427.39017492 </i>
   </energy>
  </scstep>
  <scstep>
   <time name="dav">   12.11   12.11</time>
   <time name="total">   12.11   12.12</time>
   <energy>
    <i name="e_fr_energy">    861.90198368 </i>
    <i name="e_wo_entrp">    862.81770332 </i>
    <i name="e_0_energy">    862.35984350 </i>
   </energy>
  </scstep>
  <scstep>
   <time name="dav">   12.80   12.81</time>
   <time name="total">   12.81   12.81</time>
   <energy>
    <i name="e_fr_energy">   -449.62210704 </i>
    <i name="e_wo_entrp">   -448.24069841 </i>
    <i name="e_0_energy">   -448.93140272 </i>
   </energy>
  </scstep>
  <scstep>
   <time name="dav">   13.21   13.21</time>
   <time name="total">   13.21   13.21</time>
   <energy>
    <i name="e_fr_energy">   -533.77671678 </i>
    <i name="e_wo_entrp">   -532.32704739 </i>
    <i name="e_0_energy">   -533.05188209 </i>
   </energy>
  </scstep>
  <scstep>
   <time name="dav">   14.61   14.62</time>
   <time name="total">   15.04   15.05</time>
   <energy>
    <i name="e_fr_energy">   -537.29784080 </i>
    <i name="e_wo_entrp">   -535.87356068 </i>
    <i name="e_0_energy">   -536.58570074 </i>
   </energy>
  </scstep>
  <scstep>
   <time name="dav">   13.89   13.89</time>
   <time name="total">   14.70   14.70</time>
   <energy>
    <i name="e_fr_energy">   -632.00650512 </i>
    <i name="e_wo_entrp">   -630.96491578 </i>
    <i name="e_0_energy">   -631.48571045 </i>
   </energy>
  </scstep>
  <scstep>
   <time name="dav">   12.73   12.74</time>
   <time name="total">   13.63   13.64</time>
   <energy>
    <i name="e_fr_energy">   -513.63012339 </i>
    <i name="e_wo_entrp">   -512.60479349 </i>
    <i name="e_0_energy">   -513.11745844 </i>
   </energy>
  </scstep>
  <scstep>
   <time name="dav">   14.95   14.95</time>
   <time name="total">   15.74   15.74</time>
   <energy>
    <i name="e_fr_energy">   -602.94940783 </i>
    <i name="e_wo_entrp">   -602.00214386 </i>
    <i name="e_0_energy">   -602.47577585 </i>
   </energy>
  </scstep>
  <scstep>
   <time name="dav">   14.21   14.21</time>
   <time name="total">   15.17   15.17</time>
   <energy>
    <i name="e_fr_energy">   -559.44249260 </i>
    <i name="e_wo_entrp">   -557.86134474 </i>
    <i name="e_0_energy">   -558.65191867 </i>
   </energy>
  </scstep>
  <scstep>
   <time name="dav">   15.64   15.64</time>
   <time name="total">   16.43   16.43</time>
   <energy>
    <i name="e_fr_energy">   -570.99315566 </i>
    <i name="e_wo_entrp">   -569.34652256 </i>
    <i name="e_0_energy">   -570.16983911 </i>
   </energy>
  </scstep>
  <scstep>
   <time name="dav">   14.79   14.79</time>
   <time name="total">   15.83   15.84</time>
   <energy>
    <i name="e_fr_energy">   -543.85580760 </i>
    <i name="e_wo_entrp">   -542.72094056 </i>
    <i name="e_0_energy">   -543.28837408 </i>
   </energy>
  </scstep>
  <scstep>
   <time name="dav">   15.11   15.11</time>
   <time name="total">   15.97   15.98</time>
   <energy>
    <i name="e_fr_energy">   -510.97577343 </i>
    <i name="e_wo_entrp">   -509.62897224 </i>
    <i name="e_0_energy">   -510.30237283 </i>
   </energy>
  </scstep>
  <scstep>
   <time name="dav">   14.49   14.49</time>
   <time name="total">   15.34   15.35</time>
   <energy>
    <i name="e_fr_energy">   -519.34069854 </i>
    <i name="e_wo_entrp">   -518.33207027 </i>
    <i name="e_0_energy">   -518.83638440 </i>
   </energy>
  </scstep>
  <scstep>
   <time name="dav">   15.06   15.06</time>
   <time name="total">   15.85   15.85</time>
   <energy>
    <i name="e_fr_energy">   -489.56474532 </i>
    <i name="e_wo_entrp">   -488.41627649 </i>
    <i name="e_0_energy">   -488.99051091 </i>
   </energy>
  </scstep>
  <scstep>
   <time name="dav">   15.14   15.15</time>
   <time name="total">   15.94   15.94</time>
   <energy>
    <i name="e_fr_energy">   -480.25693318 </i>
    <i name="e_wo_entrp">   -479.09494605 </i>
    <i name="e_0_energy">   -479.67593961 </i>
   </energy>
  </scstep>
  <scstep>
   <time name="dav">   15.13   15.14</time>
   <time name="total">   15.93   15.94</time>
   <energy>
    <i name="e_fr_energy">   -478.67132192 </i>
    <i name="e_wo_entrp">   -477.52267468 </i>
    <i name="e_0_energy">   -478.09699830 </i>
   </energy>
  </scstep>
  <scstep>
   <time name="dav">   14.51   14.51</time>
   <time name="total">   15.32   15.32</time>
   <energy>
    <i name="e_fr_energy">   -477.14595633 </i>
    <i name="e_wo_entrp">   -475.95392474 </i>
    <i name="e_0_energy">   -476.54994053 </i>
   </energy>
  </scstep>
  <scstep>
   <time name="dav">   15.10   15.10</time>
   <time name="total">   15.90   15.90</time>
   <energy>
    <i name="e_fr_energy">   -476.49308332 </i>
    <i name="e_wo_entrp">   -475.30509216 </i>
    <i name="e_0_energy">   -475.89908774 </i>
   </energy>
  </scstep>
  <scstep>
   <time name="dav">   15.27   15.27</time>
   <time name="total">   16.09   16.09</time>
   <energy>
    <i name="e_fr_energy">   -475.55842979 </i>
    <i name="e_wo_entrp">   -474.34488963 </i>
    <i name="e_0_energy">   -474.95165971 </i>
   </energy>
  </scstep>
  <scstep>
   <time name="dav">   16.22   16.23</time>
   <time name="total">   17.02   17.03</time>
   <energy>
    <i name="e_fr_energy">   -474.15781398 </i>
    <i name="e_wo_entrp">   -472.93316639 </i>
    <i name="e_0_energy">   -473.54549018 </i>
   </energy>
  </scstep>
  <scstep>
   <time name="dav">   15.19   15.19</time>
   <time name="total">   16.00   16.01</time>
   <energy>
    <i name="e_fr_energy">   -472.69880491 </i>
    <i name="e_wo_entrp">   -471.42525350 </i>
    <i name="e_0_energy">   -472.06202921 </i>
   </energy>
  </scstep>
  <scstep>
   <time name="dav">   14.90   14.91</time>
   <time name="total">   15.72   15.73</time>
   <energy>
    <i name="e_fr_energy">   -472.16940564 </i>
    <i name="e_wo_entrp">   -470.92088395 </i>
    <i name="e_0_energy">   -471.54514480 </i>
   </energy>
  </scstep>
  <scstep>
   <time name="dav">   14.71   14.71</time>
   <time name="total">   15.79   15.80</time>
   <energy>
    <i name="e_fr_energy">   -472.02427029 </i>
    <i name="e_wo_entrp">   -470.75658090 </i>
    <i name="e_0_energy">   -471.39042559 </i>
   </energy>
  </scstep>
  <scstep>
   <time name="dav">   13.73   13.74</time>
   <time name="total">   14.55   14.56</time>
   <energy>
    <i name="e_fr_energy">   -472.08213136 </i>
    <i name="e_wo_entrp">   -470.80340746 </i>
    <i name="e_0_energy">   -471.44276941 </i>
   </energy>
  </scstep>
  <scstep>
   <time name="dav">   14.03   14.03</time>
   <time name="total">   14.85   14.85</time>
   <energy>
    <i name="e_fr_energy">   -471.93759972 </i>
    <i name="e_wo_entrp">   -470.66610102 </i>
    <i name="e_0_energy">   -471.30185037 </i>
   </energy>
  </scstep>
  <scstep>
   <time name="dav">   14.94   14.94</time>
   <time name="total">   15.77   15.78</time>
   <energy>
    <i name="e_fr_energy">   -471.98021841 </i>
    <i name="e_wo_entrp">   -470.72523964 </i>
    <i name="e_0_energy">   -471.35272903 </i>
   </energy>
  </scstep>
  <scstep>
   <time name="dav">   14.98   14.98</time>
   <time name="total">   15.79   15.80</time>
   <energy>
    <i name="e_fr_energy">   -471.93198930 </i>
    <i name="e_wo_entrp">   -470.66925493 </i>
    <i name="e_0_energy">   -471.30062212 </i>
   </energy>
  </scstep>
  <scstep>
   <time name="dav">   14.16   14.16</time>
   <time name="total">   15.24   15.24</time>
   <energy>
    <i name="e_fr_energy">   -471.93400130 </i>
    <i name="e_wo_entrp">   -470.67213114 </i>
    <i name="e_0_energy">   -471.30306622 </i>
   </energy>
  </scstep>
  <scstep>
   <time name="dav">   15.05   15.05</time>
   <time name="total">   15.87   15.87</time>
   <energy>
    <i name="e_fr_energy">   -471.86826360 </i>
    <i name="e_wo_entrp">   -470.61539526 </i>
    <i name="e_0_energy">   -471.24182943 </i>
   </energy>
  </scstep>
  <scstep>
   <time name="dav">   14.71   14.73</time>
   <time name="total">   15.67   15.68</time>
   <energy>
    <i name="e_fr_energy">   -471.86026933 </i>
    <i name="e_wo_entrp">   -470.60266270 </i>
    <i name="e_0_energy">   -471.23146601 </i>
   </energy>
  </scstep>
  <scstep>
   <time name="dav">   14.92   14.93</time>
   <time name="total">   15.76   15.77</time>
   <energy>
    <i name="e_fr_energy">   -471.85297272 </i>
    <i name="e_wo_entrp">   -470.59941647 </i>
    <i name="e_0_energy">   -471.22619460 </i>
   </energy>
  </scstep>
  <scstep>
   <time name="dav">   13.26   13.27</time>
   <time name="total">   14.10   14.11</time>
   <energy>
    <i name="e_fr_energy">   -471.85196017 </i>
    <i name="e_wo_entrp">   -470.59623054 </i>
    <i name="e_0_energy">   -471.22409536 </i>
   </energy>
  </scstep>
  <scstep>
   <time name="dav">   13.49   13.50</time>
   <time name="total">   14.33   14.34</time>
   <energy>
    <i name="e_fr_energy">   -471.84978619 </i>
    <i name="e_wo_entrp">   -470.59343197 </i>
    <i name="e_0_energy">   -471.22160908 </i>
   </energy>
  </scstep>
  <scstep>
   <time name="dav">   14.11   14.11</time>
   <time name="total">   15.08   15.08</time>
   <energy>
    <i name="e_fr_energy">   -471.84788054 </i>
    <i name="e_wo_entrp">   -470.59170491 </i>
    <i name="e_0_energy">   -471.21979273 </i>
   </energy>
  </scstep>
  <scstep>
   <time name="dav">   13.88   13.88</time>
   <time name="total">   14.72   14.73</time>
   <energy>
    <i name="e_fr_energy">   -471.84675417 </i>
    <i name="e_wo_entrp">   -470.59039943 </i>
    <i name="e_0_energy">   -471.21857680 </i>
   </energy>
  </scstep>
  <scstep>
   <time name="dav">   14.14   14.14</time>
   <time name="total">   14.98   14.98</time>
   <energy>
    <i name="e_fr_energy">   -471.84614241 </i>
    <i name="e_wo_entrp">   -470.58879564 </i>
    <i name="e_0_energy">   -471.21746903 </i>
   </energy>
  </scstep>
  <scstep>
   <time name="dav">   13.18   13.18</time>
   <time name="total">   14.03   14.03</time>
   <energy>
    <i name="e_fr_energy">   -471.84620697 </i>
    <i name="e_wo_entrp">   -470.58868446 </i>
    <i name="e_0_energy">   -471.21744572 </i>
   </energy>
  </scstep>
  <scstep>
   <time name="dav">    9.41    9.41</time>
   <time name="total">    9.80    9.80</time>
   <energy>
    <i name="alphaZ">   2592.50432107 </i>
    <i name="ewald"> 335308.69730275 </i>
    <i name="hartreedc">-497595.24536865 </i>
    <i name="XCdc">   4864.34729858 </i>
    <i name="pawpsdc"> 184234.44041354 </i>
    <i name="pawaedc">-190882.70607788 </i>
    <i name="eentropy">     -1.25706613 </i>
    <i name="bandstr"> -20329.43384784 </i>
    <i name="atom"> 181336.80673834 </i>
    <i name="e_fr_energy">   -471.84628622 </i>
    <i name="e_wo_entrp">   -470.58922009 </i>
    <i name="e_0_energy">   -471.21775315 </i>
   </energy>
  </scstep>
  <structure>
   <crystal>
    <varray name="basis" >
     <v>      11.25646304       0.00000000       0.00000000 </v>
     <v>       5.04456212      10.06282034       0.00000000 </v>
     <v>       0.00000000       0.00000000      22.51995597 </v>
    </varray>
    <i name="volume">   2550.87516496 </i>
    <varray name="rec_basis" >
     <v>       0.08883785      -0.04453504       0.00000000 </v>
     <v>       0.00000000       0.09937572       0.00000000 </v>
     <v>       0.00000000       0.00000000       0.04440506 </v>
    </varray>
   </crystal>
   <varray name="positions" >
    <v>       0.26092069       0.47878037       0.29519774 </v>
    <v>       0.35488056       0.38482050       0.42557357 </v>
    <v>       0.16696082       0.07274025       0.16482191 </v>
    <v>       0.02487856       0.06608722       0.49478187 </v>
    <v>       0.22644617       0.51881337       0.05313089 </v>
    <v>       0.27423906       0.33335901       0.13037583 </v>
    <v>       0.36819893       0.23939914       0.26075166 </v>
    <v>       0.46215879       0.14543927       0.39112749 </v>
    <v>       0.00030194       0.37150214       0.26075166 </v>
    <v>       0.09426180       0.27754227       0.39112749 </v>
    <v>       0.18930544       0.20747250       0.49356307 </v>
    <v>       0.40634206       0.46546200       0.13037583 </v>
    <v>       0.21498634       0.02786434       0.05772946 </v>
    <v>       0.76092069       0.47878037       0.29519774 </v>
    <v>       0.85488056       0.38482050       0.42557357 </v>
    <v>       0.66696082       0.07274025       0.16482191 </v>
    <v>       0.52953079       0.05938941       0.49531077 </v>
    <v>       0.73262281       0.51251932       0.05370223 </v>
    <v>       0.77423906       0.33335901       0.13037583 </v>
    <v>       0.86819893       0.23939914       0.26075166 </v>
    <v>       0.96215879       0.14543927       0.39112749 </v>
    <v>       0.50030194       0.37150214       0.26075166 </v>
    <v>       0.59426180       0.27754227       0.39112749 </v>
    <v>       0.68297697       0.20966892       0.49470086 </v>
    <v>       0.90634206       0.46546200       0.13037583 </v>
    <v>       0.26092069       0.97878037       0.29519774 </v>
    <v>       0.35488056       0.88482051       0.42557357 </v>
    <v>       0.54553522       0.69073531       0.48660651 </v>
    <v>       0.03312438       0.72779824       0.08983645 </v>
    <v>       0.16696083       0.57274025       0.16482191 </v>
    <v>       0.17473867       0.82685562       0.04095713 </v>
    <v>       0.27423906       0.83335901       0.13037583 </v>
    <v>       0.36819893       0.73939914       0.26075166 </v>
    <v>       0.46215879       0.64543927       0.39112749 </v>
    <v>       0.00030194       0.87150214       0.26075166 </v>
    <v>       0.09426180       0.77754227       0.39112749 </v>
    <v>       0.40634206       0.96546200       0.13037583 </v>
    <v>       0.76092069       0.97878037       0.29519774 </v>
    <v>       0.85488056       0.88482051       0.42557357 </v>
    <v>       0.53241768       0.70260874       0.09093378 </v>
    <v>       0.66696083       0.57274025       0.16482191 </v>
    <v>       0.77423906       0.83335901       0.13037583 </v>
    <v>       0.86819893       0.73939914       0.26075166 </v>
    <v>       0.96215879       0.64543927       0.39112749 </v>
    <v>       0.50030194       0.87150214       0.26075166 </v>
    <v>       0.59426180       0.77754227       0.39112749 </v>
    <v>       0.73570449       0.75881275       0.46976663 </v>
    <v>       0.90634206       0.96546200       0.13037583 </v>
    <v>       0.07287763       0.16682345       0.31134757 </v>
    <v>       0.16683750       0.07286358       0.44172340 </v>
    <v>       0.39306103       0.34670507       0.06437320 </v>
    <v>       0.47891775       0.26078331       0.18097174 </v>
    <v>       0.02013748       0.36871971       0.47164249 </v>
    <v>       0.43627354       0.47164252       0.35520991 </v>
    <v>       0.25790713       0.15728442       0.10802502 </v>
    <v>       0.34231367       0.06560240       0.22483408 </v>
    <v>       0.08013881       0.49134726       0.09445824 </v>
    <v>       0.17409868       0.39738739       0.22483408 </v>
    <v>       0.26805854       0.30342752       0.35520991 </v>
    <v>       0.35927408       0.22335463       0.47276161 </v>
    <v>       0.57287763       0.16682345       0.31134757 </v>
    <v>       0.66683750       0.07286358       0.44172340 </v>
    <v>       0.89878716       0.34110302       0.06497751 </v>
    <v>       0.97891775       0.26078331       0.18097174 </v>
    <v>       0.51835582       0.37378724       0.47082720 </v>
    <v>       0.93627354       0.47164252       0.35520991 </v>
    <v>       0.75866389       0.15822030       0.11280526 </v>
    <v>       0.84231367       0.06560240       0.22483408 </v>
    <v>       0.58013881       0.49134726       0.09445824 </v>
    <v>       0.67409868       0.39738739       0.22483408 </v>
    <v>       0.76805854       0.30342752       0.35520991 </v>
    <v>       0.85261759       0.22474893       0.47178940 </v>
    <v>       0.07287763       0.66682345       0.31134757 </v>
    <v>       0.17046496       0.57305807       0.41518970 </v>
    <v>       0.38495788       0.85474318       0.05059590 </v>
    <v>       0.47891775       0.76078331       0.18097174 </v>
    <v>       0.01973672       0.89708739       0.46565030 </v>
    <v>       0.43627354       0.97164252       0.35520991 </v>
    <v>       0.24706064       0.66524244       0.10130691 </v>
    <v>       0.34231367       0.56560240       0.22483408 </v>
    <v>       0.08102327       0.97994782       0.10229734 </v>
    <v>       0.17409868       0.89738739       0.22483408 </v>
    <v>       0.26805854       0.80342752       0.35520991 </v>
    <v>       0.35827461       0.72155147       0.46825962 </v>
    <v>       0.57287763       0.66682345       0.31134757 </v>
    <v>       0.71294763       0.59291254       0.43578917 </v>
    <v>       0.86005135       0.87909957       0.05929000 </v>
    <v>       0.97891775       0.76078331       0.18097174 </v>
    <v>       0.53023342       0.87768265       0.48558574 </v>
    <v>       0.93627354       0.97164252       0.35520991 </v>
    <v>       0.74422678       0.66219480       0.10342964 </v>
    <v>       0.84231367       0.56560240       0.22483408 </v>
    <v>       0.58255669       0.98032923       0.11220012 </v>
    <v>       0.67409868       0.89738739       0.22483408 </v>
    <v>       0.76805854       0.80342752       0.35520991 </v>
    <v>       0.92932441       0.71306639       0.47675955 </v>
   </varray>
  </structure>
  <varray name="forces" >
   <v>       0.13055392      -0.34988092      -0.02423676 </v>
   <v>      -0.65273928       0.60949096      -1.30925688 </v>
   <v>      -0.43560528       0.45507002       1.77156692 </v>
   <v>       0.22221355      -0.52508283       1.36698945 </v>
   <v>      -0.04961564       0.91234993      -1.93000563 </v>
   <v>      -1.00368183      -0.44503591       1.76149135 </v>
   <v>      -0.01929703       0.03855554       0.03494240 </v>
   <v>       0.16883363      -0.09657776      -1.41260502 </v>
   <v>      -0.03402103      -0.00227570      -0.05008901 </v>
   <v>       0.07437753      -0.31660650      -1.95909267 </v>
   <v>       0.46133661      -0.31273864       1.30082585 </v>
   <v>       1.31342900       0.19949592       1.57881866 </v>
   <v>      -0.43884125       0.85797447      -1.52683022 </v>
   <v>       0.07813274      -0.28749635      -0.08793225 </v>
   <v>      -0.58624093       0.49659308      -1.20179467 </v>
   <v>      -0.44437616       0.44378333       2.10710980 </v>
   <v>       0.18963098      -0.27949285       1.44682569 </v>
   <v>      -0.08800766       0.78068764      -1.95363501 </v>
   <v>      -0.67682215      -0.58284747       1.96994347 </v>
   <v>       0.13984002       0.12690036       0.08856779 </v>
   <v>      -0.05455331       0.19472573      -1.43119846 </v>
   <v>      -0.07784008      -0.08125970      -0.04498463 </v>
   <v>       0.03020219      -0.28533131      -1.88180179 </v>
   <v>       0.49646490      -0.18929565       1.23806194 </v>
   <v>       1.41855485       0.26840696       1.67598449 </v>
   <v>       0.06405983      -0.15293966      -0.01464450 </v>
   <v>       0.12654196       1.38242815      -1.28563691 </v>
   <v>       0.30125564      -1.31739265       1.41037362 </v>
   <v>       0.14027795      -0.82897406      -0.97545147 </v>
   <v>      -0.42273709      -0.28802728       1.35822307 </v>
   <v>      -0.17523966      -0.32438914      -1.12485352 </v>
   <v>       1.10042450      -0.61148306       2.43210461 </v>
   <v>      -0.09133563      -0.09603353       0.06366795 </v>
   <v>       0.03837205      -0.38497375      -1.77814423 </v>
   <v>      -0.12150288       0.11106249      -0.06580444 </v>
   <v>       0.35632953       0.29626010      -2.03529536 </v>
   <v>       0.78172976      -0.64358688       1.20967898 </v>
   <v>       0.14007056      -0.23575723      -0.19339564 </v>
   <v>      -0.64948545       1.28597749      -1.46390892 </v>
   <v>       0.26393617      -0.27932982      -0.71638633 </v>
   <v>      -0.04614814      -0.89616955       2.53210578 </v>
   <v>      -0.47547487      -0.93829955       1.78683537 </v>
   <v>      -0.10817977       0.05967772      -0.12903926 </v>
   <v>       0.25662623      -0.56329023      -1.97759950 </v>
   <v>       0.03791501       0.16866915       0.04669084 </v>
   <v>      -0.26514902       0.69760442      -2.30038292 </v>
   <v>      -0.62737051      -0.04943253       0.81511328 </v>
   <v>       0.68875481       0.30043263       1.70876991 </v>
   <v>       0.11641787      -0.18390568      -0.13645015 </v>
   <v>       1.17326929      -1.43242839      -0.77828600 </v>
   <v>       1.39915868      -2.13318196      -3.34297909 </v>
   <v>       0.09024990       0.12654743       0.41251847 </v>
   <v>       0.76299892       2.30030950       2.32600415 </v>
   <v>       0.42664577       0.16798583      -0.53210465 </v>
   <v>       0.48498773       1.73615769      -1.22715227 </v>
   <v>       0.02199539      -0.20423645       0.84179093 </v>
   <v>      -1.80353753       0.19605118       0.16157664 </v>
   <v>      -0.04118299      -0.09173028       0.11003340 </v>
   <v>      -0.17484885      -0.16990495      -0.78354571 </v>
   <v>      -1.06401149      -0.14157321       2.12814899 </v>
   <v>       0.09805206      -0.21185103      -0.11255137 </v>
   <v>       0.78585007      -1.05157841      -0.94097327 </v>
   <v>       1.26749176      -2.09671739      -3.11087046 </v>
   <v>       0.09416937      -0.11289694       0.51785540 </v>
   <v>       0.71189156       2.24426411       2.43703359 </v>
   <v>       0.07117700      -0.05046627      -0.88911104 </v>
   <v>      -0.00639623       1.25571780      -2.20412277 </v>
   <v>       0.28823216       0.09783738       0.72116109 </v>
   <v>      -1.98881635      -0.48117238      -0.09122853 </v>
   <v>      -0.07883956       0.07428388       0.14839882 </v>
   <v>      -0.12483795       0.29608138      -0.76184315 </v>
   <v>      -0.89426463       0.17433777       2.10415671 </v>
   <v>      -0.21915428       0.37416027      -0.96039583 </v>
   <v>       0.21872723      -0.73625269       1.68611440 </v>
   <v>      -0.44250521       0.02349983      -2.81993663 </v>
   <v>      -0.34789140       0.27320002       1.10125179 </v>
   <v>       0.36215693      -0.63771971       2.75949782 </v>
   <v>      -0.01673597       0.08946601      -0.04756474 </v>
   <v>       1.09978861       0.36398633      -0.38787034 </v>
   <v>       0.16029815      -0.01868128       0.09781992 </v>
   <v>      -1.25345821       1.25776914      -0.76629229 </v>
   <v>       0.04521733      -0.05816789       0.44730014 </v>
   <v>       0.11015033       0.42490553      -0.69075840 </v>
   <v>      -2.40207473      -0.69717929       2.65682213 </v>
   <v>      -0.03460115      -0.19927745      -0.00274007 </v>
   <v>       0.01701873      -1.34882606       0.80962750 </v>
   <v>      -0.24738969      -0.01099734      -3.86136218 </v>
   <v>      -0.14709401      -0.25264976       1.25963255 </v>
   <v>      -0.61582120       1.36274688       1.06532201 </v>
   <v>      -0.09962765       0.21978392      -0.86434952 </v>
   <v>       1.27727930       1.30203228      -1.15229668 </v>
   <v>       0.11649989      -0.00689398       0.20370607 </v>
   <v>      -1.07190055       0.78901496      -2.23038388 </v>
   <v>      -0.19883179      -0.24854760       0.64965310 </v>
   <v>      -0.21995728       0.28928341      -0.28253940 </v>
   <v>       0.81845538      -1.18473170       3.50159755 </v>
  </varray>
  <varray name="stress" >
   <v>      64.37132211      -2.08831608      -0.68444403 </v>
   <v>      -2.08831646      63.64868765      -1.32789875 </v>
   <v>      -0.68444386      -1.32789901      68.49266653 </v>
  </varray>
  <energy>
   <i name="e_fr_energy">   -471.84628622 </i>
   <i name="e_wo_entrp">   -471.21775315 </i>
   <i name="e_0_energy">     -1.25706613 </i>
  </energy>
  <time name="totalsc">  581.78  581.96</time>
  <eigenvalues>
   <array>
    <dimension dim="1">band</dimension>
    <dimension dim="2">kpoint</dimension>
    <dimension dim="3">spin</dimension>
    <field>eigene</field>
    <field>occ</field>
    <set>
     <set comment="spin 1">
      <set comment="kpoint 1">
       <r>  -63.1222    1.0000 </r>
       <r>  -63.0956    1.0000 </r>
       <r>  -63.0583    1.0000 </r>
       <r>  -63.0246    1.0000 </r>
       <r>  -63.0137    1.0000 </r>
       <r>  -62.9959    1.0000 </r>
       <r>  -62.9865    1.0000 </r>
       <r>  -62.9722    1.0000 </r>
       <r>  -62.9679    1.0000 </r>
       <r>  -62.9663    1.0000 </r>
       <r>  -62.9628    1.0000 </r>
       <r>  -62.9592    1.0000 </r>
       <r>  -62.9335    1.0000 </r>
       <r>  -62.9024    1.0000 </r>
       <r>  -62.8780    1.0000 </r>
       <r>  -62.8733    1.0000 </r>
       <r>  -62.8656    1.0000 </r>
       <r>  -62.8464    1.0000 </r>
       <r>  -62.8324    1.0000 </r>
       <r>  -62.8247    1.0000 </r>
       <r>  -62.8189    1.0000 </r>
       <r>  -62.8085    1.0000 </r>
       <r>  -62.8075    1.0000 </r>
       <r>  -62.8070    1.0000 </r>
       <r>  -62.7986    1.0000 </r>
       <r>  -62.7909    1.0000 </r>
       <r>  -62.7774    1.0000 </r>
       <r>  -62.7758    1.0000 </r>
       <r>  -62.7732    1.0000 </r>
       <r>  -62.7587    1.0000 </r>
       <r>  -62.7492    1.0000 </r>
       <r>  -62.7366    1.0000 </r>
       <r>  -62.7167    1.0000 </r>
       <r>  -62.7155    1.0000 </r>
       <r>  -62.7068    1.0000 </r>
       <r>  -62.6995    1.0000 </r>
       <r>  -62.6984    1.0000 </r>
       <r>  -62.6539    1.0000 </r>
       <r>  -62.6526    1.0000 </r>
       <r>  -62.6500    1.0000 </r>
       <r>  -62.6385    1.0000 </r>
       <r>  -62.6346    1.0000 </r>
       <r>  -62.6315    1.0000 </r>
       <r>  -62.6142    1.0000 </r>
       <r>  -62.6140    1.0000 </r>
       <r>  -62.5960    1.0000 </r>
       <r>  -62.5927    1.0000 </r>
       <r>  -62.5918    1.0000 </r>
       <r>  -62.5869    1.0000 </r>
       <r>  -62.5826    1.0000 </r>
       <r>  -62.5713    1.0000 </r>
       <r>  -62.5569    1.0000 </r>
       <r>  -62.5550    1.0000 </r>
       <r>  -62.5500    1.0000 </r>
       <r>  -62.5499    1.0000 </r>
       <r>  -62.5494    1.0000 </r>
       <r>  -62.5306    1.0000 </r>
       <r>  -62.5291    1.0000 </r>
       <r>  -62.5277    1.0000 </r>
       <r>  -62.5214    1.0000 </r>
       <r>  -62.5189    1.0000 </r>
       <r>  -62.5102    1.0000 </r>
       <r>  -62.5067    1.0000 </r>
       <r>  -62.5052    1.0000 </r>
       <r>  -62.4886    1.0000 </r>
       <r>  -62.4873    1.0000 </r>
       <r>  -62.4802    1.0000 </r>
       <r>  -62.4785    1.0000 </r>
       <r>  -62.4691    1.0000 </r>
       <r>  -62.4628    1.0000 </r>
       <r>  -62.4549    1.0000 </r>
       <r>  -62.4521    1.0000 </r>
       <r>  -62.4510    1.0000 </r>
       <r>  -62.4454    1.0000 </r>
       <r>  -62.4436    1.0000 </r>
       <r>  -62.4428    1.0000 </r>
       <r>  -62.4415    1.0000 </r>
       <r>  -62.4400    1.0000 </r>
       <r>  -62.4375    1.0000 </r>
       <r>  -62.4361    1.0000 </r>
       <r>  -62.4330    1.0000 </r>
       <r>  -62.4315    1.0000 </r>
       <r>  -62.4307    1.0000 </r>
       <r>  -62.4251    1.0000 </r>
       <r>  -62.4247    1.0000 </r>
       <r>  -62.4229    1.0000 </r>
       <r>  -62.4204    1.0000 </r>
       <r>  -62.4201    1.0000 </r>
       <r>  -62.4184    1.0000 </r>
       <r>  -62.4122    1.0000 </r>
       <r>  -62.4063    1.0000 </r>
       <r>  -62.4049    1.0000 </r>
       <r>  -62.4024    1.0000 </r>
       <r>  -62.3994    1.0000 </r>
       <r>  -62.3900    1.0000 </r>
       <r>  -62.3851    1.0000 </r>
       <r>  -62.3823    1.0000 </r>
       <r>  -62.3785    1.0000 </r>
       <r>  -62.3767    1.0000 </r>
       <r>  -62.3747    1.0000 </r>
       <r>  -62.3634    1.0000 </r>
       <r>  -62.3591    1.0000 </r>
       <r>  -62.3569    1.0000 </r>
       <r>  -62.3566    1.0000 </r>
       <r>  -62.3526    1.0000 </r>
       <r>  -62.3510    1.0000 </r>
       <r>  -62.3471    1.0000 </r>
       <r>  -62.3435    1.0000 </r>
       <r>  -62.3420    1.0000 </r>
       <r>  -62.3352    1.0000 </r>
       <r>  -62.3345    1.0000 </r>
       <r>  -62.3280    1.0000 </r>
       <r>  -62.3100    1.0000 </r>
       <r>  -62.3074    1.0000 </r>
       <r>  -62.2813    1.0000 </r>
       <r>  -62.2757    1.0000 </r>
       <r>  -62.2740    1.0000 </r>
       <r>  -62.2590    1.0000 </r>
       <r>  -62.2564    1.0000 </r>
       <r>  -62.2534    1.0000 </r>
       <r>  -62.2491    1.0000 </r>
       <r>  -62.2450    1.0000 </r>
       <r>  -62.2417    1.0000 </r>
       <r>  -62.2246    1.0000 </r>
       <r>  -62.2035    1.0000 </r>
       <r>  -62.2029    1.0000 </r>
       <r>  -62.2011    1.0000 </r>
       <r>  -62.1926    1.0000 </r>
       <r>  -62.1893    1.0000 </r>
       <r>  -62.1733    1.0000 </r>
       <r>  -62.1531    1.0000 </r>
       <r>  -62.1507    1.0000 </r>
       <r>  -62.1255    1.0000 </r>
       <r>  -62.1093    1.0000 </r>
       <r>  -62.0819    1.0000 </r>
       <r>  -62.0753    1.0000 </r>
       <r>  -61.9343    1.0000 </r>
       <r>  -61.9061    1.0000 </r>
       <r>  -61.8922    1.0000 </r>
       <r>  -61.8882    1.0000 </r>
       <r>  -61.8798    1.0000 </r>
       <r>  -61.8703    1.0000 </r>
       <r>  -61.8200    1.0000 </r>
       <r>  -61.7100    1.0000 </r>
       <r>  -14.4701    1.0000 </r>
       <r>  -14.2429    1.0000 </r>
       <r>  -13.8102    1.0000 </r>
       <r>  -13.7108    1.0000 </r>
       <r>  -13.6543    1.0000 </r>
       <r>  -13.5873    1.0000 </r>
       <r>  -13.5787    1.0000 </r>
       <r>  -13.4853    1.0000 </r>
       <r>  -13.4090    1.0000 </r>
       <r>  -13.3304    1.0000 </r>
       <r>  -13.3020    1.0000 </r>
       <r>  -13.2630    1.0000 </r>
       <r>  -13.1638    1.0000 </r>
       <r>  -13.0192    1.0000 </r>
       <r>  -12.9749    1.0000 </r>
       <r>  -12.8109    1.0000 </r>
       <r>  -12.7963    1.0000 </r>
       <r>  -12.7165    1.0000 </r>
       <r>  -12.6836    1.0000 </r>
       <r>  -12.6330    1.0000 </r>
       <r>  -12.6116    1.0000 </r>
       <r>  -12.5809    1.0000 </r>
       <r>  -12.5338    1.0000 </r>
       <r>  -12.4788    1.0000 </r>
       <r>  -12.4611    1.0000 </r>
       <r>  -12.4199    1.0000 </r>
       <r>  -12.3814    1.0000 </r>
       <r>  -12.3527    1.0000 </r>
       <r>  -12.3116    1.0000 </r>
       <r>  -12.2617    1.0000 </r>
       <r>  -12.1934    1.0000 </r>
       <r>  -12.1903    1.0000 </r>
       <r>  -12.1629    1.0000 </r>
       <r>  -12.0499    1.0000 </r>
       <r>  -11.9896    1.0000 </r>
       <r>  -11.9073    1.0000 </r>
       <r>  -11.8622    1.0000 </r>
       <r>  -11.8506    1.0000 </r>
       <r>  -11.7911    1.0000 </r>
       <r>  -11.7722    1.0000 </r>
       <r>  -11.6860    1.0000 </r>
       <r>  -11.6437    1.0000 </r>
       <r>  -11.5980    1.0000 </r>
       <r>  -11.5491    1.0000 </r>
       <r>  -11.4923    1.0000 </r>
       <r>  -11.4792    1.0000 </r>
       <r>  -11.3337    1.0000 </r>
       <r>  -11.2182    1.0000 </r>
       <r>   -6.4135    1.0000 </r>
       <r>   -6.3174    1.0000 </r>
       <r>   -6.2383    1.0000 </r>
       <r>   -6.1516    1.0000 </r>
       <r>   -6.0821    1.0000 </r>
       <r>   -5.9936    1.0000 </r>
       <r>   -5.9490    1.0000 </r>
       <r>   -5.9446    1.0000 </r>
       <r>   -5.8147    1.0000 </r>
       <r>   -5.6741    1.0000 </r>
       <r>   -5.6452    1.0000 </r>
       <r>   -5.5262    1.0000 </r>
       <r>   -5.4732    1.0000 </r>
       <r>   -5.4388    1.0000 </r>
       <r>   -5.4080    1.0000 </r>
       <r>   -5.3720    1.0000 </r>
       <r>   -5.3430    1.0000 </r>
       <r>   -5.2855    1.0000 </r>
       <r>   -5.2483    1.0000 </r>
       <r>   -5.2242    1.0000 </r>
       <r>   -5.1870    1.0000 </r>
       <r>   -5.1595    1.0000 </r>
       <r>   -5.1504    1.0000 </r>
       <r>   -5.1119    1.0000 </r>
       <r>   -5.0611    1.0000 </r>
       <r>   -5.0400    1.0000 </r>
       <r>   -5.0139    1.0000 </r>
       <r>   -4.9840    1.0000 </r>
       <r>   -4.9393    1.0000 </r>
       <r>   -4.9152    1.0000 </r>
       <r>   -4.8995    1.0000 </r>
       <r>   -4.8806    1.0000 </r>
       <r>   -4.8494    1.0000 </r>
       <r>   -4.8278    1.0000 </r>
       <r>   -4.7760    1.0000 </r>
       <r>   -4.7254    1.0000 </r>
       <r>   -4.6963    1.0000 </r>
       <r>   -4.6807    1.0000 </r>
       <r>   -4.6084    1.0000 </r>
       <r>   -4.5933    1.0000 </r>
       <r>   -4.5664    1.0000 </r>
       <r>   -4.5102    1.0000 </r>
       <r>   -4.4739    1.0000 </r>
       <r>   -4.4415    1.0000 </r>
       <r>   -4.3735    1.0000 </r>
       <r>   -4.3556    1.0000 </r>
       <r>   -4.3315    1.0000 </r>
       <r>   -4.2975    1.0000 </r>
       <r>   -4.2343    1.0000 </r>
       <r>   -4.2101    1.0000 </r>
       <r>   -4.1850    1.0000 </r>
       <r>   -4.1579    1.0000 </r>
       <r>   -4.1203    1.0000 </r>
       <r>   -4.1121    1.0000 </r>
       <r>   -4.0830    1.0000 </r>
       <r>   -4.0645    1.0000 </r>
       <r>   -4.0373    1.0000 </r>
       <r>   -3.9732    1.0000 </r>
       <r>   -3.9475    1.0000 </r>
       <r>   -3.9204    1.0000 </r>
       <r>   -3.8886    1.0000 </r>
       <r>   -3.8475    1.0000 </r>
       <r>   -3.8310    1.0000 </r>
       <r>   -3.8027    1.0000 </r>
       <r>   -3.7907    1.0000 </r>
       <r>   -3.7610    1.0000 </r>
       <r>   -3.7122    1.0000 </r>
       <r>   -3.6843    1.0000 </r>
       <r>   -3.6736    1.0000 </r>
       <r>   -3.6508    1.0000 </r>
       <r>   -3.6230    1.0000 </r>
       <r>   -3.5593    1.0000 </r>
       <r>   -3.5424    1.0000 </r>
       <r>   -3.5320    1.0000 </r>
       <r>   -3.5093    1.0000 </r>
       <r>   -3.4926    1.0000 </r>
       <r>   -3.4673    1.0000 </r>
       <r>   -3.4469    1.0000 </r>
       <r>   -3.4180    1.0000 </r>
       <r>   -3.4100    1.0000 </r>
       <r>   -3.3927    1.0000 </r>
       <r>   -3.3833    1.0000 </r>
       <r>   -3.3705    1.0000 </r>
       <r>   -3.3447    1.0000 </r>
       <r>   -3.3316    1.0000 </r>
       <r>   -3.2946    1.0000 </r>
       <r>   -3.2713    1.0000 </r>
       <r>   -3.2492    1.0000 </r>
       <r>   -3.2365    1.0000 </r>
       <r>   -3.1754    1.0000 </r>
       <r>   -3.1658    1.0000 </r>
       <r>   -3.1326    1.0000 </r>
       <r>   -3.1011    1.0000 </r>
       <r>   -3.0695    1.0000 </r>
       <r>   -3.0618    1.0000 </r>
       <r>   -3.0257    1.0000 </r>
       <r>   -3.0192    1.0000 </r>
       <r>   -2.9839    1.0000 </r>
       <r>   -2.9640    1.0000 </r>
       <r>   -2.9502    1.0000 </r>
       <r>   -2.9073    1.0000 </r>
       <r>   -2.9028    1.0000 </r>
       <r>   -2.8888    1.0000 </r>
       <r>   -2.8578    1.0000 </r>
       <r>   -2.8440    1.0000 </r>
       <r>   -2.7992    1.0000 </r>
       <r>   -2.7934    1.0000 </r>
       <r>   -2.7494    1.0000 </r>
       <r>   -2.7199    1.0000 </r>
       <r>   -2.6983    1.0000 </r>
       <r>   -2.6736    1.0000 </r>
       <r>   -2.6326    1.0000 </r>
       <r>   -2.6204    1.0000 </r>
       <r>   -2.5930    1.0000 </r>
       <r>   -2.5806    1.0000 </r>
       <r>   -2.5404    1.0000 </r>
       <r>   -2.5066    1.0000 </r>
       <r>   -2.4739    1.0000 </r>
       <r>   -2.4605    1.0000 </r>
       <r>   -2.4385    1.0000 </r>
       <r>   -2.4329    1.0000 </r>
       <r>   -2.3993    1.0000 </r>
       <r>   -2.3811    1.0000 </r>
       <r>   -2.3606    1.0000 </r>
       <r>   -2.3191    1.0000 </r>
       <r>   -2.3030    1.0000 </r>
       <r>   -2.2919    1.0000 </r>
       <r>   -2.2449    1.0000 </r>
       <r>   -2.2191    1.0000 </r>
       <r>   -2.1678    1.0000 </r>
       <r>   -2.1434    1.0000 </r>
       <r>   -2.1128    1.0000 </r>
       <r>   -2.0913    1.0000 </r>
       <r>   -2.0114    1.0000 </r>
       <r>   -1.9782    1.0000 </r>
       <r>   -1.9230    1.0000 </r>
       <r>   -1.8961    1.0000 </r>
       <r>   -1.8912    1.0000 </r>
       <r>   -1.8439    1.0000 </r>
       <r>   -1.7930    1.0000 </r>
       <r>   -1.7452    1.0000 </r>
       <r>   -1.7290    1.0000 </r>
       <r>   -1.6911    1.0000 </r>
       <r>   -1.6855    1.0000 </r>
       <r>   -1.6551    1.0000 </r>
       <r>   -1.6184    1.0000 </r>
       <r>   -1.5939    1.0000 </r>
       <r>   -1.5809    1.0000 </r>
       <r>   -1.5732    1.0000 </r>
       <r>   -1.5285    1.0000 </r>
       <r>   -1.5125    1.0000 </r>
       <r>   -1.4805    1.0000 </r>
       <r>   -1.4612    1.0000 </r>
       <r>   -1.4375    1.0000 </r>
       <r>   -1.4236    1.0000 </r>
       <r>   -1.3883    1.0000 </r>
       <r>   -1.3793    1.0000 </r>
       <r>   -1.3714    1.0000 </r>
       <r>   -1.3499    1.0000 </r>
       <r>   -1.3108    1.0000 </r>
       <r>   -1.3067    1.0000 </r>
       <r>   -1.2872    1.0000 </r>
       <r>   -1.2409    1.0000 </r>
       <r>   -1.2189    1.0000 </r>
       <r>   -1.1926    1.0000 </r>
       <r>   -1.1772    1.0000 </r>
       <r>   -1.1614    1.0000 </r>
       <r>   -1.1344    1.0000 </r>
       <r>   -1.1275    1.0000 </r>
       <r>   -1.1154    1.0000 </r>
       <r>   -1.1037    1.0000 </r>
       <r>   -1.0804    1.0000 </r>
       <r>   -1.0532    1.0000 </r>
       <r>   -1.0389    1.0000 </r>
       <r>   -1.0252    1.0000 </r>
       <r>   -0.9944    1.0000 </r>
       <r>   -0.9880    1.0000 </r>
       <r>   -0.9658    1.0000 </r>
       <r>   -0.9334    1.0000 </r>
       <r>   -0.9254    1.0000 </r>
       <r>   -0.9084    1.0000 </r>
       <r>   -0.8927    1.0000 </r>
       <r>   -0.8752    1.0000 </r>
       <r>   -0.8677    1.0000 </r>
       <r>   -0.8450    1.0000 </r>
       <r>   -0.8339    1.0000 </r>
       <r>   -0.8269    1.0000 </r>
       <r>   -0.8165    1.0000 </r>
       <r>   -0.7999    1.0000 </r>
       <r>   -0.7980    1.0000 </r>
       <r>   -0.7604    1.0000 </r>
       <r>   -0.7504    1.0000 </r>
       <r>   -0.7431    1.0000 </r>
       <r>   -0.7213    1.0000 </r>
       <r>   -0.7172    1.0000 </r>
       <r>   -0.7022    1.0000 </r>
       <r>   -0.6942    1.0000 </r>
       <r>   -0.6719    1.0000 </r>
       <r>   -0.6616    1.0000 </r>
       <r>   -0.6448    1.0000 </r>
       <r>   -0.6382    1.0000 </r>
       <r>   -0.6249    1.0000 </r>
       <r>   -0.6080    1.0000 </r>
       <r>   -0.5983    1.0000 </r>
       <r>   -0.5824    1.0000 </r>
       <r>   -0.5634    1.0000 </r>
       <r>   -0.5542    1.0000 </r>
       <r>   -0.5291    1.0000 </r>
       <r>   -0.5236    1.0000 </r>
       <r>   -0.5133    1.0000 </r>
       <r>   -0.5085    1.0000 </r>
       <r>   -0.4860    1.0000 </r>
       <r>   -0.4784    1.0000 </r>
       <r>   -0.4620    1.0000 </r>
       <r>   -0.4494    1.0000 </r>
       <r>   -0.4423    1.0000 </r>
       <r>   -0.4234    1.0000 </r>
       <r>   -0.4091    1.0000 </r>
       <r>   -0.3942    1.0000 </r>
       <r>   -0.3874    1.0000 </r>
       <r>   -0.3791    1.0000 </r>
       <r>   -0.3726    1.0000 </r>
       <r>   -0.3535    1.0000 </r>
       <r>   -0.3489    1.0000 </r>
       <r>   -0.3345    1.0000 </r>
       <r>   -0.3323    1.0000 </r>
       <r>   -0.3266    1.0000 </r>
       <r>   -0.3174    1.0000 </r>
       <r>   -0.2995    1.0000 </r>
       <r>   -0.2886    1.0000 </r>
       <r>   -0.2730    1.0000 </r>
       <r>   -0.2721    1.0000 </r>
       <r>   -0.2524    1.0000 </r>
       <r>   -0.2469    1.0000 </r>
       <r>   -0.2375    1.0000 </r>
       <r>   -0.2279    1.0000 </r>
       <r>   -0.2044    1.0000 </r>
       <r>   -0.2036    1.0000 </r>
       <r>   -0.1757    1.0000 </r>
       <r>   -0.1710    1.0000 </r>
       <r>   -0.1468    1.0000 </r>
       <r>   -0.1338    1.0000 </r>
       <r>   -0.1209    1.0000 </r>
       <r>   -0.1073    1.0000 </r>
       <r>   -0.0995    1.0000 </r>
       <r>   -0.0966    1.0000 </r>
       <r>   -0.0917    1.0000 </r>
       <r>   -0.0810    1.0000 </r>
       <r>   -0.0694    1.0000 </r>
       <r>   -0.0633    1.0000 </r>
       <r>   -0.0592    1.0000 </r>
       <r>   -0.0415    1.0000 </r>
       <r>   -0.0348    1.0000 </r>
       <r>   -0.0249    1.0000 </r>
       <r>   -0.0169    1.0000 </r>
       <r>   -0.0032    1.0000 </r>
       <r>    0.0043    1.0000 </r>
       <r>    0.0082    1.0000 </r>
       <r>    0.0265    1.0000 </r>
       <r>    0.0293    1.0000 </r>
       <r>    0.0342    1.0000 </r>
       <r>    0.0607    1.0000 </r>
       <r>    0.0674    1.0000 </r>
       <r>    0.0816    1.0000 </r>
       <r>    0.0918    1.0000 </r>
       <r>    0.0992    1.0000 </r>
       <r>    0.1083    1.0000 </r>
       <r>    0.1251    1.0000 </r>
       <r>    0.1307    1.0000 </r>
       <r>    0.1508    1.0000 </r>
       <r>    0.1655    1.0000 </r>
       <r>    0.1721    1.0000 </r>
       <r>    0.2065    1.0000 </r>
       <r>    0.2213    1.0000 </r>
       <r>    0.2282    1.0000 </r>
       <r>    0.2314    1.0000 </r>
       <r>    0.2596    1.0000 </r>
       <r>    0.2653    1.0000 </r>
       <r>    0.2748    1.0000 </r>
       <r>    0.2986    1.0000 </r>
       <r>    0.3073    1.0000 </r>
       <r>    0.3188    1.0000 </r>
       <r>    0.3349    1.0000 </r>
       <r>    0.3456    1.0000 </r>
       <r>    0.3496    1.0000 </r>
       <r>    0.3634    1.0000 </r>
       <r>    0.3833    1.0000 </r>
       <r>    0.4029    1.0000 </r>
       <r>    0.4122    1.0000 </r>
       <r>    0.4226    1.0000 </r>
       <r>    0.4621    1.0000 </r>
       <r>    0.4731    1.0000 </r>
       <r>    0.4858    1.0000 </r>
       <r>    0.4998    1.0000 </r>
       <r>    0.5066    1.0000 </r>
       <r>    0.5381    1.0000 </r>
       <r>    0.5581    1.0000 </r>
       <r>    0.5677    1.0000 </r>
       <r>    0.5865    1.0000 </r>
       <r>    0.6160    1.0000 </r>
       <r>    0.6297    1.0000 </r>
       <r>    0.6546    1.0000 </r>
       <r>    0.6873    1.0000 </r>
       <r>    0.7000    1.0000 </r>
       <r>    0.7322    1.0000 </r>
       <r>    0.7369    1.0000 </r>
       <r>    0.7579    1.0000 </r>
       <r>    0.8070    1.0000 </r>
       <r>    0.8452    1.0000 </r>
       <r>    0.8776    1.0000 </r>
       <r>    0.8950    1.0000 </r>
       <r>    0.9213    1.0000 </r>
       <r>    0.9474    1.0000 </r>
       <r>    0.9740    1.0000 </r>
       <r>    0.9863    1.0000 </r>
       <r>    1.0000    1.0000 </r>
       <r>    1.0595    0.9999 </r>
       <r>    1.0860    0.9999 </r>
       <r>    1.0986    0.9998 </r>
       <r>    1.1477    0.9994 </r>
       <r>    1.1492    0.9994 </r>
       <r>    1.1681    0.9991 </r>
       <r>    1.1882    0.9985 </r>
       <r>    1.2168    0.9971 </r>
       <r>    1.2838    0.9890 </r>
       <r>    1.3031    0.9843 </r>
       <r>    1.3207    0.9787 </r>
       <r>    1.3661    0.9562 </r>
[...]
       <r>   -58.6091     0.0000   288.0000 </r>
       <r>   -58.3491     0.0000   288.0000 </r>
       <r>   -58.0892     0.0000   288.0000 </r>
       <r>   -57.8293     0.0000   288.0000 </r>
       <r>   -57.5694     0.0000   288.0000 </r>
       <r>   -57.3094     0.0000   288.0000 </r>
       <r>   -57.0495     0.0000   288.0000 </r>
       <r>   -56.7896     0.0000   288.0000 </r>
       <r>   -56.5297     0.0000   288.0000 </r>
       <r>   -56.2698     0.0000   288.0000 </r>
       <r>   -56.0098     0.0000   288.0000 </r>
       <r>   -55.7499     0.0000   288.0000 </r>
       <r>   -55.4900     0.0000   288.0000 </r>
       <r>   -55.2301     0.0000   288.0000 </r>
       <r>   -54.9702     0.0000   288.0000 </r>
       <r>   -54.7102     0.0000   288.0000 </r>
       <r>   -54.4503     0.0000   288.0000 </r>
       <r>   -54.1904     0.0000   288.0000 </r>
       <r>   -53.9305     0.0000   288.0000 </r>
       <r>   -53.6706     0.0000   288.0000 </r>
       <r>   -53.4106     0.0000   288.0000 </r>
       <r>   -53.1507     0.0000   288.0000 </r>
       <r>   -52.8908     0.0000   288.0000 </r>
       <r>   -52.6309     0.0000   288.0000 </r>
       <r>   -52.3710     0.0000   288.0000 </r>
       <r>   -52.1110     0.0000   288.0000 </r>
       <r>   -51.8511     0.0000   288.0000 </r>
       <r>   -51.5912     0.0000   288.0000 </r>
       <r>   -51.3313     0.0000   288.0000 </r>
       <r>   -51.0714     0.0000   288.0000 </r>
       <r>   -50.8114     0.0000   288.0000 </r>
       <r>   -50.5515     0.0000   288.0000 </r>
       <r>   -50.2916     0.0000   288.0000 </r>
       <r>   -50.0317     0.0000   288.0000 </r>
       <r>   -49.7718     0.0000   288.0000 </r>
       <r>   -49.5118     0.0000   288.0000 </r>
       <r>   -49.2519     0.0000   288.0000 </r>
       <r>   -48.9920     0.0000   288.0000 </r>
       <r>   -48.7321     0.0000   288.0000 </r>
       <r>   -48.4722     0.0000   288.0000 </r>
       <r>   -48.2122     0.0000   288.0000 </r>
       <r>   -47.9523     0.0000   288.0000 </r>
       <r>   -47.6924     0.0000   288.0000 </r>
       <r>   -47.4325     0.0000   288.0000 </r>
       <r>   -47.1725     0.0000   288.0000 </r>
       <r>   -46.9126     0.0000   288.0000 </r>
       <r>   -46.6527     0.0000   288.0000 </r>
       <r>   -46.3928     0.0000   288.0000 </r>
       <r>   -46.1329     0.0000   288.0000 </r>
       <r>   -45.8729     0.0000   288.0000 </r>
       <r>   -45.6130     0.0000   288.0000 </r>
       <r>   -45.3531     0.0000   288.0000 </r>
       <r>   -45.0932     0.0000   288.0000 </r>
       <r>   -44.8333     0.0000   288.0000 </r>
       <r>   -44.5733     0.0000   288.0000 </r>
       <r>   -44.3134     0.0000   288.0000 </r>
       <r>   -44.0535     0.0000   288.0000 </r>
       <r>   -43.7936     0.0000   288.0000 </r>
       <r>   -43.5337     0.0000   288.0000 </r>
       <r>   -43.2737     0.0000   288.0000 </r>
       <r>   -43.0138     0.0000   288.0000 </r>
       <r>   -42.7539     0.0000   288.0000 </r>
       <r>   -42.4940     0.0000   288.0000 </r>
       <r>   -42.2341     0.0000   288.0000 </r>
       <r>   -41.9741     0.0000   288.0000 </r>
       <r>   -41.7142     0.0000   288.0000 </r>
       <r>   -41.4543     0.0000   288.0000 </r>
       <r>   -41.1944     0.0000   288.0000 </r>
       <r>   -40.9345     0.0000   288.0000 </r>
       <r>   -40.6745     0.0000   288.0000 </r>
       <r>   -40.4146     0.0000   288.0000 </r>
       <r>   -40.1547     0.0000   288.0000 </r>
       <r>   -39.8948     0.0000   288.0000 </r>
       <r>   -39.6349     0.0000   288.0000 </r>
       <r>   -39.3749     0.0000   288.0000 </r>
       <r>   -39.1150     0.0000   288.0000 </r>
       <r>   -38.8551     0.0000   288.0000 </r>
       <r>   -38.5952     0.0000   288.0000 </r>
       <r>   -38.3353     0.0000   288.0000 </r>
       <r>   -38.0753     0.0000   288.0000 </r>
       <r>   -37.8154     0.0000   288.0000 </r>
       <r>   -37.5555     0.0000   288.0000 </r>
       <r>   -37.2956     0.0000   288.0000 </r>
       <r>   -37.0356     0.0000   288.0000 </r>
       <r>   -36.7757     0.0000   288.0000 </r>
       <r>   -36.5158     0.0000   288.0000 </r>
       <r>   -36.2559     0.0000   288.0000 </r>
       <r>   -35.9960     0.0000   288.0000 </r>
       <r>   -35.7360     0.0000   288.0000 </r>
       <r>   -35.4761     0.0000   288.0000 </r>
       <r>   -35.2162     0.0000   288.0000 </r>
       <r>   -34.9563     0.0000   288.0000 </r>
       <r>   -34.6964     0.0000   288.0000 </r>
       <r>   -34.4364     0.0000   288.0000 </r>
       <r>   -34.1765     0.0000   288.0000 </r>
       <r>   -33.9166     0.0000   288.0000 </r>
       <r>   -33.6567     0.0000   288.0000 </r>
       <r>   -33.3968     0.0000   288.0000 </r>
       <r>   -33.1368     0.0000   288.0000 </r>
       <r>   -32.8769     0.0000   288.0000 </r>
       <r>   -32.6170     0.0000   288.0000 </r>
       <r>   -32.3571     0.0000   288.0000 </r>
       <r>   -32.0972     0.0000   288.0000 </r>
       <r>   -31.8372     0.0000   288.0000 </r>
       <r>   -31.5773     0.0000   288.0000 </r>
       <r>   -31.3174     0.0000   288.0000 </r>
       <r>   -31.0575     0.0000   288.0000 </r>
       <r>   -30.7976     0.0000   288.0000 </r>
       <r>   -30.5376     0.0000   288.0000 </r>
       <r>   -30.2777     0.0000   288.0000 </r>
       <r>   -30.0178     0.0000   288.0000 </r>
       <r>   -29.7579     0.0000   288.0000 </r>
       <r>   -29.4980     0.0000   288.0000 </r>
       <r>   -29.2380     0.0000   288.0000 </r>
       <r>   -28.9781     0.0000   288.0000 </r>
       <r>   -28.7182     0.0000   288.0000 </r>
       <r>   -28.4583     0.0000   288.0000 </r>
       <r>   -28.1984     0.0000   288.0000 </r>
       <r>   -27.9384     0.0000   288.0000 </r>
       <r>   -27.6785     0.0000   288.0000 </r>
       <r>   -27.4186     0.0000   288.0000 </r>
       <r>   -27.1587     0.0000   288.0000 </r>
       <r>   -26.8987     0.0000   288.0000 </r>
       <r>   -26.6388     0.0000   288.0000 </r>
       <r>   -26.3789     0.0000   288.0000 </r>
       <r>   -26.1190     0.0000   288.0000 </r>
       <r>   -25.8591     0.0000   288.0000 </r>
       <r>   -25.5991     0.0000   288.0000 </r>
       <r>   -25.3392     0.0000   288.0000 </r>
       <r>   -25.0793     0.0000   288.0000 </r>
       <r>   -24.8194     0.0000   288.0000 </r>
       <r>   -24.5595     0.0000   288.0000 </r>
       <r>   -24.2995     0.0000   288.0000 </r>
       <r>   -24.0396     0.0000   288.0000 </r>
       <r>   -23.7797     0.0000   288.0000 </r>
       <r>   -23.5198     0.0000   288.0000 </r>
       <r>   -23.2599     0.0000   288.0000 </r>
       <r>   -22.9999     0.0000   288.0000 </r>
       <r>   -22.7400     0.0000   288.0000 </r>
       <r>   -22.4801     0.0000   288.0000 </r>
       <r>   -22.2202     0.0000   288.0000 </r>
       <r>   -21.9603     0.0000   288.0000 </r>
       <r>   -21.7003     0.0000   288.0000 </r>
       <r>   -21.4404     0.0000   288.0000 </r>
       <r>   -21.1805     0.0000   288.0000 </r>
       <r>   -20.9206     0.0000   288.0000 </r>
       <r>   -20.6607     0.0000   288.0000 </r>
       <r>   -20.4007     0.0000   288.0000 </r>
       <r>   -20.1408     0.0000   288.0000 </r>
       <r>   -19.8809     0.0000   288.0000 </r>
       <r>   -19.6210     0.0000   288.0000 </r>
       <r>   -19.3611     0.0000   288.0000 </r>
       <r>   -19.1011     0.0000   288.0000 </r>
       <r>   -18.8412     0.0000   288.0000 </r>
       <r>   -18.5813     0.0000   288.0000 </r>
       <r>   -18.3214     0.0000   288.0000 </r>
       <r>   -18.0615     0.0000   288.0000 </r>
       <r>   -17.8015     0.0000   288.0000 </r>
       <r>   -17.5416     0.0000   288.0000 </r>
       <r>   -17.2817     0.0000   288.0000 </r>
       <r>   -17.0218     0.0000   288.0000 </r>
       <r>   -16.7618     0.0000   288.0000 </r>
       <r>   -16.5019     0.0000   288.0000 </r>
       <r>   -16.2420     0.0000   288.0000 </r>
       <r>   -15.9821     0.0000   288.0000 </r>
       <r>   -15.7222     0.0000   288.0000 </r>
       <r>   -15.4622     0.0000   288.0000 </r>
       <r>   -15.2023     0.0000   288.0000 </r>
       <r>   -14.9424     0.0032   288.0008 </r>
       <r>   -14.6825     0.5163   288.1350 </r>
       <r>   -14.4226     5.1257   289.4673 </r>
       <r>   -14.1626     7.4920   291.4146 </r>
       <r>   -13.9027     5.3366   292.8017 </r>
       <r>   -13.6428    19.8358   297.9575 </r>
       <r>   -13.3829    31.3077   306.0950 </r>
       <r>   -13.1230    27.7765   313.3146 </r>
       <r>   -12.8630    23.3112   319.3737 </r>
       <r>   -12.6031    39.1303   329.5445 </r>
       <r>   -12.3432    50.8229   342.7544 </r>
       <r>   -12.0833    42.9992   353.9308 </r>
       <r>   -11.8234    37.5868   363.7003 </r>
       <r>   -11.5634    40.0048   374.0984 </r>
       <r>   -11.3035    27.2236   381.1744 </r>
       <r>   -11.0436     9.8655   383.7386 </r>
       <r>   -10.7837     0.9970   383.9978 </r>
       <r>   -10.5238     0.0086   384.0000 </r>
       <r>   -10.2638     0.0000   384.0000 </r>
       <r>   -10.0039     0.0000   384.0000 </r>
       <r>    -9.7440     0.0000   384.0000 </r>
       <r>    -9.4841     0.0000   384.0000 </r>
       <r>    -9.2242     0.0000   384.0000 </r>
       <r>    -8.9642     0.0000   384.0000 </r>
       <r>    -8.7043     0.0000   384.0000 </r>
       <r>    -8.4444     0.0000   384.0000 </r>
       <r>    -8.1845     0.0000   384.0000 </r>
       <r>    -7.9246     0.0000   384.0000 </r>
       <r>    -7.6646     0.0000   384.0000 </r>
       <r>    -7.4047     0.0000   384.0000 </r>
       <r>    -7.1448     0.0000   384.0000 </r>
       <r>    -6.8849     0.0036   384.0009 </r>
       <r>    -6.6249     0.6572   384.1717 </r>
       <r>    -6.3650     9.2127   386.5663 </r>
       <r>    -6.1051    23.2896   392.6197 </r>
       <r>    -5.8452    27.9463   399.8836 </r>
       <r>    -5.5853    25.7395   406.5738 </r>
       <r>    -5.3253    43.2147   417.8062 </r>
       <r>    -5.0654    60.8737   433.6285 </r>
       <r>    -4.8055    65.2234   450.5814 </r>
       <r>    -4.5456    56.3334   465.2236 </r>
       <r>    -4.2857    54.9840   479.5151 </r>
       <r>    -4.0257    64.5033   496.2808 </r>
       <r>    -3.7658    68.3999   514.0593 </r>
       <r>    -3.5059    79.0722   534.6118 </r>
       <r>    -3.2460    90.2940   558.0811 </r>
       <r>    -2.9861    82.3456   579.4844 </r>
       <r>    -2.7261    81.9707   600.7902 </r>
       <r>    -2.4662    78.7175   621.2505 </r>
       <r>    -2.2063    74.0649   640.5015 </r>
       <r>    -1.9464    56.2514   655.1224 </r>
       <r>    -1.6865    62.1300   671.2713 </r>
       <r>    -1.4265    83.2313   692.9048 </r>
       <r>    -1.1666    95.4743   717.7205 </r>
       <r>    -0.9067   113.4255   747.2021 </r>
       <r>    -0.6468   139.6826   783.5085 </r>
       <r>    -0.3869   160.2420   825.1587 </r>
       <r>    -0.1269   178.1279   871.4578 </r>
       <r>     0.1330   178.7864   917.9280 </r>
       <r>     0.3929   147.4246   956.2467 </r>
       <r>     0.6528   112.2742   985.4291 </r>
       <r>     0.9127    81.8142  1006.6943 </r>
       <r>     1.1727    74.8348  1026.1454 </r>
       <r>     1.4326    70.2959  1044.4167 </r>
       <r>     1.6925    64.4292  1061.1632 </r>
       <r>     1.9524    54.9665  1075.4501 </r>
       <r>     2.2123    66.2198  1092.6620 </r>
       <r>     2.4723    72.6510  1111.5455 </r>
       <r>     2.7322    61.7142  1127.5863 </r>
       <r>     2.9921    49.6994  1140.5042 </r>
       <r>     3.2520    29.0632  1148.0583 </r>
       <r>     3.5120    13.3244  1151.5216 </r>
       <r>     3.7719     2.2747  1152.1128 </r>
       <r>     4.0318     4.2513  1153.2178 </r>
       <r>     4.2917     3.0332  1154.0062 </r>
       <r>     4.5516     5.3351  1155.3929 </r>
       <r>     4.8116    17.6901  1159.9909 </r>
       <r>     5.0715    16.3144  1164.2314 </r>
       <r>     5.3314    16.1385  1168.4261 </r>
       <r>     5.5913    16.5832  1172.7364 </r>
       <r>     5.8512    29.4417  1180.3889 </r>
       <r>     6.1112    34.2957  1189.3031 </r>
       <r>     6.3711    30.8866  1197.3311 </r>
       <r>     6.6310    35.2421  1206.4913 </r>
       <r>     6.8909    45.1865  1218.2362 </r>
       <r>     7.1508    52.5034  1231.8829 </r>
       <r>     7.4108    50.4758  1245.0026 </r>
       <r>     7.6707    55.4487  1259.4148 </r>
       <r>     7.9306    30.2044  1267.2656 </r>
       <r>     8.1905     2.8053  1267.9947 </r>
       <r>     8.4504     0.0202  1268.0000 </r>
       <r>     8.7104     0.0000  1268.0000 </r>
       <r>     8.9703     0.0000  1268.0000 </r>
       <r>     9.2302     0.0000  1268.0000 </r>
       <r>     9.4901     0.0000  1268.0000 </r>
       <r>     9.7500     0.0000  1268.0000 </r>
       <r>    10.0100     0.0000  1268.0000 </r>
       <r>    10.2699     0.0000  1268.0000 </r>
       <r>    10.5298     0.0000  1268.0000 </r>
       <r>    10.7897     0.0000  1268.0000 </r>
       <r>    11.0496     0.0000  1268.0000 </r>
       <r>    11.3096     0.0000  1268.0000 </r>
      </set>
     </set>
    </array>
   </total>
  </dos>
 </calculation>
 <structure name="finalpos" >
  <crystal>
   <varray name="basis" >
    <v>      11.25646304       0.00000000       0.00000000 </v>
    <v>       5.04456212      10.06282034       0.00000000 </v>
    <v>       0.00000000       0.00000000      22.51995597 </v>
   </varray>
   <i name="volume">   2550.87516496 </i>
   <varray name="rec_basis" >
    <v>       0.08883785      -0.04453504       0.00000000 </v>
    <v>       0.00000000       0.09937572       0.00000000 </v>
    <v>       0.00000000       0.00000000       0.04440506 </v>
   </varray>
  </crystal>
  <varray name="positions" >
   <v>       0.26092069       0.47878037       0.29519774 </v>
   <v>       0.35488056       0.38482050       0.42557357 </v>
   <v>       0.16696082       0.07274025       0.16482191 </v>
   <v>       0.02487856       0.06608722       0.49478187 </v>
   <v>       0.22644617       0.51881337       0.05313089 </v>
   <v>       0.27423906       0.33335901       0.13037583 </v>
   <v>       0.36819893       0.23939914       0.26075166 </v>
   <v>       0.46215879       0.14543927       0.39112749 </v>
   <v>       0.00030194       0.37150214       0.26075166 </v>
   <v>       0.09426180       0.27754227       0.39112749 </v>
   <v>       0.18930544       0.20747250       0.49356307 </v>
   <v>       0.40634206       0.46546200       0.13037583 </v>
   <v>       0.21498634       0.02786434       0.05772946 </v>
   <v>       0.76092069       0.47878037       0.29519774 </v>
   <v>       0.85488056       0.38482050       0.42557357 </v>
   <v>       0.66696082       0.07274025       0.16482191 </v>
   <v>       0.52953079       0.05938941       0.49531077 </v>
   <v>       0.73262281       0.51251932       0.05370223 </v>
   <v>       0.77423906       0.33335901       0.13037583 </v>
   <v>       0.86819893       0.23939914       0.26075166 </v>
   <v>       0.96215879       0.14543927       0.39112749 </v>
   <v>       0.50030194       0.37150214       0.26075166 </v>
   <v>       0.59426180       0.27754227       0.39112749 </v>
   <v>       0.68297697       0.20966892       0.49470086 </v>
   <v>       0.90634206       0.46546200       0.13037583 </v>
   <v>       0.26092069       0.97878037       0.29519774 </v>
   <v>       0.35488056       0.88482051       0.42557357 </v>
   <v>       0.54553522       0.69073531       0.48660651 </v>
   <v>       0.03312438       0.72779824       0.08983645 </v>
   <v>       0.16696083       0.57274025       0.16482191 </v>
   <v>       0.17473867       0.82685562       0.04095713 </v>
   <v>       0.27423906       0.83335901       0.13037583 </v>
   <v>       0.36819893       0.73939914       0.26075166 </v>
   <v>       0.46215879       0.64543927       0.39112749 </v>
   <v>       0.00030194       0.87150214       0.26075166 </v>
   <v>       0.09426180       0.77754227       0.39112749 </v>
   <v>       0.40634206       0.96546200       0.13037583 </v>
   <v>       0.76092069       0.97878037       0.29519774 </v>
   <v>       0.85488056       0.88482051       0.42557357 </v>
   <v>       0.53241768       0.70260874       0.09093378 </v>
   <v>       0.66696083       0.57274025       0.16482191 </v>
   <v>       0.77423906       0.83335901       0.13037583 </v>
   <v>       0.86819893       0.73939914       0.26075166 </v>
   <v>       0.96215879       0.64543927       0.39112749 </v>
   <v>       0.50030194       0.87150214       0.26075166 </v>
   <v>       0.59426180       0.77754227       0.39112749 </v>
   <v>       0.73570449       0.75881275       0.46976663 </v>
   <v>       0.90634206       0.96546200       0.13037583 </v>
   <v>       0.07287763       0.16682345       0.31134757 </v>
   <v>       0.16683750       0.07286358       0.44172340 </v>
   <v>       0.39306103       0.34670507       0.06437320 </v>
   <v>       0.47891775       0.26078331       0.18097174 </v>
   <v>       0.02013748       0.36871971       0.47164249 </v>
   <v>       0.43627354       0.47164252       0.35520991 </v>
   <v>       0.25790713       0.15728442       0.10802502 </v>
   <v>       0.34231367       0.06560240       0.22483408 </v>
   <v>       0.08013881       0.49134726       0.09445824 </v>
   <v>       0.17409868       0.39738739       0.22483408 </v>
   <v>       0.26805854       0.30342752       0.35520991 </v>
   <v>       0.35927408       0.22335463       0.47276161 </v>
   <v>       0.57287763       0.16682345       0.31134757 </v>
   <v>       0.66683750       0.07286358       0.44172340 </v>
   <v>       0.89878716       0.34110302       0.06497751 </v>
   <v>       0.97891775       0.26078331       0.18097174 </v>
   <v>       0.51835582       0.37378724       0.47082720 </v>
   <v>       0.93627354       0.47164252       0.35520991 </v>
   <v>       0.75866389       0.15822030       0.11280526 </v>
   <v>       0.84231367       0.06560240       0.22483408 </v>
   <v>       0.58013881       0.49134726       0.09445824 </v>
   <v>       0.67409868       0.39738739       0.22483408 </v>
   <v>       0.76805854       0.30342752       0.35520991 </v>
   <v>       0.85261759       0.22474893       0.47178940 </v>
   <v>       0.07287763       0.66682345       0.31134757 </v>
   <v>       0.17046496       0.57305807       0.41518970 </v>
   <v>       0.38495788       0.85474318       0.05059590 </v>
   <v>       0.47891775       0.76078331       0.18097174 </v>
   <v>       0.01973672       0.89708739       0.46565030 </v>
   <v>       0.43627354       0.97164252       0.35520991 </v>
   <v>       0.24706064       0.66524244       0.10130691 </v>
   <v>       0.34231367       0.56560240       0.22483408 </v>
   <v>       0.08102327       0.97994782       0.10229734 </v>
   <v>       0.17409868       0.89738739       0.22483408 </v>
   <v>       0.26805854       0.80342752       0.35520991 </v>
   <v>       0.35827461       0.72155147       0.46825962 </v>
   <v>       0.57287763       0.66682345       0.31134757 </v>
   <v>       0.71294763       0.59291254       0.43578917 </v>
   <v>       0.86005135       0.87909957       0.05929000 </v>
   <v>       0.97891775       0.76078331       0.18097174 </v>
   <v>       0.53023342       0.87768265       0.48558574 </v>
   <v>       0.93627354       0.97164252       0.35520991 </v>
   <v>       0.74422678       0.66219480       0.10342964 </v>
   <v>       0.84231367       0.56560240       0.22483408 </v>
   <v>       0.58255669       0.98032923       0.11220012 </v>
   <v>       0.67409868       0.89738739       0.22483408 </v>
   <v>       0.76805854       0.80342752       0.35520991 </v>
   <v>       0.92932441       0.71306639       0.47675955 </v>
  </varray>
 </structure>
</modeling>
