
72 atoms
2 atom types
   0.0000000000   10.0797329849 xlo xhi
   0.0000000000    9.4251025535 ylo yhi
   0.0000000000   20.1902626728 zlo zhi
   3.5732980427    0.0000000000    0.0000000000 xy xz yz

Atoms # atomic

     1      1    6.4580091290    7.0816658464    1.9507675320
     2      1    7.4357214262    5.6653697102    4.5762699190
     3      1    8.4134337299    4.2490735646    7.2017723261
     4      1    9.3911460270    2.8327774285    9.8272747131
     5      1    6.7839132297    1.7424615744    0.2004325939
     6      1    7.7616255233    0.3261654288    2.8259350010
     7      1    3.2106151820    6.9186757006    8.0769397951
     8      1   12.3126358733    8.3349718462    5.4514373880
     9      1    2.5588069856    2.9957675648    3.7011024701
    10      1    3.5365192828    1.5794714287    6.3266048571
    11      1    4.5142315799    0.1631752925    8.9521072440
    12      1   11.6608276667    4.4120637104    1.0756000629
    13      1    0.5138172819    1.0909966575    8.4399277473
    14      1    7.6604133687    5.3398850754    0.5634205662
    15      1    8.6381256659    3.9235889392    3.1889229532
    16      1    9.6158379595    2.5072927936    5.8144253402
    17      1    3.4353071181    6.5931910752    4.0640904222
    18      1    4.4130194253    5.1768949390    6.6895928092
    19      1    5.3907317189    3.7605987935    9.3150952164
    20      1   12.5373278057    8.0094872114    1.4385880353
    21      1    3.7612112188    1.2539868032    2.3137554842
    22      1    8.3122215652    9.2627932112    4.9392578913
    23      1    9.2899338624    7.8464970750    7.5647602783
    24      1   10.2676461660    6.4302009294   10.1902626652
    25      1    1.7162215131    3.2069713609    9.1336012302
    26      1    8.8628176034    7.4558597882    1.2570940491
    27      1    9.8405299071    6.0395636427    3.8825964361
    28      1   10.8182422043    4.6232675065    6.5080988432
    29      1   10.1664340078    0.7003593707    2.1322615182
    30      1    4.6377113593    8.7091657786    4.7577639051
    31      1    5.6154236565    7.2928696425    7.3832662921
    32      1    6.5931359637    5.8765735063   10.0087686992
    33      1    3.9859031628    4.7862576428    0.3819265801
    34      1    4.9636154600    3.3699615067    3.0074289670
    35      1    5.9413277572    1.9536653705    5.6329313742
    36      1    6.9190400609    0.5373692249    8.2584337611
    37      2    1.5798113854    2.4701759292    7.0013397120
    38      2    2.5575236891    1.0538797836    9.6268421192
    39      2    9.7041197694    5.3027682110    1.7503349381
    40      2   10.6818320731    3.8864720654    4.3758373251
    41      2    4.5013012317    7.9723703470    2.6255023870
    42      2    5.4790135253    6.5560742014    5.2510047941
    43      2    6.4567258325    5.1397780652    7.8765071811
    44      2   13.6033219093    9.3886664831    0.0000000000
    45      2    4.8272053288    2.6331660656    0.8751674690
    46      2    5.8049176260    1.2168699294    3.5006698560
    47      2   10.3559279724    9.2256763374    6.1261722430
    48      2   11.3336402696    7.8093802012    8.7516746501
    49      2    7.1953110610    8.9369825809    0.8914280807
    50      2    8.1730233647    7.5206864353    3.5169304677
    51      2    9.1507356619    6.1043902991    6.1424328546
    52      2   10.1284479555    4.6880941536    8.7679352618
    53      2    8.4989274654    2.1814821634    1.7665955498
    54      2    9.4766397590    0.7651860178    4.3920979367
    55      2    3.9479171141    8.7739924351    7.0176003237
    56      2    4.9256294213    7.3576962990    9.6431027308
    57      2    3.2961089176    4.8510842993    2.6417629986
    58      2    4.2738212249    3.4347881632    5.2672654058
    59      2    5.2515335185    2.0184920176    7.8927677927
    60      2   12.3981296053    6.2673804355    0.0162606117
    61      2    5.6642146556    6.2425798333    0.0081302957
    62      2    6.6419269528    4.8262836971    2.6336327029
    63      2    7.6196392464    3.4099875515    5.2591350898
    64      2    8.5973515536    1.9936914153    7.8846374970
    65      2    2.4168207122    6.0795896969    6.1343025589
    66      2    3.3945330058    4.6632935513    8.7598049459
    67      2   10.5411290926    8.9121819693    0.8832977648
    68      2   11.5188413898    7.4958858331    3.5088001719
    69      2    1.7650125057    2.1566815611    1.7584652338
    70      2    2.7427248093    0.7403854155    4.3839676208
    71      2    7.2937351492    8.7491918329    7.0094700279
    72      2    8.2714474529    7.3328956873    9.6349724149
