<?xml version="1.0" encoding="ISO-8859-1"?>
<modeling>
 <generator>
  <i name="program" type="string">vasp </i>
  <i name="version" type="string">6.1.0  </i>
  <i name="subversion" type="string">28Jan20 (build Mar 31 2020 17:42:31) gamma-only                       parallel </i>
  <i name="platform" type="string">LinuxIFC </i>
  <i name="date" type="string">2020 04 13 </i>
  <i name="time" type="string">02:37:59 </i>
 </generator>
 <incar>
  <i type="string" name="SYSTEM">"Millerite NiS"</i>
  <i type="int" name="NSIM">     4</i>
  <i type="int" name="NELM">   100</i>
  <i name="ENCUT">    450.00000000</i>
  <i type="string" name="LREAL">A</i>
  <i type="int" name="ISMEAR">     0</i>
  <i type="int" name="NWRITE">     2</i>
  <i type="logical" name="LWAVE"> F  </i>
  <i type="logical" name="LCHARG"> F  </i>
  <i type="int" name="NCORE">     6</i>
  <i type="int" name="NELM">   100</i>
 </incar>
 <structure name="primitive_cell" >
  <crystal>
   <varray name="basis" >
    <v>       9.57841000       0.00000000       0.00000000 </v>
    <v>       0.00000000      11.25646304       0.00000000 </v>
    <v>       0.00000000       0.00000000      17.71135890 </v>
   </varray>
   <i name="volume">   1909.62132631 </i>
   <varray name="rec_basis" >
    <v>       0.10440146       0.00000000       0.00000000 </v>
    <v>       0.00000000       0.08883785       0.00000000 </v>
    <v>       0.00000000       0.00000000       0.05646094 </v>
   </varray>
  </crystal>
  <varray name="positions" >
   <v>       0.08076718       0.43119705       0.01320290 </v>
   <v>       0.08076718       0.37934512       0.18735913 </v>
   <v>       0.08076718       0.32749318       0.36151537 </v>
   <v>       0.58076718       0.15527109       0.10028102 </v>
   <v>       0.58076718       0.10341916       0.27443725 </v>
   <v>       0.21287018       0.18804042       0.16435257 </v>
   <v>       0.21287018       0.13618848       0.33850881 </v>
   <v>       0.71287018       0.46396638       0.07727446 </v>
   <v>       0.71287018       0.41211444       0.25143069 </v>
   <v>       0.71287018       0.36026251       0.42558692 </v>
   <v>       0.34497318       0.43119705       0.01320290 </v>
   <v>       0.34497318       0.37934512       0.18735913 </v>
   <v>       0.34497318       0.32749318       0.36151537 </v>
   <v>       0.84497318       0.15527109       0.10028102 </v>
   <v>       0.84497318       0.10341916       0.27443725 </v>
   <v>       0.08076718       0.93119705       0.01320290 </v>
   <v>       0.08076718       0.87934512       0.18735913 </v>
   <v>       0.08076718       0.82749318       0.36151537 </v>
   <v>       0.58076718       0.65527109       0.10028102 </v>
   <v>       0.58076718       0.60341916       0.27443725 </v>
   <v>       0.21287018       0.68804042       0.16435257 </v>
   <v>       0.21287018       0.63618848       0.33850881 </v>
   <v>       0.71287018       0.96396638       0.07727446 </v>
   <v>       0.71287018       0.91211444       0.25143069 </v>
   <v>       0.71287018       0.86026251       0.42558692 </v>
   <v>       0.34497318       0.93119705       0.01320290 </v>
   <v>       0.34497318       0.87934512       0.18735913 </v>
   <v>       0.34497318       0.82749318       0.36151537 </v>
   <v>       0.84497318       0.65527109       0.10028102 </v>
   <v>       0.84497318       0.60341916       0.27443725 </v>
   <v>       0.38108518       0.20719108       0.26123435 </v>
   <v>       0.38108518       0.15533915       0.43539058 </v>
   <v>       0.88108518       0.48311704       0.17415623 </v>
   <v>       0.88108518       0.43126511       0.34831247 </v>
   <v>       0.88108518       0.03496899       0.00000000 </v>
   <v>       0.21287018       0.45079130       0.29053004 </v>
   <v>       0.21287018       0.00264325       0.11637381 </v>
   <v>       0.71287018       0.27856921       0.02929569 </v>
   <v>       0.71287018       0.22671728       0.20345193 </v>
   <v>       0.71287018       0.17486534       0.37760816 </v>
   <v>       0.04465518       0.25904302       0.08707812 </v>
   <v>       0.04465518       0.20719108       0.26123435 </v>
   <v>       0.04465518       0.15533915       0.43539058 </v>
   <v>       0.54465518       0.48311704       0.17415623 </v>
   <v>       0.54465518       0.43126511       0.34831247 </v>
   <v>       0.38108518       0.75904302       0.08707812 </v>
   <v>       0.38108518       0.70719108       0.26123435 </v>
   <v>       0.38108518       0.65533915       0.43539058 </v>
   <v>       0.88108518       0.98311704       0.17415623 </v>
   <v>       0.88108518       0.93126511       0.34831247 </v>
   <v>       0.88108518       0.53496899       0.00000000 </v>
   <v>       0.21287018       0.95079130       0.29053004 </v>
   <v>       0.21287018       0.50264325       0.11637381 </v>
   <v>       0.71287018       0.77856921       0.02929569 </v>
   <v>       0.71287018       0.72671728       0.20345193 </v>
   <v>       0.04465518       0.75904302       0.08707812 </v>
   <v>       0.04465518       0.70719108       0.26123435 </v>
   <v>       0.04465518       0.65533915       0.43539058 </v>
   <v>       0.54465518       0.98311704       0.17415623 </v>
   <v>       0.54465518       0.93126511       0.34831247 </v>
  </varray>
 </structure>
 <varray name="primitive_index" >
  <v type="int" >        1 </v>
  <v type="int" >        2 </v>
  <v type="int" >        3 </v>
  <v type="int" >        4 </v>
  <v type="int" >        5 </v>
  <v type="int" >        6 </v>
  <v type="int" >        7 </v>
  <v type="int" >        8 </v>
  <v type="int" >        9 </v>
  <v type="int" >       10 </v>
  <v type="int" >       11 </v>
  <v type="int" >       12 </v>
  <v type="int" >       13 </v>
  <v type="int" >       14 </v>
  <v type="int" >       15 </v>
  <v type="int" >       16 </v>
  <v type="int" >       17 </v>
  <v type="int" >       18 </v>
  <v type="int" >       19 </v>
  <v type="int" >       20 </v>
  <v type="int" >       21 </v>
  <v type="int" >       22 </v>
  <v type="int" >       23 </v>
  <v type="int" >       24 </v>
  <v type="int" >       25 </v>
  <v type="int" >       26 </v>
  <v type="int" >       27 </v>
  <v type="int" >       28 </v>
  <v type="int" >       29 </v>
  <v type="int" >       30 </v>
  <v type="int" >       31 </v>
  <v type="int" >       32 </v>
  <v type="int" >       33 </v>
  <v type="int" >       34 </v>
  <v type="int" >       35 </v>
  <v type="int" >       36 </v>
  <v type="int" >       37 </v>
  <v type="int" >       38 </v>
  <v type="int" >       39 </v>
  <v type="int" >       40 </v>
  <v type="int" >       41 </v>
  <v type="int" >       42 </v>
  <v type="int" >       43 </v>
  <v type="int" >       44 </v>
  <v type="int" >       45 </v>
  <v type="int" >       46 </v>
  <v type="int" >       47 </v>
  <v type="int" >       48 </v>
  <v type="int" >       49 </v>
  <v type="int" >       50 </v>
  <v type="int" >       51 </v>
  <v type="int" >       52 </v>
  <v type="int" >       53 </v>
  <v type="int" >       54 </v>
  <v type="int" >       55 </v>
  <v type="int" >       56 </v>
  <v type="int" >       57 </v>
  <v type="int" >       58 </v>
  <v type="int" >       59 </v>
  <v type="int" >       60 </v>
 </varray>
 <kpoints>
  <generation param="Gamma">
   <v type="int" name="divisions">       1        1        1 </v>
   <v name="usershift">      0.00000000       0.00000000       0.00000000 </v>
   <v name="genvec1">      1.00000000       0.00000000       0.00000000 </v>
   <v name="genvec2">      0.00000000       1.00000000       0.00000000 </v>
   <v name="genvec3">      0.00000000       0.00000000       1.00000000 </v>
   <v name="shift">      0.00000000       0.00000000       0.00000000 </v>
  </generation>
  <varray name="kpointlist" >
   <v>       0.00000000       0.00000000       0.00000000 </v>
  </varray>
  <varray name="weights" >
   <v>       1.00000000 </v>
  </varray>
 </kpoints>
 <parameters>
  <separator name="general" >
   <i type="string" name="SYSTEM">"Millerite NiS"</i>
   <i type="logical" name="LCOMPAT"> F  </i>
  </separator>
  <separator name="electronic" >
   <i type="string" name="PREC">normal</i>
   <i name="ENMAX">    450.00000000</i>
   <i name="ENAUG">    703.44300000</i>
   <i name="EDIFF">      0.00010000</i>
   <i type="int" name="IALGO">    38</i>
   <i type="int" name="IWAVPR">    10</i>
   <i type="int" name="NBANDS">   400</i>
   <i type="int" name="NBANDSLOW">    -1</i>
   <i type="int" name="NBANDSHIGH">    -1</i>
   <i name="NELECT">    660.00000000</i>
   <i type="int" name="TURBO">     0</i>
   <i type="int" name="IRESTART">     0</i>
   <i type="int" name="NREBOOT">     0</i>
   <i type="int" name="NMIN">     0</i>
   <i name="EREF">      0.00000000</i>
   <separator name="electronic smearing" >
    <i type="int" name="ISMEAR">     0</i>
    <i name="SIGMA">      0.20000000</i>
    <i name="KSPACING">      0.50000000</i>
    <i type="logical" name="KGAMMA"> T  </i>
    <i type="logical" name="KBLOWUP"> T  </i>
   </separator>
   <separator name="electronic projectors" >
    <i type="logical" name="LREAL"> T  </i>
    <v name="ROPT">     -0.00050000     -0.00050000</v>
    <i type="int" name="LMAXPAW">  -100</i>
    <i type="int" name="LMAXMIX">     2</i>
    <i type="logical" name="NLSPLINE"> F  </i>
   </separator>
   <separator name="electronic startup" >
    <i type="int" name="ISTART">     0</i>
    <i type="int" name="ICHARG">     2</i>
    <i type="int" name="INIWAV">     1</i>
   </separator>
   <separator name="electronic spin" >
    <i type="int" name="ISPIN">     1</i>
    <i type="logical" name="LNONCOLLINEAR"> F  </i>
    <v name="MAGMOM">      1.00000000      1.00000000      1.00000000      1.00000000      1.00000000      1.00000000      1.00000000      1.00000000      1.00000000      1.00000000      1.00000000      1.00000000      1.00000000      1.00000000      1.00000000      1.00000000      1.00000000      1.00000000      1.00000000      1.00000000
      1.00000000      1.00000000      1.00000000      1.00000000      1.00000000      1.00000000      1.00000000      1.00000000      1.00000000      1.00000000      1.00000000      1.00000000      1.00000000      1.00000000      1.00000000      1.00000000      1.00000000      1.00000000      1.00000000      1.00000000
      1.00000000      1.00000000      1.00000000      1.00000000      1.00000000      1.00000000      1.00000000      1.00000000      1.00000000      1.00000000      1.00000000      1.00000000      1.00000000      1.00000000      1.00000000      1.00000000      1.00000000      1.00000000      1.00000000      1.00000000
</v>
    <i name="NUPDOWN">     -1.00000000</i>
    <i type="logical" name="LSORBIT"> F  </i>
    <v name="SAXIS">      0.00000000      0.00000000      1.00000000</v>
    <i type="logical" name="LSPIRAL"> F  </i>
    <v name="QSPIRAL">      0.00000000      0.00000000      0.00000000</v>
    <i type="logical" name="LZEROZ"> F  </i>
   </separator>
   <separator name="electronic exchange-correlation" >
    <i type="logical" name="LASPH"> F  </i>
    <i type="logical" name="LMETAGGA"> F  </i>
   </separator>
   <separator name="electronic convergence" >
    <i type="int" name="NELM">   100</i>
    <i type="int" name="NELMDL">    -5</i>
    <i type="int" name="NELMIN">     2</i>
    <i name="ENINI">    450.00000000</i>
    <separator name="electronic convergence detail" >
     <i type="logical" name="LDIAG"> T  </i>
     <i type="logical" name="LSUBROT"> F  </i>
     <i name="WEIMIN">      0.00000000</i>
     <i name="EBREAK">      0.00000006</i>
     <i name="DEPER">      0.30000000</i>
     <i type="int" name="NRMM">     4</i>
     <i name="TIME">      0.40000000</i>
    </separator>
   </separator>
   <separator name="electronic mixer" >
    <i name="AMIX">      0.40000000</i>
    <i name="BMIX">      1.00000000</i>
    <i name="AMIN">      0.10000000</i>
    <i name="AMIX_MAG">      1.60000000</i>
    <i name="BMIX_MAG">      1.00000000</i>
    <separator name="electronic mixer details" >
     <i type="int" name="IMIX">     4</i>
     <i type="logical" name="MIXFIRST"> F  </i>
     <i type="int" name="MAXMIX">   -45</i>
     <i name="WC">    100.00000000</i>
     <i type="int" name="INIMIX">     1</i>
     <i type="int" name="MIXPRE">     1</i>
     <i type="int" name="MREMOVE">     5</i>
    </separator>
   </separator>
   <separator name="electronic dipolcorrection" >
    <i type="logical" name="LDIPOL"> F  </i>
    <i type="logical" name="LMONO"> F  </i>
    <i type="int" name="IDIPOL">     0</i>
    <i name="EPSILON">      1.00000000</i>
    <v name="DIPOL">   -100.00000000   -100.00000000   -100.00000000</v>
    <i name="EFIELD">      0.00000000</i>
   </separator>
  </separator>
  <separator name="grids" >
   <i type="int" name="NGX">    50</i>
   <i type="int" name="NGY">    60</i>
   <i type="int" name="NGZ">    96</i>
   <i type="int" name="NGXF">   100</i>
   <i type="int" name="NGYF">   120</i>
   <i type="int" name="NGZF">   192</i>
   <i type="logical" name="ADDGRID"> F  </i>
  </separator>
  <separator name="ionic" >
   <i type="int" name="NSW">     0</i>
   <i type="int" name="IBRION">    -1</i>
   <i type="int" name="MDALGO">     0</i>
   <i type="int" name="ISIF">     2</i>
   <i name="PSTRESS">      0.00000000</i>
   <i name="EDIFFG">      0.00100000</i>
   <i type="int" name="NFREE">     0</i>
   <i name="POTIM">      0.50000000</i>
   <i name="SMASS">     -3.00000000</i>
   <i name="SCALEE">      1.00000000</i>
  </separator>
  <separator name="ionic md" >
   <i name="TEBEG">      0.00010000</i>
   <i name="TEEND">      0.00010000</i>
   <i type="int" name="NBLOCK">     1</i>
   <i type="int" name="KBLOCK">     1</i>
   <i type="int" name="NPACO">   256</i>
   <i name="APACO">     16.00000000</i>
  </separator>
  <separator name="symmetry" >
   <i type="int" name="ISYM">     2</i>
   <i name="SYMPREC">      0.00001000</i>
  </separator>
  <separator name="dos" >
   <i type="int" name="LORBIT">     0</i>
   <v name="RWIGS">     -1.00000000     -1.00000000</v>
   <i type="int" name="NEDOS">   301</i>
   <i name="EMIN">     10.00000000</i>
   <i name="EMAX">    -10.00000000</i>
   <i name="EFERMI">      0.00000000</i>
  </separator>
  <separator name="writing" >
   <i type="int" name="NWRITE">     2</i>
   <i type="logical" name="LWAVE"> F  </i>
   <i type="logical" name="LDOWNSAMPLE"> F  </i>
   <i type="logical" name="LCHARG"> F  </i>
   <i type="logical" name="LPARD"> F  </i>
   <i type="logical" name="LVTOT"> F  </i>
   <i type="logical" name="LVHAR"> F  </i>
   <i type="logical" name="LELF"> F  </i>
   <i type="logical" name="LOPTICS"> F  </i>
   <v name="STM">      0.00000000      0.00000000      0.00000000      0.00000000      0.00000000      0.00000000      0.00000000</v>
  </separator>
  <separator name="performance" >
   <i type="int" name="NPAR">     8</i>
   <i type="int" name="NSIM">     4</i>
   <i type="int" name="NBLK">    -1</i>
   <i type="logical" name="LPLANE"> T  </i>
   <i type="logical" name="LSCALAPACK"> T  </i>
   <i type="logical" name="LSCAAWARE"> F  </i>
   <i type="logical" name="LSCALU"> F  </i>
   <i type="logical" name="LASYNC"> F  </i>
   <i type="logical" name="LORBITALREAL"> F  </i>
  </separator>
  <separator name="miscellaneous" >
   <i type="int" name="IDIOT">     3</i>
   <i type="int" name="PHON_NSTRUCT">    -1</i>
   <i type="logical" name="LMUSIC"> F  </i>
   <v name="POMASS">     58.69000000     32.06600000</v>
   <v name="DARWINR">      0.00000000      0.00000000</v>
   <v name="DARWINV">      1.00000000      1.00000000</v>
   <i type="logical" name="LCORR"> T  </i>
  </separator>
  <i type="logical" name="GGA_COMPAT"> T  </i>
  <i type="logical" name="LBERRY"> F  </i>
  <i type="int" name="ICORELEVEL">     0</i>
  <i type="logical" name="LDAU"> F  </i>
  <i type="int" name="I_CONSTRAINED_M">     0</i>
  <separator name="electronic exchange-correlation" >
   <i type="string" name="GGA">--</i>
   <i type="int" name="VOSKOWN">     0</i>
   <i type="logical" name="LHFCALC"> F  </i>
   <i type="string" name="PRECFOCK"></i>
   <i type="logical" name="LSYMGRAD"> F  </i>
   <i type="logical" name="LHFONE"> F  </i>
   <i type="logical" name="LRHFCALC"> F  </i>
   <i type="logical" name="LTHOMAS"> F  </i>
   <i type="logical" name="LMODELHF"> F  </i>
   <i type="logical" name="LFOCKACE"> F  </i>
   <i name="ENCUT4O">     -1.00000000</i>
   <i type="int" name="EXXOEP">     0</i>
   <i type="int" name="FOURORBIT">     0</i>
   <i name="AEXX">      0.00000000</i>
   <i name="HFALPHA">      0.00000000</i>
   <i name="MCALPHA">      0.00000000</i>
   <i name="ALDAX">      1.00000000</i>
   <i name="AGGAX">      1.00000000</i>
   <i name="ALDAC">      1.00000000</i>
   <i name="AGGAC">      1.00000000</i>
   <i type="int" name="NKREDX">     1</i>
   <i type="int" name="NKREDY">     1</i>
   <i type="int" name="NKREDZ">     1</i>
   <i type="logical" name="SHIFTRED"> F  </i>
   <i type="logical" name="ODDONLY"> F  </i>
   <i type="logical" name="EVENONLY"> F  </i>
   <i type="int" name="LMAXFOCK">     0</i>
   <i type="int" name="NMAXFOCKAE">     0</i>
   <i type="logical" name="LFOCKAEDFT"> F  </i>
   <i name="HFSCREEN">      0.00000000</i>
   <i name="HFSCREENC">      0.00000000</i>
   <i type="int" name="NBANDSGWLOW">     0</i>
  </separator>
  <separator name="vdW DFT" >
   <i type="logical" name="LUSE_VDW"> F  </i>
   <i name="Zab_VDW">     -0.84910000</i>
   <i name="PARAM1">      0.12340000</i>
   <i name="PARAM2">      1.00000000</i>
   <i name="PARAM3">      0.00000000</i>
  </separator>
  <separator name="model GW" >
   <i type="int" name="MODEL_GW">     0</i>
   <i name="MODEL_EPS0">     19.09621326</i>
   <i name="MODEL_ALPHA">      1.00000000</i>
  </separator>
  <separator name="linear response parameters" >
   <i type="logical" name="LEPSILON"> F  </i>
   <i type="logical" name="LRPA"> F  </i>
   <i type="logical" name="LNABLA"> F  </i>
   <i type="logical" name="LVEL"> F  </i>
   <i type="int" name="KINTER">     0</i>
   <i name="CSHIFT">      0.10000000</i>
   <i name="OMEGAMAX">     -1.00000000</i>
   <i name="DEG_THRESHOLD">      0.00200000</i>
   <i name="RTIME">     -0.10000000</i>
   <i name="WPLASMAI">      0.00000000</i>
   <v name="DFIELD">      0.00000000      0.00000000      0.00000000</v>
   <v name="WPLASMA">      0.00000000      0.00000000      0.00000000      0.00000000      0.00000000      0.00000000      0.00000000      0.00000000      0.00000000</v>
  </separator>
  <separator name="orbital magnetization" >
   <i type="logical" name="NUCIND"> F  </i>
   <v name="MAGPOS">      0.00000000      0.00000000      0.00000000</v>
   <i type="logical" name="LNICSALL"> T  </i>
   <i type="logical" name="ORBITALMAG"> F  </i>
   <i type="logical" name="LMAGBLOCH"> F  </i>
   <i type="logical" name="LCHIMAG"> F  </i>
   <i type="logical" name="LGAUGE"> T  </i>
   <i type="int" name="MAGATOM">     0</i>
   <v name="MAGDIPOL">      0.00000000      0.00000000      0.00000000</v>
   <v name="AVECCONST">      0.00000000      0.00000000      0.00000000</v>
  </separator>
  <separator name="response functions" >
   <i type="logical" name="LFINITE_TEMPERATURE"> F  </i>
   <i type="logical" name="LADDER"> F  </i>
   <i type="logical" name="LRPAFORCE"> F  </i>
   <i type="logical" name="LFXC"> F  </i>
   <i type="logical" name="LHARTREE"> T  </i>
   <i type="int" name="IBSE">     0</i>
   <v type="int" name="KPOINT">    -1     0     0     0</v>
   <i type="logical" name="LTCTC"> F  </i>
   <i type="logical" name="LTCTE"> F  </i>
   <i type="logical" name="LTETE"> F  </i>
   <i type="logical" name="LTRIPLET"> F  </i>
   <i type="logical" name="LFXCEPS"> F  </i>
   <i type="logical" name="LFXHEG"> F  </i>
   <i type="int" name="NATURALO">     2</i>
   <i type="logical" name="LHOLEGF"> F  </i>
   <i type="logical" name="L2ORDER"> F  </i>
   <i type="logical" name="LDMP1"> F  </i>
   <i type="logical" name="LMP2LT"> F  </i>
   <i type="logical" name="LSMP2LT"> F  </i>
   <i type="logical" name="LGWLF"> F  </i>
   <i name="ENCUTGW">     -2.00000000</i>
   <i name="ENCUTGWSOFT">     -2.00000000</i>
   <i name="ENCUTLF">     -1.00000000</i>
   <i type="logical" name="LESF_SPLINES"> F  </i>
   <i type="int" name="LMAXMP2">    -1</i>
   <i name="SCISSOR">      0.00000000</i>
   <i type="int" name="NOMEGA">     0</i>
   <i type="int" name="NOMEGAR">     0</i>
   <i type="int" name="NBANDSGW">    -1</i>
   <i type="int" name="NBANDSO">    -1</i>
   <i type="int" name="NBANDSV">    -1</i>
   <i type="int" name="NELM">   100</i>
   <i type="int" name="NELMHF">     1</i>
   <i type="int" name="DIM">     3</i>
   <i type="int" name="IESPILON">     4</i>
   <i type="int" name="ANTIRES">     0</i>
   <i name="OMEGAMAX">    -30.00000000</i>
   <i name="OMEGAMIN">    -30.00000000</i>
   <i name="OMEGATL">   -200.00000000</i>
   <i type="int" name="OMEGAGRID">     0</i>
   <i name="CSHIFT">     -0.10000000</i>
   <i type="logical" name="LSELFENERGY"> F  </i>
   <i type="logical" name="LSPECTRAL"> F  </i>
   <i type="logical" name="LSPECTRALGW"> F  </i>
   <i type="logical" name="LSINGLES"> F  </i>
   <i type="logical" name="LFERMIGW"> F  </i>
   <i type="logical" name="ODDONLYGW"> F  </i>
   <i type="logical" name="EVENONLYGW"> F  </i>
   <i type="int" name="NKREDLFX">     1</i>
   <i type="int" name="NKREDLFY">     1</i>
   <i type="int" name="NKREDLFZ">     1</i>
   <i type="int" name="MAXMEM">  2800</i>
   <i type="int" name="TELESCOPE">     0</i>
   <i type="int" name="NTAUPAR">    -1</i>
   <i type="int" name="NOMEGAPAR">    -1</i>
   <i name="LAMBDA">      1.00000000</i>
  </separator>
  <separator name="External order field" >
   <i name="OFIELD_KAPPA">      0.00000000</i>
   <v name="OFIELD_K">      0.00000000      0.00000000      0.00000000</v>
   <i name="OFIELD_Q6_NEAR">      0.00000000</i>
   <i name="OFIELD_Q6_FAR">      0.00000000</i>
   <i name="OFIELD_A">      0.00000000</i>
  </separator>
 </parameters>
 <atominfo>
  <atoms>      60 </atoms>
  <types>       2 </types>
  <array name="atoms" >
   <dimension dim="1">ion</dimension>
   <field type="string">element</field>
   <field type="int">atomtype</field>
   <set>
    <rc><c>Ni</c><c>   1</c></rc>
    <rc><c>Ni</c><c>   1</c></rc>
    <rc><c>Ni</c><c>   1</c></rc>
    <rc><c>Ni</c><c>   1</c></rc>
    <rc><c>Ni</c><c>   1</c></rc>
    <rc><c>Ni</c><c>   1</c></rc>
    <rc><c>Ni</c><c>   1</c></rc>
    <rc><c>Ni</c><c>   1</c></rc>
    <rc><c>Ni</c><c>   1</c></rc>
    <rc><c>Ni</c><c>   1</c></rc>
    <rc><c>Ni</c><c>   1</c></rc>
    <rc><c>Ni</c><c>   1</c></rc>
    <rc><c>Ni</c><c>   1</c></rc>
    <rc><c>Ni</c><c>   1</c></rc>
    <rc><c>Ni</c><c>   1</c></rc>
    <rc><c>Ni</c><c>   1</c></rc>
    <rc><c>Ni</c><c>   1</c></rc>
    <rc><c>Ni</c><c>   1</c></rc>
    <rc><c>Ni</c><c>   1</c></rc>
    <rc><c>Ni</c><c>   1</c></rc>
    <rc><c>Ni</c><c>   1</c></rc>
    <rc><c>Ni</c><c>   1</c></rc>
    <rc><c>Ni</c><c>   1</c></rc>
    <rc><c>Ni</c><c>   1</c></rc>
    <rc><c>Ni</c><c>   1</c></rc>
    <rc><c>Ni</c><c>   1</c></rc>
    <rc><c>Ni</c><c>   1</c></rc>
    <rc><c>Ni</c><c>   1</c></rc>
    <rc><c>Ni</c><c>   1</c></rc>
    <rc><c>Ni</c><c>   1</c></rc>
    <rc><c>S </c><c>   2</c></rc>
    <rc><c>S </c><c>   2</c></rc>
    <rc><c>S </c><c>   2</c></rc>
    <rc><c>S </c><c>   2</c></rc>
    <rc><c>S </c><c>   2</c></rc>
    <rc><c>S </c><c>   2</c></rc>
    <rc><c>S </c><c>   2</c></rc>
    <rc><c>S </c><c>   2</c></rc>
    <rc><c>S </c><c>   2</c></rc>
    <rc><c>S </c><c>   2</c></rc>
    <rc><c>S </c><c>   2</c></rc>
    <rc><c>S </c><c>   2</c></rc>
    <rc><c>S </c><c>   2</c></rc>
    <rc><c>S </c><c>   2</c></rc>
    <rc><c>S </c><c>   2</c></rc>
    <rc><c>S </c><c>   2</c></rc>
    <rc><c>S </c><c>   2</c></rc>
    <rc><c>S </c><c>   2</c></rc>
    <rc><c>S </c><c>   2</c></rc>
    <rc><c>S </c><c>   2</c></rc>
    <rc><c>S </c><c>   2</c></rc>
    <rc><c>S </c><c>   2</c></rc>
    <rc><c>S </c><c>   2</c></rc>
    <rc><c>S </c><c>   2</c></rc>
    <rc><c>S </c><c>   2</c></rc>
    <rc><c>S </c><c>   2</c></rc>
    <rc><c>S </c><c>   2</c></rc>
    <rc><c>S </c><c>   2</c></rc>
    <rc><c>S </c><c>   2</c></rc>
    <rc><c>S </c><c>   2</c></rc>
   </set>
  </array>
  <array name="atomtypes" >
   <dimension dim="1">type</dimension>
   <field type="int">atomspertype</field>
   <field type="string">element</field>
   <field>mass</field>
   <field>valence</field>
   <field type="string">pseudopotential</field>
   <set>
    <rc><c>  30</c><c>Ni</c><c>     58.69000000</c><c>     16.00000000</c><c>  PAW_PBE Ni_pv 06Sep2000               </c></rc>
    <rc><c>  30</c><c>S </c><c>     32.06600000</c><c>      6.00000000</c><c>  PAW_PBE S 06Sep2000                   </c></rc>
   </set>
  </array>
 </atominfo>
 <structure name="initialpos" >
  <crystal>
   <varray name="basis" >
    <v>       9.57841000       0.00000000       0.00000000 </v>
    <v>       0.00000000      11.25646304       0.00000000 </v>
    <v>       0.00000000       0.00000000      17.71135890 </v>
   </varray>
   <i name="volume">   1909.62132631 </i>
   <varray name="rec_basis" >
    <v>       0.10440146       0.00000000       0.00000000 </v>
    <v>       0.00000000       0.08883785       0.00000000 </v>
    <v>       0.00000000       0.00000000       0.05646094 </v>
   </varray>
  </crystal>
  <varray name="positions" >
   <v>       0.08076718       0.43119705       0.01320290 </v>
   <v>       0.08076718       0.37934512       0.18735913 </v>
   <v>       0.08076718       0.32749318       0.36151537 </v>
   <v>       0.58076718       0.15527109       0.10028102 </v>
   <v>       0.58076718       0.10341916       0.27443725 </v>
   <v>       0.21287018       0.18804042       0.16435257 </v>
   <v>       0.21287018       0.13618848       0.33850881 </v>
   <v>       0.71287018       0.46396638       0.07727446 </v>
   <v>       0.71287018       0.41211444       0.25143069 </v>
   <v>       0.71287018       0.36026251       0.42558692 </v>
   <v>       0.34497318       0.43119705       0.01320290 </v>
   <v>       0.34497318       0.37934512       0.18735913 </v>
   <v>       0.34497318       0.32749318       0.36151537 </v>
   <v>       0.84497318       0.15527109       0.10028102 </v>
   <v>       0.84497318       0.10341916       0.27443725 </v>
   <v>       0.08076718       0.93119705       0.01320290 </v>
   <v>       0.08076718       0.87934512       0.18735913 </v>
   <v>       0.08076718       0.82749318       0.36151537 </v>
   <v>       0.58076718       0.65527109       0.10028102 </v>
   <v>       0.58076718       0.60341916       0.27443725 </v>
   <v>       0.21287018       0.68804042       0.16435257 </v>
   <v>       0.21287018       0.63618848       0.33850881 </v>
   <v>       0.71287018       0.96396638       0.07727446 </v>
   <v>       0.71287018       0.91211444       0.25143069 </v>
   <v>       0.71287018       0.86026251       0.42558692 </v>
   <v>       0.34497318       0.93119705       0.01320290 </v>
   <v>       0.34497318       0.87934512       0.18735913 </v>
   <v>       0.34497318       0.82749318       0.36151537 </v>
   <v>       0.84497318       0.65527109       0.10028102 </v>
   <v>       0.84497318       0.60341916       0.27443725 </v>
   <v>       0.38108518       0.20719108       0.26123435 </v>
   <v>       0.38108518       0.15533915       0.43539058 </v>
   <v>       0.88108518       0.48311704       0.17415623 </v>
   <v>       0.88108518       0.43126511       0.34831247 </v>
   <v>       0.88108518       0.03496899       0.00000000 </v>
   <v>       0.21287018       0.45079130       0.29053004 </v>
   <v>       0.21287018       0.00264325       0.11637381 </v>
   <v>       0.71287018       0.27856921       0.02929569 </v>
   <v>       0.71287018       0.22671728       0.20345193 </v>
   <v>       0.71287018       0.17486534       0.37760816 </v>
   <v>       0.04465518       0.25904302       0.08707812 </v>
   <v>       0.04465518       0.20719108       0.26123435 </v>
   <v>       0.04465518       0.15533915       0.43539058 </v>
   <v>       0.54465518       0.48311704       0.17415623 </v>
   <v>       0.54465518       0.43126511       0.34831247 </v>
   <v>       0.38108518       0.75904302       0.08707812 </v>
   <v>       0.38108518       0.70719108       0.26123435 </v>
   <v>       0.38108518       0.65533915       0.43539058 </v>
   <v>       0.88108518       0.98311704       0.17415623 </v>
   <v>       0.88108518       0.93126511       0.34831247 </v>
   <v>       0.88108518       0.53496899       0.00000000 </v>
   <v>       0.21287018       0.95079130       0.29053004 </v>
   <v>       0.21287018       0.50264325       0.11637381 </v>
   <v>       0.71287018       0.77856921       0.02929569 </v>
   <v>       0.71287018       0.72671728       0.20345193 </v>
   <v>       0.04465518       0.75904302       0.08707812 </v>
   <v>       0.04465518       0.70719108       0.26123435 </v>
   <v>       0.04465518       0.65533915       0.43539058 </v>
   <v>       0.54465518       0.98311704       0.17415623 </v>
   <v>       0.54465518       0.93126511       0.34831247 </v>
  </varray>
 </structure>
 <calculation>
  <scstep>
   <time name="dav">    1.42    1.43</time>
   <time name="total">    1.47    1.47</time>
   <energy>
    <i name="alphaZ">   1352.76224266 </i>
    <i name="ewald"> 102116.80082576 </i>
    <i name="hartreedc">-203466.58388981 </i>
    <i name="XCdc">   3034.84989306 </i>
    <i name="pawpsdc">  93941.27777846 </i>
    <i name="pawaedc"> -98034.59323946 </i>
    <i name="eentropy">     -0.34225695 </i>
    <i name="bandstr">  -4675.29983047 </i>
    <i name="atom"> 113335.50421147 </i>
    <i name="e_fr_energy">   7604.37573471 </i>
    <i name="e_wo_entrp">   7604.71799166 </i>
    <i name="e_0_energy">   7604.54686319 </i>
   </energy>
  </scstep>
  <scstep>
   <time name="dav">    1.24    1.25</time>
   <time name="total">    1.24    1.25</time>
   <energy>
    <i name="e_fr_energy">    443.32509466 </i>
    <i name="e_wo_entrp">    444.12929280 </i>
    <i name="e_0_energy">    443.72719373 </i>
   </energy>
  </scstep>
  <scstep>
   <time name="dav">    1.39    1.39</time>
   <time name="total">    1.39    1.39</time>
   <energy>
    <i name="e_fr_energy">   -286.28898398 </i>
    <i name="e_wo_entrp">   -285.26299263 </i>
    <i name="e_0_energy">   -285.77598830 </i>
   </energy>
  </scstep>
  <scstep>
   <time name="dav">    1.39    1.39</time>
   <time name="total">    1.39    1.40</time>
   <energy>
    <i name="e_fr_energy">   -332.20597189 </i>
    <i name="e_wo_entrp">   -331.10845521 </i>
    <i name="e_0_energy">   -331.65721355 </i>
   </energy>
  </scstep>
  <scstep>
   <time name="dav">    1.38    1.38</time>
   <time name="total">    1.41    1.42</time>
   <energy>
    <i name="e_fr_energy">   -333.46946318 </i>
    <i name="e_wo_entrp">   -332.38480152 </i>
    <i name="e_0_energy">   -332.92713235 </i>
   </energy>
  </scstep>
  <scstep>
   <time name="dav">    1.38    1.39</time>
   <time name="total">    1.46    1.47</time>
   <energy>
    <i name="e_fr_energy">   -422.76214643 </i>
    <i name="e_wo_entrp">   -422.09217800 </i>
    <i name="e_0_energy">   -422.42716221 </i>
   </energy>
  </scstep>
  <scstep>
   <time name="dav">    1.33    1.33</time>
   <time name="total">    1.40    1.41</time>
   <energy>
    <i name="e_fr_energy">   -311.53482897 </i>
    <i name="e_wo_entrp">   -310.54792066 </i>
    <i name="e_0_energy">   -311.04137482 </i>
   </energy>
  </scstep>
  <scstep>
   <time name="dav">    1.55    1.55</time>
   <time name="total">    1.62    1.63</time>
   <energy>
    <i name="e_fr_energy">   -335.05438642 </i>
    <i name="e_wo_entrp">   -334.05308375 </i>
    <i name="e_0_energy">   -334.55373509 </i>
   </energy>
  </scstep>
  <scstep>
   <time name="dav">    1.43    1.43</time>
   <time name="total">    1.50    1.50</time>
   <energy>
    <i name="e_fr_energy">   -312.14081811 </i>
    <i name="e_wo_entrp">   -311.19916349 </i>
    <i name="e_0_energy">   -311.66999080 </i>
   </energy>
  </scstep>
  <scstep>
   <time name="dav">    1.47    1.48</time>
   <time name="total">    1.55    1.56</time>
   <energy>
    <i name="e_fr_energy">   -301.37732335 </i>
    <i name="e_wo_entrp">   -300.04098455 </i>
    <i name="e_0_energy">   -300.70915395 </i>
   </energy>
  </scstep>
  <scstep>
   <time name="dav">    1.52    1.52</time>
   <time name="total">    1.60    1.60</time>
   <energy>
    <i name="e_fr_energy">   -296.76427400 </i>
    <i name="e_wo_entrp">   -295.75916535 </i>
    <i name="e_0_energy">   -296.26171968 </i>
   </energy>
  </scstep>
  <scstep>
   <time name="dav">    1.55    1.55</time>
   <time name="total">    1.62    1.63</time>
   <energy>
    <i name="e_fr_energy">   -306.98893003 </i>
    <i name="e_wo_entrp">   -305.82488523 </i>
    <i name="e_0_energy">   -306.40690763 </i>
   </energy>
  </scstep>
  <scstep>
   <time name="dav">    1.56    1.57</time>
   <time name="total">    1.64    1.64</time>
   <energy>
    <i name="e_fr_energy">   -296.75048160 </i>
    <i name="e_wo_entrp">   -295.81646579 </i>
    <i name="e_0_energy">   -296.28347370 </i>
   </energy>
  </scstep>
  <scstep>
   <time name="dav">    1.49    1.49</time>
   <time name="total">    1.57    1.57</time>
   <energy>
    <i name="e_fr_energy">   -294.08075159 </i>
    <i name="e_wo_entrp">   -293.10640547 </i>
    <i name="e_0_energy">   -293.59357853 </i>
   </energy>
  </scstep>
  <scstep>
   <time name="dav">    1.45    1.45</time>
   <time name="total">    1.52    1.53</time>
   <energy>
    <i name="e_fr_energy">   -292.63676728 </i>
    <i name="e_wo_entrp">   -291.66736386 </i>
    <i name="e_0_energy">   -292.15206557 </i>
   </energy>
  </scstep>
  <scstep>
   <time name="dav">    1.50    1.51</time>
   <time name="total">    1.58    1.58</time>
   <energy>
    <i name="e_fr_energy">   -292.72983891 </i>
    <i name="e_wo_entrp">   -291.78177110 </i>
    <i name="e_0_energy">   -292.25580500 </i>
   </energy>
  </scstep>
  <scstep>
   <time name="dav">    1.50    1.51</time>
   <time name="total">    1.58    1.58</time>
   <energy>
    <i name="e_fr_energy">   -291.34550962 </i>
    <i name="e_wo_entrp">   -290.39284201 </i>
    <i name="e_0_energy">   -290.86917582 </i>
   </energy>
  </scstep>
  <scstep>
   <time name="dav">    1.52    1.53</time>
   <time name="total">    1.60    1.61</time>
   <energy>
    <i name="e_fr_energy">   -290.63204771 </i>
    <i name="e_wo_entrp">   -289.60947794 </i>
    <i name="e_0_energy">   -290.12076282 </i>
   </energy>
  </scstep>
  <scstep>
   <time name="dav">    1.51    1.51</time>
   <time name="total">    1.58    1.59</time>
   <energy>
    <i name="e_fr_energy">   -290.43664586 </i>
    <i name="e_wo_entrp">   -289.47213687 </i>
    <i name="e_0_energy">   -289.95439137 </i>
   </energy>
  </scstep>
  <scstep>
   <time name="dav">    1.49    1.50</time>
   <time name="total">    1.57    1.57</time>
   <energy>
    <i name="e_fr_energy">   -290.15739198 </i>
    <i name="e_wo_entrp">   -289.15817871 </i>
    <i name="e_0_energy">   -289.65778534 </i>
   </energy>
  </scstep>
  <scstep>
   <time name="dav">    1.54    1.54</time>
   <time name="total">    1.62    1.62</time>
   <energy>
    <i name="e_fr_energy">   -289.95822768 </i>
    <i name="e_wo_entrp">   -288.96306902 </i>
    <i name="e_0_energy">   -289.46064835 </i>
   </energy>
  </scstep>
  <scstep>
   <time name="dav">    1.51    1.52</time>
   <time name="total">    1.59    1.59</time>
   <energy>
    <i name="e_fr_energy">   -289.68472086 </i>
    <i name="e_wo_entrp">   -288.67977308 </i>
    <i name="e_0_energy">   -289.18224697 </i>
   </energy>
  </scstep>
  <scstep>
   <time name="dav">    1.49    1.50</time>
   <time name="total">    1.57    1.57</time>
   <energy>
    <i name="e_fr_energy">   -289.61408054 </i>
    <i name="e_wo_entrp">   -288.60266311 </i>
    <i name="e_0_energy">   -289.10837183 </i>
   </energy>
  </scstep>
  <scstep>
   <time name="dav">    1.52    1.52</time>
   <time name="total">    1.59    1.59</time>
   <energy>
    <i name="e_fr_energy">   -289.49540406 </i>
    <i name="e_wo_entrp">   -288.48573717 </i>
    <i name="e_0_energy">   -288.99057061 </i>
   </energy>
  </scstep>
  <scstep>
   <time name="dav">    1.45    1.46</time>
   <time name="total">    1.53    1.53</time>
   <energy>
    <i name="e_fr_energy">   -289.46319421 </i>
    <i name="e_wo_entrp">   -288.44730754 </i>
    <i name="e_0_energy">   -288.95525088 </i>
   </energy>
  </scstep>
  <scstep>
   <time name="dav">    1.50    1.50</time>
   <time name="total">    1.57    1.58</time>
   <energy>
    <i name="e_fr_energy">   -289.41242787 </i>
    <i name="e_wo_entrp">   -288.38902363 </i>
    <i name="e_0_energy">   -288.90072575 </i>
   </energy>
  </scstep>
  <scstep>
   <time name="dav">    1.51    1.52</time>
   <time name="total">    1.60    1.60</time>
   <energy>
    <i name="e_fr_energy">   -289.40468927 </i>
    <i name="e_wo_entrp">   -288.37797057 </i>
    <i name="e_0_energy">   -288.89132992 </i>
   </energy>
  </scstep>
  <scstep>
   <time name="dav">    1.45    1.46</time>
   <time name="total">    1.53    1.54</time>
   <energy>
    <i name="e_fr_energy">   -289.37458427 </i>
    <i name="e_wo_entrp">   -288.34713922 </i>
    <i name="e_0_energy">   -288.86086175 </i>
   </energy>
  </scstep>
  <scstep>
   <time name="dav">    1.54    1.54</time>
   <time name="total">    1.61    1.62</time>
   <energy>
    <i name="e_fr_energy">   -289.37116950 </i>
    <i name="e_wo_entrp">   -288.33774456 </i>
    <i name="e_0_energy">   -288.85445703 </i>
   </energy>
  </scstep>
  <scstep>
   <time name="dav">    1.49    1.49</time>
   <time name="total">    1.57    1.57</time>
   <energy>
    <i name="e_fr_energy">   -289.36465567 </i>
    <i name="e_wo_entrp">   -288.33716498 </i>
    <i name="e_0_energy">   -288.85091033 </i>
   </energy>
  </scstep>
  <scstep>
   <time name="dav">    1.50    1.50</time>
   <time name="total">    1.57    1.58</time>
   <energy>
    <i name="e_fr_energy">   -289.36121060 </i>
    <i name="e_wo_entrp">   -288.32845269 </i>
    <i name="e_0_energy">   -288.84483165 </i>
   </energy>
  </scstep>
  <scstep>
   <time name="dav">    1.53    1.54</time>
   <time name="total">    1.61    1.61</time>
   <energy>
    <i name="e_fr_energy">   -289.35687704 </i>
    <i name="e_wo_entrp">   -288.32679374 </i>
    <i name="e_0_energy">   -288.84183539 </i>
   </energy>
  </scstep>
  <scstep>
   <time name="dav">    1.51    1.51</time>
   <time name="total">    1.58    1.59</time>
   <energy>
    <i name="e_fr_energy">   -289.35616284 </i>
    <i name="e_wo_entrp">   -288.32495581 </i>
    <i name="e_0_energy">   -288.84055932 </i>
   </energy>
  </scstep>
  <scstep>
   <time name="dav">    1.41    1.42</time>
   <time name="total">    1.49    1.49</time>
   <energy>
    <i name="e_fr_energy">   -289.35557404 </i>
    <i name="e_wo_entrp">   -288.32250263 </i>
    <i name="e_0_energy">   -288.83903833 </i>
   </energy>
  </scstep>
  <scstep>
   <time name="dav">    1.36    1.36</time>
   <time name="total">    1.43    1.44</time>
   <energy>
    <i name="e_fr_energy">   -289.35558633 </i>
    <i name="e_wo_entrp">   -288.32408030 </i>
    <i name="e_0_energy">   -288.83983331 </i>
   </energy>
  </scstep>
  <scstep>
   <time name="dav">    1.19    1.19</time>
   <time name="total">    1.23    1.24</time>
   <energy>
    <i name="alphaZ">   1352.76224266 </i>
    <i name="ewald"> 102116.80082576 </i>
    <i name="hartreedc">-202859.71507356 </i>
    <i name="XCdc">   3011.31510312 </i>
    <i name="pawpsdc"> 107524.58803951 </i>
    <i name="pawaedc">-111664.08782515 </i>
    <i name="eentropy">     -1.03024718 </i>
    <i name="bandstr"> -13105.49282218 </i>
    <i name="atom"> 113335.50421147 </i>
    <i name="e_fr_energy">   -289.35554557 </i>
    <i name="e_wo_entrp">   -288.32529838 </i>
    <i name="e_0_energy">   -288.84042197 </i>
   </energy>
  </scstep>
  <structure>
   <crystal>
    <varray name="basis" >
     <v>       9.57841000       0.00000000       0.00000000 </v>
     <v>       0.00000000      11.25646304       0.00000000 </v>
     <v>       0.00000000       0.00000000      17.71135890 </v>
    </varray>
    <i name="volume">   1909.62132631 </i>
    <varray name="rec_basis" >
     <v>       0.10440146       0.00000000       0.00000000 </v>
     <v>       0.00000000       0.08883785       0.00000000 </v>
     <v>       0.00000000       0.00000000       0.05646094 </v>
    </varray>
   </crystal>
   <varray name="positions" >
    <v>       0.08076718       0.43119705       0.01320290 </v>
    <v>       0.08076718       0.37934512       0.18735913 </v>
    <v>       0.08076718       0.32749318       0.36151537 </v>
    <v>       0.58076718       0.15527109       0.10028102 </v>
    <v>       0.58076718       0.10341916       0.27443725 </v>
    <v>       0.21287018       0.18804042       0.16435257 </v>
    <v>       0.21287018       0.13618848       0.33850881 </v>
    <v>       0.71287018       0.46396638       0.07727446 </v>
    <v>       0.71287018       0.41211444       0.25143069 </v>
    <v>       0.71287018       0.36026251       0.42558692 </v>
    <v>       0.34497318       0.43119705       0.01320290 </v>
    <v>       0.34497318       0.37934512       0.18735913 </v>
    <v>       0.34497318       0.32749318       0.36151537 </v>
    <v>       0.84497318       0.15527109       0.10028102 </v>
    <v>       0.84497318       0.10341916       0.27443725 </v>
    <v>       0.08076718       0.93119705       0.01320290 </v>
    <v>       0.08076718       0.87934512       0.18735913 </v>
    <v>       0.08076718       0.82749318       0.36151537 </v>
    <v>       0.58076718       0.65527109       0.10028102 </v>
    <v>       0.58076718       0.60341916       0.27443725 </v>
    <v>       0.21287018       0.68804042       0.16435257 </v>
    <v>       0.21287018       0.63618848       0.33850881 </v>
    <v>       0.71287018       0.96396638       0.07727446 </v>
    <v>       0.71287018       0.91211444       0.25143069 </v>
    <v>       0.71287018       0.86026251       0.42558692 </v>
    <v>       0.34497318       0.93119705       0.01320290 </v>
    <v>       0.34497318       0.87934512       0.18735913 </v>
    <v>       0.34497318       0.82749318       0.36151537 </v>
    <v>       0.84497318       0.65527109       0.10028102 </v>
    <v>       0.84497318       0.60341916       0.27443725 </v>
    <v>       0.38108518       0.20719108       0.26123435 </v>
    <v>       0.38108518       0.15533915       0.43539058 </v>
    <v>       0.88108518       0.48311704       0.17415623 </v>
    <v>       0.88108518       0.43126511       0.34831247 </v>
    <v>       0.88108518       0.03496899       0.00000000 </v>
    <v>       0.21287018       0.45079130       0.29053004 </v>
    <v>       0.21287018       0.00264325       0.11637381 </v>
    <v>       0.71287018       0.27856921       0.02929569 </v>
    <v>       0.71287018       0.22671728       0.20345193 </v>
    <v>       0.71287018       0.17486534       0.37760816 </v>
    <v>       0.04465518       0.25904302       0.08707812 </v>
    <v>       0.04465518       0.20719108       0.26123435 </v>
    <v>       0.04465518       0.15533915       0.43539058 </v>
    <v>       0.54465518       0.48311704       0.17415623 </v>
    <v>       0.54465518       0.43126511       0.34831247 </v>
    <v>       0.38108518       0.75904302       0.08707812 </v>
    <v>       0.38108518       0.70719108       0.26123435 </v>
    <v>       0.38108518       0.65533915       0.43539058 </v>
    <v>       0.88108518       0.98311704       0.17415623 </v>
    <v>       0.88108518       0.93126511       0.34831247 </v>
    <v>       0.88108518       0.53496899       0.00000000 </v>
    <v>       0.21287018       0.95079130       0.29053004 </v>
    <v>       0.21287018       0.50264325       0.11637381 </v>
    <v>       0.71287018       0.77856921       0.02929569 </v>
    <v>       0.71287018       0.72671728       0.20345193 </v>
    <v>       0.04465518       0.75904302       0.08707812 </v>
    <v>       0.04465518       0.70719108       0.26123435 </v>
    <v>       0.04465518       0.65533915       0.43539058 </v>
    <v>       0.54465518       0.98311704       0.17415623 </v>
    <v>       0.54465518       0.93126511       0.34831247 </v>
   </varray>
  </structure>
  <varray name="forces" >
   <v>      -0.14433185       0.16710854       1.43283805 </v>
   <v>       0.02942936      -0.11690473      -0.37050306 </v>
   <v>      -0.46292221      -0.61609752      -0.27603677 </v>
   <v>       0.82358500       0.22736968       0.48377207 </v>
   <v>       0.36405934       0.18819352       0.35376660 </v>
   <v>      -0.28155000      -0.26590899      -0.05100884 </v>
   <v>      -0.01749180       0.24382488       0.83564356 </v>
   <v>       0.51034108      -0.59683546      -0.11388129 </v>
   <v>       0.11182521       0.23509170       0.25934686 </v>
   <v>      -0.03397656      -0.46524352      -2.27197152 </v>
   <v>      -1.08070248       0.53403148       1.75440156 </v>
   <v>      -0.02572518       0.28479223       0.10963888 </v>
   <v>       0.37633025      -0.48212898      -0.35666615 </v>
   <v>       0.06072359       0.10507949      -0.38666470 </v>
   <v>      -0.20432248       0.26769882       0.46130034 </v>
   <v>      -0.48707032       0.28231824       1.45077146 </v>
   <v>       0.01397466      -0.05381543      -0.24176190 </v>
   <v>      -0.63698953      -0.63909041      -0.24853846 </v>
   <v>       0.05797518       0.76840884       0.30313680 </v>
   <v>      -0.35428656      -0.22797363      -0.25573538 </v>
   <v>      -0.08137521      -0.03040178      -0.40810492 </v>
   <v>       0.00755284       0.31148519       1.02495687 </v>
   <v>       0.41314763      -0.51702680      -0.15645362 </v>
   <v>       0.13650156      -0.25572291       0.18814097 </v>
   <v>      -0.00627320       1.03567955      -1.87385303 </v>
   <v>      -0.67075399      -0.57518507       1.86172668 </v>
   <v>       0.04653437      -0.03670678      -0.06363355 </v>
   <v>       0.63077070      -0.63838954      -0.26283712 </v>
   <v>      -0.05244930       0.27317527      -0.45808078 </v>
   <v>       0.43235645      -0.31970336      -0.24897419 </v>
   <v>      -0.30768146       0.04207579      -1.01095514 </v>
   <v>      -1.13957081       1.05327824      -1.07095088 </v>
   <v>      -0.20466669       0.06701244       0.21780983 </v>
   <v>      -0.66828750       0.36467264       0.73799818 </v>
   <v>       0.59294752      -0.69898985       0.31374473 </v>
   <v>      -0.12072089      -0.36245420       0.84464653 </v>
   <v>       0.40228516       0.33426830      -1.15345906 </v>
   <v>      -1.21809263       0.03371224       0.70135200 </v>
   <v>      -0.00024417      -0.28703762      -0.16868805 </v>
   <v>      -0.00376706       0.10058331       0.40283537 </v>
   <v>       0.30544050       0.48655357      -0.11062539 </v>
   <v>       0.34691896      -0.11755034       0.25169229 </v>
   <v>       1.04092265       1.05343565      -1.10249468 </v>
   <v>      -0.23613002      -0.28758667      -1.17243326 </v>
   <v>       0.75600205       0.34278667       0.72564477 </v>
   <v>       0.50867027       0.16305261      -0.76849310 </v>
   <v>      -0.11052630      -0.32055320       0.11960363 </v>
   <v>      -0.82258808       0.93314659      -1.21332201 </v>
   <v>      -0.08251841       0.19301708       0.26553936 </v>
   <v>      -0.82570773      -0.58556378       0.89045193 </v>
   <v>       0.44701008      -0.68894877       0.33331857 </v>
   <v>      -0.04181228      -0.25056811       0.78280264 </v>
   <v>       0.70460226      -0.99364557      -1.37912546 </v>
   <v>      -0.59325741       0.00852957       0.68032159 </v>
   <v>       0.13417689      -0.43417838       0.82432723 </v>
   <v>      -0.07635259       0.34228752      -0.32790909 </v>
   <v>       0.17531578      -0.33626168       0.15527264 </v>
   <v>       0.81736291       0.93521686      -1.19128379 </v>
   <v>      -0.10877147       0.30315332      -0.91395017 </v>
   <v>       0.85415396      -0.48056680       0.86159336 </v>
  </varray>
  <varray name="stress" >
   <v>     -30.45632596       1.30299856       2.87648233 </v>
   <v>       1.30299880     -26.06675430      12.02388836 </v>
   <v>       2.87648237      12.02388831     -34.27772866 </v>
  </varray>
  <energy>
   <i name="e_fr_energy">   -289.35554557 </i>
   <i name="e_wo_entrp">   -288.32529838 </i>
   <i name="e_0_energy">   -288.84042197 </i>
  </energy>
  <time name="totalsc">   56.17   56.41</time>
  <eigenvalues>
   <array>
    <dimension dim="1">band</dimension>
    <dimension dim="2">kpoint</dimension>
    <dimension dim="3">spin</dimension>
    <field>eigene</field>
    <field>occ</field>
    <set>
     <set comment="spin 1">
      <set comment="kpoint 1">
       <r>  -63.8121    1.0000 </r>
       <r>  -63.7742    1.0000 </r>
       <r>  -63.7667    1.0000 </r>
       <r>  -63.7550    1.0000 </r>
       <r>  -63.7479    1.0000 </r>
       <r>  -63.7455    1.0000 </r>
       <r>  -63.7435    1.0000 </r>
       <r>  -63.7403    1.0000 </r>
       <r>  -63.7294    1.0000 </r>
       <r>  -63.7250    1.0000 </r>
       <r>  -63.7218    1.0000 </r>
       <r>  -63.7058    1.0000 </r>
       <r>  -63.7034    1.0000 </r>
       <r>  -63.6974    1.0000 </r>
       <r>  -63.6973    1.0000 </r>
       <r>  -63.6925    1.0000 </r>
       <r>  -63.6911    1.0000 </r>
       <r>  -63.6885    1.0000 </r>
       <r>  -63.6771    1.0000 </r>
       <r>  -63.6730    1.0000 </r>
       <r>  -63.6654    1.0000 </r>
       <r>  -63.6402    1.0000 </r>
       <r>  -63.6113    1.0000 </r>
       <r>  -63.6039    1.0000 </r>
       <r>  -63.5769    1.0000 </r>
       <r>  -63.5675    1.0000 </r>
       <r>  -63.5622    1.0000 </r>
       <r>  -63.5452    1.0000 </r>
       <r>  -63.5383    1.0000 </r>
       <r>  -63.5377    1.0000 </r>
       <r>  -63.5329    1.0000 </r>
       <r>  -63.5297    1.0000 </r>
       <r>  -63.5181    1.0000 </r>
       <r>  -63.5106    1.0000 </r>
       <r>  -63.5050    1.0000 </r>
       <r>  -63.4865    1.0000 </r>
       <r>  -63.4843    1.0000 </r>
       <r>  -63.4840    1.0000 </r>
       <r>  -63.4611    1.0000 </r>
       <r>  -63.4453    1.0000 </r>
       <r>  -63.4172    1.0000 </r>
       <r>  -63.4090    1.0000 </r>
       <r>  -63.3963    1.0000 </r>
       <r>  -63.3826    1.0000 </r>
       <r>  -63.3825    1.0000 </r>
       <r>  -63.3659    1.0000 </r>
       <r>  -63.3475    1.0000 </r>
       <r>  -63.3257    1.0000 </r>
       <r>  -63.3220    1.0000 </r>
       <r>  -63.3213    1.0000 </r>
       <r>  -63.3188    1.0000 </r>
       <r>  -63.3126    1.0000 </r>
       <r>  -63.3020    1.0000 </r>
       <r>  -63.2932    1.0000 </r>
       <r>  -63.2891    1.0000 </r>
       <r>  -63.2834    1.0000 </r>
       <r>  -63.2555    1.0000 </r>
       <r>  -63.2475    1.0000 </r>
       <r>  -63.2403    1.0000 </r>
       <r>  -63.2356    1.0000 </r>
       <r>  -63.2226    1.0000 </r>
       <r>  -63.2157    1.0000 </r>
       <r>  -63.1748    1.0000 </r>
       <r>  -63.1577    1.0000 </r>
       <r>  -63.0807    1.0000 </r>
       <r>  -63.0354    1.0000 </r>
       <r>  -62.9999    1.0000 </r>
       <r>  -62.9745    1.0000 </r>
       <r>  -62.9648    1.0000 </r>
       <r>  -62.9482    1.0000 </r>
       <r>  -62.9345    1.0000 </r>
       <r>  -62.9268    1.0000 </r>
       <r>  -62.9063    1.0000 </r>
       <r>  -62.9005    1.0000 </r>
       <r>  -62.8170    1.0000 </r>
       <r>  -62.7237    1.0000 </r>
       <r>  -62.7197    1.0000 </r>
       <r>  -62.6930    1.0000 </r>
       <r>  -62.6914    1.0000 </r>
       <r>  -62.6171    1.0000 </r>
       <r>  -62.6078    1.0000 </r>
       <r>  -62.5876    1.0000 </r>
       <r>  -62.5125    1.0000 </r>
       <r>  -62.4153    1.0000 </r>
       <r>  -62.3535    1.0000 </r>
       <r>  -62.2119    1.0000 </r>
       <r>  -62.1891    1.0000 </r>
       <r>  -62.0734    1.0000 </r>
       <r>  -61.9974    1.0000 </r>
       <r>  -61.8559    1.0000 </r>
       <r>  -14.7701    1.0000 </r>
       <r>  -14.1583    1.0000 </r>
       <r>  -14.1450    1.0000 </r>
       <r>  -14.0490    1.0000 </r>
       <r>  -13.7594    1.0000 </r>
       <r>  -13.6748    1.0000 </r>
       <r>  -13.5621    1.0000 </r>
       <r>  -13.4514    1.0000 </r>
       <r>  -13.3982    1.0000 </r>
       <r>  -13.3528    1.0000 </r>
       <r>  -13.2851    1.0000 </r>
       <r>  -13.1665    1.0000 </r>
       <r>  -13.0752    1.0000 </r>
       <r>  -13.0175    1.0000 </r>
       <r>  -12.9314    1.0000 </r>
       <r>  -12.9212    1.0000 </r>
       <r>  -12.8514    1.0000 </r>
       <r>  -12.7679    1.0000 </r>
       <r>  -12.6898    1.0000 </r>
       <r>  -12.5027    1.0000 </r>
       <r>  -12.4511    1.0000 </r>
       <r>  -12.3836    1.0000 </r>
       <r>  -12.2251    1.0000 </r>
       <r>  -12.1651    1.0000 </r>
       <r>  -12.0600    1.0000 </r>
       <r>  -11.8446    1.0000 </r>
       <r>  -11.6035    1.0000 </r>
       <r>  -11.5670    1.0000 </r>
       <r>  -11.1808    1.0000 </r>
       <r>  -11.1022    1.0000 </r>
       <r>   -6.5540    1.0000 </r>
       <r>   -6.4079    1.0000 </r>
       <r>   -6.3497    1.0000 </r>
       <r>   -6.2589    1.0000 </r>
       <r>   -6.2346    1.0000 </r>
       <r>   -6.1525    1.0000 </r>
       <r>   -5.8998    1.0000 </r>
       <r>   -5.8727    1.0000 </r>
       <r>   -5.8073    1.0000 </r>
       <r>   -5.7195    1.0000 </r>
       <r>   -5.6210    1.0000 </r>
       <r>   -5.6142    1.0000 </r>
       <r>   -5.5799    1.0000 </r>
       <r>   -5.5517    1.0000 </r>
       <r>   -5.4532    1.0000 </r>
       <r>   -5.4362    1.0000 </r>
       <r>   -5.3712    1.0000 </r>
       <r>   -5.3234    1.0000 </r>
       <r>   -5.2932    1.0000 </r>
       <r>   -5.2043    1.0000 </r>
       <r>   -5.1007    1.0000 </r>
       <r>   -5.0555    1.0000 </r>
       <r>   -4.9951    1.0000 </r>
       <r>   -4.9338    1.0000 </r>
       <r>   -4.9153    1.0000 </r>
       <r>   -4.8562    1.0000 </r>
       <r>   -4.7788    1.0000 </r>
       <r>   -4.7527    1.0000 </r>
       <r>   -4.7011    1.0000 </r>
       <r>   -4.5772    1.0000 </r>
       <r>   -4.5616    1.0000 </r>
       <r>   -4.4630    1.0000 </r>
       <r>   -4.4414    1.0000 </r>
       <r>   -4.3754    1.0000 </r>
       <r>   -4.3403    1.0000 </r>
       <r>   -4.2737    1.0000 </r>
       <r>   -4.2149    1.0000 </r>
       <r>   -4.1872    1.0000 </r>
       <r>   -4.1599    1.0000 </r>
       <r>   -4.1385    1.0000 </r>
       <r>   -4.0570    1.0000 </r>
       <r>   -4.0224    1.0000 </r>
       <r>   -4.0011    1.0000 </r>
       <r>   -3.9126    1.0000 </r>
       <r>   -3.9075    1.0000 </r>
       <r>   -3.8654    1.0000 </r>
       <r>   -3.8315    1.0000 </r>
       <r>   -3.7774    1.0000 </r>
       <r>   -3.7308    1.0000 </r>
       <r>   -3.6895    1.0000 </r>
       <r>   -3.6768    1.0000 </r>
       <r>   -3.6339    1.0000 </r>
       <r>   -3.6191    1.0000 </r>
       <r>   -3.5610    1.0000 </r>
       <r>   -3.5126    1.0000 </r>
       <r>   -3.4767    1.0000 </r>
       <r>   -3.4550    1.0000 </r>
       <r>   -3.4066    1.0000 </r>
       <r>   -3.3789    1.0000 </r>
       <r>   -3.3476    1.0000 </r>
       <r>   -3.3229    1.0000 </r>
       <r>   -3.2740    1.0000 </r>
       <r>   -3.1807    1.0000 </r>
       <r>   -3.1676    1.0000 </r>
       <r>   -3.1527    1.0000 </r>
       <r>   -3.1026    1.0000 </r>
       <r>   -3.0438    1.0000 </r>
       <r>   -3.0135    1.0000 </r>
       <r>   -2.9668    1.0000 </r>
       <r>   -2.9310    1.0000 </r>
       <r>   -2.9228    1.0000 </r>
       <r>   -2.8520    1.0000 </r>
       <r>   -2.8214    1.0000 </r>
       <r>   -2.7900    1.0000 </r>
       <r>   -2.7537    1.0000 </r>
       <r>   -2.6932    1.0000 </r>
       <r>   -2.6720    1.0000 </r>
       <r>   -2.6505    1.0000 </r>
       <r>   -2.6229    1.0000 </r>
       <r>   -2.5652    1.0000 </r>
       <r>   -2.5031    1.0000 </r>
       <r>   -2.4611    1.0000 </r>
       <r>   -2.3682    1.0000 </r>
       <r>   -2.3296    1.0000 </r>
       <r>   -2.3091    1.0000 </r>
       <r>   -2.2886    1.0000 </r>
       <r>   -2.2813    1.0000 </r>
       <r>   -2.2413    1.0000 </r>
       <r>   -2.2030    1.0000 </r>
       <r>   -2.1503    1.0000 </r>
       <r>   -2.0829    1.0000 </r>
       <r>   -2.0580    1.0000 </r>
       <r>   -1.9904    1.0000 </r>
       <r>   -1.9714    1.0000 </r>
       <r>   -1.9601    1.0000 </r>
       <r>   -1.9390    1.0000 </r>
       <r>   -1.9146    1.0000 </r>
       <r>   -1.8936    1.0000 </r>
       <r>   -1.8634    1.0000 </r>
       <r>   -1.8497    1.0000 </r>
       <r>   -1.8117    1.0000 </r>
       <r>   -1.7852    1.0000 </r>
       <r>   -1.7683    1.0000 </r>
       <r>   -1.7522    1.0000 </r>
       <r>   -1.7174    1.0000 </r>
       <r>   -1.7025    1.0000 </r>
       <r>   -1.6873    1.0000 </r>
       <r>   -1.6806    1.0000 </r>
       <r>   -1.6321    1.0000 </r>
       <r>   -1.6074    1.0000 </r>
       <r>   -1.5905    1.0000 </r>
       <r>   -1.5712    1.0000 </r>
       <r>   -1.5485    1.0000 </r>
       <r>   -1.5061    1.0000 </r>
       <r>   -1.4720    1.0000 </r>
       <r>   -1.4583    1.0000 </r>
       <r>   -1.4365    1.0000 </r>
       <r>   -1.4120    1.0000 </r>
       <r>   -1.3972    1.0000 </r>
       <r>   -1.3798    1.0000 </r>
       <r>   -1.3744    1.0000 </r>
       <r>   -1.3569    1.0000 </r>
       <r>   -1.3298    1.0000 </r>
       <r>   -1.3157    1.0000 </r>
       <r>   -1.3000    1.0000 </r>
       <r>   -1.2825    1.0000 </r>
       <r>   -1.2654    1.0000 </r>
       <r>   -1.2540    1.0000 </r>
       <r>   -1.2376    1.0000 </r>
       <r>   -1.2326    1.0000 </r>
       <r>   -1.2265    1.0000 </r>
       <r>   -1.2150    1.0000 </r>
       <r>   -1.2011    1.0000 </r>
       <r>   -1.1965    1.0000 </r>
       <r>   -1.1912    1.0000 </r>
       <r>   -1.1763    1.0000 </r>
       <r>   -1.1678    1.0000 </r>
       <r>   -1.1405    1.0000 </r>
       <r>   -1.1371    1.0000 </r>
       <r>   -1.1090    1.0000 </r>
       <r>   -1.0907    1.0000 </r>
       <r>   -1.0825    1.0000 </r>
       <r>   -1.0701    1.0000 </r>
       <r>   -1.0607    1.0000 </r>
       <r>   -1.0464    1.0000 </r>
       <r>   -1.0369    1.0000 </r>
       <r>   -1.0133    1.0000 </r>
       <r>   -0.9999    1.0000 </r>
       <r>   -0.9873    1.0000 </r>
       <r>   -0.9635    1.0000 </r>
       <r>   -0.9570    1.0000 </r>
       <r>   -0.9490    1.0000 </r>
       <r>   -0.9350    1.0000 </r>
       <r>   -0.9260    1.0000 </r>
       <r>   -0.9040    1.0000 </r>
       <r>   -0.8931    1.0000 </r>
       <r>   -0.8762    1.0000 </r>
       <r>   -0.8727    1.0000 </r>
       <r>   -0.8338    1.0000 </r>
       <r>   -0.8163    1.0000 </r>
       <r>   -0.8117    1.0000 </r>
       <r>   -0.7889    1.0000 </r>
       <r>   -0.7784    1.0000 </r>
       <r>   -0.7660    1.0000 </r>
       <r>   -0.7289    1.0000 </r>
       <r>   -0.7190    1.0000 </r>
       <r>   -0.7094    1.0000 </r>
       <r>   -0.6951    1.0000 </r>
       <r>   -0.6789    1.0000 </r>
       <r>   -0.6400    1.0000 </r>
       <r>   -0.6186    1.0000 </r>
       <r>   -0.5932    1.0000 </r>
       <r>   -0.5671    1.0000 </r>
       <r>   -0.5526    1.0000 </r>
       <r>   -0.5350    1.0000 </r>
       <r>   -0.5247    1.0000 </r>
       <r>   -0.4897    1.0000 </r>
       <r>   -0.4827    1.0000 </r>
       <r>   -0.4397    1.0000 </r>
       <r>   -0.4270    1.0000 </r>
       <r>   -0.4034    1.0000 </r>
       <r>   -0.3920    1.0000 </r>
       <r>   -0.3745    1.0000 </r>
       <r>   -0.3404    1.0000 </r>
       <r>   -0.3182    1.0000 </r>
       <r>   -0.3017    1.0000 </r>
       <r>   -0.2832    1.0000 </r>
       <r>   -0.2679    1.0000 </r>
       <r>   -0.2451    1.0000 </r>
       <r>   -0.2363    1.0000 </r>
       <r>   -0.2045    1.0000 </r>
       <r>   -0.1757    0.9999 </r>
       <r>   -0.1708    0.9999 </r>
       <r>   -0.1294    0.9996 </r>
       <r>   -0.1213    0.9995 </r>
       <r>   -0.1092    0.9994 </r>
       <r>   -0.0576    0.9979 </r>
       <r>   -0.0440    0.9972 </r>
       <r>   -0.0255    0.9959 </r>
       <r>   -0.0049    0.9937 </r>
       <r>    0.0125    0.9912 </r>
       <r>    0.0192    0.9900 </r>
       <r>    0.0720    0.9745 </r>
       <r>    0.0869    0.9676 </r>
       <r>    0.1517    0.9174 </r>
       <r>    0.1878    0.8714 </r>
       <r>    0.2219    0.8137 </r>
       <r>    0.2784    0.6888 </r>
       <r>    0.2839    0.6750 </r>
       <r>    0.3015    0.6289 </r>
       <r>    0.3424    0.5159 </r>
       <r>    0.3785    0.4148 </r>
       <r>    0.4575    0.2194 </r>
       <r>    0.4723    0.1897 </r>
       <r>    0.5379    0.0897 </r>
       <r>    0.6108    0.0316 </r>
       <r>    0.6405    0.0193 </r>
       <r>    0.6803    0.0094 </r>
       <r>    0.7075    0.0055 </r>
       <r>    0.7620    0.0017 </r>
       <r>    0.7913    0.0009 </r>
       <r>    0.8311    0.0003 </r>
       <r>    0.8612    0.0001 </r>
       <r>    0.8658    0.0001 </r>
       <r>    0.8889    0.0001 </r>
       <r>    0.9898    0.0000 </r>
       <r>    1.0127    0.0000 </r>
       <r>    1.1168    0.0000 </r>
       <r>    1.1344    0.0000 </r>
       <r>    1.1515    0.0000 </r>
       <r>    1.1991    0.0000 </r>
       <r>    1.2428    0.0000 </r>
       <r>    1.2786    0.0000 </r>
       <r>    1.3623    0.0000 </r>
       <r>    1.3783    0.0000 </r>
       <r>    1.4549    0.0000 </r>
       <r>    1.4793    0.0000 </r>
       <r>    1.4974    0.0000 </r>
       <r>    1.5459    0.0000 </r>
       <r>    1.5542    0.0000 </r>
       <r>    1.6339    0.0000 </r>
       <r>    1.9403    0.0000 </r>
       <r>    2.3235    0.0000 </r>
       <r>    2.9097    0.0000 </r>
       <r>    3.0310    0.0000 </r>
       <r>    3.2368    0.0000 </r>
       <r>    3.4456    0.0000 </r>
       <r>    3.6393    0.0000 </r>
       <r>    3.6935    0.0000 </r>
       <r>    3.8844    0.0000 </r>
       <r>    4.1112    0.0000 </r>
       <r>    4.3099    0.0000 </r>
       <r>    4.3385    0.0000 </r>
       <r>    4.4892    0.0000 </r>
       <r>    4.6379    0.0000 </r>
       <r>    4.7059    0.0000 </r>
       <r>    4.8124    0.0000 </r>
       <r>    4.9916    0.0000 </r>
       <r>    5.0999    0.0000 </r>
       <r>    5.2398    0.0000 </r>
       <r>    5.3522    0.0000 </r>
       <r>    5.3798    0.0000 </r>
       <r>    5.4729    0.0000 </r>
       <r>    5.5094    0.0000 </r>
       <r>    5.5388    0.0000 </r>
       <r>    5.6037    0.0000 </r>
       <r>    5.6834    0.0000 </r>
       <r>    5.7699    0.0000 </r>
       <r>    5.8151    0.0000 </r>
       <r>    5.8293    0.0000 </r>
       <r>    5.8655    0.0000 </r>
       <r>    5.9230    0.0000 </r>
       <r>    6.0145    0.0000 </r>
       <r>    6.0444    0.0000 </r>
       <r>    6.1071    0.0000 </r>
       <r>    6.1947    0.0000 </r>
       <r>    6.2346    0.0000 </r>
       <r>    6.2534    0.0000 </r>
       <r>    6.2982    0.0000 </r>
       <r>    6.3928    0.0000 </r>
      </set>
     </set>
    </set>
   </array>
  </eigenvalues>
  <separator name="orbital magnetization" >
   <v name="MAGDIPOLOUT">      0.00000000      0.00000000      0.00000000</v>
  </separator>
  <dos>
   <i name="efermi">      0.34803257 </i>
   <total>
    <array>
     <dimension dim="1">gridpoints</dimension>
     <dimension dim="2">spin</dimension>
     <field>energy</field>
     <field>total</field>
     <field>integrated</field>
     <set>
      <set comment="spin 1">
       <r>   -67.3224     0.0000     0.0000 </r>
       <r>   -67.0649     0.0000     0.0000 </r>
       <r>   -66.8075     0.0000     0.0000 </r>
       <r>   -66.5501     0.0000     0.0000 </r>
       <r>   -66.2927     0.0000     0.0000 </r>
       <r>   -66.0353     0.0000     0.0000 </r>
       <r>   -65.7778     0.0000     0.0000 </r>
       <r>   -65.5204     0.0000     0.0000 </r>
       <r>   -65.2630     0.0000     0.0000 </r>
       <r>   -65.0056     0.0000     0.0000 </r>
       <r>   -64.7482     0.0000     0.0000 </r>
       <r>   -64.4908     0.0000     0.0000 </r>
       <r>   -64.2333     0.0398     0.0102 </r>
       <r>   -63.9759     6.9160     1.7905 </r>
       <r>   -63.7185    92.7502    25.6661 </r>
       <r>   -63.4611   187.6275    73.9648 </r>
       <r>   -63.2037   162.3396   115.7539 </r>
       <r>   -62.9462    91.1722   139.2233 </r>
       <r>   -62.6888    62.5806   155.3327 </r>
       <r>   -62.4314    42.4254   166.2537 </r>
       <r>   -62.1740    25.0133   172.6926 </r>
       <r>   -61.9166    19.6067   177.7397 </r>
       <r>   -61.6592     8.0633   179.8153 </r>
       <r>   -61.4017     0.7121   179.9987 </r>
       <r>   -61.1443     0.0052   180.0000 </r>
       <r>   -60.8869     0.0000   180.0000 </r>
       <r>   -60.6295     0.0000   180.0000 </r>
       <r>   -60.3721     0.0000   180.0000 </r>
       <r>   -60.1147     0.0000   180.0000 </r>
       <r>   -59.8572     0.0000   180.0000 </r>
       <r>   -59.5998     0.0000   180.0000 </r>
       <r>   -59.3424     0.0000   180.0000 </r>
       <r>   -59.0850     0.0000   180.0000 </r>
       <r>   -58.8276     0.0000   180.0000 </r>
       <r>   -58.5701     0.0000   180.0000 </r>
       <r>   -58.3127     0.0000   180.0000 </r>
       <r>   -58.0553     0.0000   180.0000 </r>
       <r>   -57.7979     0.0000   180.0000 </r>
       <r>   -57.5405     0.0000   180.0000 </r>
       <r>   -57.2831     0.0000   180.0000 </r>
       <r>   -57.0256     0.0000   180.0000 </r>
       <r>   -56.7682     0.0000   180.0000 </r>
       <r>   -56.5108     0.0000   180.0000 </r>
       <r>   -56.2534     0.0000   180.0000 </r>
       <r>   -55.9960     0.0000   180.0000 </r>
       <r>   -55.7385     0.0000   180.0000 </r>
       <r>   -55.4811     0.0000   180.0000 </r>
       <r>   -55.2237     0.0000   180.0000 </r>
       <r>   -54.9663     0.0000   180.0000 </r>
       <r>   -54.7089     0.0000   180.0000 </r>
       <r>   -54.4515     0.0000   180.0000 </r>
       <r>   -54.1940     0.0000   180.0000 </r>
       <r>   -53.9366     0.0000   180.0000 </r>
       <r>   -53.6792     0.0000   180.0000 </r>
       <r>   -53.4218     0.0000   180.0000 </r>
       <r>   -53.1644     0.0000   180.0000 </r>
       <r>   -52.9069     0.0000   180.0000 </r>
       <r>   -52.6495     0.0000   180.0000 </r>
       <r>   -52.3921     0.0000   180.0000 </r>
       <r>   -52.1347     0.0000   180.0000 </r>
       <r>   -51.8773     0.0000   180.0000 </r>
       <r>   -51.6199     0.0000   180.0000 </r>
       <r>   -51.3624     0.0000   180.0000 </r>
       <r>   -51.1050     0.0000   180.0000 </r>
       <r>   -50.8476     0.0000   180.0000 </r>
       <r>   -50.5902     0.0000   180.0000 </r>
       <r>   -50.3328     0.0000   180.0000 </r>
       <r>   -50.0754     0.0000   180.0000 </r>
       <r>   -49.8179     0.0000   180.0000 </r>
       <r>   -49.5605     0.0000   180.0000 </r>
       <r>   -49.3031     0.0000   180.0000 </r>
       <r>   -49.0457     0.0000   180.0000 </r>
       <r>   -48.7883     0.0000   180.0000 </r>
       <r>   -48.5308     0.0000   180.0000 </r>
       <r>   -48.2734     0.0000   180.0000 </r>
       <r>   -48.0160     0.0000   180.0000 </r>
       <r>   -47.7586     0.0000   180.0000 </r>
       <r>   -47.5012     0.0000   180.0000 </r>
       <r>   -47.2438     0.0000   180.0000 </r>
       <r>   -46.9863     0.0000   180.0000 </r>
       <r>   -46.7289     0.0000   180.0000 </r>
       <r>   -46.4715     0.0000   180.0000 </r>
       <r>   -46.2141     0.0000   180.0000 </r>
       <r>   -45.9567     0.0000   180.0000 </r>
       <r>   -45.6992     0.0000   180.0000 </r>
       <r>   -45.4418     0.0000   180.0000 </r>
       <r>   -45.1844     0.0000   180.0000 </r>
       <r>   -44.9270     0.0000   180.0000 </r>
       <r>   -44.6696     0.0000   180.0000 </r>
       <r>   -44.4122     0.0000   180.0000 </r>
       <r>   -44.1547     0.0000   180.0000 </r>
       <r>   -43.8973     0.0000   180.0000 </r>
       <r>   -43.6399     0.0000   180.0000 </r>
       <r>   -43.3825     0.0000   180.0000 </r>
       <r>   -43.1251     0.0000   180.0000 </r>
       <r>   -42.8676     0.0000   180.0000 </r>
       <r>   -42.6102     0.0000   180.0000 </r>
       <r>   -42.3528     0.0000   180.0000 </r>
       <r>   -42.0954     0.0000   180.0000 </r>
       <r>   -41.8380     0.0000   180.0000 </r>
       <r>   -41.5806     0.0000   180.0000 </r>
       <r>   -41.3231     0.0000   180.0000 </r>
       <r>   -41.0657     0.0000   180.0000 </r>
       <r>   -40.8083     0.0000   180.0000 </r>
       <r>   -40.5509     0.0000   180.0000 </r>
       <r>   -40.2935     0.0000   180.0000 </r>
       <r>   -40.0361     0.0000   180.0000 </r>
       <r>   -39.7786     0.0000   180.0000 </r>
       <r>   -39.5212     0.0000   180.0000 </r>
       <r>   -39.2638     0.0000   180.0000 </r>
       <r>   -39.0064     0.0000   180.0000 </r>
       <r>   -38.7490     0.0000   180.0000 </r>
       <r>   -38.4915     0.0000   180.0000 </r>
       <r>   -38.2341     0.0000   180.0000 </r>
       <r>   -37.9767     0.0000   180.0000 </r>
       <r>   -37.7193     0.0000   180.0000 </r>
       <r>   -37.4619     0.0000   180.0000 </r>
       <r>   -37.2045     0.0000   180.0000 </r>
       <r>   -36.9470     0.0000   180.0000 </r>
       <r>   -36.6896     0.0000   180.0000 </r>
       <r>   -36.4322     0.0000   180.0000 </r>
       <r>   -36.1748     0.0000   180.0000 </r>
       <r>   -35.9174     0.0000   180.0000 </r>
       <r>   -35.6599     0.0000   180.0000 </r>
       <r>   -35.4025     0.0000   180.0000 </r>
       <r>   -35.1451     0.0000   180.0000 </r>
       <r>   -34.8877     0.0000   180.0000 </r>
       <r>   -34.6303     0.0000   180.0000 </r>
       <r>   -34.3729     0.0000   180.0000 </r>
       <r>   -34.1154     0.0000   180.0000 </r>
       <r>   -33.8580     0.0000   180.0000 </r>
       <r>   -33.6006     0.0000   180.0000 </r>
       <r>   -33.3432     0.0000   180.0000 </r>
       <r>   -33.0858     0.0000   180.0000 </r>
       <r>   -32.8283     0.0000   180.0000 </r>
       <r>   -32.5709     0.0000   180.0000 </r>
       <r>   -32.3135     0.0000   180.0000 </r>
       <r>   -32.0561     0.0000   180.0000 </r>
       <r>   -31.7987     0.0000   180.0000 </r>
       <r>   -31.5413     0.0000   180.0000 </r>
       <r>   -31.2838     0.0000   180.0000 </r>
       <r>   -31.0264     0.0000   180.0000 </r>
       <r>   -30.7690     0.0000   180.0000 </r>
       <r>   -30.5116     0.0000   180.0000 </r>
       <r>   -30.2542     0.0000   180.0000 </r>
       <r>   -29.9968     0.0000   180.0000 </r>
       <r>   -29.7393     0.0000   180.0000 </r>
       <r>   -29.4819     0.0000   180.0000 </r>
       <r>   -29.2245     0.0000   180.0000 </r>
       <r>   -28.9671     0.0000   180.0000 </r>
       <r>   -28.7097     0.0000   180.0000 </r>
       <r>   -28.4522     0.0000   180.0000 </r>
       <r>   -28.1948     0.0000   180.0000 </r>
       <r>   -27.9374     0.0000   180.0000 </r>
       <r>   -27.6800     0.0000   180.0000 </r>
       <r>   -27.4226     0.0000   180.0000 </r>
       <r>   -27.1652     0.0000   180.0000 </r>
       <r>   -26.9077     0.0000   180.0000 </r>
       <r>   -26.6503     0.0000   180.0000 </r>
       <r>   -26.3929     0.0000   180.0000 </r>
       <r>   -26.1355     0.0000   180.0000 </r>
       <r>   -25.8781     0.0000   180.0000 </r>
       <r>   -25.6206     0.0000   180.0000 </r>
       <r>   -25.3632     0.0000   180.0000 </r>
       <r>   -25.1058     0.0000   180.0000 </r>
       <r>   -24.8484     0.0000   180.0000 </r>
       <r>   -24.5910     0.0000   180.0000 </r>
       <r>   -24.3336     0.0000   180.0000 </r>
       <r>   -24.0761     0.0000   180.0000 </r>
       <r>   -23.8187     0.0000   180.0000 </r>
       <r>   -23.5613     0.0000   180.0000 </r>
       <r>   -23.3039     0.0000   180.0000 </r>
       <r>   -23.0465     0.0000   180.0000 </r>
       <r>   -22.7890     0.0000   180.0000 </r>
       <r>   -22.5316     0.0000   180.0000 </r>
       <r>   -22.2742     0.0000   180.0000 </r>
       <r>   -22.0168     0.0000   180.0000 </r>
       <r>   -21.7594     0.0000   180.0000 </r>
       <r>   -21.5020     0.0000   180.0000 </r>
       <r>   -21.2445     0.0000   180.0000 </r>
       <r>   -20.9871     0.0000   180.0000 </r>
       <r>   -20.7297     0.0000   180.0000 </r>
       <r>   -20.4723     0.0000   180.0000 </r>
       <r>   -20.2149     0.0000   180.0000 </r>
       <r>   -19.9575     0.0000   180.0000 </r>
       <r>   -19.7000     0.0000   180.0000 </r>
       <r>   -19.4426     0.0000   180.0000 </r>
       <r>   -19.1852     0.0000   180.0000 </r>
       <r>   -18.9278     0.0000   180.0000 </r>
       <r>   -18.6704     0.0000   180.0000 </r>
       <r>   -18.4129     0.0000   180.0000 </r>
       <r>   -18.1555     0.0000   180.0000 </r>
       <r>   -17.8981     0.0000   180.0000 </r>
       <r>   -17.6407     0.0000   180.0000 </r>
       <r>   -17.3833     0.0000   180.0000 </r>
       <r>   -17.1259     0.0000   180.0000 </r>
       <r>   -16.8684     0.0000   180.0000 </r>
       <r>   -16.6110     0.0000   180.0000 </r>
       <r>   -16.3536     0.0000   180.0000 </r>
       <r>   -16.0962     0.0000   180.0000 </r>
       <r>   -15.8388     0.0000   180.0000 </r>
       <r>   -15.5813     0.0000   180.0000 </r>
       <r>   -15.3239     0.0003   180.0001 </r>
       <r>   -15.0665     0.1399   180.0361 </r>
       <r>   -14.8091     2.9011   180.7829 </r>
       <r>   -14.5517     4.2907   181.8874 </r>
       <r>   -14.2943     3.1948   182.7098 </r>
       <r>   -14.0368    13.9266   186.2947 </r>
       <r>   -13.7794    12.1723   189.4281 </r>
       <r>   -13.5220    18.4913   194.1881 </r>
       <r>   -13.2646    25.6795   200.7985 </r>
       <r>   -13.0072    26.4948   207.6187 </r>
       <r>   -12.7497    28.3594   214.9189 </r>
       <r>   -12.4923    20.2159   220.1229 </r>
       <r>   -12.2349    20.1456   225.3087 </r>
       <r>   -11.9775    16.3976   229.5297 </r>
       <r>   -11.7201    10.7314   232.2922 </r>
       <r>   -11.4627    11.5695   235.2704 </r>
       <r>   -11.2052     7.9386   237.3139 </r>
       <r>   -10.9478     8.9805   239.6257 </r>
       <r>   -10.6904     1.4382   239.9959 </r>
       <r>   -10.4330     0.0160   240.0000 </r>
       <r>   -10.1756     0.0000   240.0000 </r>
       <r>    -9.9181     0.0000   240.0000 </r>
       <r>    -9.6607     0.0000   240.0000 </r>
       <r>    -9.4033     0.0000   240.0000 </r>
       <r>    -9.1459     0.0000   240.0000 </r>
       <r>    -8.8885     0.0000   240.0000 </r>
       <r>    -8.6311     0.0000   240.0000 </r>
       <r>    -8.3736     0.0000   240.0000 </r>
       <r>    -8.1162     0.0000   240.0000 </r>
       <r>    -7.8588     0.0000   240.0000 </r>
       <r>    -7.6014     0.0000   240.0000 </r>
       <r>    -7.3440     0.0000   240.0000 </r>
       <r>    -7.0866     0.0007   240.0002 </r>
       <r>    -6.8291     0.2146   240.0554 </r>
       <r>    -6.5717     4.8769   241.3108 </r>
       <r>    -6.3143    18.7062   246.1261 </r>
       <r>    -6.0569    21.4439   251.6462 </r>
       <r>    -5.7995    21.3536   257.1430 </r>
       <r>    -5.5420    35.2177   266.2086 </r>
       <r>    -5.2846    38.0575   276.0053 </r>
       <r>    -5.0272    32.4804   284.3664 </r>
       <r>    -4.7698    36.2108   293.6877 </r>
       <r>    -4.5124    33.6219   302.3426 </r>
       <r>    -4.2550    39.3625   312.4752 </r>
       <r>    -3.9975    46.5197   324.4502 </r>
       <r>    -3.7401    50.0484   337.3335 </r>
       <r>    -3.4827    53.8772   351.2025 </r>
       <r>    -3.2253    51.9707   364.5806 </r>
       <r>    -2.9679    50.2159   377.5071 </r>
       <r>    -2.7104    52.3761   390.9897 </r>
       <r>    -2.4530    47.4149   403.1951 </r>
       <r>    -2.1956    50.5474   416.2069 </r>
       <r>    -1.9382    60.9053   431.8850 </r>
       <r>    -1.6808    81.9466   452.9796 </r>
       <r>    -1.4234    92.8379   476.8777 </r>
       <r>    -1.1659   131.3411   510.6873 </r>
       <r>    -0.9085   141.8998   547.2148 </r>
       <r>    -0.6511   116.9873   577.3295 </r>
       <r>    -0.3937    97.7577   602.4941 </r>
       <r>    -0.1363    94.3907   626.7919 </r>
       <r>     0.1212    78.1519   646.9096 </r>
       <r>     0.3786    56.8648   661.5476 </r>
       <r>     0.6360    46.4685   673.5095 </r>
       <r>     0.8934    51.0012   686.6381 </r>
       <r>     1.1508    45.8320   698.4361 </r>
       <r>     1.4082    45.4642   710.1394 </r>
       <r>     1.6657    37.3708   719.7593 </r>
       <r>     1.9231    11.9859   722.8447 </r>
       <r>     2.1805     5.3522   724.2225 </r>
       <r>     2.4379     5.2816   725.5820 </r>
       <r>     2.6953     2.1631   726.1389 </r>
       <r>     2.9527     6.7044   727.8647 </r>
       <r>     3.2102    11.0574   730.7111 </r>
       <r>     3.4676    10.2782   733.3568 </r>
       <r>     3.7250    13.5663   736.8491 </r>
       <r>     3.9824    11.6595   739.8504 </r>
       <r>     4.2398    11.5133   742.8141 </r>
       <r>     4.4973    16.5677   747.0790 </r>
       <r>     4.7547    17.5164   751.5880 </r>
       <r>     5.0121    15.5386   755.5879 </r>
       <r>     5.2695    17.9129   760.1990 </r>
       <r>     5.5269    29.5617   767.8087 </r>
       <r>     5.7843    35.3416   776.9063 </r>
       <r>     6.0418    37.3784   786.5282 </r>
       <r>     6.2992    34.3007   795.3578 </r>
       <r>     6.5566    16.5513   799.6184 </r>
       <r>     6.8140     1.4697   799.9967 </r>
       <r>     7.0714     0.0128   800.0000 </r>
       <r>     7.3289     0.0000   800.0000 </r>
       <r>     7.5863     0.0000   800.0000 </r>
       <r>     7.8437     0.0000   800.0000 </r>
       <r>     8.1011     0.0000   800.0000 </r>
       <r>     8.3585     0.0000   800.0000 </r>
       <r>     8.6159     0.0000   800.0000 </r>
       <r>     8.8734     0.0000   800.0000 </r>
       <r>     9.1308     0.0000   800.0000 </r>
       <r>     9.3882     0.0000   800.0000 </r>
       <r>     9.6456     0.0000   800.0000 </r>
       <r>     9.9030     0.0000   800.0000 </r>
      </set>
     </set>
    </array>
   </total>
  </dos>
 </calculation>
 <structure name="finalpos" >
  <crystal>
   <varray name="basis" >
    <v>       9.57841000       0.00000000       0.00000000 </v>
    <v>       0.00000000      11.25646304       0.00000000 </v>
    <v>       0.00000000       0.00000000      17.71135890 </v>
   </varray>
   <i name="volume">   1909.62132631 </i>
   <varray name="rec_basis" >
    <v>       0.10440146       0.00000000       0.00000000 </v>
    <v>       0.00000000       0.08883785       0.00000000 </v>
    <v>       0.00000000       0.00000000       0.05646094 </v>
   </varray>
  </crystal>
  <varray name="positions" >
   <v>       0.08076718       0.43119705       0.01320290 </v>
   <v>       0.08076718       0.37934512       0.18735913 </v>
   <v>       0.08076718       0.32749318       0.36151537 </v>
   <v>       0.58076718       0.15527109       0.10028102 </v>
   <v>       0.58076718       0.10341916       0.27443725 </v>
   <v>       0.21287018       0.18804042       0.16435257 </v>
   <v>       0.21287018       0.13618848       0.33850881 </v>
   <v>       0.71287018       0.46396638       0.07727446 </v>
   <v>       0.71287018       0.41211444       0.25143069 </v>
   <v>       0.71287018       0.36026251       0.42558692 </v>
   <v>       0.34497318       0.43119705       0.01320290 </v>
   <v>       0.34497318       0.37934512       0.18735913 </v>
   <v>       0.34497318       0.32749318       0.36151537 </v>
   <v>       0.84497318       0.15527109       0.10028102 </v>
   <v>       0.84497318       0.10341916       0.27443725 </v>
   <v>       0.08076718       0.93119705       0.01320290 </v>
   <v>       0.08076718       0.87934512       0.18735913 </v>
   <v>       0.08076718       0.82749318       0.36151537 </v>
   <v>       0.58076718       0.65527109       0.10028102 </v>
   <v>       0.58076718       0.60341916       0.27443725 </v>
   <v>       0.21287018       0.68804042       0.16435257 </v>
   <v>       0.21287018       0.63618848       0.33850881 </v>
   <v>       0.71287018       0.96396638       0.07727446 </v>
   <v>       0.71287018       0.91211444       0.25143069 </v>
   <v>       0.71287018       0.86026251       0.42558692 </v>
   <v>       0.34497318       0.93119705       0.01320290 </v>
   <v>       0.34497318       0.87934512       0.18735913 </v>
   <v>       0.34497318       0.82749318       0.36151537 </v>
   <v>       0.84497318       0.65527109       0.10028102 </v>
   <v>       0.84497318       0.60341916       0.27443725 </v>
   <v>       0.38108518       0.20719108       0.26123435 </v>
   <v>       0.38108518       0.15533915       0.43539058 </v>
   <v>       0.88108518       0.48311704       0.17415623 </v>
   <v>       0.88108518       0.43126511       0.34831247 </v>
   <v>       0.88108518       0.03496899       0.00000000 </v>
   <v>       0.21287018       0.45079130       0.29053004 </v>
   <v>       0.21287018       0.00264325       0.11637381 </v>
   <v>       0.71287018       0.27856921       0.02929569 </v>
   <v>       0.71287018       0.22671728       0.20345193 </v>
   <v>       0.71287018       0.17486534       0.37760816 </v>
   <v>       0.04465518       0.25904302       0.08707812 </v>
   <v>       0.04465518       0.20719108       0.26123435 </v>
   <v>       0.04465518       0.15533915       0.43539058 </v>
   <v>       0.54465518       0.48311704       0.17415623 </v>
   <v>       0.54465518       0.43126511       0.34831247 </v>
   <v>       0.38108518       0.75904302       0.08707812 </v>
   <v>       0.38108518       0.70719108       0.26123435 </v>
   <v>       0.38108518       0.65533915       0.43539058 </v>
   <v>       0.88108518       0.98311704       0.17415623 </v>
   <v>       0.88108518       0.93126511       0.34831247 </v>
   <v>       0.88108518       0.53496899       0.00000000 </v>
   <v>       0.21287018       0.95079130       0.29053004 </v>
   <v>       0.21287018       0.50264325       0.11637381 </v>
   <v>       0.71287018       0.77856921       0.02929569 </v>
   <v>       0.71287018       0.72671728       0.20345193 </v>
   <v>       0.04465518       0.75904302       0.08707812 </v>
   <v>       0.04465518       0.70719108       0.26123435 </v>
   <v>       0.04465518       0.65533915       0.43539058 </v>
   <v>       0.54465518       0.98311704       0.17415623 </v>
   <v>       0.54465518       0.93126511       0.34831247 </v>
  </varray>
 </structure>
</modeling>
