"Millerite NiS"                         
           1
     9.425103    3.573298    0.000000
     0.000000   10.079733    0.000000
     0.000000    0.000000   20.320516
   Ni   S 
    36    36
Direct configuration=     1
   0.37433214  0.75136220  0.12027295
   0.52460066  0.60109369  0.24947747
   0.67486917  0.45082518  0.37868199
   0.82513768  0.30055666  0.50788650
   0.60748647  0.18487454  0.03413661
   0.75775498  0.03460603  0.16334113
   0.05829201  0.73406901  0.42175016
   0.90802350  0.88433752  0.29254564
   0.14117782  0.31784986  0.20640930
   0.29144633  0.16758135  0.33561381
   0.44171484  0.01731283  0.46481833
   0.99090931  0.46811837  0.07720478
   0.00994000  0.11575435  0.43961329
   0.55913446  0.56655989  0.05199974
   0.70940297  0.41629137  0.18120425
   0.85967148  0.26602286  0.31040877
   0.09282581  0.69953520  0.22427243
   0.24309432  0.54926669  0.35347694
   0.39336283  0.39899818  0.48268146
   0.94255730  0.84980372  0.09506791
   0.17571162  0.28331606  0.00893156
   0.32598014  0.13304754  0.13813608
   0.47624865  0.98277903  0.26734060
   0.62651716  0.83251052  0.39654511
   0.04964184  0.34025851  0.47374989
   0.59883630  0.79106404  0.08613634
   0.74910482  0.64079553  0.21534086
   0.89937333  0.49052702  0.34454538
   0.83199063  0.22457639  0.00000000
   0.98225914  0.07430787  0.12920452
   0.13252765  0.92403936  0.25840903
   0.28279617  0.77377085  0.38761355
   0.21541346  0.50782022  0.04306817
   0.36568198  0.35755170  0.17227269
   0.51595049  0.20728319  0.30147720
   0.66621900  0.05701468  0.43068172
   0.06382157  0.26208477  0.36881843
   0.21409008  0.11181626  0.49802294
   0.76328455  0.56262180  0.11040939
   0.91355306  0.41235329  0.23961391
   0.14670738  0.84586563  0.15347757
   0.29697590  0.69559712  0.28268208
   0.44724441  0.54532860  0.41188660
   0.99643887  0.99613414  0.02427305
   0.37986171  0.27937797  0.06734122
   0.53013022  0.12910946  0.19654574
   0.68039873  0.97884095  0.32575026
   0.83066725  0.82857243  0.45495477
   0.37769571  0.94821064  0.06814143
   0.52796422  0.79794213  0.19734595
   0.67823273  0.64767362  0.32655046
   0.82850124  0.49740510  0.45575498
   0.76111854  0.23145447  0.11120960
   0.91138706  0.08118596  0.24041412
   0.06165557  0.93091744  0.36961863
   0.21192408  0.78064893  0.49882315
   0.14454138  0.51469830  0.15427777
   0.29480989  0.36442979  0.28348229
   0.44507841  0.21416128  0.41268681
   0.99427287  0.66496681  0.02507326
   0.32714087  0.66233548  0.02467315
   0.47740938  0.51206696  0.15387767
   0.62767789  0.36179845  0.28308219
   0.77794641  0.21152994  0.41228670
   0.01110073  0.64504228  0.32615036
   0.16136925  0.49477377  0.45535487
   0.71056371  0.94557931  0.06774133
   0.86083222  0.79531079  0.19694584
   0.09398654  0.22882313  0.11080950
   0.24425506  0.07855462  0.24001401
   0.39452357  0.92828611  0.36921853
   0.54479208  0.77801760  0.49842305
