LAMMPS (5 Jun 2019)
OMP_NUM_THREADS environment is not set. Defaulting to 1 thread. (../comm.cpp:88)
  using 1 OpenMP thread(s) per MPI task
Reading data file ...
  triclinic box = (0 0 0) to (11.2565 10.0628 22.8836) with tilt (5.04456 0 0)
  1 by 1 by 1 MPI processor grid
  reading atoms ...
  104 atoms
  read_data CPU = 0.000860654 secs
65 atoms in group bulk
WARNING: Using 'neigh_modify every 1 delay 0 check yes' setting during minimization (../min.cpp:168)
Neighbor list info ...
  update every 1 steps, delay 0 steps, check yes
  max neighbors/atom: 2000, page size: 100000
  master list distance cutoff = 8.5
  ghost atom cutoff = 8.5
  binsize = 4.25, bins = 4 3 6
  1 neighbor lists, perpetual/occasional/extra = 1 0 0
  (1) pair eam/alloy, perpetual
      attributes: half, newton on
      pair build: half/bin/newton/tri
      stencil: half/bin/3d/newton/tri
      bin: standard
Setting up cg style minimization ...
  Unit style    : metal
  Current step  : 0
Per MPI rank memory allocation (min/avg/max) = 4.125 | 4.125 | 4.125 Mbytes
Step Temp E_pair E_mol TotEng Press 
       0            0   -438.55791            0   -438.55791   -139256.88 
      32            0   -465.65897            0   -465.65897   -53400.091 
Loop time of 0.0342106 on 1 procs for 32 steps with 104 atoms

99.0% CPU use with 1 MPI tasks x 1 OpenMP threads

Minimization stats:
  Stopping criterion = energy tolerance
  Energy initial, next-to-last, final = 
         -438.55791485     -465.654932869     -465.658967733
  Force two-norm initial, final = 14.6427 0.21968
  Force max component initial, final = 2.80053 0.0695153
  Final line search alpha, max atom move = 0.363775 0.0252879
  Iterations, force evaluations = 32 51

MPI task timing breakdown:
Section |  min time  |  avg time  |  max time  |%varavg| %total
---------------------------------------------------------------
Pair    | 0.032123   | 0.032123   | 0.032123   |   0.0 | 93.90
Neigh   | 0.00093655 | 0.00093655 | 0.00093655 |   0.0 |  2.74
Comm    | 0.00061771 | 0.00061771 | 0.00061771 |   0.0 |  1.81
Output  | 0          | 0          | 0          |   0.0 |  0.00
Modify  | 4.5214e-05 | 4.5214e-05 | 4.5214e-05 |   0.0 |  0.13
Other   |            | 0.0004885  |            |       |  1.43

Nlocal:    104 ave 104 max 104 min
Histogram: 1 0 0 0 0 0 0 0 0 0
Nghost:    1161 ave 1161 max 1161 min
Histogram: 1 0 0 0 0 0 0 0 0 0
Neighs:    7291 ave 7291 max 7291 min
Histogram: 1 0 0 0 0 0 0 0 0 0

Total # of neighbors = 7291
Ave neighs/atom = 70.1058
Neighbor list builds = 1
Dangerous builds = 0
System init for write_data ...
Total wall time: 0:00:00
