 vasp.6.1.0 28Jan20 (build Mar 31 2020 17:42:31) gamma-only                     
  
 executed on             LinuxIFC date 2020.04.12  20:09:30
 running on   48 total cores
 distrk:  each k-point on   48 cores,    1 groups
 distr:  one band on NCORE=   6 cores,    8 groups


--------------------------------------------------------------------------------------------------------


 INCAR:
 POTCAR:    PAW_PBE Ni_pv 06Sep2000               
 POTCAR:    PAW_PBE S 06Sep2000                   
 POTCAR:    PAW_PBE Ni_pv 06Sep2000               
   VRHFIN =Ni:                                                                                      
   LEXCH  = PE                                                                                      
   EATOM  =  3501.1230 eV,  257.3253 Ry                                                             
                                                                                                    
   TITEL  = PAW_PBE Ni_pv 06Sep2000                                                                 
   LULTRA =        F    use ultrasoft PP ?                                                          
   IUNSCR =        1    unscreen: 0-lin 1-nonlin 2-no                                               
   RPACOR =    1.500    partial core radius                                                         
   POMASS =   58.690; ZVAL   =   16.000    mass and valenz                                          
   RCORE  =    2.000    outmost cutoff radius                                                       
   RWIGS  =    2.000; RWIGS  =    1.058    wigner-seitz radius (au A)                               
   ENMAX  =  367.986; ENMIN  =  275.989 eV                                                          
   RCLOC  =    1.301    cutoff for local pot                                                        
   LCOR   =        T    correct aug charges                                                         
   LPAW   =        T    paw PP                                                                      
   EAUG   =  703.443                                                                                
   DEXC   =    0.000                                                                                
   RMAX   =    2.041    core radius for proj-oper                                                   
   RAUG   =    1.300    factor for augmentation sphere                                              
   RDEP   =    2.103    radius for radial grids                                                     
   RDEPT  =    1.618    core radius for aug-charge                                                  
                                                                                                    
   Atomic configuration                                                                             
    8 entries                                                                                       
     n  l   j            E        occ.                                                              
     1  0  0.50     -8206.4253   2.0000                                                             
     2  0  0.50      -976.1748   2.0000                                                             
     2  1  1.50      -839.0571   6.0000                                                             
     3  0  0.50      -105.9991   2.0000                                                             
     3  1  1.50       -66.4603   6.0000                                                             
     3  2  2.50        -4.6458   9.0000                                                             
     4  0  0.50        -4.4926   1.0000                                                             
     4  3  2.50        -1.3606   0.0000                                                             
   Description                                                                                      
     l       E           TYP  RCUT    TYP  RCUT                                                     
     1    -66.4602962     23  1.700                                                                 
     1     -1.3605826     23  1.700                                                                 
     2     -4.6457867     23  2.000                                                                 
     2     -6.0063693     23  2.000                                                                 
     0     -4.4925576     23  1.900                                                                 
     0     16.3626226     23  1.900                                                                 
  local pseudopotential read in
  partial core-charges read in
  partial kinetic energy density read in
  atomic valenz-charges read in
  non local Contribution for L=           1  read in
    real space projection operators read in
  non local Contribution for L=           1  read in
    real space projection operators read in
  non local Contribution for L=           2  read in
    real space projection operators read in
  non local Contribution for L=           2  read in
    real space projection operators read in
  non local Contribution for L=           0  read in
    real space projection operators read in
  non local Contribution for L=           0  read in
    real space projection operators read in
    PAW grid and wavefunctions read in
 
   number of l-projection  operators is LMAX  =           6
   number of lm-projection operators is LMMAX =          18
 
 POTCAR:    PAW_PBE S 06Sep2000                   
   VRHFIN =S : s2p4                                                                                 
   LEXCH  = PE                                                                                      
   EATOM  =   276.8230 eV,   20.3459 Ry                                                             
                                                                                                    
   TITEL  = PAW_PBE S 06Sep2000                                                                     
   LULTRA =        F    use ultrasoft PP ?                                                          
   IUNSCR =        1    unscreen: 0-lin 1-nonlin 2-no                                               
   RPACOR =    1.500    partial core radius                                                         
   POMASS =   32.066; ZVAL   =    6.000    mass and valenz                                          
   RCORE  =    1.900    outmost cutoff radius                                                       
   RWIGS  =    2.200; RWIGS  =    1.164    wigner-seitz radius (au A)                               
   ENMAX  =  258.689; ENMIN  =  194.016 eV                                                          
   ICORE  =        2    local potential                                                             
   LCOR   =        T    correct aug charges                                                         
   LPAW   =        T    paw PP                                                                      
   EAUG   =  335.092                                                                                
   DEXC   =    0.000                                                                                
   RMAX   =    1.942    core radius for proj-oper                                                   
   RAUG   =    1.300    factor for augmentation sphere                                              
   RDEP   =    1.954    radius for radial grids                                                     
   RDEPT  =    1.744    core radius for aug-charge                                                  
                                                                                                    
   Atomic configuration                                                                             
    6 entries                                                                                       
     n  l   j            E        occ.                                                              
     1  0  0.50     -2405.8406   2.0000                                                             
     2  0  0.50      -211.7007   2.0000                                                             
     2  1  1.50      -156.4958   6.0000                                                             
     3  0  0.50       -17.2562   2.0000                                                             
     3  1  0.50        -7.0085   4.0000                                                             
     3  2  1.50        -6.8029   0.0000                                                             
   Description                                                                                      
     l       E           TYP  RCUT    TYP  RCUT                                                     
     0    -17.2561641     23  1.900                                                                 
     0    -15.8743224     23  1.900                                                                 
     1     -7.0085400     23  1.900                                                                 
     1     -2.7779785     23  1.900                                                                 
     2     -6.8029130     23  1.900                                                                 
  local pseudopotential read in
  partial core-charges read in
  partial kinetic energy density read in
  atomic valenz-charges read in
  non local Contribution for L=           0  read in
    real space projection operators read in
  non local Contribution for L=           0  read in
    real space projection operators read in
  non local Contribution for L=           1  read in
    real space projection operators read in
  non local Contribution for L=           1  read in
    real space projection operators read in
    PAW grid and wavefunctions read in
 
   number of l-projection  operators is LMAX  =           4
   number of lm-projection operators is LMMAX =           8
 
 Optimization of the real space projectors (new method)

 maximal supplied QI-value         = 18.90
 optimisation between [QCUT,QGAM] = [ 10.77, 21.73] = [ 32.49,132.25] Ry 
 Optimized for a Real-space Cutoff    1.38 Angstroem

   l    n(q)    QCUT    max X(q) W(low)/X(q) W(high)/X(q)  e(spline) 
   1      8    10.771     2.836    0.40E-04    0.29E-04    0.12E-06
   1      8    10.771     4.023    0.10E-03    0.48E-04    0.29E-06
   2      8    10.771    73.368    0.42E-03    0.97E-04    0.44E-06
   2      8    10.771    69.010    0.42E-03    0.99E-04    0.45E-06
   0      9    10.771    54.797    0.10E-03    0.56E-04    0.74E-07
   0      9    10.771    24.266    0.89E-04    0.49E-04    0.67E-07
 Optimization of the real space projectors (new method)

 maximal supplied QI-value         = 19.84
 optimisation between [QCUT,QGAM] = [ 10.71, 21.63] = [ 32.15,130.99] Ry 
 Optimized for a Real-space Cutoff    1.19 Angstroem

   l    n(q)    QCUT    max X(q) W(low)/X(q) W(high)/X(q)  e(spline) 
   0      8    10.715   187.594    0.41E-03    0.53E-04    0.66E-07
   0      8    10.715   164.243    0.41E-03    0.53E-04    0.65E-07
   1      7    10.715    67.533    0.19E-03    0.59E-03    0.68E-07
   1      7    10.715    50.729    0.19E-03    0.58E-03    0.67E-07
  PAW_PBE Ni_pv 06Sep2000               :
 energy of atom  1       EATOM=-3501.1230
 kinetic energy error for atom=    0.0925 (will be added to EATOM!!)
  PAW_PBE S 06Sep2000                   :
 energy of atom  2       EATOM= -276.8230
 kinetic energy error for atom=    0.0033 (will be added to EATOM!!)
 
 
 POSCAR: Structure 33 made from -211-9.xsd file
  positions in direct lattice
  No initial velocities read in
 exchange correlation table for  LEXCH =        8
   RHO(1)=    0.500       N(1)  =     2000
   RHO(2)=  100.500       N(2)  =     4000
 


--------------------------------------------------------------------------------------------------------


 ion  position               nearest neighbor table
   1  0.247  0.945  0.000-  41 2.25  49 2.36  61 2.36
   2  0.397  0.795  0.127-  42 2.25  49 2.26  61 2.26  50 2.36  62 2.36  13 2.53  26 2.53
   3  0.547  0.645  0.254-  43 2.25  62 2.26  50 2.26  63 2.36  51 2.36  27 2.53  14 2.53
   4  0.698  0.494  0.381-  44 2.25  51 2.26  63 2.26  52 2.36  64 2.36  15 2.53  28 2.53
   5  0.848  0.344  0.508-  64 2.26  52 2.26  25 2.53
   6  0.114  0.412  0.169-  45 2.25  68 2.26  53 2.26  65 2.36  54 2.36  29 2.53  16 2.53
   7  0.264  0.261  0.296-  46 2.25  65 2.26  54 2.26  55 2.36  66 2.36  17 2.53  30 2.53
   8  0.414  0.111  0.423-  47 2.25  55 2.26  66 2.26  56 2.36  67 2.36  31 2.53  18 2.53
   9  0.964  0.562  0.042-  48 2.25  53 2.36  68 2.36  20 2.53
  10  0.680  0.178  0.085-  38 2.25  69 2.26  70 2.36  60 2.36  22 2.53  36 2.53
  11  0.831  0.028  0.212-  39 2.25  60 2.26  70 2.26  57 2.36  71 2.36  23 2.53  33 2.53
  12  0.981  0.878  0.338-  40 2.25  57 2.26  71 2.26  58 2.36  72 2.36  34 2.53  24 2.53
  13  0.357  0.570  0.093-  53 2.25  61 2.26  62 2.36  38 2.36   2 2.53  26 2.53
  14  0.508  0.420  0.220-  54 2.25  62 2.26  38 2.26  39 2.36  63 2.36  27 2.53   3 2.53
  15  0.658  0.270  0.347-  55 2.25  63 2.26  39 2.26  64 2.36  40 2.36   4 2.53  28 2.53
  16  0.074  0.187  0.136-  60 2.25  68 2.26  41 2.26  42 2.36  65 2.36   6 2.53  29 2.53
  17  0.224  0.037  0.263-  57 2.25  42 2.26  65 2.26  66 2.36  43 2.36   7 2.53  30 2.53
  18  0.375  0.886  0.390-  58 2.25  66 2.26  43 2.26  44 2.36  67 2.36  31 2.53   8 2.53
  19  0.525  0.736  0.517-  59 2.25  67 2.26  44 2.26  32 2.53
  20  0.924  0.337  0.009-  41 2.36  68 2.36   9 2.53
  21  0.091  0.503  0.432-  52 2.25  72 2.26  46 2.26  47 2.36  35 2.53
  22  0.641  0.954  0.051-  49 2.25  69 2.26  48 2.36  70 2.36  36 2.53  10 2.53
  23  0.791  0.804  0.178-  50 2.25  70 2.26  48 2.26  71 2.36  45 2.36  11 2.53  33 2.53
  24  0.941  0.653  0.305-  51 2.25  71 2.26  45 2.26  46 2.36  72 2.36  34 2.53  12 2.53
  25  0.033  0.159  0.441-  66 2.25  40 2.26  52 2.26  37 2.36   5 2.53
  26  0.582  0.610  0.060-  49 2.26  50 2.36  38 2.36   2 2.53  13 2.53
  27  0.732  0.460  0.187-  68 2.25  50 2.26  38 2.26  51 2.36  39 2.36  14 2.53   3 2.53
  28  0.882  0.310  0.314-  65 2.25  39 2.26  51 2.26  40 2.36  52 2.36   4 2.53  15 2.53
  29  0.299  0.227  0.102-  69 2.25  53 2.26  41 2.26  54 2.36  42 2.36   6 2.53  16 2.53
  30  0.449  0.076  0.229-  70 2.25  42 2.26  54 2.26  55 2.36  43 2.36  17 2.53   7 2.53
  31  0.599  0.926  0.356-  71 2.25  55 2.26  43 2.26  56 2.36  44 2.36   8 2.53  18 2.53
  32  0.749  0.776  0.483-  72 2.25  56 2.26  44 2.26  19 2.53
  33  0.015  0.843  0.144-  61 2.25  48 2.26  60 2.26  45 2.36  57 2.36  23 2.53  11 2.53
  34  0.166  0.693  0.271-  62 2.25  57 2.26  45 2.26  46 2.36  58 2.36  12 2.53  24 2.53
  35  0.316  0.543  0.398-  63 2.25  58 2.26  46 2.26  47 2.36  59 2.36  21 2.53
  36  0.865  0.994  0.018-  60 2.36  48 2.36  22 2.53  10 2.53
  37  0.037  0.955  0.498-  25 2.36
  38  0.586  0.406  0.117-  10 2.25  14 2.26  27 2.26  26 2.36  13 2.36
  39  0.736  0.256  0.244-  11 2.25  28 2.26  15 2.26  14 2.36  27 2.36
  40  0.886  0.105  0.371-  12 2.25  25 2.26  15 2.36  28 2.36
  41  0.152  0.173  0.033-   1 2.25  16 2.26  29 2.26  20 2.36
  42  0.303  0.023  0.160-   2 2.25  30 2.26  17 2.26  16 2.36  29 2.36
  43  0.453  0.872  0.286-   3 2.25  18 2.26  31 2.26  17 2.36  30 2.36
  44  0.603  0.722  0.413-   4 2.25  19 2.26  32 2.26  31 2.36  18 2.36
  45  0.019  0.639  0.202-   6 2.25  24 2.26  34 2.26  23 2.36  33 2.36
  46  0.170  0.489  0.329-   7 2.25  35 2.26  21 2.26  34 2.36  24 2.36
  47  0.320  0.339  0.456-   8 2.25  35 2.36  21 2.36
  48  0.869  0.789  0.075-   9 2.25  33 2.26  23 2.26  22 2.36  36 2.36
  49  0.486  0.842  0.033-  22 2.25   2 2.26  26 2.26   1 2.36
  50  0.636  0.692  0.160-  23 2.25  27 2.26   3 2.26   2 2.36  26 2.36
  51  0.787  0.542  0.287-  24 2.25   4 2.26  28 2.26  27 2.36   3 2.36
  52  0.937  0.391  0.414-  21 2.25   5 2.26  25 2.26   4 2.36  28 2.36
  53  0.203  0.459  0.075-  13 2.25  29 2.26   6 2.26   9 2.36
  54  0.353  0.308  0.202-  14 2.25   7 2.26  30 2.26  29 2.36   6 2.36
  55  0.503  0.158  0.329-  15 2.25   8 2.26  31 2.26   7 2.36  30 2.36
  56  0.654  0.008  0.456-  32 2.26  31 2.36   8 2.36
  57  0.070  0.925  0.245-  17 2.25  34 2.26  12 2.26  11 2.36  33 2.36
  58  0.220  0.775  0.372-  18 2.25  35 2.26  34 2.36  12 2.36
  59  0.370  0.624  0.498-  19 2.25  35 2.36
  60  0.920  0.075  0.118-  16 2.25  11 2.26  33 2.26  36 2.36  10 2.36
  61  0.200  0.792  0.076-  33 2.25  13 2.26   2 2.26   1 2.36
  62  0.350  0.641  0.203-  34 2.25  14 2.26   3 2.26  13 2.36   2 2.36
  63  0.501  0.491  0.330-  35 2.25   4 2.26  15 2.26   3 2.36  14 2.36
  64  0.651  0.341  0.457-   5 2.26  15 2.36   4 2.36
  65  0.067  0.258  0.245-  28 2.25   7 2.26  17 2.26   6 2.36  16 2.36
  66  0.218  0.108  0.372-  25 2.25  18 2.26   8 2.26  17 2.36   7 2.36
  67  0.368  0.957  0.499-  19 2.26  18 2.36   8 2.36
  68  0.917  0.408  0.118-  27 2.25  16 2.26   6 2.26  20 2.36   9 2.36
  69  0.483  0.175  0.033-  29 2.25  10 2.26  22 2.26
  70  0.634  0.025  0.160-  30 2.25  11 2.26  23 2.26  10 2.36  22 2.36
  71  0.784  0.874  0.287-  31 2.25  24 2.26  12 2.26  23 2.36  11 2.36
  72  0.934  0.724  0.414-  32 2.25  21 2.26  12 2.36  24 2.36
 
  LATTYP: Found a base centered orthorhombic cell.
 ALAT       =    11.4527836704
 B/A-ratio  =     1.4485816945
 C/A-ratio  =     1.8059804630
  
  Lattice vectors:
  
 A1 = (   9.4251025535,   3.5732980427,   0.0000000000)
 A2 = (   0.0000000000, -10.0797329849,   0.0000000000)
 A3 = (   0.0000000000,   0.0000000000, -20.6835035552)


Analysis of symmetry for initial positions (statically):
=====================================================================
 Subroutine PRICEL returns:
 Original cell was already a primitive cell.
 

 Routine SETGRP: Setting up the symmetry group for a 
 base centered orthorhombic supercell.


 Subroutine GETGRP returns: Found  1 space group operations
 (whereof  1 operations were pure point group operations)
 out of a pool of  8 trial point group operations.


The static configuration has the point symmetry C_1 .


Analysis of symmetry for dynamics (positions and initial velocities):
=====================================================================
 Subroutine PRICEL returns:
 Original cell was already a primitive cell.
 

 Routine SETGRP: Setting up the symmetry group for a 
 base centered orthorhombic supercell.


 Subroutine GETGRP returns: Found  1 space group operations
 (whereof  1 operations were pure point group operations)
 out of a pool of  8 trial point group operations.


The dynamic configuration has the point symmetry C_1 .


 Subroutine INISYM returns: Found  1 space group operations
 (whereof  1 operations are pure point group operations),
 and found     1 'primitive' translations


----------------------------------------------------------------------------------------

                                     Primitive cell                                     

  volume of cell :    1964.9849

  direct lattice vectors                    reciprocal lattice vectors
     9.425102554  3.573298043  0.000000000     0.106099641  0.000000000  0.000000000
     0.000000000 10.079732985  0.000000000    -0.037612667  0.099208977  0.000000000
     0.000000000  0.000000000 20.683503555     0.000000000  0.000000000  0.048347708

  length of vectors
    10.079732985 10.079732985 20.683503555     0.106099641  0.106099641  0.048347708

  position of ions in fractional coordinates (direct lattice)
     0.246790380  0.945220301  0.000000000
     0.397058892  0.794951789  0.126937024
     0.547327404  0.644683277  0.253874049
     0.697595917  0.494414764  0.380811073
     0.847864429  0.344146252  0.507748097
     0.113815063  0.411528951  0.169249366
     0.264083575  0.261260439  0.296186390
     0.414352088  0.110991927  0.423123414
     0.963546550  0.561797464  0.042312341
     0.680302721  0.178374626  0.084624683
     0.830571234  0.028106114  0.211561707
     0.980839746  0.877837602  0.338498732
     0.357357049  0.570447632  0.093399501
     0.507625562  0.420179119  0.220336525
     0.657894074  0.269910607  0.347273550
     0.074113220  0.187024794  0.135711842
     0.224381733  0.036756282  0.262648867
     0.374650245  0.886487769  0.389585891
     0.524918757  0.736219257  0.516522915
     0.923844708  0.337293306  0.008774818
     0.091406416  0.503064932  0.431898232
     0.640600879  0.953870469  0.051087159
     0.790869391  0.803601957  0.178024184
     0.941137903  0.653333444  0.304961208
     0.032666744  0.159343937  0.440673050
     0.581861207  0.610149474  0.059861977
     0.732129719  0.459880962  0.186799002
     0.882398232  0.309612449  0.313736026
     0.298617378  0.226726637  0.102174319
     0.448885890  0.076458124  0.229111343
     0.599154402  0.926189612  0.356048368
     0.749422915  0.775921099  0.482985392
     0.015373548  0.843303799  0.144486660
     0.165642061  0.693035287  0.271423685
     0.315910573  0.542766774  0.398360709
     0.865105036  0.993572312  0.017549636
     0.036604831  0.955193850  0.498057640
     0.585799294  0.405999387  0.117246567
     0.736067806  0.255730875  0.244183592
     0.886336318  0.105462363  0.371120616
     0.152286952  0.172845062  0.032621884
     0.302555464  0.022576550  0.159558909
     0.452823977  0.872308037  0.286495933
     0.603092489  0.722039525  0.413432957
     0.019311635  0.639153712  0.201871250
     0.169580148  0.488885200  0.328808274
     0.319848660  0.338616688  0.455745299
     0.869043123  0.789422225  0.074934226
     0.486085617  0.842143064  0.033014966
     0.636354129  0.691874552  0.159951990
     0.786622642  0.541606039  0.286889015
     0.936891154  0.391337527  0.413826039
     0.202841788  0.458720227  0.075327307
     0.353110300  0.308451714  0.202264332
     0.503378812  0.158183202  0.329201356
     0.653647325  0.007914689  0.456138380
     0.069866471  0.925028877  0.244576673
     0.220134983  0.774760364  0.371513698
     0.370403496  0.624491852  0.498450722
     0.919597958  0.075297389  0.117639649
     0.200210452  0.791588228  0.075720389
     0.350478965  0.641319716  0.202657413
     0.500747477  0.491051204  0.329594438
     0.651015990  0.340782691  0.456531462
     0.067235136  0.257896879  0.244969755
     0.217503648  0.107628366  0.371906779
     0.367772160  0.957359854  0.498843804
     0.916966623  0.408165391  0.118032731
     0.483454282  0.175011066  0.033408048
     0.633722794  0.024742554  0.160345072
     0.783991306  0.874474041  0.287282096
     0.934259819  0.724205529  0.414219121

  ion indices of the primitive-cell ions
   primitive index   ion index
                 1           1
                 2           2
                 3           3
                 4           4
                 5           5
                 6           6
                 7           7
                 8           8
                 9           9
                10          10
                11          11
                12          12
                13          13
                14          14
                15          15
                16          16
                17          17
                18          18
                19          19
                20          20
                21          21
                22          22
                23          23
                24          24
                25          25
                26          26
                27          27
                28          28
                29          29
                30          30
                31          31
                32          32
                33          33
                34          34
                35          35
                36          36
                37          37
                38          38
                39          39
                40          40
                41          41
                42          42
                43          43
                44          44
                45          45
                46          46
                47          47
                48          48
                49          49
                50          50
                51          51
                52          52
                53          53
                54          54
                55          55
                56          56
                57          57
                58          58
                59          59
                60          60
                61          61
                62          62
                63          63
                64          64
                65          65
                66          66
                67          67
                68          68
                69          69
                70          70
                71          71
                72          72

----------------------------------------------------------------------------------------

 
 
 KPOINTS: gamma-point-only calculation. no periodi

Automatic generation of k-mesh.
Space group operators:
 irot       det(A)        alpha          n_x          n_y          n_z        tau_x        tau_y        tau_z
    1     1.000000     0.000000     1.000000     0.000000     0.000000     0.000000     0.000000     0.000000
 
 Subroutine IBZKPT returns following result:
 ===========================================
 
 Found      1 irreducible k-points:
 
 Following reciprocal coordinates:
            Coordinates               Weight
  0.000000  0.000000  0.000000      1.000000
 
 Following cartesian coordinates:
            Coordinates               Weight
  0.000000  0.000000  0.000000      1.000000
 


--------------------------------------------------------------------------------------------------------




 Dimension of arrays:
   k-points           NKPTS =      1   k-points in BZ     NKDIM =      1   number of bands    NBANDS=    480
   number of dos      NEDOS =    301   number of ions     NIONS =     72
   non local maximal  LDIM  =      6   non local SUM 2l+1 LMDIM =     18
   total plane-waves  NPLWV = 314928
   max r-space proj   IRMAX =   1817   max aug-charges    IRDMAX=   5248
   dimension x,y,z NGX =    54 NGY =   54 NGZ =  108
   dimension x,y,z NGXF=   108 NGYF=  108 NGZF=  216
   support grid    NGXF=   108 NGYF=  108 NGZF=  216
   ions per type =              36  36
   NGX,Y,Z   is equivalent  to a cutoff of   8.91,  8.91,  8.68 a.u.
   NGXF,Y,Z  is equivalent  to a cutoff of  17.81, 17.81, 17.36 a.u.

 SYSTEM =  "Millerite NiS"                         
 POSCAR =  Structure 33 made from -211-9.xsd file  

 Startparameter for this run:
   NWRITE =      2    write-flag & timer
   PREC   = normal    normal or accurate (medium, high low for compatibility)
   ISTART =      0    job   : 0-new  1-cont  2-samecut
   ICHARG =      2    charge: 1-file 2-atom 10-const
   ISPIN  =      1    spin polarized calculation?
   LNONCOLLINEAR =      F non collinear calculations
   LSORBIT =      F    spin-orbit coupling
   INIWAV =      1    electr: 0-lowe 1-rand  2-diag
   LASPH  =      F    aspherical Exc in radial PAW
   METAGGA=      F    non-selfconsistent MetaGGA calc.

 Electronic Relaxation 1
   ENCUT  =  450.0 eV  33.07 Ry    5.75 a.u.  17.43 17.43 35.78*2*pi/ulx,y,z
   ENINI  =  450.0     initial cutoff
   ENAUG  =  703.4 eV  augmentation charge cutoff
   NELM   =    100;   NELMIN=  2; NELMDL= -5     # of ELM steps 
   EDIFF  = 0.1E-03   stopping-criterion for ELM
   LREAL  =      T    real-space projection
   NLSPLINE    = F    spline interpolate recip. space projectors
   LCOMPAT=      F    compatible to vasp.4.4
   GGA_COMPAT  = T    GGA compatible to vasp.4.4-vasp.4.6
   LMAXPAW     = -100 max onsite density
   LMAXMIX     =    2 max onsite mixed and CHGCAR
   VOSKOWN=      0    Vosko Wilk Nusair interpolation
   ROPT   =   -0.00050  -0.00050
 Ionic relaxation
   EDIFFG = 0.1E-02   stopping-criterion for IOM
   NSW    =      0    number of steps for IOM
   NBLOCK =      1;   KBLOCK =      1    inner block; outer block 
   IBRION =     -1    ionic relax: 0-MD 1-quasi-New 2-CG
   NFREE  =      0    steps in history (QN), initial steepest desc. (CG)
   ISIF   =      2    stress and relaxation
   IWAVPR =     10    prediction:  0-non 1-charg 2-wave 3-comb
   ISYM   =      2    0-nonsym 1-usesym 2-fastsym
   LCORR  =      T    Harris-Foulkes like correction to forces

   POTIM  = 0.5000    time-step for ionic-motion
   TEIN   =    0.0    initial temperature
   TEBEG  =    0.0;   TEEND  =   0.0 temperature during run
   SMASS  =  -3.00    Nose mass-parameter (am)
   estimated Nose-frequenzy (Omega)   =  0.10E-29 period in steps = 0.13E+47 mass=  -0.232E-26a.u.
   SCALEE = 1.0000    scale energy and forces
   NPACO  =    256;   APACO  = 16.0  distance and # of slots for P.C.
   PSTRESS=    0.0 pullay stress

  Mass of Ions in am
   POMASS =  58.69 32.07
  Ionic Valenz
   ZVAL   =  16.00  6.00
  Atomic Wigner-Seitz radii
   RWIGS  =  -1.00 -1.00
  virtual crystal weights 
   VCA    =   1.00  1.00
   NELECT =     792.0000    total number of electrons
   NUPDOWN=      -1.0000    fix difference up-down

 DOS related values:
   EMIN   =  10.00;   EMAX   =-10.00  energy-range for DOS
   EFERMI =   0.00
   ISMEAR =     0;   SIGMA  =   0.20  broadening in eV -4-tet -1-fermi 0-gaus

 Electronic relaxation 2 (details)
   IALGO  =     38    algorithm
   LDIAG  =      T    sub-space diagonalisation (order eigenvalues)
   LSUBROT=      F    optimize rotation matrix (better conditioning)
   TURBO    =      0    0=normal 1=particle mesh
   IRESTART =      0    0=no restart 2=restart with 2 vectors
   NREBOOT  =      0    no. of reboots
   NMIN     =      0    reboot dimension
   EREF     =   0.00    reference energy to select bands
   IMIX   =      4    mixing-type and parameters
     AMIX     =   0.40;   BMIX     =  1.00
     AMIX_MAG =   1.60;   BMIX_MAG =  1.00
     AMIN     =   0.10
     WC   =   100.;   INIMIX=   1;  MIXPRE=   1;  MAXMIX= -45

 Intra band minimization:
   WEIMIN = 0.0000     energy-eigenvalue tresh-hold
   EBREAK =  0.52E-07  absolut break condition
   DEPER  =   0.30     relativ break condition  

   TIME   =   0.40     timestep for ELM

  volume/ion in A,a.u.               =      27.29       184.17
  Fermi-wavevector in a.u.,A,eV,Ry     =   1.209289  2.285225 19.896891  1.462380
  Thomas-Fermi vector in A             =   2.344871
 
 Write flags
   LWAVE        =      F    write WAVECAR
   LDOWNSAMPLE  =      F    k-point downsampling of WAVECAR
   LCHARG       =      F    write CHGCAR
   LVTOT        =      F    write LOCPOT, total local potential
   LVHAR        =      F    write LOCPOT, Hartree potential only
   LELF         =      F    write electronic localiz. function (ELF)
   LORBIT       =      0    0 simple, 1 ext, 2 COOP (PROOUT), +10 PAW based schemes


 Dipole corrections
   LMONO  =      F    monopole corrections only (constant potential shift)
   LDIPOL =      F    correct potential (dipole corrections)
   IDIPOL =      0    1-x, 2-y, 3-z, 4-all directions 
   EPSILON=  1.0000000 bulk dielectric constant

 Exchange correlation treatment:
   GGA     =    --    GGA type
   LEXCH   =     8    internal setting for exchange type
   VOSKOWN=      0    Vosko Wilk Nusair interpolation
   LHFCALC =     F    Hartree Fock is set to
   LHFONE  =     F    Hartree Fock one center treatment
   AEXX    =    0.0000 exact exchange contribution

 Linear response parameters
   LEPSILON=     F    determine dielectric tensor
   LRPA    =     F    only Hartree local field effects (RPA)
   LNABLA  =     F    use nabla operator in PAW spheres
   LVEL    =     F    velocity operator in full k-point grid
   LINTERFAST=   F  fast interpolation
   KINTER  =     0    interpolate to denser k-point grid
   CSHIFT  =0.1000    complex shift for real part using Kramers Kronig
   OMEGAMAX=  -1.0    maximum frequency
   DEG_THRESHOLD= 0.2000000E-02 threshold for treating states as degnerate
   RTIME   =   -0.100 relaxation time in fs
  (WPLASMAI=    0.000 imaginary part of plasma frequency in eV, 0.658/RTIME)
   DFIELD  = 0.0000000 0.0000000 0.0000000 field for delta impulse in time
 
 Orbital magnetization related:
   ORBITALMAG=     F  switch on orbital magnetization
   LCHIMAG   =     F  perturbation theory with respect to B field
   DQ        =  0.001000  dq finite difference perturbation B field
   LLRAUG    =     F  two centre corrections for induced B field



--------------------------------------------------------------------------------------------------------


 Static calculation
 charge density and potential will be updated during run
 non-spin polarized calculation
 Variant of blocked Davidson
 Davidson routine will perform the subspace rotation
 perform sub-space diagonalisation
    after iterative eigenvector-optimisation
 modified Broyden-mixing scheme, WC =      100.0
 initial mixing is a Kerker type mixing with AMIX =  0.4000 and BMIX =      1.0000
 Hartree-type preconditioning will be used
 using additional bands           84
 real space projection scheme for non local part
 use partial core corrections
 calculate Harris-corrections to forces 
   (improved forces if not selfconsistent)
 use gradient corrections 
 use of overlap-Matrix (Vanderbilt PP)
 Gauss-broadening in eV      SIGMA  =   0.20


--------------------------------------------------------------------------------------------------------


  energy-cutoff  :      450.00
  volume of cell :     1964.98
      direct lattice vectors                 reciprocal lattice vectors
     9.425102554  3.573298043  0.000000000     0.106099641  0.000000000  0.000000000
     0.000000000 10.079732985  0.000000000    -0.037612667  0.099208977  0.000000000
     0.000000000  0.000000000 20.683503555     0.000000000  0.000000000  0.048347708

  length of vectors
    10.079732985 10.079732985 20.683503555     0.106099641  0.106099641  0.048347708


 
 k-points in units of 2pi/SCALE and weight: gamma-point-only calculation. no periodi
   0.00000000  0.00000000  0.00000000       1.000
 
 k-points in reciprocal lattice and weights: gamma-point-only calculation. no periodi
   0.00000000  0.00000000  0.00000000       1.000
 
 position of ions in fractional coordinates (direct lattice) 
   0.24679038  0.94522030  0.00000000
   0.39705889  0.79495179  0.12693702
   0.54732740  0.64468328  0.25387405
   0.69759592  0.49441476  0.38081107
   0.84786443  0.34414625  0.50774810
   0.11381506  0.41152895  0.16924937
   0.26408358  0.26126044  0.29618639
   0.41435209  0.11099193  0.42312341
   0.96354655  0.56179746  0.04231234
   0.68030272  0.17837463  0.08462468
   0.83057123  0.02810611  0.21156171
   0.98083975  0.87783760  0.33849873
   0.35735705  0.57044763  0.09339950
   0.50762556  0.42017912  0.22033653
   0.65789407  0.26991061  0.34727355
   0.07411322  0.18702479  0.13571184
   0.22438173  0.03675628  0.26264887
   0.37465024  0.88648777  0.38958589
   0.52491876  0.73621926  0.51652292
   0.92384471  0.33729331  0.00877482
   0.09140642  0.50306493  0.43189823
   0.64060088  0.95387047  0.05108716
   0.79086939  0.80360196  0.17802418
   0.94113790  0.65333344  0.30496121
   0.03266674  0.15934394  0.44067305
   0.58186121  0.61014947  0.05986198
   0.73212972  0.45988096  0.18679900
   0.88239823  0.30961245  0.31373603
   0.29861738  0.22672664  0.10217432
   0.44888589  0.07645812  0.22911134
   0.59915440  0.92618961  0.35604837
   0.74942291  0.77592110  0.48298539
   0.01537355  0.84330380  0.14448666
   0.16564206  0.69303529  0.27142369
   0.31591057  0.54276677  0.39836071
   0.86510504  0.99357231  0.01754964
   0.03660483  0.95519385  0.49805764
   0.58579929  0.40599939  0.11724657
   0.73606781  0.25573087  0.24418359
   0.88633632  0.10546236  0.37112062
   0.15228695  0.17284506  0.03262188
   0.30255546  0.02257655  0.15955891
   0.45282398  0.87230804  0.28649593
   0.60309249  0.72203952  0.41343296
   0.01931164  0.63915371  0.20187125
   0.16958015  0.48888520  0.32880827
   0.31984866  0.33861669  0.45574530
   0.86904312  0.78942223  0.07493423
   0.48608562  0.84214306  0.03301497
   0.63635413  0.69187455  0.15995199
   0.78662264  0.54160604  0.28688901
   0.93689115  0.39133753  0.41382604
   0.20284179  0.45872023  0.07532731
   0.35311030  0.30845171  0.20226433
   0.50337881  0.15818320  0.32920136
   0.65364733  0.00791469  0.45613838
   0.06986647  0.92502888  0.24457667
   0.22013498  0.77476036  0.37151370
   0.37040350  0.62449185  0.49845072
   0.91959796  0.07529739  0.11763965
   0.20021045  0.79158823  0.07572039
   0.35047897  0.64131972  0.20265741
   0.50074748  0.49105120  0.32959444
   0.65101599  0.34078269  0.45653146
   0.06723514  0.25789688  0.24496975
   0.21750365  0.10762837  0.37190678
   0.36777216  0.95735985  0.49884380
   0.91696662  0.40816539  0.11803273
   0.48345428  0.17501107  0.03340805
   0.63372279  0.02474255  0.16034507
   0.78399131  0.87447404  0.28728210
   0.93425982  0.72420553  0.41421912
 
 position of ions in cartesian coordinates  (Angst):
   2.32602464 10.40942383  0.00000000
   3.74232078  9.43171153  2.62550239
   5.15861691  8.45399923  5.25100480
   6.57491306  7.47628693  7.87650718
   7.99120919  6.49857463 10.50200957
   1.07271864  4.55479708  3.50066986
   2.48901478  3.57708479  6.12617225
   3.90531092  2.59937249  8.75167464
   9.08152505  9.10580743  0.87516746
   6.41192291  4.22889298  1.75033493
   7.82821906  3.25118069  4.37583732
   9.24451519 12.35320138  7.00133973
   3.36812684  7.02690306  1.93182891
   4.78442298  6.04919075  4.55733130
   6.20071912  5.07147846  7.18283371
   0.69852470  2.14998861  2.80699637
   2.11482084  1.17227632  5.43249877
   3.53111698 10.27429699  8.05800116
   4.94741312  9.29658470 10.68350355
   8.70733112  6.70099895  0.18149398
   0.86151484  5.39738256  8.93316862
   6.03772898 11.90381750  1.05666143
   7.45402512 10.92610520  3.68216384
   8.87032125  9.94839289  6.30766623
   0.30788741  1.72287235  9.11466260
   5.48410155  8.22930729  1.23815541
   6.90039768  7.25159499  3.86365782
   8.31669383  6.27388269  6.48916021
   2.81449941  3.35239285  2.11332289
   4.23079555  2.37468055  4.73882528
   5.64709168 11.47670123  7.36432769
   7.06338783 10.49898893  9.98983007
   0.14489727  8.55521139  2.98849035
   1.56119341  7.57749909  5.61399275
   2.97748955  6.59978679  8.23949514
   8.15370368 13.10622174  0.36298796
   0.34500429  9.75889893 10.30157697
   5.52121842  6.18560088  2.42506979
   6.93751456  5.20788859  5.05057219
   8.35381069  4.23017629  7.67607458
   1.43532014  2.28639874  0.67473485
   2.85161628  1.30868644  3.30023726
   4.26791242 10.41070712  5.92573965
   5.68420856  9.43299483  8.55124204
   0.18201414  6.51150498  4.17540472
   1.59831029  5.53379269  6.80090710
   3.01460642  4.55608039  9.42640951
   8.19082056 11.06251533  1.54990233
   4.58140679 10.22550600  0.68286517
   5.99770293  9.24779371  3.30836755
   7.41399907  8.27008140  5.93386996
   8.83029521  7.29236911  8.55937235
   1.91180465  5.34859157  1.55803262
   3.32810079  4.37087926  4.18353503
   4.74439693  3.39316696  6.80903742
   6.16069307  2.41545466  9.43453980
   0.65849865  9.57369781  5.05870249
   2.07479479  8.59598550  7.68420489
   3.49109094  7.61827321 10.30970728
   8.66730506  4.04497516  2.43320010
   1.88700404  8.69440959  1.56616294
   3.30330019  7.71669729  4.19166532
   4.71959632  6.73898500  6.81716773
   6.13589247  5.76127269  9.44267012
   0.63369805  2.83978286  5.06683280
   2.04999419  1.86207055  7.69233519
   3.46629032 10.96409124 10.31783759
   8.64250446  7.39079319  2.44133041
   4.55660619  3.49159105  0.69099548
   5.97290232  2.51387876  3.31649787
   7.38919846 11.61589943  5.94200025
   8.80549461 10.63818714  8.56750266
 


--------------------------------------------------------------------------------------------------------


 use parallel FFT for orbitals z direction half grid
 k-point   1 :   0.0000 0.0000 0.0000  plane waves:   21301

 maximum and minimum number of plane-waves per node :      3554     3548

 maximum number of plane-waves:     21301
 maximum index in each direction: 
   IXMAX=   17   IYMAX=   17   IZMAX=   35
   IXMIN=  -17   IYMIN=  -17   IZMIN=    0


 real space projection operators:
  total allocation   :      11163.14 KBytes
  max/ min on nodes  :       1865.58       1857.05


 parallel 3D FFT for wavefunctions:
    minimum data exchange during FFTs selected (reduces bandwidth)
 parallel 3D FFT for charge:
    minimum data exchange during FFTs selected (reduces bandwidth)


 total amount of memory used by VASP MPI-rank0    45296. kBytes
=======================================================================

   base      :      30000. kBytes
   nonlr-proj:       2282. kBytes
   fftplans  :       3383. kBytes
   grid      :       6052. kBytes
   one-center:         93. kBytes
   wavefun   :       3486. kBytes
 
     INWAV:  cpu time    0.0000: real time    0.0000
 Broyden mixing: mesh for mixing (old mesh)
   NGX = 35   NGY = 35   NGZ = 71
  (NGX  =108   NGY  =108   NGZ  =216)
  gives a total of  86975 points

 initial charge density was supplied:
 charge density of overlapping atoms calculated
 number of electron     792.0000000 magnetization 
 keeping initial charge density in first step


--------------------------------------------------------------------------------------------------------


 Maximum index for non-local projection operator          301
 Maximum index for augmentation-charges          468 (set IRDMAX)


--------------------------------------------------------------------------------------------------------


 First call to EWALD:  gamma=   0.142
 Maximum number of real-space cells 3x 3x 2
 Maximum number of reciprocal cells 2x 2x 4

    FEWALD:  cpu time    0.0032: real time    0.0032


--------------------------------------- Iteration      1(   1)  ---------------------------------------


    POTLOK:  cpu time    0.0451: real time    0.0476
    SETDIJ:  cpu time    0.0051: real time    0.0068
     EDDAV:  cpu time    2.0387: real time    2.0453
       DOS:  cpu time    0.0008: real time    0.0009
    --------------------------------------------
      LOOP:  cpu time    2.0897: real time    2.1005

 eigenvalue-minimisations  :  1168
 total energy-change (2. order) : 0.9695781E+04  (-0.5080142E+05)
 number of electron     792.0000000 magnetization 
 augmentation part      792.0000000 magnetization 

 Free energy of the ion-electron system (eV)
  ---------------------------------------------------
  alpha Z        PSCENC =      1893.09323658
  Ewald energy   TEWEN  =    164658.19317793
  -Hartree energ DENC   =   -287251.39803931
  -exchange      EXHF   =         0.00000000
  -V(xc)+E(xc)   XCENC  =      3650.41230992
  PAW double counting   =    112729.53333415  -117641.51188735
  entropy T*S    EENTRO =        -0.33490648
  eigenvalues    EBANDS =     -4344.81177558
  atomic energy  EATOM  =    136002.60505376
  Solvation  Ediel_sol  =         0.00000000
  ---------------------------------------------------
  free energy    TOTEN  =      9695.78050363 eV

  energy without entropy =     9696.11541011  energy(sigma->0) =     9695.94795687


--------------------------------------------------------------------------------------------------------




--------------------------------------- Iteration      1(   2)  ---------------------------------------


     EDDAV:  cpu time    1.7859: real time    1.7914
       DOS:  cpu time    0.0007: real time    0.0007
    --------------------------------------------
      LOOP:  cpu time    1.7866: real time    1.7921

 eigenvalue-minimisations  :  1008
 total energy-change (2. order) :-0.9088746E+04  (-0.8770291E+04)
 number of electron     792.0000000 magnetization 
 augmentation part      792.0000000 magnetization 

 Free energy of the ion-electron system (eV)
  ---------------------------------------------------
  alpha Z        PSCENC =      1893.09323658
  Ewald energy   TEWEN  =    164658.19317793
  -Hartree energ DENC   =   -287251.39803931
  -exchange      EXHF   =         0.00000000
  -V(xc)+E(xc)   XCENC  =      3650.41230992
  PAW double counting   =    112729.53333415  -117641.51188735
  entropy T*S    EENTRO =        -0.71456028
  eigenvalues    EBANDS =    -13433.17827911
  atomic energy  EATOM  =    136002.60505376
  Solvation  Ediel_sol  =         0.00000000
  ---------------------------------------------------
  free energy    TOTEN  =       607.03434630 eV

  energy without entropy =      607.74890658  energy(sigma->0) =      607.39162644


--------------------------------------------------------------------------------------------------------




--------------------------------------- Iteration      1(   3)  ---------------------------------------


     EDDAV:  cpu time    1.9251: real time    1.9299
       DOS:  cpu time    0.0010: real time    0.0010
    --------------------------------------------
      LOOP:  cpu time    1.9261: real time    1.9308

 eigenvalue-minimisations  :  1112
 total energy-change (2. order) :-0.9458576E+03  (-0.8907103E+03)
 number of electron     792.0000000 magnetization 
 augmentation part      792.0000000 magnetization 

 Free energy of the ion-electron system (eV)
  ---------------------------------------------------
  alpha Z        PSCENC =      1893.09323658
  Ewald energy   TEWEN  =    164658.19317793
  -Hartree energ DENC   =   -287251.39803931
  -exchange      EXHF   =         0.00000000
  -V(xc)+E(xc)   XCENC  =      3650.41230992
  PAW double counting   =    112729.53333415  -117641.51188735
  entropy T*S    EENTRO =        -1.24642021
  eigenvalues    EBANDS =    -14378.50404865
  atomic energy  EATOM  =    136002.60505376
  Solvation  Ediel_sol  =         0.00000000
  ---------------------------------------------------
  free energy    TOTEN  =      -338.82328318 eV

  energy without entropy =     -337.57686297  energy(sigma->0) =     -338.20007307


--------------------------------------------------------------------------------------------------------




--------------------------------------- Iteration      1(   4)  ---------------------------------------


     EDDAV:  cpu time    2.0351: real time    2.0417
       DOS:  cpu time    0.0007: real time    0.0007
    --------------------------------------------
      LOOP:  cpu time    2.0358: real time    2.0423

 eigenvalue-minimisations  :  1176
 total energy-change (2. order) :-0.6290248E+02  (-0.6202852E+02)
 number of electron     792.0000000 magnetization 
 augmentation part      792.0000000 magnetization 

 Free energy of the ion-electron system (eV)
  ---------------------------------------------------
  alpha Z        PSCENC =      1893.09323658
  Ewald energy   TEWEN  =    164658.19317793
  -Hartree energ DENC   =   -287251.39803931
  -exchange      EXHF   =         0.00000000
  -V(xc)+E(xc)   XCENC  =      3650.41230992
  PAW double counting   =    112729.53333415  -117641.51188735
  entropy T*S    EENTRO =        -1.31611402
  eigenvalues    EBANDS =    -14441.33683914
  atomic energy  EATOM  =    136002.60505376
  Solvation  Ediel_sol  =         0.00000000
  ---------------------------------------------------
  free energy    TOTEN  =      -401.72576748 eV

  energy without entropy =     -400.40965345  energy(sigma->0) =     -401.06771047


--------------------------------------------------------------------------------------------------------




--------------------------------------- Iteration      1(   5)  ---------------------------------------


     EDDAV:  cpu time    2.0083: real time    2.0141
       DOS:  cpu time    0.0006: real time    0.0006
    CHARGE:  cpu time    0.0443: real time    0.0445
    MIXING:  cpu time    0.0025: real time    0.0026
    --------------------------------------------
      LOOP:  cpu time    2.0557: real time    2.0618

 eigenvalue-minimisations  :  1176
 total energy-change (2. order) :-0.1892235E+01  (-0.1889121E+01)
 number of electron     792.0000138 magnetization 
 augmentation part      286.0033418 magnetization 

 Broyden mixing:
  rms(total) = 0.82178E+01    rms(broyden)= 0.82031E+01
  rms(prec ) = 0.86553E+01
  weight for this iteration     100.00

 Free energy of the ion-electron system (eV)
  ---------------------------------------------------
  alpha Z        PSCENC =      1893.09323658
  Ewald energy   TEWEN  =    164658.19317793
  -Hartree energ DENC   =   -287251.39803931
  -exchange      EXHF   =         0.00000000
  -V(xc)+E(xc)   XCENC  =      3650.41230992
  PAW double counting   =    112729.53333415  -117641.51188735
  entropy T*S    EENTRO =        -1.31819925
  eigenvalues    EBANDS =    -14443.22698920
  atomic energy  EATOM  =    136002.60505376
  Solvation  Ediel_sol  =         0.00000000
  ---------------------------------------------------
  free energy    TOTEN  =      -403.61800276 eV

  energy without entropy =     -402.29980351  energy(sigma->0) =     -402.95890314


--------------------------------------------------------------------------------------------------------




--------------------------------------- Iteration      1(   6)  ---------------------------------------


    POTLOK:  cpu time    0.0431: real time    0.0432
    SETDIJ:  cpu time    0.0046: real time    0.0064
     EDDAV:  cpu time    1.9785: real time    1.9833
       DOS:  cpu time    0.0008: real time    0.0008
    CHARGE:  cpu time    0.0377: real time    0.0378
    MIXING:  cpu time    0.0019: real time    0.0020
    --------------------------------------------
      LOOP:  cpu time    2.0666: real time    2.0735

 eigenvalue-minimisations  :  1152
 total energy-change (2. order) :-0.9864637E+02  (-0.9744700E+02)
 number of electron     792.0000168 magnetization 
 augmentation part      354.6951192 magnetization 

 Broyden mixing:
  rms(total) = 0.16062E+02    rms(broyden)= 0.16059E+02
  rms(prec ) = 0.16926E+02
  weight for this iteration     100.00

 eigenvalues of (default mixing * dielectric matrix)
  average eigenvalue GAMMA=   0.2236
  0.2236

 Free energy of the ion-electron system (eV)
  ---------------------------------------------------
  alpha Z        PSCENC =      1893.09323658
  Ewald energy   TEWEN  =    164658.19317793
  -Hartree energ DENC   =   -284457.97848996
  -exchange      EXHF   =         0.00000000
  -V(xc)+E(xc)   XCENC  =      3572.85966867
  PAW double counting   =    114381.08602594  -119050.69727415
  entropy T*S    EENTRO =        -0.87330204
  eigenvalues    EBANDS =    -17500.55246459
  atomic energy  EATOM  =    136002.60505376
  Solvation  Ediel_sol  =         0.00000000
  ---------------------------------------------------
  free energy    TOTEN  =      -502.26436786 eV

  energy without entropy =     -501.39106582  energy(sigma->0) =     -501.82771684


--------------------------------------------------------------------------------------------------------




--------------------------------------- Iteration      1(   7)  ---------------------------------------


    POTLOK:  cpu time    0.0427: real time    0.0428
    SETDIJ:  cpu time    0.0049: real time    0.0050
     EDDAV:  cpu time    2.0128: real time    2.0176
       DOS:  cpu time    0.0006: real time    0.0006
    CHARGE:  cpu time    0.0382: real time    0.0382
    MIXING:  cpu time    0.0017: real time    0.0017
    --------------------------------------------
      LOOP:  cpu time    2.1009: real time    2.1059

 eigenvalue-minimisations  :  1168
 total energy-change (2. order) : 0.1247343E+03  (-0.1717362E+02)
 number of electron     792.0000164 magnetization 
 augmentation part      331.6878304 magnetization 

 Broyden mixing:
  rms(total) = 0.71598E+01    rms(broyden)= 0.71581E+01
  rms(prec ) = 0.78071E+01
  weight for this iteration     100.00

 eigenvalues of (default mixing * dielectric matrix)
  average eigenvalue GAMMA=   0.4643
  0.4643  0.4643

 Free energy of the ion-electron system (eV)
  ---------------------------------------------------
  alpha Z        PSCENC =      1893.09323658
  Ewald energy   TEWEN  =    164658.19317793
  -Hartree energ DENC   =   -285733.76963743
  -exchange      EXHF   =         0.00000000
  -V(xc)+E(xc)   XCENC  =      3602.67620593
  PAW double counting   =    118486.43608001  -123302.57721555
  entropy T*S    EENTRO =        -0.92626441
  eigenvalues    EBANDS =    -15983.26068205
  atomic energy  EATOM  =    136002.60505376
  Solvation  Ediel_sol  =         0.00000000
  ---------------------------------------------------
  free energy    TOTEN  =      -377.53004523 eV

  energy without entropy =     -376.60378082  energy(sigma->0) =     -377.06691302


--------------------------------------------------------------------------------------------------------




--------------------------------------- Iteration      1(   8)  ---------------------------------------


    POTLOK:  cpu time    0.0427: real time    0.0428
    SETDIJ:  cpu time    0.0049: real time    0.0049
     EDDAV:  cpu time    2.0136: real time    2.0194
       DOS:  cpu time    0.0006: real time    0.0006
    CHARGE:  cpu time    0.0386: real time    0.0387
    MIXING:  cpu time    0.0018: real time    0.0018
    --------------------------------------------
      LOOP:  cpu time    2.1021: real time    2.1082

 eigenvalue-minimisations  :  1144
 total energy-change (2. order) :-0.1524424E+03  (-0.1545704E+02)
 number of electron     792.0000145 magnetization 
 augmentation part      306.6265606 magnetization 

 Broyden mixing:
  rms(total) = 0.17816E+02    rms(broyden)= 0.17813E+02
  rms(prec ) = 0.22875E+02
  weight for this iteration     100.00

 eigenvalues of (default mixing * dielectric matrix)
  average eigenvalue GAMMA=   0.3951
  0.6237  0.4752  0.0863

 Free energy of the ion-electron system (eV)
  ---------------------------------------------------
  alpha Z        PSCENC =      1893.09323658
  Ewald energy   TEWEN  =    164658.19317793
  -Hartree energ DENC   =   -286122.33246274
  -exchange      EXHF   =         0.00000000
  -V(xc)+E(xc)   XCENC  =      3616.59677975
  PAW double counting   =    122206.37058120  -127098.52738360
  entropy T*S    EENTRO =        -0.90973155
  eigenvalues    EBANDS =    -15685.06173602
  atomic energy  EATOM  =    136002.60505376
  Solvation  Ediel_sol  =         0.00000000
  ---------------------------------------------------
  free energy    TOTEN  =      -529.97248470 eV

  energy without entropy =     -529.06275315  energy(sigma->0) =     -529.51761892


--------------------------------------------------------------------------------------------------------




--------------------------------------- Iteration      1(   9)  ---------------------------------------


    POTLOK:  cpu time    0.0427: real time    0.0450
    SETDIJ:  cpu time    0.0047: real time    0.0064
     EDDAV:  cpu time    2.2293: real time    2.2346
       DOS:  cpu time    0.0005: real time    0.0005
    CHARGE:  cpu time    0.0378: real time    0.0379
    MIXING:  cpu time    0.0018: real time    0.0018
    --------------------------------------------
      LOOP:  cpu time    2.3167: real time    2.3262

 eigenvalue-minimisations  :  1328
 total energy-change (2. order) : 0.1042983E+03  (-0.1988399E+02)
 number of electron     792.0000151 magnetization 
 augmentation part      310.9254692 magnetization 

 Broyden mixing:
  rms(total) = 0.10753E+02    rms(broyden)= 0.10749E+02
  rms(prec ) = 0.13008E+02
  weight for this iteration     100.00

 eigenvalues of (default mixing * dielectric matrix)
  average eigenvalue GAMMA=   0.3601
  0.8076  0.4095  0.1117  0.1117

 Free energy of the ion-electron system (eV)
  ---------------------------------------------------
  alpha Z        PSCENC =      1893.09323658
  Ewald energy   TEWEN  =    164658.19317793
  -Hartree energ DENC   =   -286344.56648242
  -exchange      EXHF   =         0.00000000
  -V(xc)+E(xc)   XCENC  =      3617.87304346
  PAW double counting   =    124898.21204403  -129823.99279728
  entropy T*S    EENTRO =        -1.32074379
  eigenvalues    EBANDS =    -15325.77068076
  atomic energy  EATOM  =    136002.60505376
  Solvation  Ediel_sol  =         0.00000000
  ---------------------------------------------------
  free energy    TOTEN  =      -425.67414848 eV

  energy without entropy =     -424.35340469  energy(sigma->0) =     -425.01377658


--------------------------------------------------------------------------------------------------------




--------------------------------------- Iteration      1(  10)  ---------------------------------------


    POTLOK:  cpu time    0.0427: real time    0.0428
    SETDIJ:  cpu time    0.0048: real time    0.0049
     EDDAV:  cpu time    2.2913: real time    2.2968
       DOS:  cpu time    0.0006: real time    0.0006
    CHARGE:  cpu time    0.0381: real time    0.0382
    MIXING:  cpu time    0.0019: real time    0.0019
    --------------------------------------------
      LOOP:  cpu time    2.3795: real time    2.3852

 eigenvalue-minimisations  :  1368
 total energy-change (2. order) : 0.4603654E+02  (-0.7754468E+01)
 number of electron     792.0000172 magnetization 
 augmentation part      313.2475032 magnetization 

 Broyden mixing:
  rms(total) = 0.66533E+01    rms(broyden)= 0.66459E+01
  rms(prec ) = 0.73082E+01
  weight for this iteration     100.00

 eigenvalues of (default mixing * dielectric matrix)
  average eigenvalue GAMMA=   0.3744
  1.0342  0.3250  0.2974  0.1078  0.1078

 Free energy of the ion-electron system (eV)
  ---------------------------------------------------
  alpha Z        PSCENC =      1893.09323658
  Ewald energy   TEWEN  =    164658.19317793
  -Hartree energ DENC   =   -286280.30660340
  -exchange      EXHF   =         0.00000000
  -V(xc)+E(xc)   XCENC  =      3619.64215565
  PAW double counting   =    126487.06971965  -131434.05353970
  entropy T*S    EENTRO =        -0.94728986
  eigenvalues    EBANDS =    -15324.93351820
  atomic energy  EATOM  =    136002.60505376
  Solvation  Ediel_sol  =         0.00000000
  ---------------------------------------------------
  free energy    TOTEN  =      -379.63760759 eV

  energy without entropy =     -378.69031773  energy(sigma->0) =     -379.16396266


--------------------------------------------------------------------------------------------------------




--------------------------------------- Iteration      1(  11)  ---------------------------------------


    POTLOK:  cpu time    0.0428: real time    0.0429
    SETDIJ:  cpu time    0.0049: real time    0.0049
     EDDAV:  cpu time    2.2289: real time    2.2342
       DOS:  cpu time    0.0006: real time    0.0006
    CHARGE:  cpu time    0.0398: real time    0.0399
    MIXING:  cpu time    0.0019: real time    0.0019
    --------------------------------------------
      LOOP:  cpu time    2.3189: real time    2.3244

 eigenvalue-minimisations  :  1328
 total energy-change (2. order) : 0.1578568E+02  (-0.6640182E+01)
 number of electron     792.0000144 magnetization 
 augmentation part      310.3075257 magnetization 

 Broyden mixing:
  rms(total) = 0.63004E+01    rms(broyden)= 0.62938E+01
  rms(prec ) = 0.71723E+01
  weight for this iteration     100.00

 eigenvalues of (default mixing * dielectric matrix)
  average eigenvalue GAMMA=   0.4499
  1.5488  0.3981  0.3981  0.1270  0.1270  0.1005

 Free energy of the ion-electron system (eV)
  ---------------------------------------------------
  alpha Z        PSCENC =      1893.09323658
  Ewald energy   TEWEN  =    164658.19317793
  -Hartree energ DENC   =   -286308.96356202
  -exchange      EXHF   =         0.00000000
  -V(xc)+E(xc)   XCENC  =      3620.96265269
  PAW double counting   =    128195.47773801  -133162.84287923
  entropy T*S    EENTRO =        -1.39347700
  eigenvalues    EBANDS =    -15260.98386837
  atomic energy  EATOM  =    136002.60505376
  Solvation  Ediel_sol  =         0.00000000
  ---------------------------------------------------
  free energy    TOTEN  =      -363.85192765 eV

  energy without entropy =     -362.45845065  energy(sigma->0) =     -363.15518915


--------------------------------------------------------------------------------------------------------




--------------------------------------- Iteration      1(  12)  ---------------------------------------


    POTLOK:  cpu time    0.0425: real time    0.0426
    SETDIJ:  cpu time    0.0048: real time    0.0049
     EDDAV:  cpu time    2.2212: real time    2.2264
       DOS:  cpu time    0.0010: real time    0.0010
    CHARGE:  cpu time    0.0388: real time    0.0389
    MIXING:  cpu time    0.0020: real time    0.0020
    --------------------------------------------
      LOOP:  cpu time    2.3104: real time    2.3158

 eigenvalue-minimisations  :  1320
 total energy-change (2. order) :-0.1291936E+02  (-0.7207301E+01)
 number of electron     792.0000144 magnetization 
 augmentation part      310.4796710 magnetization 

 Broyden mixing:
  rms(total) = 0.80514E+01    rms(broyden)= 0.80486E+01
  rms(prec ) = 0.91668E+01
  weight for this iteration     100.00

 eigenvalues of (default mixing * dielectric matrix)
  average eigenvalue GAMMA=   0.4444
  1.7977  0.4182  0.4182  0.1424  0.1424  0.0961  0.0961

 Free energy of the ion-electron system (eV)
  ---------------------------------------------------
  alpha Z        PSCENC =      1893.09323658
  Ewald energy   TEWEN  =    164658.19317793
  -Hartree energ DENC   =   -286375.59616942
  -exchange      EXHF   =         0.00000000
  -V(xc)+E(xc)   XCENC  =      3618.57944662
  PAW double counting   =    130420.64659117  -135402.11762216
  entropy T*S    EENTRO =        -0.99110192
  eigenvalues    EBANDS =    -15191.18389938
  atomic energy  EATOM  =    136002.60505376
  Solvation  Ediel_sol  =         0.00000000
  ---------------------------------------------------
  free energy    TOTEN  =      -376.77128682 eV

  energy without entropy =     -375.78018490  energy(sigma->0) =     -376.27573586


--------------------------------------------------------------------------------------------------------




--------------------------------------- Iteration      1(  13)  ---------------------------------------


    POTLOK:  cpu time    0.0422: real time    0.0423
    SETDIJ:  cpu time    0.0060: real time    0.0060
     EDDAV:  cpu time    2.1555: real time    2.1606
       DOS:  cpu time    0.0008: real time    0.0008
    CHARGE:  cpu time    0.0381: real time    0.0382
    MIXING:  cpu time    0.0021: real time    0.0021
    --------------------------------------------
      LOOP:  cpu time    2.2448: real time    2.2501

 eigenvalue-minimisations  :  1272
 total energy-change (2. order) : 0.4926927E+01  (-0.2213422E+01)
 number of electron     792.0000156 magnetization 
 augmentation part      312.8800121 magnetization 

 Broyden mixing:
  rms(total) = 0.43356E+01    rms(broyden)= 0.43348E+01
  rms(prec ) = 0.49096E+01
  weight for this iteration     100.00

 eigenvalues of (default mixing * dielectric matrix)
  average eigenvalue GAMMA=   0.4304
  1.7883  0.4313  0.4313  0.3459  0.1211  0.1211  0.1020  0.1020

 Free energy of the ion-electron system (eV)
  ---------------------------------------------------
  alpha Z        PSCENC =      1893.09323658
  Ewald energy   TEWEN  =    164658.19317793
  -Hartree energ DENC   =   -286386.77493410
  -exchange      EXHF   =         0.00000000
  -V(xc)+E(xc)   XCENC  =      3617.57173020
  PAW double counting   =    131468.65039350  -136458.29898425
  entropy T*S    EENTRO =        -1.02390152
  eigenvalues    EBANDS =    -15165.86013200
  atomic energy  EATOM  =    136002.60505376
  Solvation  Ediel_sol  =         0.00000000
  ---------------------------------------------------
  free energy    TOTEN  =      -371.84435992 eV

  energy without entropy =     -370.82045839  energy(sigma->0) =     -371.33240916


--------------------------------------------------------------------------------------------------------




--------------------------------------- Iteration      1(  14)  ---------------------------------------


    POTLOK:  cpu time    0.0424: real time    0.0425
    SETDIJ:  cpu time    0.0049: real time    0.0050
     EDDAV:  cpu time    2.1880: real time    2.1944
       DOS:  cpu time    0.0010: real time    0.0010
    CHARGE:  cpu time    0.0387: real time    0.0388
    MIXING:  cpu time    0.0023: real time    0.0023
    --------------------------------------------
      LOOP:  cpu time    2.2774: real time    2.2840

 eigenvalue-minimisations  :  1248
 total energy-change (2. order) : 0.7807621E+01  (-0.1352450E+01)
 number of electron     792.0000148 magnetization 
 augmentation part      314.6707693 magnetization 

 Broyden mixing:
  rms(total) = 0.36203E+01    rms(broyden)= 0.36191E+01
  rms(prec ) = 0.42918E+01
  weight for this iteration     100.00

 eigenvalues of (default mixing * dielectric matrix)
  average eigenvalue GAMMA=   0.4119
  1.6147  0.4776  0.4776  0.4466  0.2072  0.1352  0.1352  0.1063  0.1063

 Free energy of the ion-electron system (eV)
  ---------------------------------------------------
  alpha Z        PSCENC =      1893.09323658
  Ewald energy   TEWEN  =    164658.19317793
  -Hartree energ DENC   =   -286344.37642378
  -exchange      EXHF   =         0.00000000
  -V(xc)+E(xc)   XCENC  =      3618.28804586
  PAW double counting   =    131752.90692832  -136748.14282277
  entropy T*S    EENTRO =        -1.12177340
  eigenvalues    EBANDS =    -15195.48216178
  atomic energy  EATOM  =    136002.60505376
  Solvation  Ediel_sol  =         0.00000000
  ---------------------------------------------------
  free energy    TOTEN  =      -364.03673927 eV

  energy without entropy =     -362.91496588  energy(sigma->0) =     -363.47585258


--------------------------------------------------------------------------------------------------------




--------------------------------------- Iteration      1(  15)  ---------------------------------------


    POTLOK:  cpu time    0.0437: real time    0.0441
    SETDIJ:  cpu time    0.0060: real time    0.0060
     EDDAV:  cpu time    2.1806: real time    2.1859
       DOS:  cpu time    0.0008: real time    0.0008
    CHARGE:  cpu time    0.0383: real time    0.0383
    MIXING:  cpu time    0.0024: real time    0.0024
    --------------------------------------------
      LOOP:  cpu time    2.2717: real time    2.2776

 eigenvalue-minimisations  :  1288
 total energy-change (2. order) : 0.3596671E+01  (-0.1092406E+01)
 number of electron     792.0000155 magnetization 
 augmentation part      312.6891744 magnetization 

 Broyden mixing:
  rms(total) = 0.31928E+01    rms(broyden)= 0.31914E+01
  rms(prec ) = 0.37290E+01
  weight for this iteration     100.00

 eigenvalues of (default mixing * dielectric matrix)
  average eigenvalue GAMMA=   0.3998
  1.6031  0.5310  0.5310  0.3482  0.3482  0.1727  0.1268  0.1268  0.1048  0.1048

 Free energy of the ion-electron system (eV)
  ---------------------------------------------------
  alpha Z        PSCENC =      1893.09323658
  Ewald energy   TEWEN  =    164658.19317793
  -Hartree energ DENC   =   -286414.26473956
  -exchange      EXHF   =         0.00000000
  -V(xc)+E(xc)   XCENC  =      3620.33467970
  PAW double counting   =    131295.97680608  -136289.90530010
  entropy T*S    EENTRO =        -1.12181836
  eigenvalues    EBANDS =    -15125.35116447
  atomic energy  EATOM  =    136002.60505376
  Solvation  Ediel_sol  =         0.00000000
  ---------------------------------------------------
  free energy    TOTEN  =      -360.44006844 eV

  energy without entropy =     -359.31825008  energy(sigma->0) =     -359.87915926


--------------------------------------------------------------------------------------------------------




--------------------------------------- Iteration      1(  16)  ---------------------------------------


    POTLOK:  cpu time    0.0425: real time    0.0426
    SETDIJ:  cpu time    0.0049: real time    0.0049
     EDDAV:  cpu time    2.2439: real time    2.2493
       DOS:  cpu time    0.0011: real time    0.0011
    CHARGE:  cpu time    0.0416: real time    0.0417
    MIXING:  cpu time    0.0025: real time    0.0025
    --------------------------------------------
      LOOP:  cpu time    2.3364: real time    2.3420

 eigenvalue-minimisations  :  1328
 total energy-change (2. order) : 0.3607945E+01  (-0.5197651E+00)
 number of electron     792.0000149 magnetization 
 augmentation part      312.0571062 magnetization 

 Broyden mixing:
  rms(total) = 0.24398E+01    rms(broyden)= 0.24387E+01
  rms(prec ) = 0.28147E+01
  weight for this iteration     100.00

 eigenvalues of (default mixing * dielectric matrix)
  average eigenvalue GAMMA=   0.4039
  1.6822  0.5919  0.5919  0.3794  0.3794  0.2225  0.1279  0.1279  0.1050  0.1050
  0.1299

 Free energy of the ion-electron system (eV)
  ---------------------------------------------------
  alpha Z        PSCENC =      1893.09323658
  Ewald energy   TEWEN  =    164658.19317793
  -Hartree energ DENC   =   -286447.53728550
  -exchange      EXHF   =         0.00000000
  -V(xc)+E(xc)   XCENC  =      3621.16259480
  PAW double counting   =    131144.41373002  -136136.80715860
  entropy T*S    EENTRO =        -1.02107174
  eigenvalues    EBANDS =    -15090.93440109
  atomic energy  EATOM  =    136002.60505376
  Solvation  Ediel_sol  =         0.00000000
  ---------------------------------------------------
  free energy    TOTEN  =      -356.83212384 eV

  energy without entropy =     -355.81105210  energy(sigma->0) =     -356.32158797


--------------------------------------------------------------------------------------------------------




--------------------------------------- Iteration      1(  17)  ---------------------------------------


    POTLOK:  cpu time    0.0426: real time    0.0427
    SETDIJ:  cpu time    0.0049: real time    0.0049
     EDDAV:  cpu time    2.2420: real time    2.2474
       DOS:  cpu time    0.0016: real time    0.0016
    CHARGE:  cpu time    0.0423: real time    0.0424
    MIXING:  cpu time    0.0025: real time    0.0025
    --------------------------------------------
      LOOP:  cpu time    2.3358: real time    2.3415

 eigenvalue-minimisations  :  1328
 total energy-change (2. order) : 0.1612727E+01  (-0.3578969E+00)
 number of electron     792.0000148 magnetization 
 augmentation part      312.1228659 magnetization 

 Broyden mixing:
  rms(total) = 0.19391E+01    rms(broyden)= 0.19382E+01
  rms(prec ) = 0.22299E+01
  weight for this iteration     100.00

 eigenvalues of (default mixing * dielectric matrix)
  average eigenvalue GAMMA=   0.4399
  1.8172  0.7784  0.7784  0.4258  0.4258  0.3054  0.1297  0.1297  0.1493  0.1051
  0.1051  0.1291

 Free energy of the ion-electron system (eV)
  ---------------------------------------------------
  alpha Z        PSCENC =      1893.09323658
  Ewald energy   TEWEN  =    164658.19317793
  -Hartree energ DENC   =   -286448.22817403
  -exchange      EXHF   =         0.00000000
  -V(xc)+E(xc)   XCENC  =      3621.20300094
  PAW double counting   =    131162.66552094  -136153.52415640
  entropy T*S    EENTRO =        -1.03822084
  eigenvalues    EBANDS =    -15090.18883580
  atomic energy  EATOM  =    136002.60505376
  Solvation  Ediel_sol  =         0.00000000
  ---------------------------------------------------
  free energy    TOTEN  =      -355.21939692 eV

  energy without entropy =     -354.18117608  energy(sigma->0) =     -354.70028650


--------------------------------------------------------------------------------------------------------




--------------------------------------- Iteration      1(  18)  ---------------------------------------


    POTLOK:  cpu time    0.0429: real time    0.0430
    SETDIJ:  cpu time    0.0048: real time    0.0048
     EDDAV:  cpu time    2.2630: real time    2.2685
       DOS:  cpu time    0.0007: real time    0.0007
    CHARGE:  cpu time    0.0422: real time    0.0423
    MIXING:  cpu time    0.0026: real time    0.0026
    --------------------------------------------
      LOOP:  cpu time    2.3563: real time    2.3620

 eigenvalue-minimisations  :  1344
 total energy-change (2. order) : 0.8963125E+00  (-0.1876548E+00)
 number of electron     792.0000156 magnetization 
 augmentation part      312.8871610 magnetization 

 Broyden mixing:
  rms(total) = 0.16477E+01    rms(broyden)= 0.16471E+01
  rms(prec ) = 0.18644E+01
  weight for this iteration     100.00

 eigenvalues of (default mixing * dielectric matrix)
  average eigenvalue GAMMA=   0.4527
  1.8789  0.9204  0.9204  0.4461  0.4461  0.3432  0.1707  0.1707  0.1291  0.1291
  0.1051  0.1051  0.1207

 Free energy of the ion-electron system (eV)
  ---------------------------------------------------
  alpha Z        PSCENC =      1893.09323658
  Ewald energy   TEWEN  =    164658.19317793
  -Hartree energ DENC   =   -286415.10251751
  -exchange      EXHF   =         0.00000000
  -V(xc)+E(xc)   XCENC  =      3620.91549538
  PAW double counting   =    131243.91944066  -136232.50023548
  entropy T*S    EENTRO =        -1.04440056
  eigenvalues    EBANDS =    -15124.40233520
  atomic energy  EATOM  =    136002.60505376
  Solvation  Ediel_sol  =         0.00000000
  ---------------------------------------------------
  free energy    TOTEN  =      -354.32308444 eV

  energy without entropy =     -353.27868388  energy(sigma->0) =     -353.80088416


--------------------------------------------------------------------------------------------------------




--------------------------------------- Iteration      1(  19)  ---------------------------------------


    POTLOK:  cpu time    0.0428: real time    0.0429
    SETDIJ:  cpu time    0.0049: real time    0.0049
     EDDAV:  cpu time    2.2362: real time    2.2415
       DOS:  cpu time    0.0010: real time    0.0010
    CHARGE:  cpu time    0.0420: real time    0.0421
    MIXING:  cpu time    0.0029: real time    0.0029
    --------------------------------------------
      LOOP:  cpu time    2.3297: real time    2.3353

 eigenvalue-minimisations  :  1304
 total energy-change (2. order) : 0.6290565E+00  (-0.1346973E+00)
 number of electron     792.0000151 magnetization 
 augmentation part      313.1218728 magnetization 

 Broyden mixing:
  rms(total) = 0.12459E+01    rms(broyden)= 0.12453E+01
  rms(prec ) = 0.14243E+01
  weight for this iteration     100.00

 eigenvalues of (default mixing * dielectric matrix)
  average eigenvalue GAMMA=   0.4464
  1.8561  0.9879  0.9879  0.4554  0.4554  0.3650  0.2104  0.2104  0.1290  0.1290
  0.1052  0.1052  0.1262  0.1262

 Free energy of the ion-electron system (eV)
  ---------------------------------------------------
  alpha Z        PSCENC =      1893.09323658
  Ewald energy   TEWEN  =    164658.19317793
  -Hartree energ DENC   =   -286406.30936836
  -exchange      EXHF   =         0.00000000
  -V(xc)+E(xc)   XCENC  =      3620.72905058
  PAW double counting   =    131213.33469823  -136199.13345313
  entropy T*S    EENTRO =        -1.05004808
  eigenvalues    EBANDS =    -15135.15637547
  atomic energy  EATOM  =    136002.60505376
  Solvation  Ediel_sol  =         0.00000000
  ---------------------------------------------------
  free energy    TOTEN  =      -353.69402794 eV

  energy without entropy =     -352.64397986  energy(sigma->0) =     -353.16900390


--------------------------------------------------------------------------------------------------------




--------------------------------------- Iteration      1(  20)  ---------------------------------------


    POTLOK:  cpu time    0.0428: real time    0.0429
    SETDIJ:  cpu time    0.0048: real time    0.0048
     EDDAV:  cpu time    2.1363: real time    2.1415
       DOS:  cpu time    0.0007: real time    0.0007
    CHARGE:  cpu time    0.0422: real time    0.0423
    MIXING:  cpu time    0.0027: real time    0.0027
    --------------------------------------------
      LOOP:  cpu time    2.2296: real time    2.2349

 eigenvalue-minimisations  :  1248
 total energy-change (2. order) : 0.2773446E+00  (-0.5974250E-01)
 number of electron     792.0000151 magnetization 
 augmentation part      312.8204656 magnetization 

 Broyden mixing:
  rms(total) = 0.10211E+01    rms(broyden)= 0.10209E+01
  rms(prec ) = 0.11520E+01
  weight for this iteration     100.00

 eigenvalues of (default mixing * dielectric matrix)
  average eigenvalue GAMMA=   0.4813
  1.7821  1.2056  1.2056  0.5464  0.5464  0.4027  0.4027  0.2245  0.1292  0.1292
  0.1720  0.1051  0.1051  0.1392  0.1233

 Free energy of the ion-electron system (eV)
  ---------------------------------------------------
  alpha Z        PSCENC =      1893.09323658
  Ewald energy   TEWEN  =    164658.19317793
  -Hartree energ DENC   =   -286419.81878371
  -exchange      EXHF   =         0.00000000
  -V(xc)+E(xc)   XCENC  =      3620.88281111
  PAW double counting   =    131069.42364874  -136053.16838926
  entropy T*S    EENTRO =        -1.05344999
  eigenvalues    EBANDS =    -15123.57398846
  atomic energy  EATOM  =    136002.60505376
  Solvation  Ediel_sol  =         0.00000000
  ---------------------------------------------------
  free energy    TOTEN  =      -353.41668331 eV

  energy without entropy =     -352.36323332  energy(sigma->0) =     -352.88995832


--------------------------------------------------------------------------------------------------------




--------------------------------------- Iteration      1(  21)  ---------------------------------------


    POTLOK:  cpu time    0.0426: real time    0.0427
    SETDIJ:  cpu time    0.0049: real time    0.0049
     EDDAV:  cpu time    2.3149: real time    2.3204
       DOS:  cpu time    0.0006: real time    0.0006
    CHARGE:  cpu time    0.0382: real time    0.0383
    MIXING:  cpu time    0.0028: real time    0.0028
    --------------------------------------------
      LOOP:  cpu time    2.4040: real time    2.4097

 eigenvalue-minimisations  :  1376
 total energy-change (2. order) : 0.7681958E-01  (-0.6686185E-01)
 number of electron     792.0000152 magnetization 
 augmentation part      312.1608723 magnetization 

 Broyden mixing:
  rms(total) = 0.10376E+01    rms(broyden)= 0.10365E+01
  rms(prec ) = 0.11530E+01
  weight for this iteration     100.00

 eigenvalues of (default mixing * dielectric matrix)
  average eigenvalue GAMMA=   0.4882
  1.8132  1.2654  1.2654  0.6532  0.6532  0.4122  0.4122  0.2881  0.1292  0.1292
  0.1749  0.1051  0.1051  0.1534  0.1260  0.1260

 Free energy of the ion-electron system (eV)
  ---------------------------------------------------
  alpha Z        PSCENC =      1893.09323658
  Ewald energy   TEWEN  =    164658.19317793
  -Hartree energ DENC   =   -286453.92572862
  -exchange      EXHF   =         0.00000000
  -V(xc)+E(xc)   XCENC  =      3621.28925709
  PAW double counting   =    130713.94289489  -135692.05508779
  entropy T*S    EENTRO =        -1.06004067
  eigenvalues    EBANDS =    -15095.42262690
  atomic energy  EATOM  =    136002.60505376
  Solvation  Ediel_sol  =         0.00000000
  ---------------------------------------------------
  free energy    TOTEN  =      -353.33986373 eV

  energy without entropy =     -352.27982307  energy(sigma->0) =     -352.80984340


--------------------------------------------------------------------------------------------------------




--------------------------------------- Iteration      1(  22)  ---------------------------------------


    POTLOK:  cpu time    0.0429: real time    0.0430
    SETDIJ:  cpu time    0.0048: real time    0.0048
     EDDAV:  cpu time    2.2130: real time    2.2184
[...]
    FORCOR:  cpu time    0.0552: real time    0.0555
    FORHAR:  cpu time    0.0240: real time    0.0241
    MIXING:  cpu time    0.0074: real time    0.0075
    OFIELD:  cpu time    0.0001: real time    0.0001

  FORCE on cell =-STRESS in cart. coord.  units (eV):
  Direction    XX          YY          ZZ          XY          YZ          ZX
  --------------------------------------------------------------------------------------
  Alpha Z  1893.09324  1893.09324  1893.09324
  Ewald  214517.96392213790.94634************  -809.08306  -739.05637   478.90212
  Hartree251641.59447250917.84665************  -632.11267  -561.46592   255.38520
  E(xc)   -5025.85023 -5025.48595 -5029.80151    -0.56601    -0.64941     0.87159
  Local  ************************466656.68690  1423.81285  1282.08427  -701.17890
  n-local  -695.17570  -690.98986  -700.19919    -3.35750    -2.50116     2.76078
  augment  5790.56241  5784.10596  5804.13831     9.11766     7.80370   -11.66062
  Kinetic 10966.76783 10955.48222 11003.50848    15.58279    21.15880   -34.83998
  Fock        0.00000     0.00000     0.00000     0.00000     0.00000     0.00000
  -------------------------------------------------------------------------------------
  Total     -31.86403   -36.31821   -28.11783     3.39407     7.37391    -9.75981
  in kB     -25.98077   -29.61255   -22.92626     2.76740     6.01242    -7.95779
  external pressure =      -26.17 kB  Pullay stress =        0.00 kB


 VOLUME and BASIS-vectors are now :
 -----------------------------------------------------------------------------
  energy-cutoff  :      450.00
  volume of cell :     1964.98
      direct lattice vectors                 reciprocal lattice vectors
     9.425102554  3.573298043  0.000000000     0.106099641  0.000000000  0.000000000
     0.000000000 10.079732985  0.000000000    -0.037612667  0.099208977  0.000000000
     0.000000000  0.000000000 20.683503555     0.000000000  0.000000000  0.048347708

  length of vectors
    10.079732985 10.079732985 20.683503555     0.106099641  0.106099641  0.048347708


 FORCES acting on ions
    electron-ion (+dipol)            ewald-force                    non-local-force                 convergence-correction
 -----------------------------------------------------------------------------------------------
   0.304E+02 0.113E+03 0.477E+04   -.300E+02 -.109E+03 -.476E+04   -.299E+00 -.324E+01 -.884E+01   0.235E-02 0.129E-02 0.267E-01
   0.157E+03 -.294E+03 0.251E+04   -.159E+03 0.295E+03 -.252E+04   0.113E+01 -.116E+01 0.189E+01   0.240E-02 0.388E-04 0.115E-01
   0.165E+03 -.380E+03 -.405E+03   -.166E+03 0.381E+03 0.404E+03   0.131E+01 -.110E+01 0.573E+00   -.648E-03 0.391E-02 -.219E-01
   0.147E+03 -.277E+03 -.319E+04   -.149E+03 0.277E+03 0.319E+04   0.144E+01 0.749E-01 -.135E+01   -.587E-02 0.899E-02 0.595E-02
   0.491E+02 0.544E+02 -.486E+04   -.525E+02 -.594E+02 0.485E+04   0.269E+01 0.449E+01 0.147E+02   -.501E-02 0.285E-02 0.183E-02
   0.117E+03 -.452E+03 0.157E+04   -.118E+03 0.454E+03 -.157E+04   0.259E+00 -.158E+01 0.931E+00   -.417E-02 -.520E-02 -.312E-03
   0.140E+03 -.453E+03 -.142E+04   -.140E+03 0.454E+03 0.142E+04   0.628E+00 -.133E+01 0.125E+00   0.123E-02 -.269E-02 -.220E-01
   0.789E+02 -.583E+03 -.417E+04   -.785E+02 0.584E+03 0.418E+04   -.236E+00 -.157E+01 -.283E+01   0.880E-04 -.478E-02 -.488E-02
   -.412E+02 -.319E+03 0.446E+04   0.412E+02 0.318E+03 -.445E+04   0.291E+00 0.987E+00 -.349E+01   -.127E-02 -.676E-02 0.177E-01
   0.247E+03 -.571E+03 0.359E+04   -.250E+03 0.571E+03 -.359E+04   0.246E+01 0.267E+00 0.265E+01   0.573E-02 0.492E-02 0.121E-01
   0.139E+03 -.419E+03 0.483E+03   -.140E+03 0.419E+03 -.484E+03   0.115E+01 -.662E+00 0.605E+00   0.568E-02 -.543E-02 -.141E-01
   0.781E+02 -.403E+03 -.261E+04   -.781E+02 0.405E+03 0.261E+04   0.323E+00 -.168E+01 -.120E+01   -.298E-02 0.562E-02 -.124E-01
   0.266E+03 0.461E+03 0.379E+04   -.269E+03 -.461E+03 -.379E+04   0.175E+01 0.257E+00 0.121E+01   0.954E-03 0.914E-02 0.134E-01
   0.294E+03 0.441E+03 0.612E+03   -.296E+03 -.442E+03 -.612E+03   0.123E+01 0.395E+00 -.559E-01   -.635E-03 0.132E-02 -.151E-01
   0.209E+03 0.538E+03 -.248E+04   -.208E+03 -.538E+03 0.248E+04   0.192E+00 0.934E+00 -.155E+01   -.557E-02 -.366E-02 -.748E-02
   0.277E+03 0.374E+03 0.247E+04   -.278E+03 -.374E+03 -.247E+04   0.783E+00 0.674E+00 0.146E+01   -.475E-02 0.130E-02 0.644E-02
   0.301E+03 0.456E+03 -.414E+03   -.302E+03 -.456E+03 0.413E+03   0.969E+00 0.517E+00 0.614E+00   0.376E-02 0.484E-02 -.189E-01
   0.418E+03 0.485E+03 -.314E+04   -.420E+03 -.486E+03 0.314E+04   0.199E+01 0.665E+00 -.122E+01   0.263E-02 -.265E-02 -.556E-02
   0.168E+03 0.262E+03 -.474E+04   -.174E+03 -.260E+03 0.474E+04   0.392E+01 -.106E+01 0.699E+01   0.583E-02 0.285E-03 0.174E-02
   0.298E+03 0.118E+03 0.479E+04   -.290E+03 -.112E+03 -.478E+04   -.675E+01 -.537E+01 -.869E+01   -.209E-02 -.341E-02 0.160E-01
   0.139E+02 -.124E+01 -.427E+04   -.129E+02 0.114E+00 0.427E+04   -.857E+00 0.706E+00 0.253E+01   -.439E-02 -.202E-02 0.372E-03
   0.282E+03 0.340E+03 0.433E+04   -.285E+03 -.338E+03 -.433E+04   0.258E+01 -.139E+01 0.156E+01   0.114E-02 -.392E-02 0.152E-01
   0.249E+03 0.450E+03 0.153E+04   -.250E+03 -.450E+03 -.153E+04   0.154E+01 -.579E-01 0.188E+00   0.158E-02 0.555E-03 -.650E-02
   0.190E+03 0.368E+03 -.141E+04   -.191E+03 -.369E+03 0.141E+04   0.127E+01 0.399E+00 -.354E+00   -.417E-02 0.293E-02 -.163E-01
   -.246E+03 0.297E+03 -.409E+04   0.244E+03 -.304E+03 0.409E+04   0.176E+01 0.530E+01 -.109E+01   -.191E-02 0.381E-02 0.141E-02
   -.387E+03 0.188E+03 0.456E+04   0.381E+03 -.184E+03 -.456E+04   0.624E+01 -.300E+01 -.364E+01   -.949E-03 0.125E-02 0.223E-01
   -.453E+03 0.261E+02 0.163E+04   0.453E+03 -.254E+02 -.163E+04   -.390E+00 -.568E+00 0.118E+01   0.111E-02 0.431E-02 -.161E-01
   -.466E+03 0.926E+02 -.135E+04   0.466E+03 -.940E+02 0.134E+04   -.554E+00 0.117E+01 0.133E+01   0.556E-02 0.889E-03 -.180E-01
   -.450E+03 -.163E+03 0.359E+04   0.453E+03 0.164E+03 -.359E+04   -.269E+01 -.740E+00 0.366E+01   -.851E-02 -.183E-02 0.162E-01
   -.473E+03 -.169E+02 0.616E+03   0.474E+03 0.173E+02 -.618E+03   -.576E+00 -.345E+00 0.123E+01   -.582E-02 -.163E-02 -.102E-01
   -.536E+03 -.101E+03 -.224E+04   0.537E+03 0.102E+03 0.224E+04   -.145E+01 -.109E+01 -.708E+00   0.190E-03 -.387E-02 -.941E-02
   -.586E+03 -.268E+03 -.456E+04   0.580E+03 0.271E+03 0.455E+04   0.516E+01 -.266E+01 0.646E+01   -.828E-02 -.625E-02 0.492E-02
   -.527E+03 0.644E+02 0.255E+04   0.529E+03 -.640E+02 -.255E+04   -.174E+01 -.206E+00 0.168E+01   -.466E-03 0.231E-02 0.286E-02
   -.459E+03 0.163E+02 -.445E+03   0.460E+03 -.153E+02 0.445E+03   -.148E+01 -.836E+00 -.999E-01   0.171E-05 0.608E-02 -.207E-01
   -.187E+03 -.499E+02 -.347E+04   0.188E+03 0.509E+02 0.348E+04   -.146E+01 -.929E+00 -.247E+01   0.341E-02 0.260E-02 -.343E-02
   -.355E+03 -.467E+02 0.496E+04   0.348E+03 0.449E+02 -.495E+04   0.664E+01 0.141E+01 -.105E+02   0.703E-03 0.937E-03 0.188E-01
   0.160E+02 0.164E+03 -.172E+04   -.166E+02 -.166E+03 0.172E+04   0.889E+00 0.374E+01 -.219E+01   -.129E-03 -.108E-03 0.533E-03
   -.502E+01 0.129E+03 0.129E+04   0.523E+01 -.130E+03 -.129E+04   -.212E+00 0.180E+01 -.868E-01   0.199E-02 0.312E-02 0.312E-02
   -.317E+02 0.130E+03 0.126E+03   0.319E+02 -.132E+03 -.127E+03   -.264E+00 0.199E+01 0.179E+01   -.729E-03 -.108E-02 -.108E-01
   0.185E+02 0.170E+03 -.112E+04   -.199E+02 -.172E+03 0.112E+04   0.138E+01 0.230E+01 -.146E+01   0.190E-02 -.468E-02 -.146E-02
   -.445E+02 -.336E+02 0.181E+04   0.452E+02 0.342E+02 -.182E+04   -.145E+01 -.146E+01 0.151E+01   -.714E-02 0.560E-02 0.796E-02
   -.343E+02 0.124E+03 0.852E+03   0.348E+02 -.126E+03 -.854E+03   -.427E+00 0.161E+01 0.124E+01   0.340E-03 -.398E-02 0.172E-02
   -.244E+02 0.127E+03 -.217E+03   0.251E+02 -.129E+03 0.216E+03   -.615E+00 0.203E+01 0.935E+00   -.112E-02 0.112E-02 -.709E-02
   -.386E+02 0.110E+03 -.120E+04   0.387E+02 -.112E+03 0.120E+04   0.375E+00 0.183E+01 0.212E+01   0.157E-03 -.495E-04 0.319E-02
   -.484E+02 0.125E+03 0.503E+03   0.489E+02 -.127E+03 -.505E+03   -.418E+00 0.165E+01 0.168E+01   -.805E-03 -.362E-03 -.822E-02
   -.402E+02 0.841E+02 -.629E+03   0.409E+02 -.856E+02 0.628E+03   -.552E+00 0.200E+01 0.160E+01   0.195E-02 -.514E-02 -.661E-02
   -.736E+02 -.940E+01 -.176E+04   0.742E+02 0.969E+01 0.177E+04   -.133E+01 0.765E+00 -.437E+01   0.281E-03 -.135E-03 0.446E-03
   -.615E+02 0.163E+03 0.156E+04   0.619E+02 -.165E+03 -.156E+04   -.769E+00 0.198E+01 -.735E+00   0.964E-03 0.139E-02 0.867E-02
   -.450E+02 -.445E+02 0.180E+04   0.456E+02 0.443E+02 -.180E+04   -.582E+00 -.343E+00 0.906E+00   0.383E-02 -.297E-02 0.114E-01
   -.753E+02 -.130E+03 0.793E+03   0.764E+02 0.133E+03 -.793E+03   -.119E+01 -.266E+01 0.301E-01   -.218E-02 -.578E-03 -.158E-02
   -.847E+02 -.145E+03 -.295E+03   0.861E+02 0.148E+03 0.295E+03   -.128E+01 -.233E+01 0.283E-01   -.287E-02 0.218E-02 -.841E-02
   -.108E+03 -.118E+03 -.131E+04   0.109E+03 0.120E+03 0.131E+04   -.100E+01 -.241E+01 0.154E+01   -.130E-02 0.710E-03 0.444E-02
   -.759E+02 -.140E+03 0.162E+04   0.766E+02 0.141E+03 -.163E+04   -.592E+00 -.213E+00 0.214E+01   -.972E-03 0.961E-03 0.620E-02
   -.755E+02 -.166E+03 0.431E+03   0.767E+02 0.168E+03 -.432E+03   -.115E+01 -.257E+01 0.584E+00   -.267E-02 -.203E-02 0.815E-03
   -.948E+02 -.173E+03 -.688E+03   0.962E+02 0.175E+03 0.688E+03   -.139E+01 -.223E+01 -.542E+00   -.373E-02 -.178E-02 -.805E-02
   -.169E+03 -.298E+03 -.170E+04   0.172E+03 0.302E+03 0.170E+04   -.264E+01 -.456E+01 -.181E+01   0.193E-02 -.266E-02 0.166E-02
   -.737E+02 -.138E+03 0.281E+02   0.752E+02 0.140E+03 -.283E+02   -.157E+01 -.229E+01 0.533E+00   -.960E-03 0.930E-03 -.748E-02
   0.361E+02 -.585E+02 -.118E+04   -.361E+02 0.598E+02 0.118E+04   0.864E-02 -.182E+01 -.236E+01   0.153E-03 0.343E-02 -.246E-02
   0.159E+03 0.145E+03 -.175E+04   -.161E+03 -.146E+03 0.175E+04   0.230E+01 0.884E+00 -.318E+01   0.315E-02 0.317E-02 0.300E-02
   -.589E+02 -.155E+03 0.112E+04   0.602E+02 0.157E+03 -.112E+04   -.184E+01 -.178E+01 -.129E+01   0.276E-02 0.765E-03 0.441E-02
   0.123E+03 0.848E+02 0.153E+04   -.125E+03 -.860E+02 -.153E+04   0.163E+01 0.144E+01 0.878E+00   0.410E-03 -.234E-02 0.127E-01
   0.171E+03 0.540E+00 0.351E+03   -.173E+03 -.463E+00 -.351E+03   0.261E+01 0.119E+00 0.649E-01   0.153E-02 0.358E-02 -.741E-02
   0.188E+03 0.128E+02 -.761E+03   -.191E+03 -.124E+02 0.762E+03   0.238E+01 -.235E+00 -.143E+01   -.397E-03 0.202E-02 -.497E-02
   0.201E+03 0.205E+03 -.174E+04   -.205E+03 -.206E+03 0.174E+04   0.443E+01 0.201E+01 -.278E+01   0.168E-02 0.262E-02 0.403E-02
   0.166E+03 -.147E+02 -.318E+02   -.168E+03 0.148E+02 0.324E+02   0.253E+01 -.314E-01 -.758E+00   0.595E-02 0.120E-02 -.974E-02
   0.191E+03 -.380E+01 -.110E+04   -.193E+03 0.395E+01 0.110E+04   0.210E+01 -.156E-01 -.116E+01   0.720E-03 0.163E-03 -.571E-02
   0.222E+03 -.973E+02 -.188E+04   -.226E+03 0.982E+02 0.188E+04   0.371E+01 -.136E+01 -.373E+01   0.272E-02 -.344E-02 0.181E-02
   0.164E+03 -.348E+02 0.108E+04   -.166E+03 0.347E+02 -.108E+04   0.147E+01 0.238E+00 -.251E+01   0.306E-03 -.306E-02 0.306E-02
   0.141E+03 -.159E+03 0.184E+04   -.142E+03 0.160E+03 -.185E+04   0.220E+01 -.130E+01 0.425E+01   0.679E-03 0.951E-03 0.304E-02
   0.168E+03 -.275E+02 0.694E+03   -.170E+03 0.279E+02 -.693E+03   0.255E+01 -.489E+00 -.459E+00   0.413E-03 -.215E-02 0.196E-02
   0.143E+03 -.320E+02 -.412E+03   -.146E+03 0.320E+02 0.412E+03   0.268E+01 -.364E-01 -.910E+00   -.142E-03 0.177E-02 -.687E-02
   -.389E+02 -.126E+03 -.149E+04   0.391E+02 0.127E+03 0.149E+04   0.819E-01 -.155E+01 -.141E+01   -.332E-02 0.104E-02 0.113E-02
 -----------------------------------------------------------------------------------------------
   -.432E+02 0.158E+02 0.784E+01   0.966E-12 0.270E-12 0.227E-12   0.433E+02 -.156E+02 -.786E+01   -.178E-01 0.163E-01 -.392E-01
 
 
 POSITION                                       TOTAL-FORCE (eV/Angst)
 -----------------------------------------------------------------------------------
      2.32602     10.40942      0.00000         0.103531      0.271829      1.883644
      3.74232      9.43171      2.62550        -0.187455      0.023393     -0.147175
      5.15862      8.45400      5.25100        -0.057599     -0.169674     -0.083291
      6.57491      7.47629      7.87651        -0.097238     -0.313468      0.440728
      7.99121      6.49857     10.50201        -0.736716     -0.477944     -2.066551
      1.07272      4.55480      3.50067         0.004294      0.154386     -0.170345
      2.48901      3.57708      6.12617        -0.007384     -0.229131     -0.090902
      3.90531      2.59937      8.75167         0.089748     -0.157322      0.675446
      9.08153      9.10581      0.87517         0.264295     -0.188872      1.319273
      6.41192      4.22889      1.75033        -0.461479     -0.168139      0.119222
      7.82822      3.25118      4.37584        -0.030233     -0.006880     -0.059856
      9.24452     12.35320      7.00134         0.295284     -0.242488      0.084296
      3.36813      7.02690      1.93183        -0.595314     -0.217800      0.393896
      4.78442      6.04919      4.55733        -0.032555      0.128503     -0.016409
      6.20072      5.07148      7.18283         0.503394     -0.054972      0.368011
      0.69852      2.14999      2.80700        -0.005357     -0.065928     -0.151986
      2.11482      1.17228      5.43250         0.043114      0.081507      0.025573
      3.53112     10.27430      8.05800         0.006796     -0.061343      0.419164
      4.94741      9.29658     10.68350        -1.580385      0.061953     -1.713013
      8.70733      6.70100      0.18149         1.153520      0.081828      1.826300
      0.86151      5.39738      8.93317         0.198733     -0.425112     -0.752077
      6.03773     11.90382      1.05666        -0.616715      0.230450      0.355549
      7.45403     10.92611      3.68216        -0.064646     -0.009329      0.037886
      8.87032      9.94839      6.30767        -0.067783      0.110983      0.238267
      0.30789      1.72287      9.11466        -0.614560     -1.375053     -0.153355
      5.48410      8.22931      1.23816        -0.124842      0.128004      1.013261
      6.90040      7.25159      3.86366        -0.135981      0.118267     -0.206239
      8.31669      6.27388      6.48916        -0.111790     -0.311481     -0.061349
      2.81450      3.35239      2.11332         0.110720      0.188381     -0.322027
      4.23080      2.37468      4.73883        -0.070168      0.029029     -0.076484
      5.64709     11.47670      7.36433         0.122368      0.073615      0.374260
      7.06339     10.49899      9.98983        -0.615606      0.646860     -1.828461
      0.14490      8.55521      2.98849        -0.058299      0.184733     -0.203221
      1.56119      7.57750      5.61399         0.015027      0.134320      0.068377
      2.97749      6.59979      8.23950        -0.345094      0.071784      0.789944
      8.15370     13.10622      0.36299         0.290593     -0.357961      1.841465
      0.34500      9.75890     10.30158         0.331980      1.939237     -0.574960
      5.52122      6.18560      2.42507        -0.001646      0.218322     -1.559870
      6.93751      5.20789      5.05057        -0.108949      0.064023      0.124661
      8.35381      4.23018      7.67607         0.015929      0.479398      0.179421
      1.43532      2.28640      0.67473        -0.729258     -0.914508     -1.191375
      2.85162      1.30869      3.30024         0.121112      0.153977     -0.035162
      4.26791     10.41071      5.92574         0.061187     -0.022340      0.184879
      5.68421      9.43299      8.55124         0.533464      0.161819      1.100663
      0.18201      6.51150      4.17540         0.058934      0.062222      0.062951
      1.59831      5.53379      6.80091         0.235478      0.432893      0.313837
      3.01461      4.55608      9.42641        -0.716729      1.060578      0.370113
      8.19082     11.06252      1.54990        -0.370440     -0.254720     -1.861892
      4.58141     10.22551      0.68287         0.112600     -0.506278     -0.571251
      5.99770      9.24779      3.30837        -0.129217     -0.130741     -0.016979
      7.41400      8.27008      5.93387         0.116184      0.042206      0.145514
      8.83030      7.29237      8.55937         0.385934     -0.212410      1.706454
      1.91180      5.34859      1.55803         0.052458      0.438664     -0.295757
      3.32810      4.37088      4.18354         0.029615     -0.174294      0.156177
      4.74440      3.39317      6.80904         0.018285     -0.003050      0.039114
      6.16069      2.41545      9.43454        -0.195608     -0.719071     -0.089172
      0.65850      9.57370      5.05870        -0.064251      0.015728      0.289655
      2.07479      8.59599      7.68420        -0.048985     -0.480059     -0.081150
      3.49109      7.61827     10.30971         0.663872     -0.066742     -0.019272
      8.66731      4.04498      2.43320        -0.582711      0.188719     -0.893072
      1.88700      8.69441      1.56616         0.551707      0.231367     -0.832695
      3.30330      7.71670      4.19167         0.254720      0.196810      0.096459
      4.71960      6.73898      6.81717         0.069886      0.148266     -0.081563
      6.13589      5.76127      9.44267         0.679644      0.824360      0.241815
      0.63370      2.83978      5.06683         0.058839      0.106321     -0.191970
      2.04999      1.86207      7.69234        -0.035466      0.136507      0.147978
      3.46629     10.96409     10.31784         0.256301     -0.496338     -0.588019
      8.64250      7.39079      2.44133        -0.193117      0.171541     -1.323916
      4.55661      3.49159      0.69100         1.142742     -0.382502      0.289093
      5.97290      2.51388      3.31650         0.333548     -0.118381      0.175953
      7.38920     11.61590      5.94200         0.164415      0.001573     -0.023187
      8.80549     10.63819      8.56750         0.343324     -0.480023      0.434703
 -----------------------------------------------------------------------------------
    total drift:                                0.041336      0.209770     -0.056193


--------------------------------------------------------------------------------------------------------



  FREE ENERGIE OF THE ION-ELECTRON SYSTEM (eV)
  ---------------------------------------------------
  free  energy   TOTEN  =      -352.89312286 eV

  energy  without entropy=     -351.82173408  energy(sigma->0) =     -352.35742847
 


--------------------------------------------------------------------------------------------------------


    POTLOK:  cpu time    0.0477: real time    0.0478


--------------------------------------------------------------------------------------------------------


     LOOP+:  cpu time  102.2676: real time  102.5849
    4ORBIT:  cpu time    0.0000: real time    0.0000

 total amount of memory used by VASP MPI-rank0    45296. kBytes
=======================================================================

   base      :      30000. kBytes
   nonlr-proj:       2282. kBytes
   fftplans  :       3383. kBytes
   grid      :       6052. kBytes
   one-center:         93. kBytes
   wavefun   :       3486. kBytes
 
  
  
 General timing and accounting informations for this job:
 ========================================================
  
                  Total CPU time used (sec):      104.400
                            User time (sec):      103.636
                          System time (sec):        0.764
                         Elapsed time (sec):      105.107
  
                   Maximum memory used (kb):      229596.
                   Average memory used (kb):           0.
  
                          Minor page faults:        81631
                          Major page faults:            0
                 Voluntary context switches:          852
