       N       E                     dE             d eps       ncg     rms          rms(c)
DAV:   1     0.981404107017E+04    0.98140E+04   -0.50778E+05  1168   0.164E+03
DAV:   2     0.626045992633E+03   -0.91880E+04   -0.88569E+04  1016   0.526E+02
DAV:   3    -0.341394286964E+03   -0.96744E+03   -0.91120E+03  1112   0.182E+02
DAV:   4    -0.404704191599E+03   -0.63310E+02   -0.62565E+02  1152   0.409E+01
DAV:   5    -0.406925885310E+03   -0.22217E+01   -0.22181E+01  1200   0.815E+00    0.819E+01
DAV:   6    -0.495268380195E+03   -0.88342E+02   -0.97255E+02  1168   0.117E+02    0.159E+02
DAV:   7    -0.377833587423E+03    0.11743E+03   -0.17920E+02  1112   0.659E+01    0.642E+01
DAV:   8    -0.476302747860E+03   -0.98469E+02   -0.15174E+02  1264   0.887E+01    0.160E+02
DAV:   9    -0.390366507646E+03    0.85936E+02   -0.13713E+02  1240   0.580E+01    0.116E+02
DAV:  10    -0.374918441448E+03    0.15448E+02   -0.75691E+01  1312   0.327E+01    0.493E+01
DAV:  11    -0.379459780859E+03   -0.45413E+01   -0.43017E+01  1248   0.471E+01    0.666E+01
DAV:  12    -0.372154652520E+03    0.73051E+01   -0.53709E+01  1304   0.382E+01    0.650E+01
DAV:  13    -0.369505649289E+03    0.26490E+01   -0.39665E+01  1272   0.252E+01    0.500E+01
DAV:  14    -0.363544563456E+03    0.59611E+01   -0.24889E+01  1304   0.196E+01    0.283E+01
DAV:  15    -0.360635459684E+03    0.29091E+01   -0.83095E+00  1240   0.174E+01    0.240E+01
DAV:  16    -0.358775053292E+03    0.18604E+01   -0.32798E+00  1248   0.117E+01    0.171E+01
DAV:  17    -0.358323909429E+03    0.45114E+00   -0.83567E-01  1304   0.383E+00    0.153E+01
DAV:  18    -0.358058540002E+03    0.26537E+00   -0.28335E-01  1224   0.326E+00    0.146E+01
DAV:  19    -0.357688499379E+03    0.37004E+00   -0.38592E-01  1296   0.415E+00    0.135E+01
DAV:  20    -0.357208156495E+03    0.48034E+00   -0.25253E-01  1328   0.346E+00    0.109E+01
DAV:  21    -0.356838046724E+03    0.37011E+00   -0.37923E-01  1392   0.423E+00    0.885E+00
DAV:  22    -0.356611712355E+03    0.22633E+00   -0.39249E-01  1328   0.380E+00    0.784E+00
DAV:  23    -0.356574625853E+03    0.37087E-01   -0.61339E-01  1280   0.306E+00    0.666E+00
DAV:  24    -0.356463504572E+03    0.11112E+00   -0.21735E-01  1320   0.318E+00    0.429E+00
DAV:  25    -0.356433628661E+03    0.29876E-01   -0.12771E-01  1280   0.244E+00    0.353E+00
DAV:  26    -0.356429861837E+03    0.37668E-02   -0.92158E-02  1208   0.205E+00    0.333E+00
DAV:  27    -0.356408256345E+03    0.21605E-01   -0.92285E-02  1312   0.192E+00    0.257E+00
DAV:  28    -0.356397700040E+03    0.10556E-01   -0.73879E-02  1232   0.216E+00    0.209E+00
DAV:  29    -0.356394574373E+03    0.31257E-02   -0.53246E-02  1312   0.133E+00    0.201E+00
DAV:  30    -0.356386965192E+03    0.76092E-02   -0.21005E-02  1312   0.949E-01    0.148E+00
DAV:  31    -0.356382637262E+03    0.43279E-02   -0.84967E-03  1120   0.559E-01    0.102E+00
DAV:  32    -0.356383405510E+03   -0.76825E-03   -0.57577E-03  1304   0.507E-01    0.106E+00
DAV:  33    -0.356382413222E+03    0.99229E-03   -0.35236E-03  1216   0.411E-01    0.935E-01
DAV:  34    -0.356381174564E+03    0.12387E-02   -0.30917E-03  1208   0.364E-01    0.725E-01
DAV:  35    -0.356379823933E+03    0.13506E-02   -0.23750E-03  1136   0.251E-01    0.210E-01
DAV:  36    -0.356380210051E+03   -0.38612E-03   -0.53941E-04   832   0.142E-01    0.214E-01
DAV:  37    -0.356380422063E+03   -0.21201E-03   -0.24842E-04   632   0.113E-01    0.124E-01
DAV:  38    -0.356380787487E+03   -0.36542E-03   -0.27994E-04   704   0.135E-01    0.169E-01
DAV:  39    -0.356380994636E+03   -0.20715E-03   -0.17945E-04   624   0.109E-01    0.590E-02
DAV:  40    -0.356381123901E+03   -0.12926E-03   -0.64680E-05   600   0.552E-02    0.603E-02
DAV:  41    -0.356381553433E+03   -0.42953E-03   -0.83459E-05   592   0.456E-02    0.588E-02
DAV:  42    -0.356381782297E+03   -0.22886E-03   -0.54807E-05   600   0.414E-02    0.529E-02
DAV:  43    -0.356382202648E+03   -0.42035E-03   -0.64367E-05   648   0.383E-02    0.489E-02
DAV:  44    -0.356382392330E+03   -0.18968E-03   -0.40162E-05   600   0.298E-02    0.346E-02
DAV:  45    -0.356382584051E+03   -0.19172E-03   -0.33706E-05   592   0.271E-02    0.256E-02
DAV:  46    -0.356382767636E+03   -0.18359E-03   -0.24712E-05   592   0.166E-02    0.263E-02
DAV:  47    -0.356382855622E+03   -0.87986E-04   -0.18760E-05   600   0.201E-02
   1 F= -.35638286E+03 E0= -.35580336E+03  d E =-.115898E+01
