
60 atoms
2 atom types
   0.0000000000    9.5784100000 xlo xhi
   0.0000000000   11.2564630382 ylo yhi
   0.0000000000   17.7113588997 zlo zhi
   0.0000000000    0.0000000000    0.0000000000 xy xz yz

Atoms # atomic

     1      1    0.7736211742    4.8537536668    0.2338413004
     2      1    0.7736211742    4.2700842882    3.3183848654
     3      1    0.7736211742    3.6864149097    6.4029284304
     4      1    5.5628261742    1.7478033080    1.7761130829
     5      1    5.5628261742    1.1641339182    4.8606566479
     6      1    2.0389578704    2.1166700262    2.9109074065
     7      1    2.0389578704    1.5330006476    5.9954509715
     8      1    6.8281628704    5.2226203962    1.3686356240
     9      1    6.8281628704    4.6389510064    4.4531791890
    10      1    6.8281628704    4.0552816279    7.5377227540
    11      1    3.3042945666    4.8537536668    0.2338413004
    12      1    3.3042945666    4.2700842882    3.3183848654
    13      1    3.3042945666    3.6864149097    6.4029284304
    14      1    8.0934995666    1.7478033080    1.7761130829
    15      1    8.0934995666    1.1641339182    4.8606566479
    16      1    0.7736211742   10.4819851859    0.2338413004
    17      1    0.7736211742    9.8983158073    3.3183848654
    18      1    0.7736211742    9.3146464288    6.4029284304
    19      1    5.5628261742    7.3760348271    1.7761130829
    20      1    5.5628261742    6.7923654373    4.8606566479
    21      1    2.0389578704    7.7449015453    2.9109074065
    22      1    2.0389578704    7.1612321667    5.9954509715
    23      1    6.8281628704   10.8508519153    1.3686356240
    24      1    6.8281628704   10.2671825255    4.4531791890
    25      1    6.8281628704    9.6835131470    7.5377227540
    26      1    3.3042945666   10.4819851859    0.2338413004
    27      1    3.3042945666    9.8983158073    3.3183848654
    28      1    3.3042945666    9.3146464288    6.4029284304
    29      1    8.0934995666    7.3760348271    1.7761130829
    30      1    8.0934995666    6.7923654373    4.8606566479
    31      2    3.6501901085    2.9159081574    1.5422717825
    32      2    3.6501901085    2.3322387789    4.6268153475
    33      2    3.6501901085    1.7485694004    7.7113588948
    34      2    8.4393951085    5.4381891489    3.0845435650
    35      2    8.4393951085    4.8545197704    6.1690871123
    36      2    8.4393951085    0.3936271772    0.0000000000
    37      2    2.0389578704    5.0743156402    5.1456818273
    38      2    2.0389578704    0.0297536797    2.0611382800
    39      2    6.8281628704    3.1357040385    0.5188664975
    40      2    6.8281628704    2.5520346599    3.6034100625
    41      2    6.8281628704    1.9683652814    6.6879536098
    42      2    0.4277256322    2.9159081574    1.5422717825
    43      2    0.4277256322    2.3322387789    4.6268153475
    44      2    5.2169306322    5.4381891489    3.0845435650
    45      2    5.2169306322    4.8545197704    6.1690871123
    46      2    3.6501901085    8.5441396765    1.5422717825
    47      2    3.6501901085    7.9604702980    4.6268153475
    48      2    8.4393951085   11.0664206680    3.0845435650
    49      2    8.4393951085   10.4827512895    6.1690871123
    50      2    8.4393951085    6.0218586963    0.0000000000
    51      2    2.0389578704   10.7025471593    5.1456818273
    52      2    2.0389578704    5.6579851988    2.0611382800
    53      2    6.8281628704    8.7639355576    0.5188664975
    54      2    6.8281628704    8.1802661790    3.6034100625
    55      2    0.4277256322    8.5441396765    1.5422717825
    56      2    0.4277256322    7.9604702980    4.6268153475
    57      2    0.4277256322    7.3768009195    7.7113588948
    58      2    5.2169306322   11.0664206680    3.0845435650
    59      2    5.2169306322   10.4827512895    6.1690871123
    60      2    5.2169306322    6.0218586963    0.0000000000
