LAMMPS data file via write_data, version 5 Jun 2019, timestep = 42

60 atoms
2 atom types

0.0000000000000000e+00 9.5784099999999999e+00 xlo xhi
0.0000000000000000e+00 1.1256463038200000e+01 ylo yhi
0.0000000000000000e+00 1.7711358899699999e+01 zlo zhi
0.0000000000000000e+00 0.0000000000000000e+00 0.0000000000000000e+00 xy xz yz

Masses

1 58.71
2 32.06

Atoms # atomic

1 1 9.5635933473455275e+00 5.0939032401224562e+00 1.3021953542192393e+00 -1 0 0
2 1 7.7362117420000021e-01 4.2700842881999996e+00 3.3183848654000001e+00 0 0 0
3 1 6.0242904069182601e-01 3.8655942315653111e+00 5.9906145639163420e+00 0 0 0
4 1 5.5028196936740743e+00 1.8196683443217931e+00 2.2050188220950115e+00 0 0 0
5 1 5.5628261741999996e+00 1.1641339181999999e+00 4.8606566479000000e+00 0 0 0
6 1 2.0389578704000000e+00 2.1166700262000000e+00 2.9109074064999998e+00 0 0 0
7 1 2.0402949686127050e+00 1.5933206395300810e+00 5.6551092877385347e+00 0 0 0
8 1 6.8281628704000017e+00 5.2226203962000000e+00 1.3686356240000006e+00 0 0 0
9 1 6.8281628704000017e+00 4.6389510064000001e+00 4.4531791890000001e+00 0 0 0
10 1 6.8532072847869250e+00 3.9890566856237197e+00 6.7422005539712755e+00 0 0 0
11 1 4.1741453182298134e+00 4.9974979928172774e+00 1.2882956667261789e+00 0 0 0
12 1 3.3042945666000008e+00 4.2700842881999996e+00 3.3183848654000001e+00 0 0 0
13 1 3.5388046635263559e+00 3.9097262105738664e+00 5.9521526194939405e+00 0 0 0
14 1 8.0934995666000003e+00 1.7478033079999999e+00 1.7761130829000000e+00 0 0 0
15 1 8.0934995666000003e+00 1.1641339181999999e+00 4.8606566479000000e+00 0 0 0
16 1 9.5389370375080045e+00 1.0820324813850716e+01 1.2851168390400616e+00 -1 0 0
17 1 7.7362117420000021e-01 9.8983158072999995e+00 3.3183848654000001e+00 0 0 0
18 1 7.1221928215321373e-01 9.4191141677521681e+00 6.0487658669488642e+00 0 0 0
19 1 5.5628261741999996e+00 7.3760348270999998e+00 1.7761130829000000e+00 0 0 0
20 1 5.5187197573556368e+00 6.8240135549502892e+00 4.5949623446081809e+00 0 0 0
21 1 2.0389578704000000e+00 7.7449015452999994e+00 2.9109074064999998e+00 0 0 0
22 1 2.0379695690325952e+00 7.1733107265576370e+00 5.6477135272142984e+00 0 0 0
23 1 6.8566420929334368e+00 1.0724551836472077e+01 1.7703841812613323e+00 0 0 0
24 1 6.8281628704000017e+00 1.0267182525500001e+01 4.4531791890000001e+00 0 0 0
25 1 6.8099902428066859e+00 1.1243051278207975e+01 6.7579833803111002e+00 0 0 0
26 1 2.0842406420251809e+00 9.4758842292970566e+00 1.1227541006897899e+00 0 0 0
27 1 3.3042945666000008e+00 9.8983158072999995e+00 3.3183848654000001e+00 0 0 0
28 1 3.3484812881526014e+00 9.4093841832532039e+00 6.0543471926080725e+00 0 0 0
29 1 8.0934995666000003e+00 7.3760348270999998e+00 1.7761130829000000e+00 0 0 0
30 1 8.1402491304111493e+00 6.8178114402472172e+00 4.5962987521917587e+00 0 0 0
31 2 3.7016211175032074e+00 2.9382574309533100e+00 1.7891279892526966e+00 0 0 0
32 2 3.6501901085000008e+00 2.3322387788999999e+00 4.6268153475000000e+00 0 0 0
33 2 2.1003365763674240e+00 3.0162952183317144e+00 7.1225385125540690e+00 0 0 0
34 2 8.4393951084999994e+00 5.4381891489000003e+00 3.0845435650000002e+00 0 0 0
35 2 8.3704764576072037e+00 5.0632791573104363e+00 5.8680573913272642e+00 0 0 0
36 2 7.9587639151925291e+00 3.7188516092412083e-01 2.7940213698512539e-01 0 0 0
37 2 2.0389578704000000e+00 5.0743156401999991e+00 5.1456818272999998e+00 0 0 0
38 2 2.0389578704000000e+00 2.9753679700000001e-02 2.0611382800000002e+00 0 0 0
39 2 6.6786788249406088e+00 3.1160363915514466e+00 1.0238210210798988e+00 0 0 0
40 2 6.8281628704000017e+00 2.5520346598999999e+00 3.6034100625000001e+00 0 0 0
41 2 6.8319733476074473e+00 1.9807191758406277e+00 6.3790355959483707e+00 0 0 0
42 2 3.4461330813633645e-01 2.9768964966545863e+00 1.7642394439647129e+00 0 0 0
43 2 4.2772563219999998e-01 2.3322387788999999e+00 4.6268153475000000e+00 0 0 0
44 2 5.2169306322000004e+00 5.4381891489000003e+00 3.0845435650000002e+00 0 0 0
45 2 5.3418659760271829e+00 5.1037059909577644e+00 5.9037577989991137e+00 0 0 0
46 2 3.7164623913219681e+00 8.4435410449143333e+00 1.8305713448735410e+00 0 0 0
47 2 3.6501901085000008e+00 7.9604702979999997e+00 4.6268153475000000e+00 0 0 0
48 2 8.4393951084999994e+00 1.1066420667999999e+01 3.0845435650000002e+00 0 0 0
49 2 8.4738155372672246e+00 1.0531117582777608e+01 5.8248463112360476e+00 0 0 0
50 2 8.2559818309309474e+00 6.1134309919873449e+00 1.6181006556511587e-01 0 0 0
51 2 2.0389578704000000e+00 1.0702547159300000e+01 5.1456818272999998e+00 0 0 0
52 2 2.0389578704000000e+00 5.6579851987999987e+00 2.0611382800000002e+00 0 0 0
53 2 6.8199886450302865e+00 8.8016562300173504e+00 9.3132581408378312e-01 0 0 0
54 2 6.8281628704000017e+00 8.1802661790000002e+00 3.6034100625000001e+00 0 0 0
55 2 2.9376613456775119e-01 8.6328931193734810e+00 1.6943926180603135e+00 0 0 0
56 2 4.2772563219999998e-01 7.9604702979999997e+00 4.6268153475000000e+00 0 0 0
57 2 2.0236160311879363e+00 8.4299775125254417e+00 7.2576118587912086e+00 0 0 0
58 2 5.2169306322000004e+00 1.1066420667999999e+01 3.0845435650000002e+00 0 0 0
59 2 5.1631144919448300e+00 1.0518942000082513e+01 5.8016559755941595e+00 0 0 0
60 2 5.4044966573706965e+00 6.1176990875400463e+00 1.5754615837873812e-01 0 0 0

Velocities

1 0.0000000000000000e+00 0.0000000000000000e+00 0.0000000000000000e+00
2 0.0000000000000000e+00 0.0000000000000000e+00 0.0000000000000000e+00
3 0.0000000000000000e+00 0.0000000000000000e+00 0.0000000000000000e+00
4 0.0000000000000000e+00 0.0000000000000000e+00 0.0000000000000000e+00
5 0.0000000000000000e+00 0.0000000000000000e+00 0.0000000000000000e+00
6 0.0000000000000000e+00 0.0000000000000000e+00 0.0000000000000000e+00
7 0.0000000000000000e+00 0.0000000000000000e+00 0.0000000000000000e+00
8 0.0000000000000000e+00 0.0000000000000000e+00 0.0000000000000000e+00
9 0.0000000000000000e+00 0.0000000000000000e+00 0.0000000000000000e+00
10 0.0000000000000000e+00 0.0000000000000000e+00 0.0000000000000000e+00
11 0.0000000000000000e+00 0.0000000000000000e+00 0.0000000000000000e+00
12 0.0000000000000000e+00 0.0000000000000000e+00 0.0000000000000000e+00
13 0.0000000000000000e+00 0.0000000000000000e+00 0.0000000000000000e+00
14 0.0000000000000000e+00 0.0000000000000000e+00 0.0000000000000000e+00
15 0.0000000000000000e+00 0.0000000000000000e+00 0.0000000000000000e+00
16 0.0000000000000000e+00 0.0000000000000000e+00 0.0000000000000000e+00
17 0.0000000000000000e+00 0.0000000000000000e+00 0.0000000000000000e+00
18 0.0000000000000000e+00 0.0000000000000000e+00 0.0000000000000000e+00
19 0.0000000000000000e+00 0.0000000000000000e+00 0.0000000000000000e+00
20 0.0000000000000000e+00 0.0000000000000000e+00 0.0000000000000000e+00
21 0.0000000000000000e+00 0.0000000000000000e+00 0.0000000000000000e+00
22 0.0000000000000000e+00 0.0000000000000000e+00 0.0000000000000000e+00
23 0.0000000000000000e+00 0.0000000000000000e+00 0.0000000000000000e+00
24 0.0000000000000000e+00 0.0000000000000000e+00 0.0000000000000000e+00
25 0.0000000000000000e+00 0.0000000000000000e+00 0.0000000000000000e+00
26 0.0000000000000000e+00 0.0000000000000000e+00 0.0000000000000000e+00
27 0.0000000000000000e+00 0.0000000000000000e+00 0.0000000000000000e+00
28 0.0000000000000000e+00 0.0000000000000000e+00 0.0000000000000000e+00
29 0.0000000000000000e+00 0.0000000000000000e+00 0.0000000000000000e+00
30 0.0000000000000000e+00 0.0000000000000000e+00 0.0000000000000000e+00
31 0.0000000000000000e+00 0.0000000000000000e+00 0.0000000000000000e+00
32 0.0000000000000000e+00 0.0000000000000000e+00 0.0000000000000000e+00
33 0.0000000000000000e+00 0.0000000000000000e+00 0.0000000000000000e+00
34 0.0000000000000000e+00 0.0000000000000000e+00 0.0000000000000000e+00
35 0.0000000000000000e+00 0.0000000000000000e+00 0.0000000000000000e+00
36 0.0000000000000000e+00 0.0000000000000000e+00 0.0000000000000000e+00
37 0.0000000000000000e+00 0.0000000000000000e+00 0.0000000000000000e+00
38 0.0000000000000000e+00 0.0000000000000000e+00 0.0000000000000000e+00
39 0.0000000000000000e+00 0.0000000000000000e+00 0.0000000000000000e+00
40 0.0000000000000000e+00 0.0000000000000000e+00 0.0000000000000000e+00
41 0.0000000000000000e+00 0.0000000000000000e+00 0.0000000000000000e+00
42 0.0000000000000000e+00 0.0000000000000000e+00 0.0000000000000000e+00
43 0.0000000000000000e+00 0.0000000000000000e+00 0.0000000000000000e+00
44 0.0000000000000000e+00 0.0000000000000000e+00 0.0000000000000000e+00
45 0.0000000000000000e+00 0.0000000000000000e+00 0.0000000000000000e+00
46 0.0000000000000000e+00 0.0000000000000000e+00 0.0000000000000000e+00
47 0.0000000000000000e+00 0.0000000000000000e+00 0.0000000000000000e+00
48 0.0000000000000000e+00 0.0000000000000000e+00 0.0000000000000000e+00
49 0.0000000000000000e+00 0.0000000000000000e+00 0.0000000000000000e+00
50 0.0000000000000000e+00 0.0000000000000000e+00 0.0000000000000000e+00
51 0.0000000000000000e+00 0.0000000000000000e+00 0.0000000000000000e+00
52 0.0000000000000000e+00 0.0000000000000000e+00 0.0000000000000000e+00
53 0.0000000000000000e+00 0.0000000000000000e+00 0.0000000000000000e+00
54 0.0000000000000000e+00 0.0000000000000000e+00 0.0000000000000000e+00
55 0.0000000000000000e+00 0.0000000000000000e+00 0.0000000000000000e+00
56 0.0000000000000000e+00 0.0000000000000000e+00 0.0000000000000000e+00
57 0.0000000000000000e+00 0.0000000000000000e+00 0.0000000000000000e+00
58 0.0000000000000000e+00 0.0000000000000000e+00 0.0000000000000000e+00
59 0.0000000000000000e+00 0.0000000000000000e+00 0.0000000000000000e+00
60 0.0000000000000000e+00 0.0000000000000000e+00 0.0000000000000000e+00
