 vasp.5.4.4.18Apr17-6-g9f103f2a35 (build Aug 13 2019 17:33:20) gamma-only       
  
 executed on             LinuxIFC date 2020.05.12  17:15:05
 running on   12 total cores
 distrk:  each k-point on   12 cores,    1 groups
 distr:  one band on NCORES_PER_BAND=   6 cores,    2 groups


--------------------------------------------------------------------------------------------------------


 INCAR:
 POTCAR:    PAW_PBE Ni_pv 06Sep2000               
 POTCAR:    PAW_PBE S 06Sep2000                   
 POTCAR:    PAW_PBE Ni_pv 06Sep2000               
   VRHFIN =Ni:                                                                  
   LEXCH  = PE                                                                  
   EATOM  =  3501.1230 eV,  257.3253 Ry                                         
                                                                                
   TITEL  = PAW_PBE Ni_pv 06Sep2000                                             
   LULTRA =        F    use ultrasoft PP ?                                      
   IUNSCR =        1    unscreen: 0-lin 1-nonlin 2-no                           
   RPACOR =    1.500    partial core radius                                     
   POMASS =   58.690; ZVAL   =   16.000    mass and valenz                      
   RCORE  =    2.000    outmost cutoff radius                                   
   RWIGS  =    2.000; RWIGS  =    1.058    wigner-seitz radius (au A)           
   ENMAX  =  367.986; ENMIN  =  275.989 eV                                      
   RCLOC  =    1.301    cutoff for local pot                                    
   LCOR   =        T    correct aug charges                                     
   LPAW   =        T    paw PP                                                  
   EAUG   =  703.443                                                            
   DEXC   =    0.000                                                            
   RMAX   =    2.041    core radius for proj-oper                               
   RAUG   =    1.300    factor for augmentation sphere                          
   RDEP   =    2.103    radius for radial grids                                 
   RDEPT  =    1.618    core radius for aug-charge                              
                                                                                
   Atomic configuration                                                         
    8 entries                                                                   
     n  l   j            E        occ.                                          
     1  0  0.50     -8206.4253   2.0000                                         
     2  0  0.50      -976.1748   2.0000                                         
     2  1  1.50      -839.0571   6.0000                                         
     3  0  0.50      -105.9991   2.0000                                         
     3  1  1.50       -66.4603   6.0000                                         
     3  2  2.50        -4.6458   9.0000                                         
     4  0  0.50        -4.4926   1.0000                                         
     4  3  2.50        -1.3606   0.0000                                         
   Description                                                                  
     l       E           TYP  RCUT    TYP  RCUT                                 
     1    -66.4602962     23  1.700                                             
     1     -1.3605826     23  1.700                                             
     2     -4.6457867     23  2.000                                             
     2     -6.0063693     23  2.000                                             
     0     -4.4925576     23  1.900                                             
     0     16.3626226     23  1.900                                             
  local pseudopotential read in
  partial core-charges read in
  partial kinetic energy density read in
  atomic valenz-charges read in
  non local Contribution for L=           1  read in
    real space projection operators read in
  non local Contribution for L=           1  read in
    real space projection operators read in
  non local Contribution for L=           2  read in
    real space projection operators read in
  non local Contribution for L=           2  read in
    real space projection operators read in
  non local Contribution for L=           0  read in
    real space projection operators read in
  non local Contribution for L=           0  read in
    real space projection operators read in
    PAW grid and wavefunctions read in
 
   number of l-projection  operators is LMAX  =           6
   number of lm-projection operators is LMMAX =          18
 
 POTCAR:    PAW_PBE S 06Sep2000                   
   VRHFIN =S : s2p4                                                             
   LEXCH  = PE                                                                  
   EATOM  =   276.8230 eV,   20.3459 Ry                                         
                                                                                
   TITEL  = PAW_PBE S 06Sep2000                                                 
   LULTRA =        F    use ultrasoft PP ?                                      
   IUNSCR =        1    unscreen: 0-lin 1-nonlin 2-no                           
   RPACOR =    1.500    partial core radius                                     
   POMASS =   32.066; ZVAL   =    6.000    mass and valenz                      
   RCORE  =    1.900    outmost cutoff radius                                   
   RWIGS  =    2.200; RWIGS  =    1.164    wigner-seitz radius (au A)           
   ENMAX  =  258.689; ENMIN  =  194.016 eV                                      
   ICORE  =        2    local potential                                         
   LCOR   =        T    correct aug charges                                     
   LPAW   =        T    paw PP                                                  
   EAUG   =  335.092                                                            
   DEXC   =    0.000                                                            
   RMAX   =    1.942    core radius for proj-oper                               
   RAUG   =    1.300    factor for augmentation sphere                          
   RDEP   =    1.954    radius for radial grids                                 
   RDEPT  =    1.744    core radius for aug-charge                              
                                                                                
   Atomic configuration                                                         
    6 entries                                                                   
     n  l   j            E        occ.                                          
     1  0  0.50     -2405.8406   2.0000                                         
     2  0  0.50      -211.7007   2.0000                                         
     2  1  1.50      -156.4958   6.0000                                         
     3  0  0.50       -17.2562   2.0000                                         
     3  1  0.50        -7.0085   4.0000                                         
     3  2  1.50        -6.8029   0.0000                                         
   Description                                                                  
     l       E           TYP  RCUT    TYP  RCUT                                 
     0    -17.2561641     23  1.900                                             
     0    -15.8743224     23  1.900                                             
     1     -7.0085400     23  1.900                                             
     1     -2.7779785     23  1.900                                             
     2     -6.8029130     23  1.900                                             
  local pseudopotential read in
  partial core-charges read in
  partial kinetic energy density read in
  atomic valenz-charges read in
  non local Contribution for L=           0  read in
    real space projection operators read in
  non local Contribution for L=           0  read in
    real space projection operators read in
  non local Contribution for L=           1  read in
    real space projection operators read in
  non local Contribution for L=           1  read in
    real space projection operators read in
    PAW grid and wavefunctions read in
 
   number of l-projection  operators is LMAX  =           4
   number of lm-projection operators is LMMAX =           8
 
 Optimization of the real space projectors (new method)

 maximal supplied QI-value         = 18.90
 optimisation between [QCUT,QGAM] = [ 10.77, 21.73] = [ 32.49,132.25] Ry 
 Optimized for a Real-space Cutoff    1.38 Angstroem

   l    n(q)    QCUT    max X(q) W(low)/X(q) W(high)/X(q)  e(spline) 
   1      8    10.771     2.836    0.40E-04    0.29E-04    0.12E-06
   1      8    10.771     4.023    0.10E-03    0.48E-04    0.29E-06
   2      8    10.771    73.368    0.42E-03    0.97E-04    0.44E-06
   2      8    10.771    69.010    0.42E-03    0.99E-04    0.45E-06
   0      9    10.771    54.797    0.10E-03    0.56E-04    0.74E-07
   0      9    10.771    24.266    0.89E-04    0.49E-04    0.67E-07
 Optimization of the real space projectors (new method)

 maximal supplied QI-value         = 19.84
 optimisation between [QCUT,QGAM] = [ 10.71, 21.63] = [ 32.15,130.99] Ry 
 Optimized for a Real-space Cutoff    1.19 Angstroem

   l    n(q)    QCUT    max X(q) W(low)/X(q) W(high)/X(q)  e(spline) 
   0      8    10.715   187.594    0.41E-03    0.53E-04    0.66E-07
   0      8    10.715   164.243    0.41E-03    0.53E-04    0.65E-07
   1      7    10.715    67.533    0.19E-03    0.59E-03    0.68E-07
   1      7    10.715    50.729    0.19E-03    0.58E-03    0.67E-07
  PAW_PBE Ni_pv 06Sep2000               :
 energy of atom  1       EATOM=-3501.1230
 kinetic energy error for atom=    0.0925 (will be added to EATOM!!)
  PAW_PBE S 06Sep2000                   :
 energy of atom  2       EATOM= -276.8230
 kinetic energy error for atom=    0.0033 (will be added to EATOM!!)
 
 
 POSCAR: Type_036 Type_136                       
  positions in cartesian coordinates
  No initial velocities read in
 exchange correlation table for  LEXCH =        8
   RHO(1)=    0.500       N(1)  =     2000
   RHO(2)=  100.500       N(2)  =     4000
 


--------------------------------------------------------------------------------------------------------


 ion  position               nearest neighbor table
   1  0.300  0.988  0.058-  41 2.06  69 2.07  42 2.15  61 2.16  49 2.20   2 2.34
   2  0.397  0.795  0.128-  49 2.05  61 2.09  42 2.25   1 2.34  50 2.36  62 2.36  26 2.40  22 2.43

   3  0.547  0.645  0.256-  43 2.25  62 2.26  50 2.26  51 2.36  63 2.36  15 2.53  27 2.53
   4  0.698  0.494  0.384-  64 2.16  44 2.25  51 2.26  63 2.26  52 2.36  16 2.53  28 2.53
   5  0.825  0.342  0.488-  64 2.00  52 2.00  17 2.45  25 2.47
   6  0.114  0.412  0.171-  53 2.06  68 2.11  45 2.25   9 2.28  54 2.36  65 2.36  29 2.53  18 2.53

   7  0.264  0.261  0.299-  46 2.25  65 2.26  54 2.26  55 2.36  66 2.36  30 2.53  19 2.53
   8  0.414  0.111  0.427-  67 2.01  56 2.14  47 2.21  66 2.26  55 2.26  31 2.53  20 2.53
   9  0.969  0.591  0.107-  48 2.00  45 2.14  68 2.15  53 2.18   6 2.28
  10  0.082  0.807  0.453-  59 2.05  58 2.07  72 2.08  37 2.11  13 2.50
  11  0.713  0.216  0.147-  38 1.98  39 2.10  60 2.14  12 2.29  70 2.35  36 2.43
  12  0.831  0.028  0.213-  39 2.25  60 2.26  70 2.26  11 2.29  71 2.36  57 2.36  23 2.53  33 2.53

  13  0.981  0.878  0.341-  40 2.25  57 2.26  71 2.26  72 2.36  58 2.36  10 2.50  34 2.53  24 2.53

  14  0.340  0.476  0.137-  53 2.06  54 2.14  62 2.19  15 2.35  38 2.36
  15  0.508  0.420  0.222-  54 2.25  62 2.26  38 2.26  14 2.35  39 2.36  63 2.36   3 2.53  27 2.53

  16  0.658  0.270  0.350-  64 2.06  55 2.25  63 2.26  39 2.26  40 2.36   4 2.53  28 2.53
  17  0.780  0.125  0.460-  40 2.04  37 2.10  56 2.12  64 2.16   5 2.45
  18  0.074  0.187  0.137-  41 2.03  68 2.19  60 2.25  42 2.36  65 2.36  29 2.53   6 2.53
  19  0.224  0.037  0.265-  57 2.25  65 2.26  42 2.26  66 2.36  43 2.36   7 2.53  30 2.53
  20  0.375  0.886  0.393-  67 2.00  44 2.20  58 2.25  66 2.26  43 2.26  31 2.53   8 2.53
  21  0.090  0.511  0.425-  46 2.06  59 2.07  72 2.17  47 2.20  52 2.28  35 2.46
  22  0.582  0.884  0.096-  49 2.10  69 2.12  70 2.15  50 2.26   2 2.43
  23  0.791  0.804  0.180-  50 2.25  48 2.26  70 2.26  71 2.36  45 2.36  33 2.53  12 2.53
  24  0.941  0.653  0.308-  51 2.25  45 2.26  71 2.26  46 2.36  72 2.36  34 2.53  13 2.53
  25  0.025  0.166  0.429-  40 2.05  37 2.10  66 2.13  52 2.14   5 2.47
  26  0.585  0.597  0.082-  50 2.04  38 2.06  49 2.09   2 2.40
  27  0.732  0.460  0.188-  68 2.14  50 2.26  38 2.26  39 2.36  51 2.36  15 2.53   3 2.53
  28  0.882  0.310  0.317-  65 2.25  39 2.26  51 2.26  40 2.36  52 2.36   4 2.53  16 2.53
  29  0.299  0.227  0.103-  41 2.08  69 2.10  53 2.19  54 2.36  42 2.36   6 2.53  18 2.53
  30  0.449  0.076  0.231-  70 2.25  54 2.26  42 2.26  43 2.36  55 2.36   7 2.53  19 2.53
  31  0.599  0.926  0.359-  56 2.13  44 2.18  71 2.25  55 2.26  43 2.26  32 2.39   8 2.53  20 2.53

  32  0.728  0.799  0.451-  44 2.05  56 2.06  72 2.06  31 2.39
  33  0.015  0.843  0.146-  61 2.11  48 2.26  60 2.26  45 2.36  57 2.36  23 2.53  12 2.53
  34  0.166  0.693  0.274-  62 2.25  57 2.26  45 2.26  58 2.36  46 2.36  24 2.53  13 2.53
  35  0.316  0.543  0.402-  59 2.04  47 2.15  63 2.25  58 2.26  46 2.26  21 2.46
  36  0.770  0.998  0.084-  48 1.99  60 2.05  70 2.05  11 2.43
  37  0.989  0.014  0.490-  25 2.10  17 2.10  10 2.11  40 2.62
  38  0.586  0.406  0.118-  11 1.98  26 2.06  27 2.26  15 2.26  14 2.36
  39  0.736  0.256  0.246-  11 2.10  12 2.25  28 2.26  16 2.26  15 2.36  27 2.36
  40  0.886  0.105  0.374-  17 2.04  25 2.05  13 2.25  16 2.36  28 2.36  37 2.62
  41  0.148  0.186  0.045-  18 2.03   1 2.06  29 2.08
  42  0.303  0.023  0.161-   1 2.15   2 2.25  19 2.26  30 2.26  29 2.36  18 2.36  61 2.77
  43  0.453  0.872  0.289-   3 2.25  31 2.26  20 2.26  30 2.36  19 2.36  44 2.79
  44  0.591  0.730  0.400-  32 2.05  31 2.18  20 2.20   4 2.25  43 2.79
  45  0.019  0.639  0.204-   9 2.14   6 2.25  24 2.26  34 2.26  33 2.36  23 2.36
  46  0.170  0.489  0.332-  21 2.06   7 2.25  35 2.26  24 2.36  34 2.36  47 2.57
  47  0.302  0.343  0.430-  35 2.15  21 2.20   8 2.21  46 2.57  59 2.72
  48  0.869  0.789  0.076-  36 1.99   9 2.00  33 2.26  23 2.26
  49  0.473  0.789  0.035-   2 2.05  26 2.09  22 2.10   1 2.20
  50  0.636  0.692  0.161-  26 2.04  23 2.25  22 2.26  27 2.26   3 2.26   2 2.36
  51  0.787  0.542  0.289-  24 2.25  28 2.26   4 2.26   3 2.36  27 2.36
  52  0.937  0.391  0.417-   5 2.00  25 2.14  21 2.28   4 2.36  28 2.36
  53  0.182  0.450  0.080-  14 2.06   6 2.06   9 2.18  29 2.19
  54  0.353  0.308  0.204-  14 2.14  15 2.25   7 2.26  30 2.26  29 2.36   6 2.36
  55  0.503  0.158  0.332-  16 2.25   8 2.26  31 2.26  30 2.36   7 2.36
  56  0.636  0.016  0.448-  32 2.06  17 2.12  31 2.13   8 2.14
  57  0.070  0.925  0.247-  19 2.25  34 2.26  13 2.26  12 2.36  33 2.36
  58  0.220  0.775  0.375-  10 2.07  20 2.25  35 2.26  34 2.36  13 2.36
  59  0.197  0.606  0.484-  35 2.04  10 2.05  21 2.07  47 2.72
  60  0.920  0.075  0.119-  36 2.05  11 2.14  18 2.25  33 2.26  12 2.26
  61  0.191  0.851  0.091-   2 2.09  33 2.11   1 2.16  42 2.77
  62  0.350  0.641  0.204-  14 2.19  34 2.25   3 2.26  15 2.26   2 2.36
  63  0.501  0.491  0.333-  35 2.25   4 2.26  16 2.26  15 2.36   3 2.36
  64  0.646  0.344  0.445-   5 2.00  16 2.06  17 2.16   4 2.16
  65  0.067  0.258  0.247-  28 2.25   7 2.26  19 2.26  18 2.36   6 2.36
  66  0.218  0.108  0.375-  25 2.13   8 2.26  20 2.26  19 2.36   7 2.36
  67  0.391  0.957  0.483-  20 2.00   8 2.01
  68  0.923  0.404  0.132-   6 2.11  27 2.14   9 2.15  18 2.19
  69  0.457  0.075  0.048-   1 2.07  29 2.10  22 2.12
  70  0.634  0.025  0.162-  36 2.05  22 2.15  30 2.25  23 2.26  12 2.26  11 2.35
  71  0.784  0.874  0.290-  31 2.25  24 2.26  13 2.26  12 2.36  23 2.36
  72  0.934  0.724  0.418-  32 2.06  10 2.08  21 2.17  13 2.36  24 2.36
 
  LATTYP: Found a base centered orthorhombic cell.
 ALAT       =    11.4527836704
 B/A-ratio  =     1.4485816945
 C/A-ratio  =     1.7901333131
  
  Lattice vectors:
  
 A1 = (  10.0797329849,   0.0000000000,   0.0000000000)
 A2 = (  -3.5732980427,  -9.4251025535,   0.0000000000)
 A3 = (   0.0000000000,   0.0000000000, -20.5020095760)


Analysis of symmetry for initial positions (statically):
=====================================================================
 Subroutine PRICEL returns:
 Original cell was already a primitive cell.
 

 Routine SETGRP: Setting up the symmetry group for a 
 base centered orthorhombic supercell.


 Subroutine GETGRP returns: Found  1 space group operations
 (whereof  1 operations were pure point group operations)
 out of a pool of  8 trial point group operations.


The static configuration has the point symmetry C_1 .


Analysis of symmetry for dynamics (positions and initial velocities):
=====================================================================
 Subroutine PRICEL returns:
 Original cell was already a primitive cell.
 

 Routine SETGRP: Setting up the symmetry group for a 
 base centered orthorhombic supercell.


 Subroutine GETGRP returns: Found  1 space group operations
 (whereof  1 operations were pure point group operations)
 out of a pool of  8 trial point group operations.


The dynamic configuration has the point symmetry C_1 .


 Subroutine INISYM returns: Found  1 space group operations
 (whereof  1 operations are pure point group operations),
 and found     1 'primitive' translations

 
 
 KPOINTS: gamma-point-only calculation. no periodi

Automatic generation of k-mesh.
Space group operators:
 irot       det(A)        alpha          n_x          n_y          n_z        tau_x        tau_y        tau_z
    1     1.000000     0.000001     1.000000     0.000000     0.000000     0.000000     0.000000     0.000000
 
 Subroutine IBZKPT returns following result:
 ===========================================
 
 Found      1 irreducible k-points:
 
 Following reciprocal coordinates:
            Coordinates               Weight
  0.000000  0.000000  0.000000      1.000000
 
 Following cartesian coordinates:
            Coordinates               Weight
  0.000000  0.000000  0.000000      1.000000
 


--------------------------------------------------------------------------------------------------------




 Dimension of arrays:
   k-points           NKPTS =      1   k-points in BZ     NKDIM =      1   number of bands    NBANDS=    476
   number of dos      NEDOS =    301   number of ions     NIONS =     72
   non local maximal  LDIM  =      6   non local SUM 2l+1 LMDIM =     18
   total plane-waves  NPLWV = 314928
   max r-space proj   IRMAX =   1833   max aug-charges    IRDMAX=   5293
   dimension x,y,z NGX =    54 NGY =   54 NGZ =  108
   dimension x,y,z NGXF=   108 NGYF=  108 NGZF=  216
   support grid    NGXF=   108 NGYF=  108 NGZF=  216
   ions per type =              36  36
   NGX,Y,Z   is equivalent  to a cutoff of   8.91,  8.91,  8.76 a.u.
   NGXF,Y,Z  is equivalent  to a cutoff of  17.81, 17.81, 17.51 a.u.

 SYSTEM =  "Millerite NiS"                         
 POSCAR =  Type_036 Type_136                       

 Startparameter for this run:
   NWRITE =      2    write-flag & timer
   PREC   = normal    normal or accurate (medium, high low for compatibility)
   ISTART =      0    job   : 0-new  1-cont  2-samecut
   ICHARG =      2    charge: 1-file 2-atom 10-const
   ISPIN  =      1    spin polarized calculation?
   LNONCOLLINEAR =      F non collinear calculations
   LSORBIT =      F    spin-orbit coupling
   INIWAV =      1    electr: 0-lowe 1-rand  2-diag
   LASPH  =      F    aspherical Exc in radial PAW
   METAGGA=      F    non-selfconsistent MetaGGA calc.

 Electronic Relaxation 1
   ENCUT  =  450.0 eV  33.07 Ry    5.75 a.u.  17.43 17.43 35.46*2*pi/ulx,y,z
   ENINI  =  450.0     initial cutoff
   ENAUG  =  703.4 eV  augmentation charge cutoff
   NELM   =    100;   NELMIN=  2; NELMDL= -5     # of ELM steps 
   EDIFF  = 0.1E-03   stopping-criterion for ELM
   LREAL  =      T    real-space projection
   NLSPLINE    = F    spline interpolate recip. space projectors
   LCOMPAT=      F    compatible to vasp.4.4
   GGA_COMPAT  = T    GGA compatible to vasp.4.4-vasp.4.6
   LMAXPAW     = -100 max onsite density
   LMAXMIX     =    2 max onsite mixed and CHGCAR
   VOSKOWN=      0    Vosko Wilk Nusair interpolation
   ROPT   =   -0.00050  -0.00050
 Ionic relaxation
   EDIFFG = 0.1E-02   stopping-criterion for IOM
   NSW    =      0    number of steps for IOM
   NBLOCK =      1;   KBLOCK =      1    inner block; outer block 
   IBRION =     -1    ionic relax: 0-MD 1-quasi-New 2-CG
   NFREE  =      0    steps in history (QN), initial steepest desc. (CG)
   ISIF   =      2    stress and relaxation
   IWAVPR =     10    prediction:  0-non 1-charg 2-wave 3-comb
   ISYM   =      2    0-nonsym 1-usesym 2-fastsym
   LCORR  =      T    Harris-Foulkes like correction to forces

   POTIM  = 0.5000    time-step for ionic-motion
   TEIN   =    0.0    initial temperature
   TEBEG  =    0.0;   TEEND  =   0.0 temperature during run
   SMASS  =  -3.00    Nose mass-parameter (am)
   estimated Nose-frequenzy (Omega)   =  0.10E-29 period in steps =****** mass=  -0.232E-26a.u.
   SCALEE = 1.0000    scale energy and forces
   NPACO  =    256;   APACO  = 16.0  distance and # of slots for P.C.
   PSTRESS=    0.0 pullay stress

  Mass of Ions in am
   POMASS =  58.69 32.07
  Ionic Valenz
   ZVAL   =  16.00  6.00
  Atomic Wigner-Seitz radii
   RWIGS  =  -1.00 -1.00
  virtual crystal weights 
   VCA    =   1.00  1.00
   NELECT =     792.0000    total number of electrons
   NUPDOWN=      -1.0000    fix difference up-down

 DOS related values:
   EMIN   =  10.00;   EMAX   =-10.00  energy-range for DOS
   EFERMI =   0.00
   ISMEAR =     0;   SIGMA  =   0.20  broadening in eV -4-tet -1-fermi 0-gaus

 Electronic relaxation 2 (details)
   IALGO  =     38    algorithm
   LDIAG  =      T    sub-space diagonalisation (order eigenvalues)
   LSUBROT=      F    optimize rotation matrix (better conditioning)
   TURBO    =      0    0=normal 1=particle mesh
   IRESTART =      0    0=no restart 2=restart with 2 vectors
   NREBOOT  =      0    no. of reboots
   NMIN     =      0    reboot dimension
   EREF     =   0.00    reference energy to select bands
   IMIX   =      4    mixing-type and parameters
     AMIX     =   0.40;   BMIX     =  1.00
     AMIX_MAG =   1.60;   BMIX_MAG =  1.00
     AMIN     =   0.10
     WC   =   100.;   INIMIX=   1;  MIXPRE=   1;  MAXMIX= -45

 Intra band minimization:
   WEIMIN = 0.0000     energy-eigenvalue tresh-hold
   EBREAK =  0.53E-07  absolut break condition
   DEPER  =   0.30     relativ break condition  

   TIME   =   0.40     timestep for ELM

  volume/ion in A,a.u.               =      27.05       182.56
  Fermi-wavevector in a.u.,A,eV,Ry     =   1.212847  2.291949 20.014143  1.470998
  Thomas-Fermi vector in A             =   2.348318
 
 Write flags
   LWAVE        =      F    write WAVECAR
   LDOWNSAMPLE  =      F    k-point downsampling of WAVECAR
   LCHARG       =      F    write CHGCAR
   LVTOT        =      F    write LOCPOT, total local potential
   LVHAR        =      F    write LOCPOT, Hartree potential only
   LELF         =      F    write electronic localiz. function (ELF)
   LORBIT       =      0    0 simple, 1 ext, 2 COOP (PROOUT), +10 PAW based schemes


 Dipole corrections
   LMONO  =      F    monopole corrections only (constant potential shift)
   LDIPOL =      F    correct potential (dipole corrections)
   IDIPOL =      0    1-x, 2-y, 3-z, 4-all directions 
   EPSILON=  1.0000000 bulk dielectric constant

 Exchange correlation treatment:
   GGA     =    --    GGA type
   LEXCH   =     8    internal setting for exchange type
   VOSKOWN=      0    Vosko Wilk Nusair interpolation
   LHFCALC =     F    Hartree Fock is set to
   LHFONE  =     F    Hartree Fock one center treatment
   AEXX    =    0.0000 exact exchange contribution

 Linear response parameters
   LEPSILON=     F    determine dielectric tensor
   LRPA    =     F    only Hartree local field effects (RPA)
   LNABLA  =     F    use nabla operator in PAW spheres
   LVEL    =     F    velocity operator in full k-point grid
   LINTERFAST=   F  fast interpolation
   KINTER  =     0    interpolate to denser k-point grid
   CSHIFT  =0.1000    complex shift for real part using Kramers Kronig
   OMEGAMAX=  -1.0    maximum frequency
   DEG_THRESHOLD= 0.2000000E-02 threshold for treating states as degnerate
   RTIME   =   -0.100 relaxation time in fs
  (WPLASMAI=    0.000 imaginary part of plasma frequency in eV, 0.658/RTIME)
   DFIELD  = 0.0000000 0.0000000 0.0000000 field for delta impulse in time
 
 Orbital magnetization related:
   ORBITALMAG=     F  switch on orbital magnetization
   LCHIMAG   =     F  perturbation theory with respect to B field
   DQ        =  0.001000  dq finite difference perturbation B field
   LLRAUG    =     F  two centre corrections for induced B field



--------------------------------------------------------------------------------------------------------


 Static calculation
 charge density and potential will be updated during run
 non-spin polarized calculation
 Variant of blocked Davidson
 Davidson routine will perform the subspace rotation
 perform sub-space diagonalisation
    after iterative eigenvector-optimisation
 modified Broyden-mixing scheme, WC =      100.0
 initial mixing is a Kerker type mixing with AMIX =  0.4000 and BMIX =      1.0000
 Hartree-type preconditioning will be used
 using additional bands           80
 real space projection scheme for non local part
 use partial core corrections
 calculate Harris-corrections to forces 
   (improved forces if not selfconsistent)
 use gradient corrections 
 use of overlap-Matrix (Vanderbilt PP)
 Gauss-broadening in eV      SIGMA  =   0.20


--------------------------------------------------------------------------------------------------------


  energy-cutoff  :      450.00
  volume of cell :     1947.74
      direct lattice vectors                 reciprocal lattice vectors
    10.079732985  0.000000000  0.000000000     0.099208977 -0.037612667  0.000000000
     3.573298043  9.425102554  0.000000000     0.000000000  0.106099641  0.000000000
     0.000000000  0.000000000 20.502009576     0.000000000  0.000000000  0.048775706

  length of vectors
    10.079732985 10.079732985 20.502009576     0.106099641  0.106099641  0.048775706


 
 k-points in units of 2pi/SCALE and weight: gamma-point-only calculation. no periodi
   0.00000000  0.00000000  0.00000000       1.000
 
 k-points in reciprocal lattice and weights: gamma-point-only calculation. no periodi
   0.00000000  0.00000000  0.00000000       1.000
 
 position of ions in fractional coordinates (direct lattice) 
   0.29993915  0.98799466  0.05778114
   0.39705889  0.79495179  0.12806073
   0.54732741  0.64468327  0.25612147
   0.69759592  0.49441476  0.38418220
   0.82492992  0.34165840  0.48753247
   0.11381506  0.41152895  0.17074765
   0.26408358  0.26126044  0.29880838
   0.41435209  0.11099192  0.42686911
   0.96933684  0.59093207  0.10737030
   0.08225986  0.80695392  0.45270378
   0.71310010  0.21564385  0.14715556
   0.83057123  0.02810611  0.21343456
   0.98083975  0.87783760  0.34149529
   0.33999970  0.47584083  0.13726869
   0.50762556  0.42017912  0.22228705
   0.65789408  0.26991060  0.35034779
   0.77961404  0.12522760  0.46027831
   0.07411322  0.18702479  0.13691323
   0.22438173  0.03675628  0.26497396
   0.37465025  0.88648777  0.39303470
   0.09011210  0.51077769  0.42504606
   0.58175230  0.88400432  0.09589120
   0.79086939  0.80360196  0.17960014
   0.94113790  0.65333344  0.30766088
   0.02496476  0.16576340  0.42915613
   0.58514016  0.59710766  0.08199241
   0.73212972  0.45988096  0.18845264
   0.88239823  0.30961245  0.31651337
   0.29861738  0.22672664  0.10307882
   0.44888589  0.07645812  0.23113955
   0.59915440  0.92618961  0.35920029
   0.72844951  0.79913838  0.45109282
   0.01537355  0.84330380  0.14576573
   0.16564206  0.69303528  0.27382646
   0.31591057  0.54276677  0.40188720
   0.76994517  0.99828204  0.08441178
   0.98935153  0.01444145  0.48990698
   0.58579930  0.40599939  0.11828449
   0.73606781  0.25573087  0.24634523
   0.88633632  0.10546236  0.37440596
   0.14842003  0.18627408  0.04463743
   0.30255547  0.02257655  0.16097140
   0.45282398  0.87230804  0.28903214
   0.59121094  0.72976212  0.40003081
   0.01931164  0.63915371  0.20365832
   0.16958015  0.48888520  0.33171905
   0.30159792  0.34297438  0.43012742
   0.86904312  0.78942222  0.07559758
   0.47345512  0.78859682  0.03482119
   0.63635413  0.69187455  0.16136797
   0.78662264  0.54160604  0.28942870
   0.93689116  0.39133753  0.41748943
   0.18226299  0.45004103  0.08030330
   0.35311030  0.30845171  0.20405488
   0.50337881  0.15818320  0.33211561
   0.63555918  0.01645527  0.44824547
   0.06986647  0.92502888  0.24674179
   0.22013498  0.77476036  0.37480252
   0.19710987  0.60574133  0.48438248
   0.91959796  0.07529739  0.11868105
   0.19064397  0.85070027  0.09134856
   0.35047897  0.64131971  0.20445144
   0.50074748  0.49105120  0.33251217
   0.64613390  0.34395490  0.44478982
   0.06723514  0.25789688  0.24713835
   0.21750365  0.10762836  0.37519908
   0.39119915  0.95709028  0.48265860
   0.92254831  0.40447878  0.13181127
   0.45723922  0.07459761  0.04843045
   0.63372280  0.02474255  0.16176453
   0.78399131  0.87447404  0.28982526
   0.93425982  0.72420553  0.41788599
 
 position of ions in cartesian coordinates  (Angst):
   6.55370596  9.31195097  1.18462955
   6.84284730  7.49250212  2.62550239
   7.82055959  6.07620598  5.25100479
   8.79827190  4.65990984  7.87650718
   9.53592061  3.22016544  9.99539528
   2.61774106  3.87870256  3.50066985
   3.59545335  2.46240641  6.12617225
   4.57316565  1.04611028  8.75167464
  11.88223298  5.56959537  2.20130694
   3.71264426  7.60562349  9.28133714
   7.95841832  2.03246538  3.01698473
   8.47236779  0.26490299  4.37583733
  13.02337814  8.27370941  7.00133973
   5.12742724  4.48484860  2.81428400
   6.61815536  3.96023127  4.55733131
   7.59586766  2.54393513  7.18283370
   8.30577693  1.18028296  9.43663033
   1.41533681  1.76272784  2.80699637
   2.39304911  0.34643171  5.43249877
   6.94405946  8.35523812  8.05800116
   2.73346681  4.81413215  8.71429842
   9.02271876  8.33183135  1.96596227
  10.84326160  7.57403084  3.68216383
  11.82097389  6.15773469  6.30766623
   0.84396012  1.56233703  8.79856304
   8.03170021  5.62780092  1.68100913
   9.02296383  4.33442521  3.86365781
  10.00067613  2.91812907  6.48916020
   3.82014529  2.13692179  2.11332289
   4.79785759  0.72062564  4.73882529
   9.34886793  8.72943206  7.36432768
  10.19813612  7.53196116  9.24830922
   3.16833709  7.94822477  2.98849035
   4.14604939  6.53192863  5.61399275
   5.12376169  5.11563250  8.23949514
  11.32800095  9.40891063  1.73061113
  10.02400286  0.13611214 10.04407758
   7.35545729  3.82658585  2.42506979
   8.33316959  2.41028970  5.05057218
   9.31088189  0.99399357  7.67607458
   2.16164712  1.75565234  0.91515693
   3.13035105  0.21278628  3.30023725
   7.68136140  8.22159270  5.92573964
   8.56690601  6.87808281  8.20143548
   2.47854285  6.02408927  4.17540472
   3.45625514  4.60779313  6.80090712
   4.26557620  3.23256866  8.81847655
  11.58056354  7.44038541  1.54990233
   7.59019261  7.43260587  0.71390433
   8.88655370  6.52098859  3.30836756
   9.86426600  5.10469245  5.93386996
  10.84197830  3.68839631  8.55937235
   3.44529301  4.24168285  1.64637900
   4.66144746  2.90718902  4.18353502
   5.63915975  1.49089288  6.80903742
   6.46506642  0.15509263  9.18993285
   4.00963926  8.71849201  5.05870250
   4.98735156  7.30219588  7.68420487
   4.15130915  5.70917412  9.93081433
   9.53836190  0.70968559  2.43320011
   4.96144590  8.01793729  1.87282909
   5.82436088  6.04450407  4.19166534
   6.80207318  4.62820794  6.81716773
   7.74191056  3.24181025  9.11908505
   1.59925463  2.43070451  5.06683280
   2.57696694  1.01440837  7.69233519
   7.36315179  9.02067400  9.89547117
  10.74436385  3.81225399  2.70239594
   4.87540875  0.70309017  0.99292160
   6.47616908  0.23320109  3.31649786
  11.02717942  8.24200750  5.94200026
  12.00489173  6.82571136  8.56750265
 


--------------------------------------------------------------------------------------------------------


 use parallel FFT for orbitals z direction half grid
 k-point  1 :   0.0000 0.0000 0.0000  plane waves:   21161

 maximum and minimum number of plane-waves per node :      3528     3525

 maximum number of plane-waves:     21161
 maximum index in each direction: 
   IXMAX=   17   IYMAX=   17   IZMAX=   35
   IXMIN=  -17   IYMIN=  -17   IZMIN=    0


 real space projection operators:
  total allocation   :      11254.48 KBytes
  max/ min on nodes  :       1878.53       1870.56


 parallel 3D FFT for wavefunctions:
    minimum data exchange during FFTs selected (reduces bandwidth)
 parallel 3D FFT for charge:
    minimum data exchange during FFTs selected (reduces bandwidth)


 total amount of memory used by VASP MPI-rank0    68336. kBytes
=======================================================================

   base      :      30000. kBytes
   nonlr-proj:       2305. kBytes
   fftplans  :       8265. kBytes
   grid      :      13942. kBytes
   one-center:         93. kBytes
   wavefun   :      13731. kBytes
 
     INWAV:  cpu time    0.0000: real time    0.0001
 Broyden mixing: mesh for mixing (old mesh)
   NGX = 35   NGY = 35   NGZ = 71
  (NGX  =108   NGY  =108   NGZ  =216)
  gives a total of  86975 points

 initial charge density was supplied:
 charge density of overlapping atoms calculated
 number of electron     792.0000000 magnetization 
 keeping initial charge density in first step


--------------------------------------------------------------------------------------------------------


 Maximum index for non-local projection operator          304
 Maximum index for augmentation-charges          475 (set IRDMAX)


--------------------------------------------------------------------------------------------------------


 First call to EWALD:  gamma=   0.142
 Maximum number of real-space cells 3x 3x 2
 Maximum number of reciprocal cells 2x 2x 4

    FEWALD:  cpu time    0.0062: real time    0.0062


--------------------------------------- Iteration      1(   1)  ---------------------------------------


    POTLOK:  cpu time    0.2572: real time    0.2581
    SETDIJ:  cpu time    0.0176: real time    0.0176
     EDDAV:  cpu time    6.8401: real time    6.8417
       DOS:  cpu time    0.0034: real time    0.0034
    --------------------------------------------
      LOOP:  cpu time    7.1184: real time    7.1209

 eigenvalue-minimisations  :  1160
 total energy-change (2. order) : 0.9965643E+04  (-0.5137214E+05)
 number of electron     792.0000000 magnetization 
 augmentation part      792.0000000 magnetization 

 Free energy of the ion-electron system (eV)
  ---------------------------------------------------
  alpha Z        PSCENC =      1909.85183886
  Ewald energy   TEWEN  =    219196.94746154
  -Hartree energ DENC   =   -341449.63254023
  -exchange      EXHF   =         0.00000000
  -V(xc)+E(xc)   XCENC  =      3681.31089223
  PAW double counting   =    112729.53333415  -117641.51188735
  entropy T*S    EENTRO =        -0.34910348
  eigenvalues    EBANDS =     -4463.11211257
  atomic energy  EATOM  =    136002.60505376
  Solvation  Ediel_sol  =         0.00000000
  ---------------------------------------------------
  free energy    TOTEN  =      9965.64293692 eV

  energy without entropy =     9965.99204040  energy(sigma->0) =     9965.81748866


--------------------------------------------------------------------------------------------------------




--------------------------------------- Iteration      1(   2)  ---------------------------------------


     EDDAV:  cpu time    6.3494: real time    6.3511
       DOS:  cpu time    0.0013: real time    0.0013
    --------------------------------------------
      LOOP:  cpu time    6.3506: real time    6.3523

 eigenvalue-minimisations  :  1012
 total energy-change (2. order) :-0.9352988E+04  (-0.9012689E+04)
 number of electron     792.0000000 magnetization 
 augmentation part      792.0000000 magnetization 

 Free energy of the ion-electron system (eV)
  ---------------------------------------------------
  alpha Z        PSCENC =      1909.85183886
  Ewald energy   TEWEN  =    219196.94746154
  -Hartree energ DENC   =   -341449.63254023
  -exchange      EXHF   =         0.00000000
  -V(xc)+E(xc)   XCENC  =      3681.31089223
  PAW double counting   =    112729.53333415  -117641.51188735
  entropy T*S    EENTRO =        -0.70939554
  eigenvalues    EBANDS =    -13815.73990579
  atomic energy  EATOM  =    136002.60505376
  Solvation  Ediel_sol  =         0.00000000
  ---------------------------------------------------
  free energy    TOTEN  =       612.65485163 eV

  energy without entropy =      613.36424717  energy(sigma->0) =      613.00954940


--------------------------------------------------------------------------------------------------------




--------------------------------------- Iteration      1(   3)  ---------------------------------------


     EDDAV:  cpu time    6.3767: real time    6.3783
       DOS:  cpu time    0.0012: real time    0.0012
    --------------------------------------------
      LOOP:  cpu time    6.3779: real time    6.3794

 eigenvalue-minimisations  :  1072
 total energy-change (2. order) :-0.9511970E+03  (-0.9057772E+03)
 number of electron     792.0000000 magnetization 
 augmentation part      792.0000000 magnetization 

 Free energy of the ion-electron system (eV)
  ---------------------------------------------------
  alpha Z        PSCENC =      1909.85183886
  Ewald energy   TEWEN  =    219196.94746154
  -Hartree energ DENC   =   -341449.63254023
  -exchange      EXHF   =         0.00000000
  -V(xc)+E(xc)   XCENC  =      3681.31089223
  PAW double counting   =    112729.53333415  -117641.51188735
  entropy T*S    EENTRO =        -0.87270533
  eigenvalues    EBANDS =    -14766.77355496
  atomic energy  EATOM  =    136002.60505376
  Solvation  Ediel_sol  =         0.00000000
  ---------------------------------------------------
  free energy    TOTEN  =      -338.54210733 eV

  energy without entropy =     -337.66940200  energy(sigma->0) =     -338.10575466


--------------------------------------------------------------------------------------------------------




--------------------------------------- Iteration      1(   4)  ---------------------------------------


     EDDAV:  cpu time    6.4379: real time    6.4391
       DOS:  cpu time    0.0012: real time    0.0012
    --------------------------------------------
      LOOP:  cpu time    6.4390: real time    6.4402

 eigenvalue-minimisations  :  1080
 total energy-change (2. order) :-0.5884452E+02  (-0.5812761E+02)
 number of electron     792.0000000 magnetization 
 augmentation part      792.0000000 magnetization 

 Free energy of the ion-electron system (eV)
  ---------------------------------------------------
  alpha Z        PSCENC =      1909.85183886
  Ewald energy   TEWEN  =    219196.94746154
  -Hartree energ DENC   =   -341449.63254023
  -exchange      EXHF   =         0.00000000
  -V(xc)+E(xc)   XCENC  =      3681.31089223
  PAW double counting   =    112729.53333415  -117641.51188735
  entropy T*S    EENTRO =        -0.91379401
  eigenvalues    EBANDS =    -14825.57698877
  atomic energy  EATOM  =    136002.60505376
  Solvation  Ediel_sol  =         0.00000000
  ---------------------------------------------------
  free energy    TOTEN  =      -397.38662981 eV

  energy without entropy =     -396.47283581  energy(sigma->0) =     -396.92973281


--------------------------------------------------------------------------------------------------------




--------------------------------------- Iteration      1(   5)  ---------------------------------------


     EDDAV:  cpu time    7.2906: real time    7.2928
       DOS:  cpu time    0.0012: real time    0.0012
    CHARGE:  cpu time    0.2145: real time    0.2145
    MIXING:  cpu time    0.0076: real time    0.0076
    --------------------------------------------
      LOOP:  cpu time    7.5140: real time    7.5163

 eigenvalue-minimisations  :  1280
 total energy-change (2. order) :-0.2634295E+01  (-0.2630647E+01)
 number of electron     791.9999800 magnetization 
 augmentation part      286.7718732 magnetization 

 Broyden mixing:
  rms(total) = 0.96011E+01    rms(broyden)= 0.95918E+01
  rms(prec ) = 0.99426E+01
  weight for this iteration     100.00

 Free energy of the ion-electron system (eV)
  ---------------------------------------------------
  alpha Z        PSCENC =      1909.85183886
  Ewald energy   TEWEN  =    219196.94746154
  -Hartree energ DENC   =   -341449.63254023
  -exchange      EXHF   =         0.00000000
  -V(xc)+E(xc)   XCENC  =      3681.31089223
  PAW double counting   =    112729.53333415  -117641.51188735
  entropy T*S    EENTRO =        -0.90397953
  eigenvalues    EBANDS =    -14828.22109803
  atomic energy  EATOM  =    136002.60505376
  Solvation  Ediel_sol  =         0.00000000
  ---------------------------------------------------
  free energy    TOTEN  =      -400.02092460 eV

  energy without entropy =     -399.11694506  energy(sigma->0) =     -399.56893483


--------------------------------------------------------------------------------------------------------




--------------------------------------- Iteration      1(   6)  ---------------------------------------


    POTLOK:  cpu time    0.2498: real time    0.2499
    SETDIJ:  cpu time    0.0195: real time    0.0195
     EDDAV:  cpu time    7.0809: real time    7.0822
       DOS:  cpu time    0.0013: real time    0.0013
    CHARGE:  cpu time    0.2060: real time    0.2061
    MIXING:  cpu time    0.0086: real time    0.0086
    --------------------------------------------
      LOOP:  cpu time    7.5661: real time    7.5675

 eigenvalue-minimisations  :  1176
 total energy-change (2. order) :-0.6267370E+02  (-0.9198598E+02)
 number of electron     791.9999824 magnetization 
 augmentation part      345.9051225 magnetization 

 Broyden mixing:
  rms(total) = 0.15127E+02    rms(broyden)= 0.15125E+02
  rms(prec ) = 0.15684E+02
  weight for this iteration     100.00

 eigenvalues of (default mixing * dielectric matrix)
  average eigenvalue GAMMA=   0.2606
  0.2606

 Free energy of the ion-electron system (eV)
  ---------------------------------------------------
  alpha Z        PSCENC =      1909.85183886
  Ewald energy   TEWEN  =    219196.94746154
  -Hartree energ DENC   =   -338767.70239523
  -exchange      EXHF   =         0.00000000
  -V(xc)+E(xc)   XCENC  =      3607.53396484
  PAW double counting   =    117475.51751157  -122156.88654137
  entropy T*S    EENTRO =        -0.85993103
  eigenvalues    EBANDS =    -17729.70158597
  atomic energy  EATOM  =    136002.60505376
  Solvation  Ediel_sol  =         0.00000000
  ---------------------------------------------------
  free energy    TOTEN  =      -462.69462302 eV

  energy without entropy =     -461.83469199  energy(sigma->0) =     -462.26465751


--------------------------------------------------------------------------------------------------------




--------------------------------------- Iteration      1(   7)  ---------------------------------------


    POTLOK:  cpu time    0.2421: real time    0.2421
    SETDIJ:  cpu time    0.0183: real time    0.0183
     EDDAV:  cpu time    6.3637: real time    6.3648
       DOS:  cpu time    0.0012: real time    0.0012
    CHARGE:  cpu time    0.2138: real time    0.2138
    MIXING:  cpu time    0.0091: real time    0.0091
    --------------------------------------------
      LOOP:  cpu time    6.8481: real time    6.8493

 eigenvalue-minimisations  :  1064
 total energy-change (2. order) : 0.9627931E+02  (-0.1982476E+02)
 number of electron     791.9999809 magnetization 
 augmentation part      329.2732910 magnetization 

 Broyden mixing:
  rms(total) = 0.63574E+01    rms(broyden)= 0.63556E+01
  rms(prec ) = 0.65890E+01
  weight for this iteration     100.00

 eigenvalues of (default mixing * dielectric matrix)
  average eigenvalue GAMMA=   0.5319
  0.6042  0.4596

 Free energy of the ion-electron system (eV)
  ---------------------------------------------------
  alpha Z        PSCENC =      1909.85183886
  Ewald energy   TEWEN  =    219196.94746154
  -Hartree energ DENC   =   -339954.53848081
  -exchange      EXHF   =         0.00000000
  -V(xc)+E(xc)   XCENC  =      3634.87814897
  PAW double counting   =    122109.48914430  -126936.77067280
  entropy T*S    EENTRO =        -0.76266675
  eigenvalues    EBANDS =    -16328.11514375
  atomic energy  EATOM  =    136002.60505376
  Solvation  Ediel_sol  =         0.00000000
  ---------------------------------------------------
  free energy    TOTEN  =      -366.41531667 eV

  energy without entropy =     -365.65264992  energy(sigma->0) =     -366.03398330


--------------------------------------------------------------------------------------------------------




--------------------------------------- Iteration      1(   8)  ---------------------------------------


    POTLOK:  cpu time    0.2513: real time    0.2516
    SETDIJ:  cpu time    0.0183: real time    0.0183
     EDDAV:  cpu time    7.1951: real time    7.1963
       DOS:  cpu time    0.0012: real time    0.0012
    CHARGE:  cpu time    0.2044: real time    0.2044
    MIXING:  cpu time    0.0086: real time    0.0086
    --------------------------------------------
      LOOP:  cpu time    7.6789: real time    7.6805

 eigenvalue-minimisations  :  1256
 total energy-change (2. order) :-0.8008641E+02  (-0.2284318E+02)
 number of electron     791.9999863 magnetization 
 augmentation part      305.7933130 magnetization 

 Broyden mixing:
  rms(total) = 0.13910E+02    rms(broyden)= 0.13908E+02
  rms(prec ) = 0.16158E+02
  weight for this iteration     100.00

 eigenvalues of (default mixing * dielectric matrix)
  average eigenvalue GAMMA=   0.5140
  0.9394  0.4313  0.1713

 Free energy of the ion-electron system (eV)
  ---------------------------------------------------
  alpha Z        PSCENC =      1909.85183886
  Ewald energy   TEWEN  =    219196.94746154
  -Hartree energ DENC   =   -340674.73025107
  -exchange      EXHF   =         0.00000000
  -V(xc)+E(xc)   XCENC  =      3659.48065790
  PAW double counting   =    129367.78163705  -134331.00682156
  entropy T*S    EENTRO =        -0.93565210
  eigenvalues    EBANDS =    -15576.49565145
  atomic energy  EATOM  =    136002.60505376
  Solvation  Ediel_sol  =         0.00000000
  ---------------------------------------------------
  free energy    TOTEN  =      -446.50172706 eV

  energy without entropy =     -445.56607496  energy(sigma->0) =     -446.03390101


--------------------------------------------------------------------------------------------------------




--------------------------------------- Iteration      1(   9)  ---------------------------------------


    POTLOK:  cpu time    0.2455: real time    0.2455
    SETDIJ:  cpu time    0.0183: real time    0.0183
     EDDAV:  cpu time    7.2574: real time    7.2607
       DOS:  cpu time    0.0012: real time    0.0011
    CHARGE:  cpu time    0.2544: real time    0.2544
    MIXING:  cpu time    0.0088: real time    0.0088
    --------------------------------------------
      LOOP:  cpu time    7.7855: real time    7.7888

 eigenvalue-minimisations  :  1216
 total energy-change (2. order) : 0.6886679E+02  (-0.1237845E+02)
 number of electron     791.9999845 magnetization 
 augmentation part      304.0342971 magnetization 

 Broyden mixing:
  rms(total) = 0.68771E+01    rms(broyden)= 0.68705E+01
  rms(prec ) = 0.83069E+01
  weight for this iteration     100.00

 eigenvalues of (default mixing * dielectric matrix)
  average eigenvalue GAMMA=   0.5933
  1.4810  0.3836  0.3836  0.1251

 Free energy of the ion-electron system (eV)
  ---------------------------------------------------
  alpha Z        PSCENC =      1909.85183886
  Ewald energy   TEWEN  =    219196.94746154
  -Hartree energ DENC   =   -340845.79939061
  -exchange      EXHF   =         0.00000000
  -V(xc)+E(xc)   XCENC  =      3658.73807396
  PAW double counting   =    132797.00115807  -137781.60148873
  entropy T*S    EENTRO =        -1.00860193
  eigenvalues    EBANDS =    -15314.36904071
  atomic energy  EATOM  =    136002.60505376
  Solvation  Ediel_sol  =         0.00000000
  ---------------------------------------------------
  free energy    TOTEN  =      -377.63493579 eV

  energy without entropy =     -376.62633386  energy(sigma->0) =     -377.13063482


--------------------------------------------------------------------------------------------------------




--------------------------------------- Iteration      1(  10)  ---------------------------------------


    POTLOK:  cpu time    0.2434: real time    0.2434
    SETDIJ:  cpu time    0.0205: real time    0.0205
     EDDAV:  cpu time    7.5251: real time    7.5265
       DOS:  cpu time    0.0012: real time    0.0012
    CHARGE:  cpu time    0.2087: real time    0.2087
    MIXING:  cpu time    0.0102: real time    0.0102
    --------------------------------------------
      LOOP:  cpu time    8.0091: real time    8.0106

 eigenvalue-minimisations  :  1328
 total energy-change (2. order) :-0.2890042E+02  (-0.1223022E+02)
 number of electron     791.9999773 magnetization 
 augmentation part      303.2680064 magnetization 

 Broyden mixing:
  rms(total) = 0.91216E+01    rms(broyden)= 0.91172E+01
  rms(prec ) = 0.10775E+02
  weight for this iteration     100.00

 eigenvalues of (default mixing * dielectric matrix)
  average eigenvalue GAMMA=   0.6911
  2.3225  0.4398  0.4398  0.1406  0.1130

 Free energy of the ion-electron system (eV)
  ---------------------------------------------------
  alpha Z        PSCENC =      1909.85183886
  Ewald energy   TEWEN  =    219196.94746154
  -Hartree energ DENC   =   -340775.82877587
  -exchange      EXHF   =         0.00000000
  -V(xc)+E(xc)   XCENC  =      3654.71574387
  PAW double counting   =    136629.90632811  -141629.21573442
  entropy T*S    EENTRO =        -1.08806802
  eigenvalues    EBANDS =    -15394.42919954
  atomic energy  EATOM  =    136002.60505376
  Solvation  Ediel_sol  =         0.00000000
  ---------------------------------------------------
  free energy    TOTEN  =      -406.53535171 eV

  energy without entropy =     -405.44728369  energy(sigma->0) =     -405.99131770


--------------------------------------------------------------------------------------------------------




--------------------------------------- Iteration      1(  11)  ---------------------------------------


    POTLOK:  cpu time    0.2475: real time    0.2475
    SETDIJ:  cpu time    0.0183: real time    0.0183
     EDDAV:  cpu time    7.5832: real time    7.5845
       DOS:  cpu time    0.0026: real time    0.0026
    CHARGE:  cpu time    0.2105: real time    0.2106
    MIXING:  cpu time    0.0097: real time    0.0097
    --------------------------------------------
      LOOP:  cpu time    8.0717: real time    8.0732

 eigenvalue-minimisations  :  1280
 total energy-change (2. order) : 0.1797692E+02  (-0.6706234E+01)
 number of electron     791.9999780 magnetization 
 augmentation part      308.2148298 magnetization 

 Broyden mixing:
  rms(total) = 0.80178E+01    rms(broyden)= 0.80140E+01
  rms(prec ) = 0.89838E+01
  weight for this iteration     100.00

 eigenvalues of (default mixing * dielectric matrix)
  average eigenvalue GAMMA=   0.6463
  2.5734  0.4468  0.4468  0.1521  0.1521  0.1066

 Free energy of the ion-electron system (eV)
  ---------------------------------------------------
  alpha Z        PSCENC =      1909.85183886
  Ewald energy   TEWEN  =    219196.94746154
  -Hartree energ DENC   =   -340597.50857209
  -exchange      EXHF   =         0.00000000
  -V(xc)+E(xc)   XCENC  =      3650.09978499
  PAW double counting   =    142861.62309845  -147893.02085896
  entropy T*S    EENTRO =        -1.09084635
  eigenvalues    EBANDS =    -15518.06539275
  atomic energy  EATOM  =    136002.60505376
  Solvation  Ediel_sol  =         0.00000000
  ---------------------------------------------------
  free energy    TOTEN  =      -388.55843253 eV

  energy without entropy =     -387.46758618  energy(sigma->0) =     -388.01300936


--------------------------------------------------------------------------------------------------------




--------------------------------------- Iteration      1(  12)  ---------------------------------------


    POTLOK:  cpu time    0.2433: real time    0.2437
    SETDIJ:  cpu time    0.0197: real time    0.0197
     EDDAV:  cpu time    7.3871: real time    7.3885
       DOS:  cpu time    0.0025: real time    0.0025
    CHARGE:  cpu time    0.2083: real time    0.2083
    MIXING:  cpu time    0.0098: real time    0.0098
    --------------------------------------------
      LOOP:  cpu time    7.8707: real time    7.8724

 eigenvalue-minimisations  :  1296
 total energy-change (2. order) : 0.1974218E+02  (-0.5153310E+01)
 number of electron     791.9999818 magnetization 
 augmentation part      313.7199277 magnetization 

 Broyden mixing:
  rms(total) = 0.42498E+01    rms(broyden)= 0.42468E+01
  rms(prec ) = 0.47760E+01
  weight for this iteration     100.00

 eigenvalues of (default mixing * dielectric matrix)
  average eigenvalue GAMMA=   0.5860
  2.5161  0.4503  0.4503  0.2276  0.2276  0.1306  0.0992

 Free energy of the ion-electron system (eV)
  ---------------------------------------------------
  alpha Z        PSCENC =      1909.85183886
  Ewald energy   TEWEN  =    219196.94746154
  -Hartree energ DENC   =   -340507.66707373
  -exchange      EXHF   =         0.00000000
  -V(xc)+E(xc)   XCENC  =      3647.97517806
  PAW double counting   =    144741.02209594  -149778.82325855
  entropy T*S    EENTRO =        -0.76277290
  eigenvalues    EBANDS =    -15579.96477839
  atomic energy  EATOM  =    136002.60505376
  Solvation  Ediel_sol  =         0.00000000
  ---------------------------------------------------
  free energy    TOTEN  =      -368.81625541 eV

  energy without entropy =     -368.05348251  energy(sigma->0) =     -368.43486896


--------------------------------------------------------------------------------------------------------




--------------------------------------- Iteration      1(  13)  ---------------------------------------


    POTLOK:  cpu time    0.2420: real time    0.2421
    SETDIJ:  cpu time    0.0194: real time    0.0194
     EDDAV:  cpu time    7.4835: real time    7.4845
       DOS:  cpu time    0.0025: real time    0.0025
    CHARGE:  cpu time    0.2084: real time    0.2084
    MIXING:  cpu time    0.0112: real time    0.0112
    --------------------------------------------
      LOOP:  cpu time    7.9669: real time    7.9679

 eigenvalue-minimisations  :  1272
 total energy-change (2. order) : 0.8175225E+01  (-0.2198060E+01)
 number of electron     791.9999776 magnetization 
 augmentation part      313.7778156 magnetization 

 Broyden mixing:
  rms(total) = 0.32086E+01    rms(broyden)= 0.32067E+01
  rms(prec ) = 0.36120E+01
  weight for this iteration     100.00

 eigenvalues of (default mixing * dielectric matrix)
  average eigenvalue GAMMA=   0.5434
  2.3047  0.5208  0.4166  0.4166  0.2949  0.1455  0.1455  0.1028

 Free energy of the ion-electron system (eV)
  ---------------------------------------------------
  alpha Z        PSCENC =      1909.85183886
  Ewald energy   TEWEN  =    219196.94746154
  -Hartree energ DENC   =   -340538.57593293
  -exchange      EXHF   =         0.00000000
  -V(xc)+E(xc)   XCENC  =      3648.89761552
  PAW double counting   =    144177.53717593  -149214.65979984
  entropy T*S    EENTRO =        -0.83015363
  eigenvalues    EBANDS =    -15542.41428978
  atomic energy  EATOM  =    136002.60505376
  Solvation  Ediel_sol  =         0.00000000
  ---------------------------------------------------
  free energy    TOTEN  =      -360.64103055 eV

  energy without entropy =     -359.81087693  energy(sigma->0) =     -360.22595374


--------------------------------------------------------------------------------------------------------




--------------------------------------- Iteration      1(  14)  ---------------------------------------


    POTLOK:  cpu time    0.2421: real time    0.2421
    SETDIJ:  cpu time    0.0195: real time    0.0195
     EDDAV:  cpu time    7.4145: real time    7.4158
       DOS:  cpu time    0.0029: real time    0.0029
    CHARGE:  cpu time    0.2075: real time    0.2075
    MIXING:  cpu time    0.0106: real time    0.0106
    --------------------------------------------
      LOOP:  cpu time    7.8971: real time    7.8984

 eigenvalue-minimisations  :  1312
 total energy-change (2. order) : 0.3023985E+01  (-0.1349471E+01)
 number of electron     791.9999823 magnetization 
 augmentation part      312.6231978 magnetization 

 Broyden mixing:
  rms(total) = 0.29063E+01    rms(broyden)= 0.29047E+01
  rms(prec ) = 0.33000E+01
  weight for this iteration     100.00

 eigenvalues of (default mixing * dielectric matrix)
  average eigenvalue GAMMA=   0.5074
  2.2252  0.4557  0.4557  0.4405  0.4405  0.1585  0.1585  0.1299  0.1018

 Free energy of the ion-electron system (eV)
  ---------------------------------------------------
  alpha Z        PSCENC =      1909.85183886
  Ewald energy   TEWEN  =    219196.94746154
  -Hartree energ DENC   =   -340589.96261648
  -exchange      EXHF   =         0.00000000
  -V(xc)+E(xc)   XCENC  =      3650.15160327
  PAW double counting   =    142742.12574643  -147770.93828146
  entropy T*S    EENTRO =        -0.86067037
  eigenvalues    EBANDS =    -15497.53718072
  atomic energy  EATOM  =    136002.60505376
  Solvation  Ediel_sol  =         0.00000000
  ---------------------------------------------------
  free energy    TOTEN  =      -357.61704517 eV

  energy without entropy =     -356.75637480  energy(sigma->0) =     -357.18670998


--------------------------------------------------------------------------------------------------------




--------------------------------------- Iteration      1(  15)  ---------------------------------------


    POTLOK:  cpu time    0.2433: real time    0.2433
    SETDIJ:  cpu time    0.0193: real time    0.0193
     EDDAV:  cpu time    7.5297: real time    7.5313
       DOS:  cpu time    0.0029: real time    0.0029
    CHARGE:  cpu time    0.2630: real time    0.2630
    MIXING:  cpu time    0.0129: real time    0.0129
    --------------------------------------------
      LOOP:  cpu time    8.0712: real time    8.0727

 eigenvalue-minimisations  :  1312
 total energy-change (2. order) : 0.2987964E+01  (-0.5259231E+00)
 number of electron     791.9999809 magnetization 
 augmentation part      312.5551321 magnetization 

 Broyden mixing:
  rms(total) = 0.18850E+01    rms(broyden)= 0.18838E+01
  rms(prec ) = 0.21084E+01
  weight for this iteration     100.00

 eigenvalues of (default mixing * dielectric matrix)
  average eigenvalue GAMMA=   0.5073
  2.2035  0.6238  0.6238  0.4351  0.4351  0.1855  0.1855  0.1022  0.1393  0.1393

 Free energy of the ion-electron system (eV)
  ---------------------------------------------------
  alpha Z        PSCENC =      1909.85183886
  Ewald energy   TEWEN  =    219196.94746154
  -Hartree energ DENC   =   -340601.96023853
  -exchange      EXHF   =         0.00000000
  -V(xc)+E(xc)   XCENC  =      3650.52683908
  PAW double counting   =    142186.59890652  -147211.30784556
  entropy T*S    EENTRO =        -0.82102999
  eigenvalues    EBANDS =    -15487.07006675
  atomic energy  EATOM  =    136002.60505376
  Solvation  Ediel_sol  =         0.00000000
  ---------------------------------------------------
  free energy    TOTEN  =      -354.62908108 eV

  energy without entropy =     -353.80805109  energy(sigma->0) =     -354.21856608


--------------------------------------------------------------------------------------------------------




--------------------------------------- Iteration      1(  16)  ---------------------------------------


    POTLOK:  cpu time    0.2430: real time    0.2430
    SETDIJ:  cpu time    0.0188: real time    0.0188
     EDDAV:  cpu time    7.4505: real time    7.4516
       DOS:  cpu time    0.0027: real time    0.0027
    CHARGE:  cpu time    0.2096: real time    0.2096
    MIXING:  cpu time    0.0138: real time    0.0138
    --------------------------------------------
      LOOP:  cpu time    7.9384: real time    7.9396

 eigenvalue-minimisations  :  1312
 total energy-change (2. order) : 0.7615283E+00  (-0.1571912E+00)
 number of electron     791.9999803 magnetization 
 augmentation part      312.2748523 magnetization 

 Broyden mixing:
  rms(total) = 0.17108E+01    rms(broyden)= 0.17105E+01
  rms(prec ) = 0.19223E+01
  weight for this iteration     100.00

 eigenvalues of (default mixing * dielectric matrix)
  average eigenvalue GAMMA=   0.5046
  2.1965  0.7631  0.7631  0.4328  0.4328  0.2174  0.2174  0.1483  0.1483  0.1022
  0.1289

 Free energy of the ion-electron system (eV)
  ---------------------------------------------------
  alpha Z        PSCENC =      1909.85183886
  Ewald energy   TEWEN  =    219196.94746154
  -Hartree energ DENC   =   -340613.82608594
  -exchange      EXHF   =         0.00000000
  -V(xc)+E(xc)   XCENC  =      3650.73311940
  PAW double counting   =    141821.62683538  -146842.75134902
  entropy T*S    EENTRO =        -0.82791685
  eigenvalues    EBANDS =    -15478.22650985
  atomic energy  EATOM  =    136002.60505376
  Solvation  Ediel_sol  =         0.00000000
  ---------------------------------------------------
  free energy    TOTEN  =      -353.86755273 eV

  energy without entropy =     -353.03963588  energy(sigma->0) =     -353.45359430


--------------------------------------------------------------------------------------------------------




--------------------------------------- Iteration      1(  17)  ---------------------------------------


    POTLOK:  cpu time    0.2457: real time    0.2457
    SETDIJ:  cpu time    0.0185: real time    0.0185
     EDDAV:  cpu time    7.0731: real time    7.0744
       DOS:  cpu time    0.0028: real time    0.0029
    CHARGE:  cpu time    0.2127: real time    0.2127
    MIXING:  cpu time    0.0126: real time    0.0126
    --------------------------------------------
      LOOP:  cpu time    7.5655: real time    7.5668

 eigenvalue-minimisations  :  1224
 total energy-change (2. order) : 0.6393219E+00  (-0.7226317E-01)
 number of electron     791.9999810 magnetization 
 augmentation part      312.2407259 magnetization 

 Broyden mixing:
  rms(total) = 0.14580E+01    rms(broyden)= 0.14578E+01
  rms(prec ) = 0.16367E+01
  weight for this iteration     100.00

 eigenvalues of (default mixing * dielectric matrix)
  average eigenvalue GAMMA=   0.5011
  2.1801  0.8483  0.8483  0.4245  0.4245  0.2998  0.2998  0.1585  0.1585  0.1022
  0.1344  0.1344

 Free energy of the ion-electron system (eV)
  ---------------------------------------------------
  alpha Z        PSCENC =      1909.85183886
  Ewald energy   TEWEN  =    219196.94746154
  -Hartree energ DENC   =   -340618.72242837
  -exchange      EXHF   =         0.00000000
  -V(xc)+E(xc)   XCENC  =      3650.84382608
  PAW double counting   =    141489.39175924  -146506.88626163
  entropy T*S    EENTRO =        -0.84728541
  eigenvalues    EBANDS =    -15476.41219486
  atomic energy  EATOM  =    136002.60505376
  Solvation  Ediel_sol  =         0.00000000
  ---------------------------------------------------
  free energy    TOTEN  =      -353.22823079 eV

  energy without entropy =     -352.38094538  energy(sigma->0) =     -352.80458809


--------------------------------------------------------------------------------------------------------




--------------------------------------- Iteration      1(  18)  ---------------------------------------


    POTLOK:  cpu time    0.3126: real time    0.3128
    SETDIJ:  cpu time    0.0393: real time    0.0393
     EDDAV:  cpu time    7.3891: real time    7.3901
       DOS:  cpu time    0.0033: real time    0.0033
    CHARGE:  cpu time    0.2088: real time    0.2089
    MIXING:  cpu time    0.0126: real time    0.0127
    --------------------------------------------
      LOOP:  cpu time    7.9658: real time    7.9671

 eigenvalue-minimisations  :  1288
 total energy-change (2. order) : 0.3312012E+00  (-0.2136800E-01)
 number of electron     791.9999810 magnetization 
 augmentation part      312.1218002 magnetization 

 Broyden mixing:
  rms(total) = 0.13543E+01    rms(broyden)= 0.13543E+01
  rms(prec ) = 0.15181E+01
  weight for this iteration     100.00

 eigenvalues of (default mixing * dielectric matrix)
  average eigenvalue GAMMA=   0.5252
  2.1670  1.0666  1.0666  0.4345  0.4345  0.3816  0.3816  0.1835  0.1835  0.1022
  0.1472  0.1472  0.1320

 Free energy of the ion-electron system (eV)
  ---------------------------------------------------
  alpha Z        PSCENC =      1909.85183886
  Ewald energy   TEWEN  =    219196.94746154
  -Hartree energ DENC   =   -340627.95920321
  -exchange      EXHF   =         0.00000000
  -V(xc)+E(xc)   XCENC  =      3650.96017942
  PAW double counting   =    141190.50430704  -146205.01146388
  entropy T*S    EENTRO =        -0.85486387
  eigenvalues    EBANDS =    -15469.94033926
  atomic energy  EATOM  =    136002.60505376
  Solvation  Ediel_sol  =         0.00000000
  ---------------------------------------------------
  free energy    TOTEN  =      -352.89702959 eV

  energy without entropy =     -352.04216572  energy(sigma->0) =     -352.46959766


--------------------------------------------------------------------------------------------------------




--------------------------------------- Iteration      1(  19)  ---------------------------------------


    POTLOK:  cpu time    0.2459: real time    0.2459
    SETDIJ:  cpu time    0.0185: real time    0.0186
     EDDAV:  cpu time    7.4675: real time    7.4689
       DOS:  cpu time    0.0028: real time    0.0028
    CHARGE:  cpu time    0.2097: real time    0.2097
    MIXING:  cpu time    0.0132: real time    0.0132
    --------------------------------------------
      LOOP:  cpu time    7.9577: real time    7.9591

 eigenvalue-minimisations  :  1328
 total energy-change (2. order) : 0.4604450E+00  (-0.1737605E-01)
 number of electron     791.9999807 magnetization 
 augmentation part      312.0610773 magnetization 

 Broyden mixing:
  rms(total) = 0.11993E+01    rms(broyden)= 0.11992E+01
  rms(prec ) = 0.13482E+01
  weight for this iteration     100.00

 eigenvalues of (default mixing * dielectric matrix)
  average eigenvalue GAMMA=   0.5821
  2.1612  1.4077  1.4077  0.5892  0.5892  0.4395  0.4395  0.2119  0.2119  0.1022
  0.1538  0.1538  0.1455  0.1357

 Free energy of the ion-electron system (eV)
  ---------------------------------------------------
  alpha Z        PSCENC =      1909.85183886
  Ewald energy   TEWEN  =    219196.94746154
  -Hartree energ DENC   =   -340642.31269821
  -exchange      EXHF   =         0.00000000
  -V(xc)+E(xc)   XCENC  =      3651.08141075
  PAW double counting   =    140740.42202850  -145750.02750414
  entropy T*S    EENTRO =        -0.87432207
  eigenvalues    EBANDS =    -15460.12985362
  atomic energy  EATOM  =    136002.60505376
  Solvation  Ediel_sol  =         0.00000000
  ---------------------------------------------------
  free energy    TOTEN  =      -352.43658463 eV

  energy without entropy =     -351.56226256  energy(sigma->0) =     -351.99942360


--------------------------------------------------------------------------------------------------------




--------------------------------------- Iteration      1(  20)  ---------------------------------------


    POTLOK:  cpu time    0.2465: real time    0.2466
    SETDIJ:  cpu time    0.0186: real time    0.0186
     EDDAV:  cpu time    7.9659: real time    7.9673
       DOS:  cpu time    0.0035: real time    0.0035
    CHARGE:  cpu time    0.2098: real time    0.2099
    MIXING:  cpu time    0.0140: real time    0.0140
    --------------------------------------------
      LOOP:  cpu time    8.4583: real time    8.4598

 eigenvalue-minimisations  :  1384
 total energy-change (2. order) : 0.6780422E+00  (-0.3509858E-01)
 number of electron     791.9999811 magnetization 
 augmentation part      311.9759962 magnetization 

 Broyden mixing:
  rms(total) = 0.87469E+00    rms(broyden)= 0.87448E+00
  rms(prec ) = 0.97467E+00
  weight for this iteration     100.00

 eigenvalues of (default mixing * dielectric matrix)
  average eigenvalue GAMMA=   0.5986
  2.1548  1.6293  1.6293  0.6758  0.6758  0.4367  0.4367  0.2375  0.2375  0.1022
  0.1547  0.1547  0.1599  0.1599  0.1340

 Free energy of the ion-electron system (eV)
  ---------------------------------------------------
  alpha Z        PSCENC =      1909.85183886
  Ewald energy   TEWEN  =    219196.94746154
  -Hartree energ DENC   =   -340663.21364588
  -exchange      EXHF   =         0.00000000
  -V(xc)+E(xc)   XCENC  =      3651.23923458
  PAW double counting   =    140054.87718757  -145056.36854210
  entropy T*S    EENTRO =        -0.89349240
  eigenvalues    EBANDS =    -15446.80363841
  atomic energy  EATOM  =    136002.60505376
  Solvation  Ediel_sol  =         0.00000000
  ---------------------------------------------------
  free energy    TOTEN  =      -351.75854248 eV

  energy without entropy =     -350.86505008  energy(sigma->0) =     -351.31179628


--------------------------------------------------------------------------------------------------------




--------------------------------------- Iteration      1(  21)  ---------------------------------------


    POTLOK:  cpu time    0.2521: real time    0.2521
    SETDIJ:  cpu time    0.0178: real time    0.0178
     EDDAV:  cpu time    7.4504: real time    7.4517
       DOS:  cpu time    0.0015: real time    0.0015
    CHARGE:  cpu time    0.2127: real time    0.2127
    MIXING:  cpu time    0.0159: real time    0.0159
    --------------------------------------------
      LOOP:  cpu time    7.9505: real time    7.9517

 eigenvalue-minimisations  :  1320
 total energy-change (2. order) : 0.4255256E+00  (-0.4353448E-01)
 number of electron     791.9999807 magnetization 
 augmentation part      311.9077509 magnetization 

 Broyden mixing:
  rms(total) = 0.49396E+00    rms(broyden)= 0.49355E+00
  rms(prec ) = 0.53954E+00
  weight for this iteration     100.00

 eigenvalues of (default mixing * dielectric matrix)
  average eigenvalue GAMMA=   0.6156
  2.1641  1.7467  1.7467  0.7592  0.7592  0.4952  0.4381  0.4381  0.2478  0.1022
  0.1818  0.1818  0.1532  0.1532  0.1344  0.1484

 Free energy of the ion-electron system (eV)
  ---------------------------------------------------
  alpha Z        PSCENC =      1909.85183886
  Ewald energy   TEWEN  =    219196.94746154
  -Hartree energ DENC   =   -340683.38744320
  -exchange      EXHF   =         0.00000000
  -V(xc)+E(xc)   XCENC  =      3651.36496330
  PAW double counting   =    139451.77408770  -144445.83248844
  entropy T*S    EENTRO =        -0.93051954
  eigenvalues    EBANDS =    -15433.72597085
  atomic energy  EATOM  =    136002.60505376
  Solvation  Ediel_sol  =         0.00000000
  ---------------------------------------------------
  free energy    TOTEN  =      -351.33301687 eV

  energy without entropy =     -350.40249732  energy(sigma->0) =     -350.86775709


--------------------------------------------------------------------------------------------------------




--------------------------------------- Iteration      1(  22)  ---------------------------------------


    POTLOK:  cpu time    0.2503: real time    0.2504
    SETDIJ:  cpu time    0.0174: real time    0.0174
     EDDAV:  cpu time    7.4527: real time    7.4538
       DOS:  cpu time    0.0014: real time    0.0014
    CHARGE:  cpu time    0.2208: real time    0.2208
    MIXING:  cpu time    0.0152: real time    0.0152
    --------------------------------------------
      LOOP:  cpu time    7.9579: real time    7.9590

 eigenvalue-minimisations  :  1272
 total energy-change (2. order) : 0.6225743E-01  (-0.2402644E-01)
 number of electron     791.9999809 magnetization 
 augmentation part      312.0225538 magnetization 

 Broyden mixing:
  rms(total) = 0.38910E+00    rms(broyden)= 0.38894E+00
  rms(prec ) = 0.42388E+00
  weight for this iteration     100.00

 eigenvalues of (default mixing * dielectric matrix)
  average eigenvalue GAMMA=   0.6099
  2.1534  1.8008  1.8008  0.8281  0.8281  0.5163  0.4405  0.4405  0.2907  0.2064
  0.2064  0.1022  0.1539  0.1539  0.1343  0.1558  0.1558

 Free energy of the ion-electron system (eV)
  ---------------------------------------------------
  alpha Z        PSCENC =      1909.85183886
  Ewald energy   TEWEN  =    219196.94746154
  -Hartree energ DENC   =   -340689.99450171
  -exchange      EXHF   =         0.00000000
  -V(xc)+E(xc)   XCENC  =      3651.32983184
  PAW double counting   =    139221.19152854  -144211.92103400
  entropy T*S    EENTRO =        -0.94631174
  eigenvalues    EBANDS =    -15430.33462652
  atomic energy  EATOM  =    136002.60505376
  Solvation  Ediel_sol  =         0.00000000
  ---------------------------------------------------
  free energy    TOTEN  =      -351.27075944 eV

  energy without entropy =     -350.32444769  energy(sigma->0) =     -350.79760357


--------------------------------------------------------------------------------------------------------




--------------------------------------- Iteration      1(  23)  ---------------------------------------


    POTLOK:  cpu time    0.2526: real time    0.2526
    SETDIJ:  cpu time    0.0173: real time    0.0173
     EDDAV:  cpu time    7.0684: real time    7.0728
       DOS:  cpu time    0.0014: real time    0.0014
    CHARGE:  cpu time    0.2127: real time    0.2127
    MIXING:  cpu time    0.0163: real time    0.0163
    --------------------------------------------
      LOOP:  cpu time    7.5687: real time    7.5731

 eigenvalue-minimisations  :  1232
 total energy-change (2. order) : 0.3101504E-01  (-0.1201441E-01)
 number of electron     791.9999810 magnetization 
 augmentation part      312.0349637 magnetization 

 Broyden mixing:
  rms(total) = 0.30348E+00    rms(broyden)= 0.30330E+00
  rms(prec ) = 0.32514E+00
  weight for this iteration     100.00

 eigenvalues of (default mixing * dielectric matrix)
  average eigenvalue GAMMA=   0.6486
  2.1312  1.8015  1.8015  1.1053  1.1053  0.6940  0.6940  0.4408  0.4408  0.2334
  0.1022  0.2024  0.1536  0.1536  0.1343  0.1651  0.1651  0.1504

 Free energy of the ion-electron system (eV)
  ---------------------------------------------------
  alpha Z        PSCENC =      1909.85183886
  Ewald energy   TEWEN  =    219196.94746154
  -Hartree energ DENC   =   -340697.66633150
  -exchange      EXHF   =         0.00000000
  -V(xc)+E(xc)   XCENC  =      3651.34738338
  PAW double counting   =    139037.26789625  -144025.73366585
  entropy T*S    EENTRO =        -0.95341233
  eigenvalues    EBANDS =    -15424.90596851
  atomic energy  EATOM  =    136002.60505376
  Solvation  Ediel_sol  =         0.00000000
  ---------------------------------------------------
  free energy    TOTEN  =      -351.23974439 eV

  energy without entropy =     -350.28633206  energy(sigma->0) =     -350.76303823


--------------------------------------------------------------------------------------------------------




--------------------------------------- Iteration      1(  24)  ---------------------------------------


    POTLOK:  cpu time    0.2507: real time    0.2507
    SETDIJ:  cpu time    0.0174: real time    0.0173
     EDDAV:  cpu time    6.6463: real time    6.6471
       DOS:  cpu time    0.0013: real time    0.0013
    CHARGE:  cpu time    0.4211: real time    0.4211
    MIXING:  cpu time    0.0176: real time    0.0176
    --------------------------------------------
      LOOP:  cpu time    7.3544: real time    7.3551

 eigenvalue-minimisations  :  1136
 total energy-change (2. order) : 0.9995367E-02  (-0.1115147E-01)
 number of electron     791.9999811 magnetization 
 augmentation part      312.1274040 magnetization 

 Broyden mixing:
  rms(total) = 0.23571E+00    rms(broyden)= 0.23551E+00
  rms(prec ) = 0.25502E+00
  weight for this iteration     100.00

 eigenvalues of (default mixing * dielectric matrix)
  average eigenvalue GAMMA=   0.6522
  2.0222  2.0222  1.6441  1.6441  0.8331  0.8331  0.7884  0.4400  0.4400  0.2693
  0.2341  0.1022  0.1977  0.1536  0.1536  0.1343  0.1708  0.1607  0.1489

 Free energy of the ion-electron system (eV)
  ---------------------------------------------------
  alpha Z        PSCENC =      1909.85183886
  Ewald energy   TEWEN  =    219196.94746154
  -Hartree energ DENC   =   -340712.92269225
  -exchange      EXHF   =         0.00000000
  -V(xc)+E(xc)   XCENC  =      3651.31971282
  PAW double counting   =    138805.11229330  -143790.82308832
  entropy T*S    EENTRO =        -0.95131613
  eigenvalues    EBANDS =    -15412.36901261
  atomic energy  EATOM  =    136002.60505376
  Solvation  Ediel_sol  =         0.00000000
  ---------------------------------------------------
  free energy    TOTEN  =      -351.22974903 eV

  energy without entropy =     -350.27843289  energy(sigma->0) =     -350.75409096


--------------------------------------------------------------------------------------------------------




--------------------------------------- Iteration      1(  25)  ---------------------------------------


    POTLOK:  cpu time    0.2505: real time    0.2507
    SETDIJ:  cpu time    0.0174: real time    0.0174
     EDDAV:  cpu time    7.1456: real time    7.1466
       DOS:  cpu time    0.0015: real time    0.0015
    CHARGE:  cpu time    0.2217: real time    0.2217
    MIXING:  cpu time    0.0170: real time    0.0170
    --------------------------------------------
      LOOP:  cpu time    7.6537: real time    7.6549

 eigenvalue-minimisations  :  1240
 total energy-change (2. order) :-0.3823299E-03  (-0.1417411E-01)
 number of electron     791.9999809 magnetization 
 augmentation part      312.1502132 magnetization 

 Broyden mixing:
  rms(total) = 0.21014E+00    rms(broyden)= 0.20981E+00
  rms(prec ) = 0.23379E+00
  weight for this iteration     100.00

 eigenvalues of (default mixing * dielectric matrix)
  average eigenvalue GAMMA=   0.6702
  2.3443  2.1247  1.6928  1.6928  0.8540  0.8540  0.8445  0.4400  0.4400  0.4894
  0.2337  0.1022  0.2033  0.1535  0.1535  0.1741  0.1741  0.1343  0.1491  0.1491

 Free energy of the ion-electron system (eV)
  ---------------------------------------------------
  alpha Z        PSCENC =      1909.85183886
  Ewald energy   TEWEN  =    219196.94746154
  -Hartree energ DENC   =   -340720.28850025
  -exchange      EXHF   =         0.00000000
  -V(xc)+E(xc)   XCENC  =      3651.33364645
  PAW double counting   =    138668.31444246  -143652.53771408
  entropy T*S    EENTRO =        -0.95130845
  eigenvalues    EBANDS =    -15406.50505165
  atomic energy  EATOM  =    136002.60505376
  Solvation  Ediel_sol  =         0.00000000
  ---------------------------------------------------
  free energy    TOTEN  =      -351.23013136 eV

[...]
    FORCOR:  cpu time    0.3351: real time    0.3351
    FORHAR:  cpu time    0.1494: real time    0.1494
    MIXING:  cpu time    0.0498: real time    0.0498
    OFIELD:  cpu time    0.0001: real time    0.0001

  FORCE on cell =-STRESS in cart. coord.  units (eV):
  Direction    XX          YY          ZZ          XY          YZ          ZX
  --------------------------------------------------------------------------------------
  Alpha Z  1909.85184  1909.85184  1909.85184
  Ewald  268370.34878272651.03620************  -677.61442  -546.29865  1680.83585
  Hartree304670.02559307795.70873************  -482.91318  -304.63519  1290.36126
  E(xc)   -5052.49844 -5050.16237 -5056.77210    -0.56127    -0.84080     0.80055
  Local  ************************580456.04942  1152.02573   820.50010 -2938.78456
  n-local  -620.60592  -610.92661  -617.27951     1.86307    -2.74291    -1.52383
  augment  5796.71235  5782.58477  5801.99745     1.14437    11.52657   -10.48352
  Kinetic 11091.93014 11057.38015 11147.34298     1.41537    19.66575   -21.20053
  Fock        0.00000     0.00000     0.00000     0.00000     0.00000     0.00000
  -------------------------------------------------------------------------------------
  Total      82.02397    89.84951   101.69117    -4.64034    -2.82514     0.00521
  in kB      67.47142    73.90856    83.64930    -3.81706    -2.32391     0.00429
  external pressure =       75.01 kB  Pullay stress =        0.00 kB


 VOLUME and BASIS-vectors are now :
 -----------------------------------------------------------------------------
  energy-cutoff  :      450.00
  volume of cell :     1947.74
      direct lattice vectors                 reciprocal lattice vectors
    10.079732985  0.000000000  0.000000000     0.099208977 -0.037612667  0.000000000
     3.573298043  9.425102554  0.000000000     0.000000000  0.106099641  0.000000000
     0.000000000  0.000000000 20.502009576     0.000000000  0.000000000  0.048775706

  length of vectors
    10.079732985 10.079732985 20.502009576     0.106099641  0.106099641  0.048775706


 FORCES acting on ions
    electron-ion (+dipol)            ewald-force                    non-local-force                 convergence-correction
 -----------------------------------------------------------------------------------------------
   0.534E+03 0.512E+01 0.541E+04   -.539E+03 -.409E+01 -.542E+04   0.339E+01 -.180E+01 0.805E+01   -.177E-02 -.216E-02 -.492E-02
   0.603E+03 0.333E+03 0.299E+04   -.607E+03 -.338E+03 -.299E+04   0.277E+01 0.322E+01 -.189E+01   0.102E-01 -.211E-01 0.133E-01
   0.675E+02 -.413E+03 -.259E+03   -.686E+02 0.414E+03 0.259E+03   0.884E+00 -.147E+01 -.295E+00   0.143E-01 -.213E-01 -.197E-01
   0.133E+03 -.714E+03 -.339E+04   -.133E+03 0.716E+03 0.339E+04   -.516E+00 -.154E+01 0.647E+00   0.128E-01 0.325E-02 -.535E-02
   -.113E+03 -.614E+03 -.565E+04   0.113E+03 0.612E+03 0.565E+04   0.518E+00 0.210E+01 0.554E+01   -.796E-02 0.338E-02 -.175E-01
   0.866E+02 -.148E+03 0.198E+04   -.865E+02 0.146E+03 -.198E+04   0.569E+00 0.744E+00 -.258E+01   -.867E-02 0.157E-01 0.953E-02
   -.551E+01 -.419E+03 -.129E+04   0.444E+01 0.420E+03 0.129E+04   0.102E+01 -.909E+00 0.108E+00   -.376E-02 0.489E-02 -.165E-01
   0.751E+02 -.583E+03 -.454E+04   -.756E+02 0.586E+03 0.454E+04   0.676E+00 -.116E+01 -.402E+01   0.148E-02 0.309E-02 -.139E-01
   0.122E+03 0.742E+02 0.470E+04   -.124E+03 -.757E+02 -.470E+04   0.296E+01 0.111E+01 0.422E+01   -.146E-01 0.807E-02 0.168E-01
   -.317E+03 -.499E+02 -.501E+04   0.318E+03 0.548E+02 0.501E+04   -.529E+00 -.388E+01 -.434E+01   -.235E-03 0.584E-02 -.296E-02
   0.883E+01 -.385E+03 0.359E+04   -.931E+01 0.384E+03 -.360E+04   0.105E+00 0.619E+00 0.503E+01   0.358E-02 0.123E-03 0.906E-02
   -.218E+03 -.190E+03 0.676E+03   0.220E+03 0.188E+03 -.671E+03   -.112E+01 0.874E+00 -.291E+01   -.112E-01 -.513E-02 -.180E-01
   -.637E+02 -.372E+03 -.201E+04   0.632E+02 0.374E+03 0.201E+04   0.570E+00 -.171E+01 0.133E+01   -.556E-02 0.505E-02 -.234E-01
   -.620E+02 -.342E+03 0.385E+04   0.616E+02 0.346E+03 -.385E+04   0.141E+01 -.429E+01 0.266E+01   0.145E-01 0.404E-02 0.160E-01
   0.309E+03 0.158E+03 0.712E+03   -.309E+03 -.156E+03 -.709E+03   0.477E+00 -.163E+01 -.194E+01   0.177E-01 0.680E-02 -.186E-01
   0.576E+03 0.140E+03 -.214E+04   -.579E+03 -.141E+03 0.214E+04   0.255E+01 0.448E+00 0.129E+01   0.119E-01 0.947E-02 -.194E-01
   0.521E+03 0.260E+03 -.498E+04   -.524E+03 -.262E+03 0.498E+04   0.198E+01 0.234E+01 -.359E+01   0.586E-02 0.145E-01 0.579E-02
   0.667E+03 0.807E+02 0.330E+04   -.670E+03 -.796E+02 -.330E+04   0.270E+01 -.108E+01 0.167E+01   -.228E-01 0.141E-01 0.162E-01
   0.418E+03 0.329E+03 -.199E+03   -.420E+03 -.329E+03 0.199E+03   0.129E+01 -.189E+00 -.992E-01   -.787E-02 0.308E-02 -.208E-03
   0.441E+03 0.485E+03 -.348E+04   -.445E+03 -.488E+03 0.348E+04   0.222E+01 0.189E+01 -.276E+01   0.325E-02 -.834E-02 -.208E-01
   0.324E+03 0.384E+03 -.437E+04   -.330E+03 -.387E+03 0.437E+04   0.389E+01 0.114E+01 -.209E+01   -.981E-02 -.774E-02 -.137E-01
   -.285E+03 0.313E+02 0.442E+04   0.286E+03 -.288E+02 -.443E+04   0.747E+00 -.265E+01 0.362E+01   0.318E-01 -.620E-02 0.166E-01
   0.285E+03 0.392E+03 0.177E+04   -.285E+03 -.392E+03 -.177E+04   -.583E-01 0.251E+00 -.265E+01   0.126E-02 0.397E-02 -.102E-02
   0.397E+03 0.366E+03 -.119E+04   -.399E+03 -.366E+03 0.119E+04   0.126E+01 -.308E+00 0.325E+00   -.162E-01 -.109E-02 -.266E-01
   -.792E+03 0.146E+03 -.415E+04   0.797E+03 -.147E+03 0.416E+04   -.419E+01 0.117E+01 -.972E+00   -.125E-01 0.182E-01 -.516E-02
   -.104E+03 0.683E+03 0.519E+04   0.101E+03 -.684E+03 -.519E+04   0.281E+01 -.279E+00 0.324E+00   0.157E-01 -.184E-01 0.296E-01
   -.504E+03 0.923E+02 0.210E+04   0.507E+03 -.927E+02 -.210E+04   -.371E+01 0.249E+00 -.616E+00   -.410E-02 0.342E-02 0.490E-02
   -.484E+03 0.755E+02 -.107E+04   0.486E+03 -.748E+02 0.107E+04   -.160E+01 -.661E+00 0.190E+01   0.851E-03 0.146E-01 -.262E-01
   -.502E+03 -.310E+03 0.436E+04   0.507E+03 0.311E+03 -.436E+04   -.403E+01 -.536E-01 0.299E+01   0.687E-02 0.143E-01 0.715E-02
   -.356E+03 0.108E+03 0.761E+03   0.355E+03 -.109E+03 -.760E+03   0.449E-01 0.480E+00 -.374E+00   0.148E-01 -.198E-02 0.320E-02
   -.191E+03 0.107E+03 -.211E+04   0.194E+03 -.107E+03 0.210E+04   -.309E+01 0.982E+00 0.216E+01   0.885E-02 -.174E-01 -.156E-01
   0.611E+02 0.433E+03 -.507E+04   -.616E+02 -.434E+03 0.507E+04   0.867E+00 0.415E+00 0.117E+01   -.579E-02 -.474E-02 -.164E-01
   -.703E+03 0.221E+03 0.334E+04   0.706E+03 -.221E+03 -.334E+04   -.304E+01 -.107E+00 0.412E+00   -.308E-01 0.464E-02 0.120E-01
   -.524E+03 0.166E+03 -.143E+03   0.526E+03 -.166E+03 0.143E+03   -.157E+01 -.468E+00 0.570E+00   0.619E-02 -.511E-02 -.215E-01
   -.704E+03 0.126E+03 -.367E+04   0.710E+03 -.127E+03 0.366E+04   -.454E+01 0.548E+00 0.469E+00   0.139E-01 -.181E-02 -.221E-01
   -.190E+03 -.377E+03 0.545E+04   0.190E+03 0.380E+03 -.545E+04   -.562E+00 -.193E+01 0.486E+01   0.404E-02 -.408E-02 0.269E-01
   -.149E+03 0.128E+03 -.214E+04   0.150E+03 -.130E+03 0.214E+04   -.611E+00 0.115E+01 -.182E+01   -.410E-02 0.336E-02 0.793E-03
   0.732E+02 0.872E+02 0.181E+04   -.740E+02 -.892E+02 -.181E+04   -.922E+00 0.284E+01 0.358E+01   0.458E-02 0.643E-03 0.122E-01
   -.314E+02 0.686E+02 0.842E+02   0.317E+02 -.703E+02 -.824E+02   -.435E-01 0.142E+01 -.425E+00   0.285E-02 0.520E-02 -.158E-01
   -.752E+01 0.146E+03 -.821E+03   0.648E+01 -.149E+03 0.816E+03   0.706E+00 0.148E+01 0.156E+01   0.308E-03 0.169E-02 -.519E-02
   0.296E+03 -.216E+03 0.227E+04   -.299E+03 0.218E+03 -.228E+04   0.133E+01 -.155E+01 0.188E+01   -.521E-02 0.621E-03 -.296E-02
   0.941E+02 0.706E+02 0.828E+03   -.933E+02 -.706E+02 -.825E+03   -.846E+00 0.319E+00 -.504E-01   -.725E-03 -.162E-02 0.559E-02
   0.510E+02 0.141E+03 -.192E+03   -.514E+02 -.142E+03 0.191E+03   0.123E+00 0.208E+01 0.281E+00   0.171E-02 -.502E-02 -.643E-02
   0.175E+03 0.238E+03 -.139E+04   -.176E+03 -.240E+03 0.140E+04   0.551E+00 0.140E+00 -.777E+00   0.589E-02 -.509E-02 -.357E-02
   -.591E+02 0.883E+02 0.518E+03   0.609E+02 -.892E+02 -.516E+03   -.144E+01 0.132E+01 -.820E+00   -.561E-02 0.335E-02 -.606E-02
   -.325E+02 0.135E+03 -.533E+03   0.320E+02 -.136E+03 0.529E+03   0.629E+00 0.128E+01 0.128E+01   0.157E-02 -.218E-02 -.131E-01
   -.697E+02 0.108E+03 -.173E+04   0.692E+02 -.108E+03 0.174E+04   0.938E+00 -.146E+00 0.223E+00   0.166E-02 -.208E-02 -.471E-02
   -.738E+02 0.155E+03 0.217E+04   0.739E+02 -.157E+03 -.218E+04   -.516E+00 0.132E+01 0.391E+01   -.354E-02 0.420E-02 0.106E-01
   0.535E+02 0.194E+03 0.236E+04   -.528E+02 -.196E+03 -.237E+04   -.163E+00 0.408E+00 0.273E+01   0.326E-02 -.292E-02 -.153E-03
   -.118E+03 0.284E+02 0.863E+03   0.120E+03 -.285E+02 -.861E+03   -.191E+01 0.840E+00 -.383E+00   0.784E-02 -.967E-02 0.698E-02
   -.112E+03 -.109E+03 -.249E+03   0.113E+03 0.111E+03 0.249E+03   -.152E+01 -.226E+01 0.229E+00   -.651E-02 -.199E-02 -.127E-01
   -.254E+03 -.203E+03 -.143E+04   0.256E+03 0.205E+03 0.143E+04   -.659E+00 -.510E+00 -.909E+00   -.130E-01 -.145E-03 -.525E-03
   -.691E+02 -.172E+03 0.217E+04   0.709E+02 0.174E+03 -.218E+04   -.722E+00 -.107E+01 0.241E+01   0.248E-02 0.871E-02 0.556E-02
   -.784E+02 -.147E+02 0.474E+03   0.801E+02 0.135E+02 -.473E+03   -.166E+01 0.575E+00 -.479E+00   0.776E-02 0.851E-02 -.308E-03
   -.802E+02 -.137E+03 -.651E+03   0.818E+02 0.140E+03 0.651E+03   -.149E+01 -.203E+01 -.640E+00   -.177E-02 -.560E-03 -.105E-01
   0.551E+01 -.115E+03 -.189E+04   -.348E+01 0.114E+03 0.190E+04   -.109E+01 0.501E+00 -.638E+00   0.532E-02 -.637E-02 0.308E-03
   -.155E+03 -.930E+02 0.176E+03   0.157E+03 0.948E+02 -.176E+03   -.193E+01 -.183E+01 0.382E+00   -.466E-02 0.162E-02 -.544E-02
   -.258E+03 -.105E+02 -.103E+04   0.260E+03 0.124E+02 0.103E+04   -.115E+01 -.200E+01 -.587E+00   0.204E-02 0.328E-03 -.782E-02
   -.179E+03 0.102E+03 -.224E+04   0.180E+03 -.103E+03 0.225E+04   -.670E+00 0.713E+00 -.253E+01   0.281E-02 0.212E-02 0.445E-02
   -.276E+03 -.141E+03 0.166E+04   0.278E+03 0.144E+03 -.166E+04   -.605E+00 -.148E+01 0.215E+01   -.138E-01 -.648E-03 0.518E-02
   0.250E+03 0.146E+03 0.177E+04   -.251E+03 -.149E+03 -.178E+04   0.386E+00 0.201E+01 0.240E+01   -.529E-02 -.272E-02 0.157E-02
   0.124E+03 -.159E+03 0.534E+03   -.126E+03 0.161E+03 -.535E+03   0.240E+01 -.168E+01 0.117E+01   0.163E-02 -.894E-02 -.674E-03
   0.174E+03 -.113E+03 -.780E+03   -.177E+03 0.115E+03 0.780E+03   0.271E+01 -.118E+01 -.105E+01   0.404E-02 0.493E-02 -.127E-01
   0.451E+03 -.242E+03 -.188E+04   -.456E+03 0.244E+03 0.188E+04   0.278E+01 -.148E+01 -.132E+01   0.119E-01 0.356E-02 0.561E-02
   0.139E+03 -.642E+02 0.857E+02   -.142E+03 0.657E+02 -.854E+02   0.240E+01 -.173E+01 -.472E-01   -.530E-02 0.304E-02 -.192E-02
   0.797E+02 -.527E+02 -.114E+04   -.825E+02 0.539E+02 0.114E+04   0.299E+01 -.132E+01 -.973E+00   -.167E-02 0.125E-02 -.946E-02
   0.114E+03 0.112E+03 -.224E+04   -.115E+03 -.114E+03 0.225E+04   -.210E-01 0.380E+00 -.556E-01   0.158E-02 -.365E-02 0.142E-02
   0.215E+03 0.379E+02 0.151E+04   -.219E+03 -.375E+02 -.151E+04   0.179E+01 -.152E+00 0.207E+01   -.115E-01 0.730E-02 0.818E-02
   -.302E+03 -.247E+03 0.213E+04   0.305E+03 0.249E+03 -.214E+04   -.754E+00 -.119E+01 0.326E+01   0.806E-02 -.317E-02 -.216E-02
   0.179E+03 -.193E+03 0.862E+03   -.182E+03 0.196E+03 -.860E+03   0.190E+01 -.134E+01 0.489E+00   0.147E-01 -.501E-02 0.720E-03
   0.148E+03 -.511E+02 -.311E+03   -.151E+03 0.523E+02 0.312E+03   0.301E+01 -.938E+00 -.928E+00   -.142E-02 -.167E-04 -.150E-01
   0.154E+03 0.815E+02 -.155E+04   -.158E+03 -.799E+02 0.155E+04   0.289E+01 -.161E+01 -.227E+01   -.101E-01 0.559E-02 -.263E-02
 -----------------------------------------------------------------------------------------------
   -.159E+02 0.143E+02 -.312E+02   0.117E-11 -.117E-11 -.109E-10   0.160E+02 -.143E+02 0.315E+02   0.340E-01 0.383E-01 -.213E+00
 
 
 POSITION                                       TOTAL-FORCE (eV/Angst)
 -----------------------------------------------------------------------------------
      6.55371      9.31195      1.18463        -1.568810     -0.767962     -1.749507
      6.84285      7.49250      2.62550        -1.128621     -1.025873      3.205509
      7.82056      6.07621      5.25100        -0.183416     -0.372617      0.064260
      8.79827      4.65991      7.87651         0.250577      0.464291     -0.257810
      9.53592      3.22017      9.99540         0.451168      0.081509      1.526184
      2.61774      3.87870      3.50067         0.649334     -1.251269      2.769353
      3.59545      2.46241      6.12617        -0.052379     -0.275650     -0.082874
      4.57317      1.04611      8.75167         0.123790      1.719139     -1.288949
     11.88223      5.56960      2.20131         0.022390     -0.379061     -0.645222
      3.71264      7.60562      9.28134         0.035207      1.045578      0.950614
      7.95842      2.03247      3.01698        -0.379680     -0.182723     -0.703125
      8.47237      0.26490      4.37584         0.427409     -1.096855      1.527380
     13.02338      8.27371      7.00134        -0.008570     -0.063979     -0.441720
      5.12743      4.48485      2.81428         0.996250      0.091324     -0.617350
      6.61816      3.96023      4.55733         0.520348     -0.182357      0.759489
      7.59587      2.54394      7.18283        -0.126055     -0.586901     -1.251771
      8.30578      1.18028      9.43663        -0.846002      0.291858      0.817524
      1.41534      1.76273      2.80700        -0.418107      0.101810      1.947377
      2.39305      0.34643      5.43250        -0.010019     -0.033653     -0.075378
      6.94406      8.35524      8.05800        -1.182601     -0.674016     -2.244752
      2.73347      4.81413      8.71430        -2.456979     -1.017452      0.925490
      9.02272      8.33183      1.96596         1.646720     -0.136684     -0.391896
     10.84326      7.57403      3.68216         0.088164     -0.355277      0.377907
     11.82097      6.15773      6.30767        -0.248198     -0.117566     -0.140483
      0.84396      1.56234      8.79856         0.835438      0.468969      0.460706
      8.03170      5.62780      1.68101         0.075988     -0.982580     -0.829168
      9.02296      4.33443      3.86366         0.015056     -0.134474      0.277502
     10.00068      2.91813      6.48916         0.181251      0.007943     -0.169002
      3.82015      2.13692      2.11332         0.672438      1.467962      1.244926
      4.79786      0.72063      4.73883        -0.081049     -0.013600      0.293360
      9.34887      8.72943      7.36433        -0.170696      0.714160     -2.480782
     10.19814      7.53196      9.24831         0.432183     -0.870020      1.146474
      3.16834      7.94822      2.98849         0.113529      0.078523      0.574175
      4.14605      6.53193      5.61399         0.429718      0.141813     -0.000380
      5.12376      5.11563      8.23950         1.563772      0.181788     -1.805943
     11.32800      9.40891      1.73061        -0.341470      0.627998     -1.559344
     10.02400      0.13611     10.04408         0.485217     -0.602604      2.126657
      7.35546      3.82659      2.42507        -1.749511      0.902224     -1.701802
      8.33317      2.41029      5.05057         0.244869     -0.196577      1.291518
      9.31088      0.99399      7.67607        -0.329208     -0.773072     -3.422860
      2.16165      1.75565      0.91516        -1.168045      0.737017     -3.299227
      3.13035      0.21279      3.30024        -0.107883      0.387756      2.919661
      7.68136      8.22159      5.92574        -0.239418      0.268595     -0.698078
      8.56691      6.87808      8.20144        -0.242060     -1.468856      1.340726
      2.47854      6.02409      4.17540         0.359650      0.449832      1.247562
      3.45626      4.60779      6.80091         0.062177      0.394451     -2.679444
      4.26558      3.23257      8.81848         0.497894     -0.857302      1.642148
     11.58056      7.44039      1.54990        -0.397000     -0.530644     -2.378445
      7.59019      7.43261      0.71390         0.517501     -1.232681     -3.846841
      8.88655      6.52099      3.30837         0.610583      0.749393      1.727494
      9.86427      5.10469      5.93387         0.226181      0.059721      0.173546
     10.84198      3.68840      8.55937         1.556508      1.255551     -0.568960
      3.44529      4.24168      1.64638         1.033714      1.223112     -2.844875
      4.66145      2.90719      4.18354         0.093037     -0.701003      0.495894
      5.63916      1.49089      6.80904         0.067189      0.009793     -0.808877
      6.46507      0.15509      9.18993         0.950859      0.150188      2.172494
      4.00964      8.71849      5.05870        -0.034306     -0.057634      0.362093
      4.98735      7.30220      7.68420         1.282331     -0.101259     -0.990893
      4.15131      5.70917      9.93081         0.619572     -0.131701      3.729482
      9.53836      0.70969      2.43320         1.621978      0.917836     -0.192320
      4.96145      8.01794      1.87283        -1.332220     -1.325029     -1.747016
      5.82436      6.04450      4.19167        -0.248311      0.603939      0.478062
      6.80207      4.62821      6.81717         0.047902      0.260597     -0.822744
      7.74191      3.24181      9.11909        -2.335252      1.107509      2.435553
      1.59925      2.43070      5.06683        -0.055077     -0.143569      0.324777
      2.57697      1.01441      7.69234         0.098445     -0.103871     -0.545960
      7.36315      9.02067      9.89547        -0.788590     -0.681810      4.151579
     10.74436      3.81225      2.70240        -1.831242      0.190683     -1.367109
      4.87541      0.70309      0.99292         2.164594      1.158356     -2.148979
      6.47617      0.23320      3.31650        -1.097983      0.988905      2.221056
     11.02718      8.24201      5.94200         0.354248      0.190776     -0.427184
     12.00489      6.82571      8.56750        -1.266420     -0.062720     -0.481460
 -----------------------------------------------------------------------------------
    total drift:                                0.094528      0.045821      0.104442


--------------------------------------------------------------------------------------------------------



  FREE ENERGIE OF THE ION-ELECTRON SYSTEM (eV)
  ---------------------------------------------------
  free  energy   TOTEN  =      -351.20961191 eV

  energy  without entropy=     -350.25765448  energy(sigma->0) =     -350.73363320
 


--------------------------------------------------------------------------------------------------------


    POTLOK:  cpu time    0.2694: real time    0.2698


--------------------------------------------------------------------------------------------------------


     LOOP+:  cpu time  304.0681: real time  304.2640
    4ORBIT:  cpu time    0.0000: real time    0.0000

 total amount of memory used by VASP MPI-rank0    68336. kBytes
=======================================================================

   base      :      30000. kBytes
   nonlr-proj:       2305. kBytes
   fftplans  :       8265. kBytes
   grid      :      13942. kBytes
   one-center:         93. kBytes
   wavefun   :      13731. kBytes
 
  
  
 General timing and accounting informations for this job:
 ========================================================
  
                  Total CPU time used (sec):      306.697
                            User time (sec):      306.190
                          System time (sec):        0.507
                         Elapsed time (sec):      307.136
  
                   Maximum memory used (kb):      191436.
                   Average memory used (kb):           0.
  
                          Minor page faults:       150390
                          Major page faults:            0
                 Voluntary context switches:          221
