 vasp.5.4.4.18Apr17-6-g9f103f2a35 (build Aug 13 2019 17:33:20) gamma-only       
  
 executed on             LinuxIFC date 2020.05.12  19:07:34
 running on   12 total cores
 distrk:  each k-point on   12 cores,    1 groups
 distr:  one band on NCORES_PER_BAND=   6 cores,    2 groups


--------------------------------------------------------------------------------------------------------


 INCAR:
 POTCAR:    PAW_PBE Ni_pv 06Sep2000               
 POTCAR:    PAW_PBE S 06Sep2000                   
 POTCAR:    PAW_PBE Ni_pv 06Sep2000               
   VRHFIN =Ni:                                                                  
   LEXCH  = PE                                                                  
   EATOM  =  3501.1230 eV,  257.3253 Ry                                         
                                                                                
   TITEL  = PAW_PBE Ni_pv 06Sep2000                                             
   LULTRA =        F    use ultrasoft PP ?                                      
   IUNSCR =        1    unscreen: 0-lin 1-nonlin 2-no                           
   RPACOR =    1.500    partial core radius                                     
   POMASS =   58.690; ZVAL   =   16.000    mass and valenz                      
   RCORE  =    2.000    outmost cutoff radius                                   
   RWIGS  =    2.000; RWIGS  =    1.058    wigner-seitz radius (au A)           
   ENMAX  =  367.986; ENMIN  =  275.989 eV                                      
   RCLOC  =    1.301    cutoff for local pot                                    
   LCOR   =        T    correct aug charges                                     
   LPAW   =        T    paw PP                                                  
   EAUG   =  703.443                                                            
   DEXC   =    0.000                                                            
   RMAX   =    2.041    core radius for proj-oper                               
   RAUG   =    1.300    factor for augmentation sphere                          
   RDEP   =    2.103    radius for radial grids                                 
   RDEPT  =    1.618    core radius for aug-charge                              
                                                                                
   Atomic configuration                                                         
    8 entries                                                                   
     n  l   j            E        occ.                                          
     1  0  0.50     -8206.4253   2.0000                                         
     2  0  0.50      -976.1748   2.0000                                         
     2  1  1.50      -839.0571   6.0000                                         
     3  0  0.50      -105.9991   2.0000                                         
     3  1  1.50       -66.4603   6.0000                                         
     3  2  2.50        -4.6458   9.0000                                         
     4  0  0.50        -4.4926   1.0000                                         
     4  3  2.50        -1.3606   0.0000                                         
   Description                                                                  
     l       E           TYP  RCUT    TYP  RCUT                                 
     1    -66.4602962     23  1.700                                             
     1     -1.3605826     23  1.700                                             
     2     -4.6457867     23  2.000                                             
     2     -6.0063693     23  2.000                                             
     0     -4.4925576     23  1.900                                             
     0     16.3626226     23  1.900                                             
  local pseudopotential read in
  partial core-charges read in
  partial kinetic energy density read in
  atomic valenz-charges read in
  non local Contribution for L=           1  read in
    real space projection operators read in
  non local Contribution for L=           1  read in
    real space projection operators read in
  non local Contribution for L=           2  read in
    real space projection operators read in
  non local Contribution for L=           2  read in
    real space projection operators read in
  non local Contribution for L=           0  read in
    real space projection operators read in
  non local Contribution for L=           0  read in
    real space projection operators read in
    PAW grid and wavefunctions read in
 
   number of l-projection  operators is LMAX  =           6
   number of lm-projection operators is LMMAX =          18
 
 POTCAR:    PAW_PBE S 06Sep2000                   
   VRHFIN =S : s2p4                                                             
   LEXCH  = PE                                                                  
   EATOM  =   276.8230 eV,   20.3459 Ry                                         
                                                                                
   TITEL  = PAW_PBE S 06Sep2000                                                 
   LULTRA =        F    use ultrasoft PP ?                                      
   IUNSCR =        1    unscreen: 0-lin 1-nonlin 2-no                           
   RPACOR =    1.500    partial core radius                                     
   POMASS =   32.066; ZVAL   =    6.000    mass and valenz                      
   RCORE  =    1.900    outmost cutoff radius                                   
   RWIGS  =    2.200; RWIGS  =    1.164    wigner-seitz radius (au A)           
   ENMAX  =  258.689; ENMIN  =  194.016 eV                                      
   ICORE  =        2    local potential                                         
   LCOR   =        T    correct aug charges                                     
   LPAW   =        T    paw PP                                                  
   EAUG   =  335.092                                                            
   DEXC   =    0.000                                                            
   RMAX   =    1.942    core radius for proj-oper                               
   RAUG   =    1.300    factor for augmentation sphere                          
   RDEP   =    1.954    radius for radial grids                                 
   RDEPT  =    1.744    core radius for aug-charge                              
                                                                                
   Atomic configuration                                                         
    6 entries                                                                   
     n  l   j            E        occ.                                          
     1  0  0.50     -2405.8406   2.0000                                         
     2  0  0.50      -211.7007   2.0000                                         
     2  1  1.50      -156.4958   6.0000                                         
     3  0  0.50       -17.2562   2.0000                                         
     3  1  0.50        -7.0085   4.0000                                         
     3  2  1.50        -6.8029   0.0000                                         
   Description                                                                  
     l       E           TYP  RCUT    TYP  RCUT                                 
     0    -17.2561641     23  1.900                                             
     0    -15.8743224     23  1.900                                             
     1     -7.0085400     23  1.900                                             
     1     -2.7779785     23  1.900                                             
     2     -6.8029130     23  1.900                                             
  local pseudopotential read in
  partial core-charges read in
  partial kinetic energy density read in
  atomic valenz-charges read in
  non local Contribution for L=           0  read in
    real space projection operators read in
  non local Contribution for L=           0  read in
    real space projection operators read in
  non local Contribution for L=           1  read in
    real space projection operators read in
  non local Contribution for L=           1  read in
    real space projection operators read in
    PAW grid and wavefunctions read in
 
   number of l-projection  operators is LMAX  =           4
   number of lm-projection operators is LMMAX =           8
 
 Optimization of the real space projectors (new method)

 maximal supplied QI-value         = 18.90
 optimisation between [QCUT,QGAM] = [ 10.77, 21.73] = [ 32.49,132.25] Ry 
 Optimized for a Real-space Cutoff    1.38 Angstroem

   l    n(q)    QCUT    max X(q) W(low)/X(q) W(high)/X(q)  e(spline) 
   1      8    10.771     2.836    0.40E-04    0.29E-04    0.12E-06
   1      8    10.771     4.023    0.10E-03    0.48E-04    0.29E-06
   2      8    10.771    73.368    0.42E-03    0.97E-04    0.44E-06
   2      8    10.771    69.010    0.42E-03    0.99E-04    0.45E-06
   0      9    10.771    54.797    0.10E-03    0.56E-04    0.74E-07
   0      9    10.771    24.266    0.89E-04    0.49E-04    0.67E-07
 Optimization of the real space projectors (new method)

 maximal supplied QI-value         = 19.84
 optimisation between [QCUT,QGAM] = [ 10.71, 21.63] = [ 32.15,130.99] Ry 
 Optimized for a Real-space Cutoff    1.19 Angstroem

   l    n(q)    QCUT    max X(q) W(low)/X(q) W(high)/X(q)  e(spline) 
   0      8    10.715   187.594    0.41E-03    0.53E-04    0.66E-07
   0      8    10.715   164.243    0.41E-03    0.53E-04    0.65E-07
   1      7    10.715    67.533    0.19E-03    0.59E-03    0.68E-07
   1      7    10.715    50.729    0.19E-03    0.58E-03    0.67E-07
  PAW_PBE Ni_pv 06Sep2000               :
 energy of atom  1       EATOM=-3501.1230
 kinetic energy error for atom=    0.0925 (will be added to EATOM!!)
  PAW_PBE S 06Sep2000                   :
 energy of atom  2       EATOM= -276.8230
 kinetic energy error for atom=    0.0033 (will be added to EATOM!!)
 
 
 POSCAR: Type_036 Type_136                       
  positions in cartesian coordinates
  No initial velocities read in
 exchange correlation table for  LEXCH =        8
   RHO(1)=    0.500       N(1)  =     2000
   RHO(2)=  100.500       N(2)  =     4000
 


--------------------------------------------------------------------------------------------------------


 ion  position               nearest neighbor table
   1  0.397  0.795  0.127-  49 2.04  61 2.11  42 2.25  50 2.36  62 2.36  26 2.46
   2  0.547  0.645  0.254-  43 2.25  62 2.26  50 2.26  63 2.36  51 2.36  27 2.53  13 2.53
   3  0.698  0.494  0.381-  64 2.08  52 2.24  44 2.25  51 2.26  63 2.26  14 2.53  28 2.53
   4  0.114  0.412  0.169-  53 2.13  45 2.25  68 2.26   7 2.28  65 2.36  54 2.36  29 2.53  16 2.53

   5  0.264  0.261  0.296-  46 2.25  65 2.26  54 2.26  55 2.36  66 2.36  17 2.53  30 2.53
   6  0.414  0.111  0.423-  56 2.10  67 2.12  55 2.26  66 2.26  47 2.31  31 2.53  18 2.53
   7  0.994  0.596  0.103-  48 2.00  45 2.13  53 2.21   4 2.28  68 2.31  20 2.46
   8  0.098  0.785  0.451-  58 2.04  59 2.08  72 2.10  37 2.12
   9  0.713  0.215  0.146-  38 1.99  39 2.09  60 2.15  10 2.28  70 2.34  36 2.42
  10  0.831  0.028  0.212-  39 2.25  60 2.26  70 2.26   9 2.28  57 2.36  71 2.36  23 2.53  33 2.53

  11  0.981  0.878  0.338-  40 2.25  57 2.26  71 2.26  58 2.36  72 2.36  34 2.53  24 2.53
  12  0.363  0.553  0.113-  62 2.04  61 2.12  53 2.16  38 2.21
  13  0.508  0.420  0.220-  54 2.25  62 2.26  38 2.26  39 2.36  63 2.36  27 2.53   2 2.53
  14  0.658  0.270  0.347-  64 2.05  55 2.25  63 2.26  39 2.26  40 2.36   3 2.53  28 2.53
  15  0.797  0.114  0.459-  40 2.02  37 2.09  64 2.09  56 2.12
  16  0.074  0.187  0.136-  41 2.06  60 2.25  68 2.26  42 2.36  65 2.36  20 2.53   4 2.53  29 2.53

  17  0.224  0.037  0.263-  57 2.25  42 2.26  65 2.26  66 2.36  43 2.36   5 2.53  30 2.53
  18  0.375  0.886  0.390-  67 2.02  58 2.25  66 2.26  43 2.26  19 2.33  44 2.36  31 2.53   6 2.53

  19  0.436  0.725  0.475-  59 2.03  44 2.10  67 2.10  18 2.33
  20  0.074  0.363  0.049-  41 2.01  68 2.06  53 2.08  29 2.46   7 2.46  16 2.53
  21  0.079  0.506  0.417-  46 2.01  47 2.15  72 2.17  52 2.18
  22  0.626  0.847  0.087-  69 2.03  49 2.07  50 2.15  48 2.32  70 2.36  23 2.44  36 2.47
  23  0.791  0.804  0.178-  50 2.25  70 2.26  48 2.26  71 2.36  45 2.36  22 2.44  10 2.53  33 2.53

  24  0.941  0.653  0.305-  51 2.25  71 2.26  45 2.26  46 2.36  72 2.36  34 2.53  11 2.53
  25  0.020  0.177  0.422-  40 2.03  52 2.12  37 2.13  66 2.13
  26  0.591  0.594  0.080-  49 2.03  50 2.05  38 2.06   1 2.46
  27  0.732  0.460  0.187-  68 2.25  50 2.26  38 2.26  51 2.36  39 2.36  13 2.53   2 2.53
  28  0.882  0.310  0.314-  52 2.11  65 2.25  39 2.26  51 2.26  40 2.36   3 2.53  14 2.53
  29  0.299  0.227  0.102-  41 2.03  53 2.16  54 2.36  42 2.36  20 2.46   4 2.53  16 2.53
  30  0.449  0.076  0.229-  70 2.25  42 2.26  54 2.26  55 2.36  43 2.36  17 2.53   5 2.53
  31  0.599  0.926  0.356-  56 2.16  71 2.25  55 2.26  43 2.26  44 2.36  32 2.42   6 2.53  18 2.53

  32  0.734  0.819  0.451-  56 2.04  44 2.05  72 2.06  31 2.42
  33  0.015  0.843  0.144-  61 2.11  48 2.26  60 2.26  45 2.36  57 2.36  23 2.53  10 2.53
  34  0.166  0.693  0.271-  62 2.25  57 2.26  45 2.26  46 2.36  58 2.36  11 2.53  24 2.53
  35  0.316  0.543  0.398-  59 2.06  47 2.13  63 2.25  58 2.26  46 2.26
  36  0.768  0.003  0.081-  69 2.02  48 2.03  60 2.06  70 2.09   9 2.42  22 2.47
  37  0.012  0.003  0.477-  15 2.09   8 2.12  25 2.13  40 2.56
  38  0.586  0.406  0.117-   9 1.99  26 2.06  12 2.21  13 2.26  27 2.26
  39  0.736  0.256  0.244-   9 2.09  10 2.25  28 2.26  14 2.26  13 2.36  27 2.36
  40  0.886  0.105  0.371-  15 2.02  25 2.03  11 2.25  14 2.36  28 2.36  37 2.56  64 2.79
  41  0.174  0.152  0.047-  20 2.01  29 2.03  16 2.06  42 2.76
  42  0.303  0.023  0.160-   1 2.25  30 2.26  17 2.26  16 2.36  29 2.36  41 2.76
  43  0.453  0.872  0.286-   2 2.25  18 2.26  31 2.26  17 2.36  30 2.36
  44  0.603  0.722  0.413-  32 2.05  19 2.10   3 2.25  31 2.36  18 2.36  67 2.79
  45  0.019  0.639  0.202-   7 2.13   4 2.25  24 2.26  34 2.26  23 2.36  33 2.36
  46  0.170  0.489  0.329-  21 2.01   5 2.25  35 2.26  34 2.36  24 2.36  47 2.56
  47  0.289  0.352  0.430-  35 2.13  21 2.15   6 2.31  46 2.56
  48  0.869  0.789  0.075-   7 2.00  36 2.03  33 2.26  23 2.26  22 2.32
  49  0.483  0.782  0.037-  26 2.03   1 2.04  22 2.07
  50  0.636  0.692  0.160-  26 2.05  22 2.15  23 2.25  27 2.26   2 2.26   1 2.36
  51  0.787  0.542  0.287-  24 2.25   3 2.26  28 2.26  27 2.36   2 2.36
  52  0.931  0.397  0.399-  28 2.11  25 2.12  21 2.18   3 2.24
  53  0.215  0.453  0.085-  20 2.08   4 2.13  29 2.16  12 2.16   7 2.21
  54  0.353  0.308  0.202-  13 2.25   5 2.26  30 2.26  29 2.36   4 2.36
  55  0.503  0.158  0.329-  14 2.25   6 2.26  31 2.26   5 2.36  30 2.36  56 2.75
  56  0.634  0.033  0.441-  32 2.04   6 2.10  15 2.12  31 2.16  55 2.75
  57  0.070  0.925  0.245-  17 2.25  34 2.26  11 2.26  10 2.36  33 2.36
  58  0.220  0.775  0.372-   8 2.04  18 2.25  35 2.26  34 2.36  11 2.36  59 2.73
  59  0.284  0.639  0.488-  19 2.03  35 2.06   8 2.08  58 2.73
  60  0.920  0.075  0.118-  36 2.06   9 2.15  16 2.25  10 2.26  33 2.26
  61  0.213  0.759  0.097-  33 2.11   1 2.11  12 2.12  62 2.64
  62  0.350  0.641  0.203-  12 2.04  34 2.25  13 2.26   2 2.26   1 2.36  61 2.64
  63  0.501  0.491  0.330-  35 2.25   3 2.26  14 2.26   2 2.36  13 2.36
  64  0.691  0.329  0.439-  14 2.05   3 2.08  15 2.09  40 2.79
  65  0.067  0.258  0.245-  28 2.25   5 2.26  17 2.26   4 2.36  16 2.36
  66  0.218  0.108  0.372-  25 2.13  18 2.26   6 2.26  17 2.36   5 2.36
  67  0.403  0.942  0.481-  18 2.02  19 2.10   6 2.12  44 2.79
  68  0.917  0.408  0.118-  20 2.06  27 2.25  16 2.26   4 2.26   7 2.31
  69  0.605  0.005  0.023-  36 2.02  22 2.03
  70  0.634  0.025  0.160-  36 2.09  30 2.25  10 2.26  23 2.26   9 2.34  22 2.36
  71  0.784  0.874  0.287-  31 2.25  24 2.26  11 2.26  23 2.36  10 2.36
  72  0.934  0.724  0.414-  32 2.06   8 2.10  21 2.17  11 2.36  24 2.36
 
  LATTYP: Found a base centered orthorhombic cell.
 ALAT       =    11.4527836704
 B/A-ratio  =     1.4485816945
 C/A-ratio  =     1.8059804630
  
  Lattice vectors:
  
 A1 = (  10.0797329849,   0.0000000000,   0.0000000000)
 A2 = (  -3.5732980427,  -9.4251025535,   0.0000000000)
 A3 = (   0.0000000000,   0.0000000000, -20.6835035552)


Analysis of symmetry for initial positions (statically):
=====================================================================
 Subroutine PRICEL returns:
 Original cell was already a primitive cell.
 

 Routine SETGRP: Setting up the symmetry group for a 
 base centered orthorhombic supercell.


 Subroutine GETGRP returns: Found  1 space group operations
 (whereof  1 operations were pure point group operations)
 out of a pool of  8 trial point group operations.


The static configuration has the point symmetry C_1 .


Analysis of symmetry for dynamics (positions and initial velocities):
=====================================================================
 Subroutine PRICEL returns:
 Original cell was already a primitive cell.
 

 Routine SETGRP: Setting up the symmetry group for a 
 base centered orthorhombic supercell.


 Subroutine GETGRP returns: Found  1 space group operations
 (whereof  1 operations were pure point group operations)
 out of a pool of  8 trial point group operations.


The dynamic configuration has the point symmetry C_1 .


 Subroutine INISYM returns: Found  1 space group operations
 (whereof  1 operations are pure point group operations),
 and found     1 'primitive' translations

 
 
 KPOINTS: gamma-point-only calculation. no periodi

Automatic generation of k-mesh.
Space group operators:
 irot       det(A)        alpha          n_x          n_y          n_z        tau_x        tau_y        tau_z
    1     1.000000     0.000000     1.000000     0.000000     0.000000     0.000000     0.000000     0.000000
 
 Subroutine IBZKPT returns following result:
 ===========================================
 
 Found      1 irreducible k-points:
 
 Following reciprocal coordinates:
            Coordinates               Weight
  0.000000  0.000000  0.000000      1.000000
 
 Following cartesian coordinates:
            Coordinates               Weight
  0.000000  0.000000  0.000000      1.000000
 


--------------------------------------------------------------------------------------------------------




 Dimension of arrays:
   k-points           NKPTS =      1   k-points in BZ     NKDIM =      1   number of bands    NBANDS=    476
   number of dos      NEDOS =    301   number of ions     NIONS =     72
   non local maximal  LDIM  =      6   non local SUM 2l+1 LMDIM =     18
   total plane-waves  NPLWV = 314928
   max r-space proj   IRMAX =   1817   max aug-charges    IRDMAX=   5248
   dimension x,y,z NGX =    54 NGY =   54 NGZ =  108
   dimension x,y,z NGXF=   108 NGYF=  108 NGZF=  216
   support grid    NGXF=   108 NGYF=  108 NGZF=  216
   ions per type =              36  36
   NGX,Y,Z   is equivalent  to a cutoff of   8.91,  8.91,  8.68 a.u.
   NGXF,Y,Z  is equivalent  to a cutoff of  17.81, 17.81, 17.36 a.u.

 SYSTEM =  "Millerite NiS"                         
 POSCAR =  Type_036 Type_136                       

 Startparameter for this run:
   NWRITE =      2    write-flag & timer
   PREC   = normal    normal or accurate (medium, high low for compatibility)
   ISTART =      0    job   : 0-new  1-cont  2-samecut
   ICHARG =      2    charge: 1-file 2-atom 10-const
   ISPIN  =      1    spin polarized calculation?
   LNONCOLLINEAR =      F non collinear calculations
   LSORBIT =      F    spin-orbit coupling
   INIWAV =      1    electr: 0-lowe 1-rand  2-diag
   LASPH  =      F    aspherical Exc in radial PAW
   METAGGA=      F    non-selfconsistent MetaGGA calc.

 Electronic Relaxation 1
   ENCUT  =  450.0 eV  33.07 Ry    5.75 a.u.  17.43 17.43 35.78*2*pi/ulx,y,z
   ENINI  =  450.0     initial cutoff
   ENAUG  =  703.4 eV  augmentation charge cutoff
   NELM   =    100;   NELMIN=  2; NELMDL= -5     # of ELM steps 
   EDIFF  = 0.1E-03   stopping-criterion for ELM
   LREAL  =      T    real-space projection
   NLSPLINE    = F    spline interpolate recip. space projectors
   LCOMPAT=      F    compatible to vasp.4.4
   GGA_COMPAT  = T    GGA compatible to vasp.4.4-vasp.4.6
   LMAXPAW     = -100 max onsite density
   LMAXMIX     =    2 max onsite mixed and CHGCAR
   VOSKOWN=      0    Vosko Wilk Nusair interpolation
   ROPT   =   -0.00050  -0.00050
 Ionic relaxation
   EDIFFG = 0.1E-02   stopping-criterion for IOM
   NSW    =      0    number of steps for IOM
   NBLOCK =      1;   KBLOCK =      1    inner block; outer block 
   IBRION =     -1    ionic relax: 0-MD 1-quasi-New 2-CG
   NFREE  =      0    steps in history (QN), initial steepest desc. (CG)
   ISIF   =      2    stress and relaxation
   IWAVPR =     10    prediction:  0-non 1-charg 2-wave 3-comb
   ISYM   =      2    0-nonsym 1-usesym 2-fastsym
   LCORR  =      T    Harris-Foulkes like correction to forces

   POTIM  = 0.5000    time-step for ionic-motion
   TEIN   =    0.0    initial temperature
   TEBEG  =    0.0;   TEEND  =   0.0 temperature during run
   SMASS  =  -3.00    Nose mass-parameter (am)
   estimated Nose-frequenzy (Omega)   =  0.10E-29 period in steps =****** mass=  -0.232E-26a.u.
   SCALEE = 1.0000    scale energy and forces
   NPACO  =    256;   APACO  = 16.0  distance and # of slots for P.C.
   PSTRESS=    0.0 pullay stress

  Mass of Ions in am
   POMASS =  58.69 32.07
  Ionic Valenz
   ZVAL   =  16.00  6.00
  Atomic Wigner-Seitz radii
   RWIGS  =  -1.00 -1.00
  virtual crystal weights 
   VCA    =   1.00  1.00
   NELECT =     792.0000    total number of electrons
   NUPDOWN=      -1.0000    fix difference up-down

 DOS related values:
   EMIN   =  10.00;   EMAX   =-10.00  energy-range for DOS
   EFERMI =   0.00
   ISMEAR =     0;   SIGMA  =   0.20  broadening in eV -4-tet -1-fermi 0-gaus

 Electronic relaxation 2 (details)
   IALGO  =     38    algorithm
   LDIAG  =      T    sub-space diagonalisation (order eigenvalues)
   LSUBROT=      F    optimize rotation matrix (better conditioning)
   TURBO    =      0    0=normal 1=particle mesh
   IRESTART =      0    0=no restart 2=restart with 2 vectors
   NREBOOT  =      0    no. of reboots
   NMIN     =      0    reboot dimension
   EREF     =   0.00    reference energy to select bands
   IMIX   =      4    mixing-type and parameters
     AMIX     =   0.40;   BMIX     =  1.00
     AMIX_MAG =   1.60;   BMIX_MAG =  1.00
     AMIN     =   0.10
     WC   =   100.;   INIMIX=   1;  MIXPRE=   1;  MAXMIX= -45

 Intra band minimization:
   WEIMIN = 0.0000     energy-eigenvalue tresh-hold
   EBREAK =  0.53E-07  absolut break condition
   DEPER  =   0.30     relativ break condition  

   TIME   =   0.40     timestep for ELM

  volume/ion in A,a.u.               =      27.29       184.17
  Fermi-wavevector in a.u.,A,eV,Ry     =   1.209289  2.285225 19.896891  1.462380
  Thomas-Fermi vector in A             =   2.344871
 
 Write flags
   LWAVE        =      F    write WAVECAR
   LDOWNSAMPLE  =      F    k-point downsampling of WAVECAR
   LCHARG       =      F    write CHGCAR
   LVTOT        =      F    write LOCPOT, total local potential
   LVHAR        =      F    write LOCPOT, Hartree potential only
   LELF         =      F    write electronic localiz. function (ELF)
   LORBIT       =      0    0 simple, 1 ext, 2 COOP (PROOUT), +10 PAW based schemes


 Dipole corrections
   LMONO  =      F    monopole corrections only (constant potential shift)
   LDIPOL =      F    correct potential (dipole corrections)
   IDIPOL =      0    1-x, 2-y, 3-z, 4-all directions 
   EPSILON=  1.0000000 bulk dielectric constant

 Exchange correlation treatment:
   GGA     =    --    GGA type
   LEXCH   =     8    internal setting for exchange type
   VOSKOWN=      0    Vosko Wilk Nusair interpolation
   LHFCALC =     F    Hartree Fock is set to
   LHFONE  =     F    Hartree Fock one center treatment
   AEXX    =    0.0000 exact exchange contribution

 Linear response parameters
   LEPSILON=     F    determine dielectric tensor
   LRPA    =     F    only Hartree local field effects (RPA)
   LNABLA  =     F    use nabla operator in PAW spheres
   LVEL    =     F    velocity operator in full k-point grid
   LINTERFAST=   F  fast interpolation
   KINTER  =     0    interpolate to denser k-point grid
   CSHIFT  =0.1000    complex shift for real part using Kramers Kronig
   OMEGAMAX=  -1.0    maximum frequency
   DEG_THRESHOLD= 0.2000000E-02 threshold for treating states as degnerate
   RTIME   =   -0.100 relaxation time in fs
  (WPLASMAI=    0.000 imaginary part of plasma frequency in eV, 0.658/RTIME)
   DFIELD  = 0.0000000 0.0000000 0.0000000 field for delta impulse in time
 
 Orbital magnetization related:
   ORBITALMAG=     F  switch on orbital magnetization
   LCHIMAG   =     F  perturbation theory with respect to B field
   DQ        =  0.001000  dq finite difference perturbation B field
   LLRAUG    =     F  two centre corrections for induced B field



--------------------------------------------------------------------------------------------------------


 Static calculation
 charge density and potential will be updated during run
 non-spin polarized calculation
 Variant of blocked Davidson
 Davidson routine will perform the subspace rotation
 perform sub-space diagonalisation
    after iterative eigenvector-optimisation
 modified Broyden-mixing scheme, WC =      100.0
 initial mixing is a Kerker type mixing with AMIX =  0.4000 and BMIX =      1.0000
 Hartree-type preconditioning will be used
 using additional bands           80
 real space projection scheme for non local part
 use partial core corrections
 calculate Harris-corrections to forces 
   (improved forces if not selfconsistent)
 use gradient corrections 
 use of overlap-Matrix (Vanderbilt PP)
 Gauss-broadening in eV      SIGMA  =   0.20


--------------------------------------------------------------------------------------------------------


  energy-cutoff  :      450.00
  volume of cell :     1964.98
      direct lattice vectors                 reciprocal lattice vectors
    10.079732985  0.000000000  0.000000000     0.099208977 -0.037612667  0.000000000
     3.573298043  9.425102554  0.000000000     0.000000000  0.106099641  0.000000000
     0.000000000  0.000000000 20.683503555     0.000000000  0.000000000  0.048347708

  length of vectors
    10.079732985 10.079732985 20.683503555     0.106099641  0.106099641  0.048347708


 
 k-points in units of 2pi/SCALE and weight: gamma-point-only calculation. no periodi
   0.00000000  0.00000000  0.00000000       1.000
 
 k-points in reciprocal lattice and weights: gamma-point-only calculation. no periodi
   0.00000000  0.00000000  0.00000000       1.000
 
 position of ions in fractional coordinates (direct lattice) 
   0.39705889  0.79495179  0.12693702
   0.54732740  0.64468328  0.25387405
   0.69759592  0.49441476  0.38081107
   0.11381506  0.41152895  0.16924937
   0.26408357  0.26126044  0.29618639
   0.41435209  0.11099193  0.42312341
   0.99441749  0.59575216  0.10273788
   0.09762195  0.78514870  0.45124449
   0.71275590  0.21489686  0.14642042
   0.83057123  0.02810611  0.21156171
   0.98083975  0.87783760  0.33849873
   0.36346373  0.55276722  0.11293097
   0.50762556  0.42017912  0.22033653
   0.65789407  0.26991061  0.34727355
   0.79744338  0.11417033  0.45911551
   0.07411322  0.18702479  0.13571184
   0.22438173  0.03675628  0.26264887
   0.37465025  0.88648777  0.38958589
   0.43631635  0.72457194  0.47451127
   0.07351818  0.36310993  0.04854701
   0.07944906  0.50633816  0.41675318
   0.62632514  0.84742784  0.08716073
   0.79086939  0.80360196  0.17802418
   0.94113790  0.65333344  0.30496121
   0.01981377  0.17726004  0.42167984
   0.59105203  0.59402674  0.08023167
   0.73212972  0.45988096  0.18679900
   0.88239823  0.30961245  0.31373603
   0.29861738  0.22672664  0.10217432
   0.44888589  0.07645812  0.22911134
   0.59915440  0.92618961  0.35604837
   0.73351063  0.81916240  0.45143852
   0.01537355  0.84330380  0.14448666
   0.16564206  0.69303529  0.27142369
   0.31591057  0.54276677  0.39836071
   0.76797028  0.00276843  0.08096693
   0.01223592  0.00269780  0.47732456
   0.58579929  0.40599939  0.11724657
   0.73606781  0.25573088  0.24418359
   0.88633632  0.10546236  0.37112062
   0.17372602  0.15156063  0.04701013
   0.30255546  0.02257655  0.15955891
   0.45282398  0.87230804  0.28649593
   0.60309249  0.72203952  0.41343296
   0.01931164  0.63915371  0.20187125
   0.16958015  0.48888520  0.32880827
   0.28940301  0.35237266  0.43003104
   0.86904312  0.78942223  0.07493423
   0.48294735  0.78222199  0.03666825
   0.63635413  0.69187455  0.15995199
   0.78662264  0.54160604  0.28688901
   0.93140521  0.39660774  0.39913716
   0.21495824  0.45250887  0.08499262
   0.35311030  0.30845171  0.20226433
   0.50337881  0.15818320  0.32920136
   0.63396861  0.03289573  0.44149718
   0.06986647  0.92502888  0.24457667
   0.22013498  0.77476036  0.37151370
   0.28429750  0.63897332  0.48763482
   0.91959796  0.07529739  0.11763965
   0.21256414  0.75944775  0.09707732
   0.35047896  0.64131972  0.20265741
   0.50074748  0.49105120  0.32959444
   0.69075735  0.32912563  0.43891476
   0.06723514  0.25789688  0.24496976
   0.21750365  0.10762837  0.37190678
   0.40281156  0.94184760  0.48112629
   0.91696662  0.40816539  0.11803273
   0.60533500  0.00546091  0.02306267
   0.63372279  0.02474255  0.16034507
   0.78399131  0.87447404  0.28728210
   0.93425982  0.72420553  0.41421912
 
 position of ions in cartesian coordinates  (Angst):
   6.84284728  7.49250214  2.62550239
   7.82055958  6.07620600  5.25100480
   8.79827188  4.65990985  7.87650718
   2.61774104  3.87870257  3.50066986
   3.59545334  2.46240643  6.12617225
   4.57316564  1.04611029  8.75167464
  12.15226283  5.61502523  2.12497939
   3.78957350  7.40010703  9.33331705
   7.95227967  2.02542499  3.02848734
   8.47236779  0.26490301  4.37583732
  13.02337813  8.27370942  7.00133973
   5.63881932  5.20988769  2.33580818
   6.61815534  3.96023129  4.55733130
   7.59586764  2.54393515  7.18283371
   8.44598098  1.07606705  9.49611731
   1.41533680  1.76272786  2.80699637
   2.39304911  0.34643173  5.43249877
   6.94405944  8.35523814  8.05800116
   6.98706377  6.82916480  9.81455549
   2.03854359  3.42234830  1.00412225
   2.61012244  4.77228908  8.61991588
   9.34130248  7.98709434  1.80278922
  10.84326159  7.57403086  3.68216384
  11.82097388  6.15773471  6.30766623
   0.83312049  1.67069402  8.72181652
   8.08028120  5.59876296  1.65947207
   9.02296382  4.33442523  3.86365782
  10.00067612  2.91812908  6.48916021
   3.82014528  2.13692181  2.11332289
   4.79785758  0.72062566  4.73882528
   9.34886792  8.72943208  7.36432769
  10.32070271  7.72068963  9.33733020
   3.16833707  7.94822479  2.98849035
   4.14604938  6.53192865  5.61399275
   5.12376167  5.11563251  8.23949514
   7.75082776  0.02609273  1.67467989
   0.13297485  0.02542708  9.87274428
   7.35545728  3.82658586  2.42506979
   8.33316958  2.41028972  5.05057219
   9.31088188  0.99399359  7.67607458
   2.29268316  1.42847448  0.97233409
   3.13035103  0.21278630  3.30023726
   7.68136138  8.22159271  5.92573965
   8.65907368  6.80529657  8.55124204
   2.47854283  6.02408928  4.17540472
   3.45625514  4.60779315  6.80090710
   4.17623757  3.32114846  8.89454846
  11.58056352  7.44038543  1.54990233
   7.66309261  7.37252243  0.75842783
   8.88655369  6.52098861  3.30836755
   9.86426599  5.10469246  5.93386996
  10.80551347  3.73806859  8.25555480
   3.78367070  4.26494251  1.75794521
   4.66144744  2.90718904  4.18353503
   5.63915974  1.49089290  6.80903742
   6.50778055  0.31004565  9.13170851
   4.00963925  8.71849203  5.05870249
   4.98735154  7.30219589  7.68420489
   5.14888499  6.02238904 10.08599657
   9.53836188  0.70968561  2.43320010
   4.85632289  7.15787292  2.00789902
   5.82436087  6.04450409  4.19166532
   6.80207317  4.62820796  6.81716773
   8.13871358  3.10204282  9.07829498
   1.59925463  2.43070453  5.06683280
   2.57696692  1.01440839  7.69233519
   7.42573519  8.87701025  9.95137726
  10.70127531  3.84700067  2.44133041
   6.12112866  0.05146963  0.47701675
   6.47616907  0.23320111  3.31649787
  11.02717941  8.24200752  5.94200025
  12.00489171  6.82571138  8.56750266
 


--------------------------------------------------------------------------------------------------------


 use parallel FFT for orbitals z direction half grid
 k-point  1 :   0.0000 0.0000 0.0000  plane waves:   21301

 maximum and minimum number of plane-waves per node :      3554     3548

 maximum number of plane-waves:     21301
 maximum index in each direction: 
   IXMAX=   17   IYMAX=   17   IZMAX=   35
   IXMIN=  -17   IYMIN=  -17   IZMIN=    0


 real space projection operators:
  total allocation   :      11163.84 KBytes
  max/ min on nodes  :       1866.95       1854.50


 parallel 3D FFT for wavefunctions:
    minimum data exchange during FFTs selected (reduces bandwidth)
 parallel 3D FFT for charge:
    minimum data exchange during FFTs selected (reduces bandwidth)


 total amount of memory used by VASP MPI-rank0    68405. kBytes
=======================================================================

   base      :      30000. kBytes
   nonlr-proj:       2290. kBytes
   fftplans  :       8265. kBytes
   grid      :      13942. kBytes
   one-center:         93. kBytes
   wavefun   :      13815. kBytes
 
     INWAV:  cpu time    0.0000: real time    0.0000
 Broyden mixing: mesh for mixing (old mesh)
   NGX = 35   NGY = 35   NGZ = 71
  (NGX  =108   NGY  =108   NGZ  =216)
  gives a total of  86975 points

 initial charge density was supplied:
 charge density of overlapping atoms calculated
 number of electron     792.0000000 magnetization 
 keeping initial charge density in first step


--------------------------------------------------------------------------------------------------------


 Maximum index for non-local projection operator          301
 Maximum index for augmentation-charges          472 (set IRDMAX)


--------------------------------------------------------------------------------------------------------


 First call to EWALD:  gamma=   0.142
 Maximum number of real-space cells 3x 3x 2
 Maximum number of reciprocal cells 2x 2x 4

    FEWALD:  cpu time    0.0050: real time    0.0050


--------------------------------------- Iteration      1(   1)  ---------------------------------------


    POTLOK:  cpu time    0.2563: real time    0.2570
    SETDIJ:  cpu time    0.0185: real time    0.0185
     EDDAV:  cpu time    6.9114: real time    6.9127
       DOS:  cpu time    0.0023: real time    0.0023
    --------------------------------------------
      LOOP:  cpu time    7.1885: real time    7.1906

 eigenvalue-minimisations  :  1176
 total energy-change (2. order) : 0.9910411E+04  (-0.5133949E+05)
 number of electron     792.0000000 magnetization 
 augmentation part      792.0000000 magnetization 

 Free energy of the ion-electron system (eV)
  ---------------------------------------------------
  alpha Z        PSCENC =      1893.09323658
  Ewald energy   TEWEN  =    221668.30642178
  -Hartree energ DENC   =   -343873.77032686
  -exchange      EXHF   =         0.00000000
  -V(xc)+E(xc)   XCENC  =      3679.67291378
  PAW double counting   =    112729.53333415  -117641.51188735
  entropy T*S    EENTRO =        -0.42691984
  eigenvalues    EBANDS =     -4547.09073097
  atomic energy  EATOM  =    136002.60505376
  Solvation  Ediel_sol  =         0.00000000
  ---------------------------------------------------
  free energy    TOTEN  =      9910.41109503 eV

  energy without entropy =     9910.83801487  energy(sigma->0) =     9910.62455495


--------------------------------------------------------------------------------------------------------




--------------------------------------- Iteration      1(   2)  ---------------------------------------


     EDDAV:  cpu time    6.1816: real time    6.1832
       DOS:  cpu time    0.0013: real time    0.0013
    --------------------------------------------
      LOOP:  cpu time    6.1829: real time    6.1844

 eigenvalue-minimisations  :  1012
 total energy-change (2. order) :-0.9306876E+04  (-0.8973054E+04)
 number of electron     792.0000000 magnetization 
 augmentation part      792.0000000 magnetization 

 Free energy of the ion-electron system (eV)
  ---------------------------------------------------
  alpha Z        PSCENC =      1893.09323658
  Ewald energy   TEWEN  =    221668.30642178
  -Hartree energ DENC   =   -343873.77032686
  -exchange      EXHF   =         0.00000000
  -V(xc)+E(xc)   XCENC  =      3679.67291378
  PAW double counting   =    112729.53333415  -117641.51188735
  entropy T*S    EENTRO =        -0.80144720
  eigenvalues    EBANDS =    -13853.59261133
  atomic energy  EATOM  =    136002.60505376
  Solvation  Ediel_sol  =         0.00000000
  ---------------------------------------------------
  free energy    TOTEN  =       603.53468731 eV

  energy without entropy =      604.33613451  energy(sigma->0) =      603.93541091


--------------------------------------------------------------------------------------------------------




--------------------------------------- Iteration      1(   3)  ---------------------------------------


     EDDAV:  cpu time    6.4357: real time    6.4383
       DOS:  cpu time    0.0016: real time    0.0015
    --------------------------------------------
      LOOP:  cpu time    6.4372: real time    6.4398

 eigenvalue-minimisations  :  1072
 total energy-change (2. order) :-0.9437909E+03  (-0.8972626E+03)
 number of electron     792.0000000 magnetization 
 augmentation part      792.0000000 magnetization 

 Free energy of the ion-electron system (eV)
  ---------------------------------------------------
  alpha Z        PSCENC =      1893.09323658
  Ewald energy   TEWEN  =    221668.30642178
  -Hartree energ DENC   =   -343873.77032686
  -exchange      EXHF   =         0.00000000
  -V(xc)+E(xc)   XCENC  =      3679.67291378
  PAW double counting   =    112729.53333415  -117641.51188735
  entropy T*S    EENTRO =        -1.08197833
  eigenvalues    EBANDS =    -14797.10293267
  atomic energy  EATOM  =    136002.60505376
  Solvation  Ediel_sol  =         0.00000000
  ---------------------------------------------------
  free energy    TOTEN  =      -340.25616516 eV

  energy without entropy =     -339.17418683  energy(sigma->0) =     -339.71517600


--------------------------------------------------------------------------------------------------------




--------------------------------------- Iteration      1(   4)  ---------------------------------------


     EDDAV:  cpu time    7.0049: real time    7.0064
       DOS:  cpu time    0.0013: real time    0.0013
    --------------------------------------------
      LOOP:  cpu time    7.0062: real time    7.0078

 eigenvalue-minimisations  :  1144
 total energy-change (2. order) :-0.5806064E+02  (-0.5739262E+02)
 number of electron     792.0000000 magnetization 
 augmentation part      792.0000000 magnetization 

 Free energy of the ion-electron system (eV)
  ---------------------------------------------------
  alpha Z        PSCENC =      1893.09323658
  Ewald energy   TEWEN  =    221668.30642178
  -Hartree energ DENC   =   -343873.77032686
  -exchange      EXHF   =         0.00000000
  -V(xc)+E(xc)   XCENC  =      3679.67291378
  PAW double counting   =    112729.53333415  -117641.51188735
  entropy T*S    EENTRO =        -1.08885778
  eigenvalues    EBANDS =    -14855.15669442
  atomic energy  EATOM  =    136002.60505376
  Solvation  Ediel_sol  =         0.00000000
  ---------------------------------------------------
  free energy    TOTEN  =      -398.31680636 eV

  energy without entropy =     -397.22794858  energy(sigma->0) =     -397.77237747


--------------------------------------------------------------------------------------------------------




--------------------------------------- Iteration      1(   5)  ---------------------------------------


     EDDAV:  cpu time    6.9804: real time    6.9820
       DOS:  cpu time    0.0012: real time    0.0012
    CHARGE:  cpu time    0.2151: real time    0.2152
    MIXING:  cpu time    0.0077: real time    0.0077
    --------------------------------------------
      LOOP:  cpu time    7.2045: real time    7.2062

 eigenvalue-minimisations  :  1192
 total energy-change (2. order) :-0.1921098E+01  (-0.1917931E+01)
 number of electron     791.9999813 magnetization 
 augmentation part      286.8613143 magnetization 

 Broyden mixing:
  rms(total) = 0.95444E+01    rms(broyden)= 0.95349E+01
  rms(prec ) = 0.98903E+01
  weight for this iteration     100.00

 Free energy of the ion-electron system (eV)
  ---------------------------------------------------
  alpha Z        PSCENC =      1893.09323658
  Ewald energy   TEWEN  =    221668.30642178
  -Hartree energ DENC   =   -343873.77032686
  -exchange      EXHF   =         0.00000000
  -V(xc)+E(xc)   XCENC  =      3679.67291378
  PAW double counting   =    112729.53333415  -117641.51188735
  entropy T*S    EENTRO =        -1.09053618
  eigenvalues    EBANDS =    -14857.07611363
  atomic energy  EATOM  =    136002.60505376
  Solvation  Ediel_sol  =         0.00000000
  ---------------------------------------------------
  free energy    TOTEN  =      -400.23790396 eV

  energy without entropy =     -399.14736779  energy(sigma->0) =     -399.69263588


--------------------------------------------------------------------------------------------------------




--------------------------------------- Iteration      1(   6)  ---------------------------------------


    POTLOK:  cpu time    0.2460: real time    0.2460
    SETDIJ:  cpu time    0.0172: real time    0.0172
     EDDAV:  cpu time    6.9840: real time    6.9850
       DOS:  cpu time    0.0011: real time    0.0011
    CHARGE:  cpu time    0.2095: real time    0.2095
    MIXING:  cpu time    0.0093: real time    0.0093
    --------------------------------------------
      LOOP:  cpu time    7.4671: real time    7.4682

 eigenvalue-minimisations  :  1200
 total energy-change (2. order) :-0.7054461E+02  (-0.9247131E+02)
 number of electron     791.9999844 magnetization 
 augmentation part      344.1568012 magnetization 

 Broyden mixing:
  rms(total) = 0.15904E+02    rms(broyden)= 0.15902E+02
  rms(prec ) = 0.16585E+02
  weight for this iteration     100.00

 eigenvalues of (default mixing * dielectric matrix)
  average eigenvalue GAMMA=   0.2392
  0.2392

 Free energy of the ion-electron system (eV)
  ---------------------------------------------------
  alpha Z        PSCENC =      1893.09323658
  Ewald energy   TEWEN  =    221668.30642178
  -Hartree energ DENC   =   -341151.30984078
  -exchange      EXHF   =         0.00000000
  -V(xc)+E(xc)   XCENC  =      3606.06606594
  PAW double counting   =    117367.85806608  -122049.86171654
  entropy T*S    EENTRO =        -0.88106833
  eigenvalues    EBANDS =    -17806.65873405
  atomic energy  EATOM  =    136002.60505376
  Solvation  Ediel_sol  =         0.00000000
  ---------------------------------------------------
  free energy    TOTEN  =      -470.78251557 eV

  energy without entropy =     -469.90144723  energy(sigma->0) =     -470.34198140


--------------------------------------------------------------------------------------------------------




--------------------------------------- Iteration      1(   7)  ---------------------------------------


    POTLOK:  cpu time    0.2417: real time    0.2417
    SETDIJ:  cpu time    0.0172: real time    0.0172
     EDDAV:  cpu time    6.7881: real time    6.7895
       DOS:  cpu time    0.0011: real time    0.0011
    CHARGE:  cpu time    0.2093: real time    0.2093
    MIXING:  cpu time    0.0085: real time    0.0085
    --------------------------------------------
      LOOP:  cpu time    7.2658: real time    7.2673

 eigenvalue-minimisations  :  1096
 total energy-change (2. order) : 0.9488089E+02  (-0.2156315E+02)
 number of electron     791.9999801 magnetization 
 augmentation part      332.0275359 magnetization 

 Broyden mixing:
  rms(total) = 0.74649E+01    rms(broyden)= 0.74636E+01
  rms(prec ) = 0.77371E+01
  weight for this iteration     100.00

 eigenvalues of (default mixing * dielectric matrix)
  average eigenvalue GAMMA=   0.4414
  0.4414  0.4414

 Free energy of the ion-electron system (eV)
  ---------------------------------------------------
  alpha Z        PSCENC =      1893.09323658
  Ewald energy   TEWEN  =    221668.30642178
  -Hartree energ DENC   =   -342254.83082098
  -exchange      EXHF   =         0.00000000
  -V(xc)+E(xc)   XCENC  =      3630.02179271
  PAW double counting   =    121578.19783434  -126390.29138259
  entropy T*S    EENTRO =        -0.87317945
  eigenvalues    EBANDS =    -16502.13058256
  atomic energy  EATOM  =    136002.60505376
  Solvation  Ediel_sol  =         0.00000000
  ---------------------------------------------------
  free energy    TOTEN  =      -375.90162642 eV

  energy without entropy =     -375.02844697  energy(sigma->0) =     -375.46503669


--------------------------------------------------------------------------------------------------------




--------------------------------------- Iteration      1(   8)  ---------------------------------------


    POTLOK:  cpu time    0.2479: real time    0.2479
    SETDIJ:  cpu time    0.0172: real time    0.0172
     EDDAV:  cpu time    7.4767: real time    7.4781
       DOS:  cpu time    0.0010: real time    0.0010
    CHARGE:  cpu time    0.2062: real time    0.2062
    MIXING:  cpu time    0.0092: real time    0.0092
    --------------------------------------------
      LOOP:  cpu time    7.9582: real time    7.9596

 eigenvalue-minimisations  :  1312
 total energy-change (2. order) :-0.4025942E+02  (-0.2213037E+02)
 number of electron     791.9999871 magnetization 
 augmentation part      307.7306104 magnetization 

 Broyden mixing:
  rms(total) = 0.12353E+02    rms(broyden)= 0.12351E+02
  rms(prec ) = 0.14047E+02
  weight for this iteration     100.00

 eigenvalues of (default mixing * dielectric matrix)
  average eigenvalue GAMMA=   0.4804
  0.7627  0.4885  0.1901

 Free energy of the ion-electron system (eV)
  ---------------------------------------------------
  alpha Z        PSCENC =      1893.09323658
  Ewald energy   TEWEN  =    221668.30642178
  -Hartree energ DENC   =   -342977.51124659
  -exchange      EXHF   =         0.00000000
  -V(xc)+E(xc)   XCENC  =      3654.91668611
  PAW double counting   =    127505.58757273  -132449.37908657
  entropy T*S    EENTRO =        -0.99942055
  eigenvalues    EBANDS =    -15712.78025887
  atomic energy  EATOM  =    136002.60505376
  Solvation  Ediel_sol  =         0.00000000
  ---------------------------------------------------
  free energy    TOTEN  =      -416.16104162 eV

  energy without entropy =     -415.16162107  energy(sigma->0) =     -415.66133134


--------------------------------------------------------------------------------------------------------




--------------------------------------- Iteration      1(   9)  ---------------------------------------


    POTLOK:  cpu time    0.2420: real time    0.2421
    SETDIJ:  cpu time    0.0172: real time    0.0172
     EDDAV:  cpu time    7.2111: real time    7.2121
       DOS:  cpu time    0.0012: real time    0.0012
    CHARGE:  cpu time    0.4173: real time    0.4176
    MIXING:  cpu time    0.0090: real time    0.0090
    --------------------------------------------
      LOOP:  cpu time    7.8977: real time    7.8991

 eigenvalue-minimisations  :  1248
 total energy-change (2. order) : 0.3178415E+02  (-0.1451351E+02)
 number of electron     791.9999822 magnetization 
 augmentation part      306.4828275 magnetization 

 Broyden mixing:
  rms(total) = 0.71405E+01    rms(broyden)= 0.71336E+01
  rms(prec ) = 0.78817E+01
  weight for this iteration     100.00

 eigenvalues of (default mixing * dielectric matrix)
  average eigenvalue GAMMA=   0.6049
  1.4960  0.3889  0.3889  0.1458

 Free energy of the ion-electron system (eV)
  ---------------------------------------------------
  alpha Z        PSCENC =      1893.09323658
  Ewald energy   TEWEN  =    221668.30642178
  -Hartree energ DENC   =   -343148.45831523
  -exchange      EXHF   =         0.00000000
  -V(xc)+E(xc)   XCENC  =      3654.07958500
  PAW double counting   =    131570.95222765  -136539.67511764
  entropy T*S    EENTRO =        -0.94615933
  eigenvalues    EBANDS =    -15484.33382334
  atomic energy  EATOM  =    136002.60505376
  Solvation  Ediel_sol  =         0.00000000
  ---------------------------------------------------
  free energy    TOTEN  =      -384.37689077 eV

  energy without entropy =     -383.43073144  energy(sigma->0) =     -383.90381110


--------------------------------------------------------------------------------------------------------




--------------------------------------- Iteration      1(  10)  ---------------------------------------


    POTLOK:  cpu time    0.2493: real time    0.2493
    SETDIJ:  cpu time    0.0174: real time    0.0174
     EDDAV:  cpu time    7.1054: real time    7.1069
       DOS:  cpu time    0.0011: real time    0.0011
    CHARGE:  cpu time    0.2121: real time    0.2121
    MIXING:  cpu time    0.0115: real time    0.0115
    --------------------------------------------
      LOOP:  cpu time    7.5968: real time    7.5982

 eigenvalue-minimisations  :  1216
 total energy-change (2. order) :-0.2645906E+02  (-0.9588532E+01)
 number of electron     791.9999772 magnetization 
 augmentation part      303.7657047 magnetization 

 Broyden mixing:
  rms(total) = 0.93379E+01    rms(broyden)= 0.93341E+01
  rms(prec ) = 0.11393E+02
  weight for this iteration     100.00

 eigenvalues of (default mixing * dielectric matrix)
  average eigenvalue GAMMA=   0.5809
  1.8155  0.4008  0.4008  0.1436  0.1436

 Free energy of the ion-electron system (eV)
  ---------------------------------------------------
  alpha Z        PSCENC =      1893.09323658
  Ewald energy   TEWEN  =    221668.30642178
  -Hartree energ DENC   =   -343145.33423861
  -exchange      EXHF   =         0.00000000
  -V(xc)+E(xc)   XCENC  =      3652.05383014
  PAW double counting   =    136949.03478044  -141954.55021064
  entropy T*S    EENTRO =        -1.28755838
  eigenvalues    EBANDS =    -15474.75726797
  atomic energy  EATOM  =    136002.60505376
  Solvation  Ediel_sol  =         0.00000000
  ---------------------------------------------------
  free energy    TOTEN  =      -410.83595290 eV

  energy without entropy =     -409.54839452  energy(sigma->0) =     -410.19217371


--------------------------------------------------------------------------------------------------------




--------------------------------------- Iteration      1(  11)  ---------------------------------------


    POTLOK:  cpu time    0.2430: real time    0.2435
    SETDIJ:  cpu time    0.0172: real time    0.0172
     EDDAV:  cpu time    7.3782: real time    7.3801
       DOS:  cpu time    0.0012: real time    0.0012
    CHARGE:  cpu time    0.2110: real time    0.2110
    MIXING:  cpu time    0.0116: real time    0.0116
    --------------------------------------------
      LOOP:  cpu time    7.8622: real time    7.8646

 eigenvalue-minimisations  :  1272
 total energy-change (2. order) : 0.3331894E+02  (-0.4754650E+01)
 number of electron     791.9999792 magnetization 
 augmentation part      309.6120810 magnetization 

 Broyden mixing:
  rms(total) = 0.51635E+01    rms(broyden)= 0.51584E+01
  rms(prec ) = 0.59721E+01
  weight for this iteration     100.00

 eigenvalues of (default mixing * dielectric matrix)
  average eigenvalue GAMMA=   0.6224
  2.2090  0.4252  0.4252  0.3994  0.1707  0.1052

 Free energy of the ion-electron system (eV)
  ---------------------------------------------------
  alpha Z        PSCENC =      1893.09323658
  Ewald energy   TEWEN  =    221668.30642178
  -Hartree energ DENC   =   -343029.66880091
  -exchange      EXHF   =         0.00000000
  -V(xc)+E(xc)   XCENC  =      3649.81096977
  PAW double counting   =    139460.05258749  -144477.33570175
  entropy T*S    EENTRO =        -0.94006439
  eigenvalues    EBANDS =    -15543.44071352
  atomic energy  EATOM  =    136002.60505376
  Solvation  Ediel_sol  =         0.00000000
  ---------------------------------------------------
  free energy    TOTEN  =      -377.51701119 eV

  energy without entropy =     -376.57694680  energy(sigma->0) =     -377.04697899


--------------------------------------------------------------------------------------------------------




--------------------------------------- Iteration      1(  12)  ---------------------------------------


    POTLOK:  cpu time    0.2424: real time    0.2424
    SETDIJ:  cpu time    0.0173: real time    0.0173
     EDDAV:  cpu time    7.8872: real time    7.8886
       DOS:  cpu time    0.0011: real time    0.0011
    CHARGE:  cpu time    0.2111: real time    0.2111
    MIXING:  cpu time    0.0104: real time    0.0104
    --------------------------------------------
      LOOP:  cpu time    8.3694: real time    8.3709

 eigenvalue-minimisations  :  1336
 total energy-change (2. order) :-0.6669038E+01  (-0.5729313E+01)
 number of electron     791.9999849 magnetization 
 augmentation part      310.7598647 magnetization 

 Broyden mixing:
  rms(total) = 0.69451E+01    rms(broyden)= 0.69421E+01
  rms(prec ) = 0.77179E+01
  weight for this iteration     100.00

 eigenvalues of (default mixing * dielectric matrix)
  average eigenvalue GAMMA=   0.6081
  2.4324  0.5170  0.4387  0.4387  0.1837  0.1390  0.1074

 Free energy of the ion-electron system (eV)
  ---------------------------------------------------
  alpha Z        PSCENC =      1893.09323658
  Ewald energy   TEWEN  =    221668.30642178
  -Hartree energ DENC   =   -342919.65354850
  -exchange      EXHF   =         0.00000000
  -V(xc)+E(xc)   XCENC  =      3646.99131047
  PAW double counting   =    141768.17476070  -146792.27579671
  entropy T*S    EENTRO =        -0.99894998
  eigenvalues    EBANDS =    -15650.42853716
  atomic energy  EATOM  =    136002.60505376
  Solvation  Ediel_sol  =         0.00000000
  ---------------------------------------------------
  free energy    TOTEN  =      -384.18604906 eV

  energy without entropy =     -383.18709908  energy(sigma->0) =     -383.68657407


--------------------------------------------------------------------------------------------------------




--------------------------------------- Iteration      1(  13)  ---------------------------------------


    POTLOK:  cpu time    0.2434: real time    0.2434
    SETDIJ:  cpu time    0.0172: real time    0.0172
     EDDAV:  cpu time    7.4289: real time    7.4305
       DOS:  cpu time    0.0011: real time    0.0011
    CHARGE:  cpu time    0.2110: real time    0.2110
    MIXING:  cpu time    0.0109: real time    0.0109
    --------------------------------------------
      LOOP:  cpu time    7.9125: real time    7.9141

 eigenvalue-minimisations  :  1288
 total energy-change (2. order) : 0.1518230E+02  (-0.4300434E+01)
 number of electron     791.9999801 magnetization 
 augmentation part      314.1086355 magnetization 

 Broyden mixing:
  rms(total) = 0.41354E+01    rms(broyden)= 0.41337E+01
  rms(prec ) = 0.46503E+01
  weight for this iteration     100.00

 eigenvalues of (default mixing * dielectric matrix)
  average eigenvalue GAMMA=   0.5523
  2.3936  0.5021  0.4364  0.4364  0.2502  0.1446  0.1446  0.1107

 Free energy of the ion-electron system (eV)
  ---------------------------------------------------
  alpha Z        PSCENC =      1893.09323658
  Ewald energy   TEWEN  =    221668.30642178
  -Hartree energ DENC   =   -342902.59795855
  -exchange      EXHF   =         0.00000000
  -V(xc)+E(xc)   XCENC  =      3645.67524382
  PAW double counting   =    142762.96016227  -147789.38018897
  entropy T*S    EENTRO =        -0.84076533
  eigenvalues    EBANDS =    -15648.82494978
  atomic energy  EATOM  =    136002.60505376
  Solvation  Ediel_sol  =         0.00000000
  ---------------------------------------------------
  free energy    TOTEN  =      -369.00374442 eV

  energy without entropy =     -368.16297908  energy(sigma->0) =     -368.58336175


--------------------------------------------------------------------------------------------------------




--------------------------------------- Iteration      1(  14)  ---------------------------------------


    POTLOK:  cpu time    0.2436: real time    0.2436
    SETDIJ:  cpu time    0.0187: real time    0.0187
     EDDAV:  cpu time    7.7743: real time    7.7761
       DOS:  cpu time    0.0011: real time    0.0011
    CHARGE:  cpu time    0.2107: real time    0.2108
    MIXING:  cpu time    0.0113: real time    0.0113
    --------------------------------------------
      LOOP:  cpu time    8.2597: real time    8.2615

 eigenvalue-minimisations  :  1320
 total energy-change (2. order) : 0.8098505E+01  (-0.1511615E+01)
 number of electron     791.9999797 magnetization 
 augmentation part      314.6337858 magnetization 

 Broyden mixing:
  rms(total) = 0.26307E+01    rms(broyden)= 0.26289E+01
  rms(prec ) = 0.29801E+01
  weight for this iteration     100.00

 eigenvalues of (default mixing * dielectric matrix)
  average eigenvalue GAMMA=   0.5204
  2.1717  0.4997  0.4997  0.4471  0.4471  0.1835  0.1835  0.1085  0.1423

 Free energy of the ion-electron system (eV)
  ---------------------------------------------------
  alpha Z        PSCENC =      1893.09323658
  Ewald energy   TEWEN  =    221668.30642178
  -Hartree energ DENC   =   -342927.53768689
  -exchange      EXHF   =         0.00000000
  -V(xc)+E(xc)   XCENC  =      3646.50614529
  PAW double counting   =    142530.66350553  -147557.62852844
  entropy T*S    EENTRO =        -0.88111649
  eigenvalues    EBANDS =    -15616.03227054
  atomic energy  EATOM  =    136002.60505376
  Solvation  Ediel_sol  =         0.00000000
  ---------------------------------------------------
  free energy    TOTEN  =      -360.90523943 eV

  energy without entropy =     -360.02412294  energy(sigma->0) =     -360.46468119


--------------------------------------------------------------------------------------------------------




--------------------------------------- Iteration      1(  15)  ---------------------------------------


    POTLOK:  cpu time    0.2452: real time    0.2452
    SETDIJ:  cpu time    0.0172: real time    0.0172
     EDDAV:  cpu time    7.5713: real time    7.5726
       DOS:  cpu time    0.0011: real time    0.0011
    CHARGE:  cpu time    0.2111: real time    0.2111
    MIXING:  cpu time    0.0130: real time    0.0130
    --------------------------------------------
      LOOP:  cpu time    8.0589: real time    8.0602

 eigenvalue-minimisations  :  1328
 total energy-change (2. order) : 0.3217579E+01  (-0.5735558E+00)
 number of electron     791.9999808 magnetization 
 augmentation part      312.9076073 magnetization 

 Broyden mixing:
  rms(total) = 0.23292E+01    rms(broyden)= 0.23288E+01
  rms(prec ) = 0.26065E+01
  weight for this iteration     100.00

 eigenvalues of (default mixing * dielectric matrix)
  average eigenvalue GAMMA=   0.4821
  2.1431  0.5112  0.5112  0.3863  0.3863  0.2851  0.2065  0.1081  0.1416  0.1416

 Free energy of the ion-electron system (eV)
  ---------------------------------------------------
  alpha Z        PSCENC =      1893.09323658
  Ewald energy   TEWEN  =    221668.30642178
  -Hartree energ DENC   =   -342986.48387255
  -exchange      EXHF   =         0.00000000
  -V(xc)+E(xc)   XCENC  =      3648.48464481
  PAW double counting   =    141517.77006642  -146541.21802368
  entropy T*S    EENTRO =        -0.92538559
  eigenvalues    EBANDS =    -15559.31980179
  atomic energy  EATOM  =    136002.60505376
  Solvation  Ediel_sol  =         0.00000000
  ---------------------------------------------------
  free energy    TOTEN  =      -357.68766026 eV

  energy without entropy =     -356.76227467  energy(sigma->0) =     -357.22496747


--------------------------------------------------------------------------------------------------------




--------------------------------------- Iteration      1(  16)  ---------------------------------------


    POTLOK:  cpu time    0.2453: real time    0.2454
    SETDIJ:  cpu time    0.0172: real time    0.0172
     EDDAV:  cpu time    7.4439: real time    7.4449
       DOS:  cpu time    0.0012: real time    0.0012
    CHARGE:  cpu time    0.2124: real time    0.2125
    MIXING:  cpu time    0.0124: real time    0.0124
    --------------------------------------------
      LOOP:  cpu time    7.9324: real time    7.9336

 eigenvalue-minimisations  :  1248
 total energy-change (2. order) : 0.8376297E+00  (-0.2232122E+00)
 number of electron     791.9999804 magnetization 
 augmentation part      312.5348137 magnetization 

 Broyden mixing:
  rms(total) = 0.21655E+01    rms(broyden)= 0.21654E+01
  rms(prec ) = 0.24407E+01
  weight for this iteration     100.00

 eigenvalues of (default mixing * dielectric matrix)
  average eigenvalue GAMMA=   0.4853
  2.1306  0.5830  0.5830  0.4359  0.4359  0.4086  0.2000  0.1585  0.1585  0.1086
  0.1360

 Free energy of the ion-electron system (eV)
  ---------------------------------------------------
  alpha Z        PSCENC =      1893.09323658
  Ewald energy   TEWEN  =    221668.30642178
  -Hartree energ DENC   =   -342998.94880761
  -exchange      EXHF   =         0.00000000
  -V(xc)+E(xc)   XCENC  =      3648.69314072
  PAW double counting   =    141326.84330791  -146348.75093587
  entropy T*S    EENTRO =        -0.92769243
  eigenvalues    EBANDS =    -15547.76375543
  atomic energy  EATOM  =    136002.60505376
  Solvation  Ediel_sol  =         0.00000000
  ---------------------------------------------------
  free energy    TOTEN  =      -356.85003059 eV

  energy without entropy =     -355.92233816  energy(sigma->0) =     -356.38618437


--------------------------------------------------------------------------------------------------------




--------------------------------------- Iteration      1(  17)  ---------------------------------------


    POTLOK:  cpu time    0.2470: real time    0.2470
    SETDIJ:  cpu time    0.0173: real time    0.0173
     EDDAV:  cpu time    7.5043: real time    7.5055
       DOS:  cpu time    0.0013: real time    0.0013
    CHARGE:  cpu time    0.2113: real time    0.2113
    MIXING:  cpu time    0.0126: real time    0.0128
    --------------------------------------------
      LOOP:  cpu time    7.9937: real time    7.9951

 eigenvalue-minimisations  :  1312
 total energy-change (2. order) : 0.6921670E+00  (-0.3928845E-01)
 number of electron     791.9999807 magnetization 
 augmentation part      312.4635223 magnetization 

 Broyden mixing:
  rms(total) = 0.20767E+01    rms(broyden)= 0.20767E+01
  rms(prec ) = 0.23333E+01
  weight for this iteration     100.00

 eigenvalues of (default mixing * dielectric matrix)
  average eigenvalue GAMMA=   0.4732
  2.1362  0.6455  0.6455  0.4460  0.4460  0.4089  0.2013  0.1825  0.1825  0.1081
  0.1381  0.1381

 Free energy of the ion-electron system (eV)
  ---------------------------------------------------
  alpha Z        PSCENC =      1893.09323658
  Ewald energy   TEWEN  =    221668.30642178
  -Hartree energ DENC   =   -343001.37233445
  -exchange      EXHF   =         0.00000000
  -V(xc)+E(xc)   XCENC  =      3648.84287763
  PAW double counting   =    141071.56532944  -146091.12207991
  entropy T*S    EENTRO =        -0.94587468
  eigenvalues    EBANDS =    -15547.13049374
  atomic energy  EATOM  =    136002.60505376
  Solvation  Ediel_sol  =         0.00000000
  ---------------------------------------------------
  free energy    TOTEN  =      -356.15786359 eV

  energy without entropy =     -355.21198892  energy(sigma->0) =     -355.68492625


--------------------------------------------------------------------------------------------------------




--------------------------------------- Iteration      1(  18)  ---------------------------------------


    POTLOK:  cpu time    0.2463: real time    0.2463
    SETDIJ:  cpu time    0.0172: real time    0.0172
     EDDAV:  cpu time    7.6321: real time    7.6334
       DOS:  cpu time    0.0011: real time    0.0011
    CHARGE:  cpu time    0.2135: real time    0.2135
    MIXING:  cpu time    0.0125: real time    0.0125
    --------------------------------------------
      LOOP:  cpu time    8.1227: real time    8.1240

 eigenvalue-minimisations  :  1296
 total energy-change (2. order) : 0.4505956E+00  (-0.1962470E-01)
 number of electron     791.9999806 magnetization 
 augmentation part      312.4191790 magnetization 

 Broyden mixing:
  rms(total) = 0.19866E+01    rms(broyden)= 0.19866E+01
  rms(prec ) = 0.22388E+01
  weight for this iteration     100.00

 eigenvalues of (default mixing * dielectric matrix)
  average eigenvalue GAMMA=   0.5399
  2.1479  1.0086  1.0086  0.4912  0.4912  0.4571  0.4571  0.2146  0.1890  0.1083
  0.1530  0.1530  0.1387

 Free energy of the ion-electron system (eV)
  ---------------------------------------------------
  alpha Z        PSCENC =      1893.09323658
  Ewald energy   TEWEN  =    221668.30642178
  -Hartree energ DENC   =   -343004.55687136
  -exchange      EXHF   =         0.00000000
  -V(xc)+E(xc)   XCENC  =      3648.90828244
  PAW double counting   =    140932.55927996  -145950.66231318
  entropy T*S    EENTRO =        -0.94518438
  eigenvalues    EBANDS =    -15545.01517358
  atomic energy  EATOM  =    136002.60505376
  Solvation  Ediel_sol  =         0.00000000
  ---------------------------------------------------
  free energy    TOTEN  =      -355.70726799 eV

  energy without entropy =     -354.76208361  energy(sigma->0) =     -355.23467580


--------------------------------------------------------------------------------------------------------




--------------------------------------- Iteration      1(  19)  ---------------------------------------


    POTLOK:  cpu time    0.2453: real time    0.2454
    SETDIJ:  cpu time    0.0171: real time    0.0171
     EDDAV:  cpu time    8.2408: real time    8.2419
       DOS:  cpu time    0.0012: real time    0.0012
    CHARGE:  cpu time    0.2134: real time    0.2134
    MIXING:  cpu time    0.0132: real time    0.0132
    --------------------------------------------
      LOOP:  cpu time    8.7310: real time    8.7322

 eigenvalue-minimisations  :  1440
 total energy-change (2. order) : 0.1187668E+01  (-0.3065785E-01)
 number of electron     791.9999804 magnetization 
 augmentation part      312.4486232 magnetization 

 Broyden mixing:
  rms(total) = 0.17976E+01    rms(broyden)= 0.17975E+01
  rms(prec ) = 0.20262E+01
  weight for this iteration     100.00

 eigenvalues of (default mixing * dielectric matrix)
  average eigenvalue GAMMA=   0.5751
  2.1612  1.3641  1.3641  0.4960  0.4960  0.5071  0.5071  0.2424  0.1933  0.1083
  0.1629  0.1629  0.1429  0.1429

 Free energy of the ion-electron system (eV)
  ---------------------------------------------------
  alpha Z        PSCENC =      1893.09323658
  Ewald energy   TEWEN  =    221668.30642178
  -Hartree energ DENC   =   -343015.19979609
  -exchange      EXHF   =         0.00000000
  -V(xc)+E(xc)   XCENC  =      3649.08724456
  PAW double counting   =    140520.61191739  -145534.02832027
  entropy T*S    EENTRO =        -0.94679764
  eigenvalues    EBANDS =    -15538.04855974
  atomic energy  EATOM  =    136002.60505376
  Solvation  Ediel_sol  =         0.00000000
  ---------------------------------------------------
  free energy    TOTEN  =      -354.51959967 eV

  energy without entropy =     -353.57280202  energy(sigma->0) =     -354.04620085


--------------------------------------------------------------------------------------------------------




--------------------------------------- Iteration      1(  20)  ---------------------------------------


    POTLOK:  cpu time    0.2470: real time    0.2470
    SETDIJ:  cpu time    0.0172: real time    0.0172
     EDDAV:  cpu time    7.7265: real time    7.7299
       DOS:  cpu time    0.0013: real time    0.0013
    CHARGE:  cpu time    0.2254: real time    0.2254
    MIXING:  cpu time    0.0137: real time    0.0138
    --------------------------------------------
      LOOP:  cpu time    8.2311: real time    8.2346

 eigenvalue-minimisations  :  1312
 total energy-change (2. order) : 0.1756437E+01  (-0.8803127E-01)
 number of electron     791.9999810 magnetization 
 augmentation part      312.4211396 magnetization 

 Broyden mixing:
  rms(total) = 0.13315E+01    rms(broyden)= 0.13313E+01
  rms(prec ) = 0.15016E+01
  weight for this iteration     100.00

 eigenvalues of (default mixing * dielectric matrix)
  average eigenvalue GAMMA=   0.5949
  2.1589  1.5932  1.5932  0.5522  0.5522  0.4772  0.4772  0.4140  0.1083  0.1947
  0.1808  0.1808  0.1518  0.1518  0.1379

 Free energy of the ion-electron system (eV)
  ---------------------------------------------------
  alpha Z        PSCENC =      1893.09323658
  Ewald energy   TEWEN  =    221668.30642178
  -Hartree energ DENC   =   -343033.53548931
  -exchange      EXHF   =         0.00000000
  -V(xc)+E(xc)   XCENC  =      3649.41535455
  PAW double counting   =    139867.76501486  -144873.58103331
  entropy T*S    EENTRO =        -0.96358894
  eigenvalues    EBANDS =    -15525.86813238
  atomic energy  EATOM  =    136002.60505376
  Solvation  Ediel_sol  =         0.00000000
  ---------------------------------------------------
  free energy    TOTEN  =      -352.76316241 eV

  energy without entropy =     -351.79957346  energy(sigma->0) =     -352.28136794


--------------------------------------------------------------------------------------------------------




--------------------------------------- Iteration      1(  21)  ---------------------------------------


    POTLOK:  cpu time    0.2489: real time    0.2489
    SETDIJ:  cpu time    0.0171: real time    0.0171
     EDDAV:  cpu time    7.4282: real time    7.4295
       DOS:  cpu time    0.0012: real time    0.0012
    CHARGE:  cpu time    0.2126: real time    0.2127
    MIXING:  cpu time    0.0143: real time    0.0143
    --------------------------------------------
      LOOP:  cpu time    7.9224: real time    7.9237

 eigenvalue-minimisations  :  1304
 total energy-change (2. order) : 0.9535161E+00  (-0.9475409E-01)
 number of electron     791.9999809 magnetization 
 augmentation part      312.2571669 magnetization 

 Broyden mixing:
  rms(total) = 0.87863E+00    rms(broyden)= 0.87842E+00
  rms(prec ) = 0.97498E+00
  weight for this iteration     100.00

 eigenvalues of (default mixing * dielectric matrix)
  average eigenvalue GAMMA=   0.6021
  2.1489  1.7229  1.7229  0.6448  0.6448  0.4649  0.4649  0.4312  0.2492  0.2492
  0.1083  0.1722  0.1594  0.1594  0.1478  0.1423

 Free energy of the ion-electron system (eV)
  ---------------------------------------------------
  alpha Z        PSCENC =      1893.09323658
  Ewald energy   TEWEN  =    221668.30642178
  -Hartree energ DENC   =   -343050.99669582
  -exchange      EXHF   =         0.00000000
  -V(xc)+E(xc)   XCENC  =      3649.74888256
  PAW double counting   =    139352.47174663  -144352.01203181
  entropy T*S    EENTRO =        -0.99778295
  eigenvalues    EBANDS =    -15514.02847701
  atomic energy  EATOM  =    136002.60505376
  Solvation  Ediel_sol  =         0.00000000
  ---------------------------------------------------
  free energy    TOTEN  =      -351.80964629 eV

  energy without entropy =     -350.81186333  energy(sigma->0) =     -351.31075481


--------------------------------------------------------------------------------------------------------




--------------------------------------- Iteration      1(  22)  ---------------------------------------


    POTLOK:  cpu time    0.2486: real time    0.2486
    SETDIJ:  cpu time    0.0172: real time    0.0173
     EDDAV:  cpu time    7.7039: real time    7.7051
       DOS:  cpu time    0.0012: real time    0.0012
    CHARGE:  cpu time    0.2167: real time    0.2167
    MIXING:  cpu time    0.0148: real time    0.0148
    --------------------------------------------
      LOOP:  cpu time    8.2024: real time    8.2037

 eigenvalue-minimisations  :  1312
 total energy-change (2. order) : 0.2522652E+00  (-0.4611645E-01)
 number of electron     791.9999812 magnetization 
 augmentation part      312.1406266 magnetization 

 Broyden mixing:
  rms(total) = 0.68360E+00    rms(broyden)= 0.68344E+00
  rms(prec ) = 0.74439E+00
  weight for this iteration     100.00

 eigenvalues of (default mixing * dielectric matrix)
  average eigenvalue GAMMA=   0.6175
  2.1245  1.8222  1.8222  0.7587  0.7587  0.4786  0.4786  0.4802  0.4802  0.2241
  0.1083  0.1730  0.1697  0.1697  0.1552  0.1552  0.1387

 Free energy of the ion-electron system (eV)
  ---------------------------------------------------
  alpha Z        PSCENC =      1893.09323658
  Ewald energy   TEWEN  =    221668.30642178
  -Hartree energ DENC   =   -343059.98601684
  -exchange      EXHF   =         0.00000000
  -V(xc)+E(xc)   XCENC  =      3649.88753285
  PAW double counting   =    139070.68211349  -144066.26435865
  entropy T*S    EENTRO =        -1.00693871
  eigenvalues    EBANDS =    -15508.87442529
  atomic energy  EATOM  =    136002.60505376
  Solvation  Ediel_sol  =         0.00000000
  ---------------------------------------------------
  free energy    TOTEN  =      -351.55738104 eV

  energy without entropy =     -350.55044233  energy(sigma->0) =     -351.05391168


--------------------------------------------------------------------------------------------------------




--------------------------------------- Iteration      1(  23)  ---------------------------------------


    POTLOK:  cpu time    0.2538: real time    0.2540
    SETDIJ:  cpu time    0.0171: real time    0.0171
     EDDAV:  cpu time    7.3559: real time    7.3571
       DOS:  cpu time    0.0011: real time    0.0011
    CHARGE:  cpu time    0.2125: real time    0.2125
    MIXING:  cpu time    0.0154: real time    0.0154
    --------------------------------------------
      LOOP:  cpu time    7.8559: real time    7.8573

 eigenvalue-minimisations  :  1288
 total energy-change (2. order) : 0.1235125E+00  (-0.2175406E-01)
 number of electron     791.9999815 magnetization 
 augmentation part      312.0255317 magnetization 

 Broyden mixing:
  rms(total) = 0.50512E+00    rms(broyden)= 0.50500E+00
  rms(prec ) = 0.54907E+00
  weight for this iteration     100.00

 eigenvalues of (default mixing * dielectric matrix)
  average eigenvalue GAMMA=   0.6401
  2.1345  1.9194  1.9194  0.9798  0.9798  0.5336  0.5336  0.4822  0.4822  0.2736
  0.1083  0.1987  0.1987  0.1592  0.1592  0.1683  0.1515  0.1399

 Free energy of the ion-electron system (eV)
  ---------------------------------------------------
  alpha Z        PSCENC =      1893.09323658
  Ewald energy   TEWEN  =    221668.30642178
  -Hartree energ DENC   =   -343071.13103876
  -exchange      EXHF   =         0.00000000
  -V(xc)+E(xc)   XCENC  =      3650.00974843
  PAW double counting   =    138813.59960912  -143805.69654779
  entropy T*S    EENTRO =        -1.02236656
  eigenvalues    EBANDS =    -15501.19798505
  atomic energy  EATOM  =    136002.60505376
  Solvation  Ediel_sol  =         0.00000000
  ---------------------------------------------------
  free energy    TOTEN  =      -351.43386849 eV

  energy without entropy =     -350.41150194  energy(sigma->0) =     -350.92268522


--------------------------------------------------------------------------------------------------------




--------------------------------------- Iteration      1(  24)  ---------------------------------------


    POTLOK:  cpu time    0.2500: real time    0.2500
    SETDIJ:  cpu time    0.0171: real time    0.0171
     EDDAV:  cpu time    6.9878: real time    6.9891
       DOS:  cpu time    0.0018: real time    0.0018
    CHARGE:  cpu time    0.2393: real time    0.2393
    MIXING:  cpu time    0.0184: real time    0.0184
    --------------------------------------------
      LOOP:  cpu time    7.5143: real time    7.5156

 eigenvalue-minimisations  :  1120
 total energy-change (2. order) : 0.1751060E-02  (-0.2752247E-01)
 number of electron     791.9999810 magnetization 
 augmentation part      312.0672902 magnetization 

 Broyden mixing:
  rms(total) = 0.46296E+00    rms(broyden)= 0.46275E+00
  rms(prec ) = 0.51318E+00
  weight for this iteration     100.00

 eigenvalues of (default mixing * dielectric matrix)
  average eigenvalue GAMMA=   0.6629
  2.1105  1.7856  1.7856  1.3371  1.3371  0.6827  0.6827  0.4776  0.4776  0.4525
  0.2134  0.1083  0.1990  0.1758  0.1612  0.1612  0.1393  0.1539  0.1539

 Free energy of the ion-electron system (eV)
  ---------------------------------------------------
  alpha Z        PSCENC =      1893.09323658
  Ewald energy   TEWEN  =    221668.30642178
  -Hartree energ DENC   =   -343077.23477458
  -exchange      EXHF   =         0.00000000
  -V(xc)+E(xc)   XCENC  =      3649.89767752
  PAW double counting   =    138724.36758444  -143714.11663649
  entropy T*S    EENTRO =        -1.03171577
  eigenvalues    EBANDS =    -15497.31896466
  atomic energy  EATOM  =    136002.60505376
  Solvation  Ediel_sol  =         0.00000000
  ---------------------------------------------------
  free energy    TOTEN  =      -351.43211743 eV

  energy without entropy =     -350.40040166  energy(sigma->0) =     -350.91625955


--------------------------------------------------------------------------------------------------------




--------------------------------------- Iteration      1(  25)  ---------------------------------------


    POTLOK:  cpu time    0.2509: real time    0.2513
    SETDIJ:  cpu time    0.0173: real time    0.0173
     EDDAV:  cpu time    7.8854: real time    7.8867
       DOS:  cpu time    0.0012: real time    0.0012
    CHARGE:  cpu time    0.2128: real time    0.2128
    MIXING:  cpu time    0.0178: real time    0.0178
    --------------------------------------------
      LOOP:  cpu time    8.3854: real time    8.3870

 eigenvalue-minimisations  :  1400
 total energy-change (2. order) : 0.5711995E-01  (-0.2318637E-01)
 number of electron     791.9999814 magnetization 
 augmentation part      312.1025988 magnetization 

 Broyden mixing:
  rms(total) = 0.33218E+00    rms(broyden)= 0.33179E+00
  rms(prec ) = 0.36352E+00
  weight for this iteration     100.00

 eigenvalues of (default mixing * dielectric matrix)
  average eigenvalue GAMMA=   0.6603
  2.0931  2.0931  1.7176  1.7176  0.8512  0.8512  0.7755  0.4765  0.4765  0.4588
  0.2263  0.2263  0.1083  0.1849  0.1849  0.1604  0.1604  0.1394  0.1518  0.1518

 Free energy of the ion-electron system (eV)
  ---------------------------------------------------
  alpha Z        PSCENC =      1893.09323658
  Ewald energy   TEWEN  =    221668.30642178
  -Hartree energ DENC   =   -343089.47860111
  -exchange      EXHF   =         0.00000000
  -V(xc)+E(xc)   XCENC  =      3649.91605435
  PAW double counting   =    138415.02004428  -143399.64775544
  entropy T*S    EENTRO =        -1.05940426
  eigenvalues    EBANDS =    -15490.13004742
  atomic energy  EATOM  =    136002.60505376
  Solvation  Ediel_sol  =         0.00000000
  ---------------------------------------------------
  free energy    TOTEN  =      -351.37499748 eV

[...]
    FORCOR:  cpu time    0.3342: real time    0.3342
    FORHAR:  cpu time    0.1499: real time    0.1499
    MIXING:  cpu time    0.0327: real time    0.0327
    OFIELD:  cpu time    0.0001: real time    0.0001

  FORCE on cell =-STRESS in cart. coord.  units (eV):
  Direction    XX          YY          ZZ          XY          YZ          ZX
  --------------------------------------------------------------------------------------
  Alpha Z  1893.09324  1893.09324  1893.09324
  Ewald  271618.22291273708.63192************   442.69460 -1508.84836  1797.12553
  Hartree307788.57393309016.33282************   339.74102 -1102.43068  1296.10816
  E(xc)   -5051.21662 -5049.24196 -5055.56999     0.01142    -1.15735     1.24483
  Local  ************************584275.95080  -781.01139  2580.58823 -3053.50452
  n-local  -622.75061  -612.39996  -625.42653    -0.61387     0.43094     1.68144
  augment  5799.59580  5774.39179  5805.74386     0.10102     6.20373   -12.28898
  Kinetic 11093.86484 11042.88162 11142.57093    -2.94045    20.88881   -28.09250
  Fock        0.00000     0.00000     0.00000     0.00000     0.00000     0.00000
  -------------------------------------------------------------------------------------
  Total      77.89895    78.41988   101.60605    -2.01767    -4.32468     2.27396
  in kB      63.51598    63.94072    82.84588    -1.64513    -3.52619     1.85411
  external pressure =       70.10 kB  Pullay stress =        0.00 kB


 VOLUME and BASIS-vectors are now :
 -----------------------------------------------------------------------------
  energy-cutoff  :      450.00
  volume of cell :     1964.98
      direct lattice vectors                 reciprocal lattice vectors
    10.079732985  0.000000000  0.000000000     0.099208977 -0.037612667  0.000000000
     3.573298043  9.425102554  0.000000000     0.000000000  0.106099641  0.000000000
     0.000000000  0.000000000 20.683503555     0.000000000  0.000000000  0.048347708

  length of vectors
    10.079732985 10.079732985 20.683503555     0.106099641  0.106099641  0.048347708


 FORCES acting on ions
    electron-ion (+dipol)            ewald-force                    non-local-force                 convergence-correction
 -----------------------------------------------------------------------------------------------
   0.431E+03 -.625E+03 0.334E+04   -.434E+03 0.629E+03 -.334E+04   0.231E+01 -.419E+01 0.247E+01   -.100E-01 -.696E-02 -.117E-01
   0.366E+02 -.435E+03 -.253E+03   -.375E+02 0.437E+03 0.254E+03   0.754E+00 -.142E+01 -.117E+01   0.833E-02 -.325E-02 0.424E-02
   -.497E+02 -.378E+03 -.361E+04   0.503E+02 0.382E+03 0.361E+04   -.905E-01 -.308E+01 -.200E+01   -.196E-01 -.520E-02 0.210E-01
   -.123E+03 -.733E+02 0.162E+04   0.123E+03 0.718E+02 -.161E+04   0.355E+00 0.236E+00 -.330E+01   0.717E-02 0.353E-01 -.305E-01
   -.415E+02 -.402E+03 -.125E+04   0.409E+02 0.402E+03 0.125E+04   0.442E+00 -.905E+00 0.587E+00   -.413E-02 -.560E-02 -.605E-01
   0.547E+02 -.772E+03 -.453E+04   -.561E+02 0.775E+03 0.453E+04   0.735E+00 -.143E+01 -.229E+01   0.315E-01 -.180E-01 0.107E-01
   0.357E+02 -.261E+03 0.448E+04   -.376E+02 0.259E+03 -.449E+04   0.160E+01 0.199E+01 0.356E+01   0.118E-01 0.627E-02 -.152E-01
   0.115E+03 -.778E+02 -.503E+04   -.115E+03 0.811E+02 0.503E+04   -.176E+00 -.319E+01 -.342E+01   0.141E-01 0.495E-01 0.616E-01
   0.127E+03 -.330E+03 0.348E+04   -.128E+03 0.329E+03 -.349E+04   0.126E+00 0.451E+00 0.413E+01   -.532E-02 0.318E-02 -.796E-02
   -.198E+03 -.209E+03 0.657E+03   0.199E+03 0.207E+03 -.653E+03   -.793E+00 0.821E+00 -.304E+01   -.252E-02 -.130E-02 -.537E-02
   -.291E+02 -.434E+03 -.206E+04   0.287E+02 0.435E+03 0.206E+04   0.510E+00 -.155E+01 0.150E+01   -.285E-02 0.165E-01 0.404E-01
   0.327E+03 0.232E+03 0.424E+04   -.330E+03 -.234E+03 -.424E+04   0.239E+01 0.658E+00 0.226E+01   -.600E-02 0.947E-02 -.108E-01
   0.513E+03 0.261E+03 0.774E+03   -.516E+03 -.259E+03 -.772E+03   0.202E+01 -.104E+01 -.196E+01   0.157E-01 0.731E-02 -.123E-01
   0.517E+03 0.156E+03 -.233E+04   -.521E+03 -.156E+03 0.232E+04   0.351E+01 -.918E-01 -.729E+00   0.625E-01 0.189E-01 0.181E-01
   0.237E+03 -.177E+03 -.520E+04   -.239E+03 0.175E+03 0.520E+04   0.133E+01 0.288E+01 -.263E+01   0.446E-01 -.804E-02 0.479E-01
   0.517E+03 0.607E+03 0.315E+04   -.520E+03 -.608E+03 -.315E+04   0.152E+01 0.403E+00 0.200E+00   -.270E-02 0.225E-02 -.238E-01
   0.379E+03 0.300E+03 -.591E+02   -.381E+03 -.299E+03 0.588E+02   0.134E+01 0.376E-02 0.295E+00   -.172E-01 -.203E-01 -.132E-01
   0.391E+03 0.408E+02 -.297E+04   -.394E+03 -.410E+02 0.297E+04   0.215E+01 0.774E+00 0.676E+00   -.332E-01 -.123E+00 0.287E-01
   -.184E+03 0.512E+03 -.531E+04   0.180E+03 -.513E+03 0.531E+04   0.559E+01 0.884E+00 -.158E+01   -.387E-01 -.728E-01 0.563E-01
   0.350E+03 -.353E+02 0.587E+04   -.352E+03 0.334E+02 -.588E+04   0.169E+01 0.287E+01 0.572E+01   0.130E-01 0.131E-01 -.342E-01
   0.363E+03 0.406E+03 -.448E+04   -.367E+03 -.407E+03 0.448E+04   0.274E+01 0.139E+01 -.161E+00   -.295E-01 0.570E-01 0.356E-01
   0.309E+03 -.164E+03 0.463E+04   -.312E+03 0.166E+03 -.463E+04   0.278E+01 -.208E+01 0.546E+01   0.136E-02 -.106E-02 -.104E-01
   0.325E+03 0.295E+03 0.164E+04   -.325E+03 -.295E+03 -.163E+04   0.139E+00 0.343E+00 -.354E+01   0.109E-01 -.210E-02 -.123E-01
   0.423E+03 0.354E+03 -.122E+04   -.425E+03 -.354E+03 0.122E+04   0.164E+01 -.226E+00 0.375E+00   -.317E-01 0.466E-01 -.340E-01
   -.494E+03 -.238E+03 -.442E+04   0.500E+03 0.238E+03 0.442E+04   -.484E+01 -.290E+00 -.566E-01   -.903E-01 -.280E-01 0.346E-01
   -.189E+03 0.538E+03 0.520E+04   0.186E+03 -.539E+03 -.521E+04   0.285E+01 -.583E+00 0.362E+01   -.132E-01 0.668E-02 -.133E-01
   -.511E+03 0.132E+03 0.197E+04   0.513E+03 -.131E+03 -.196E+04   -.184E+01 -.760E+00 -.176E+01   -.203E-02 0.204E-02 0.620E-02
   -.411E+03 0.116E+03 -.118E+04   0.414E+03 -.116E+03 0.118E+04   -.282E+01 0.160E+00 0.249E+01   -.424E-01 -.114E-03 0.188E-01
   -.892E+03 0.470E+03 0.431E+04   0.893E+03 -.471E+03 -.431E+04   0.130E+01 0.503E+00 0.105E+01   0.129E-01 0.140E-01 -.231E-01
   -.317E+03 0.118E+03 0.971E+03   0.317E+03 -.118E+03 -.971E+03   0.542E+00 -.659E+00 -.305E+00   0.108E-01 -.108E-01 -.322E-01
   -.271E+03 0.933E+02 -.202E+04   0.273E+03 -.941E+02 0.202E+04   -.195E+01 0.115E+01 0.239E+01   0.565E-01 -.670E-01 -.377E-02
   -.181E+03 0.399E+03 -.510E+04   0.182E+03 -.401E+03 0.510E+04   -.501E+00 0.102E+01 0.220E+01   0.349E-01 -.106E-01 0.364E-01
   -.808E+03 -.665E+02 0.330E+04   0.813E+03 0.662E+02 -.330E+04   -.489E+01 0.368E+00 0.342E+00   -.614E-02 -.147E-01 -.118E-01
   -.505E+03 0.181E+03 -.127E+03   0.506E+03 -.180E+03 0.127E+03   -.769E+00 -.683E+00 0.408E+00   0.153E-02 0.252E-01 -.210E-01
   -.386E+03 0.484E+03 -.349E+04   0.390E+03 -.487E+03 0.349E+04   -.450E+01 0.279E+01 -.178E+01   0.106E+00 0.881E-01 0.394E-01
   -.264E+03 -.501E+03 0.527E+04   0.264E+03 0.507E+03 -.528E+04   0.297E+00 -.536E+01 0.980E+01   0.749E-02 -.903E-02 -.116E-01
   -.140E+03 -.160E+02 -.208E+04   0.141E+03 0.153E+02 0.209E+04   -.157E+00 0.490E+00 -.177E+01   -.165E-01 -.670E-02 0.132E-01
   0.101E+03 0.196E+03 0.174E+04   -.101E+03 -.198E+03 -.174E+04   -.956E+00 0.254E+01 0.342E+01   -.283E-02 -.343E-02 -.739E-02
   -.192E+02 0.787E+02 0.587E+02   0.192E+02 -.800E+02 -.568E+02   0.129E+00 0.122E+01 -.589E+00   0.423E-02 0.190E-02 0.339E-02
   0.696E+01 0.872E+02 -.885E+03   -.799E+01 -.899E+02 0.879E+03   0.384E+00 0.166E+01 0.172E+01   0.265E-02 0.886E-03 0.233E-01
   0.789E+02 0.445E+03 0.220E+04   -.795E+02 -.448E+03 -.220E+04   0.186E+00 0.111E+01 0.704E+00   0.462E-02 0.311E-02 -.273E-01
   0.505E+02 0.135E+03 0.112E+04   -.503E+02 -.136E+03 -.112E+04   -.108E+00 0.168E+01 0.740E+00   0.705E-02 -.113E-01 -.716E-02
   0.330E+02 0.111E+03 -.132E+03   -.333E+02 -.114E+03 0.131E+03   0.275E+00 0.241E+01 0.713E+00   0.384E-02 -.156E-01 -.719E-02
   -.773E+02 0.254E+03 -.141E+04   0.786E+02 -.256E+03 0.141E+04   -.105E+01 0.269E+00 -.143E+01   -.124E-01 -.160E-01 0.289E-01
   -.453E+02 0.944E+02 0.460E+03   0.464E+02 -.954E+02 -.457E+03   -.945E+00 0.102E+01 -.107E+01   -.151E-02 0.510E-02 -.135E-01
   -.432E+02 0.157E+03 -.530E+03   0.433E+02 -.159E+03 0.525E+03   0.658E+00 0.154E+01 0.191E+01   0.118E-01 0.114E-01 -.370E-01
   -.472E+02 0.159E+03 -.179E+04   0.473E+02 -.160E+03 0.180E+04   0.364E+00 0.954E-01 -.467E+00   0.238E-01 0.461E-02 0.231E-01
   -.111E+03 0.957E+02 0.213E+04   0.112E+03 -.995E+02 -.214E+04   -.107E+01 0.262E+01 0.502E+01   0.547E-02 -.221E-02 -.813E-02
   0.205E+03 -.151E+03 0.231E+04   -.208E+03 0.151E+03 -.232E+04   0.220E+01 0.538E+00 0.155E+01   -.568E-02 -.924E-03 -.168E-01
   -.710E+02 -.383E+02 0.808E+03   0.730E+02 0.384E+02 -.805E+03   -.140E+01 0.313E+00 -.244E+00   -.202E-02 0.287E-02 0.211E-02
   -.108E+03 -.101E+03 -.271E+03   0.110E+03 0.103E+03 0.271E+03   -.219E+01 -.176E+01 -.372E-01   -.137E-01 -.246E-02 0.517E-02
   -.994E+02 -.123E+03 -.157E+04   0.100E+03 0.124E+03 0.157E+04   -.290E+00 -.108E+00 -.462E+00   -.517E-01 -.190E-01 0.349E-02
   -.350E+03 -.124E+03 0.189E+04   0.352E+03 0.126E+03 -.189E+04   -.723E+00 -.693E+00 0.837E+00   -.245E-02 0.515E-02 -.125E-01
   -.118E+03 -.661E+02 0.567E+03   0.120E+03 0.676E+02 -.567E+03   -.224E+01 -.194E+01 0.109E+01   0.376E-02 0.253E-02 -.133E-01
   -.912E+02 -.156E+03 -.644E+03   0.925E+02 0.158E+03 0.644E+03   -.145E+01 -.225E+01 -.654E+00   0.232E-01 -.302E-02 -.192E-01
   -.399E+02 -.220E+03 -.184E+04   0.412E+02 0.220E+03 0.184E+04   -.577E+00 -.346E-01 -.560E+00   0.488E-01 -.242E-01 0.201E-01
   -.169E+03 -.119E+03 0.193E+03   0.171E+03 0.121E+03 -.194E+03   -.197E+01 -.173E+01 0.110E+01   -.733E-02 -.275E-02 0.226E-02
   -.153E+03 -.568E+02 -.911E+03   0.155E+03 0.589E+02 0.909E+03   -.161E+01 -.213E+01 -.321E+00   -.676E-02 0.262E-02 0.291E-01
   0.387E+02 0.246E+03 -.219E+04   -.385E+02 -.248E+03 0.219E+04   -.205E+00 0.701E+00 -.201E+01   0.353E-01 0.394E-01 0.221E-01
   -.325E+03 -.961E+02 0.164E+04   0.327E+03 0.972E+02 -.164E+04   0.325E-01 -.372E+00 0.315E+01   -.144E-01 -.802E-02 -.781E-02
   0.728E+02 -.166E+03 0.182E+04   -.745E+02 0.167E+03 -.182E+04   0.120E+01 -.637E+00 0.378E+01   0.604E-03 -.436E-02 -.633E-02
   0.139E+03 -.136E+03 0.418E+03   -.141E+03 0.138E+03 -.415E+03   0.194E+01 -.148E+01 0.515E+00   0.313E-02 0.344E-02 -.907E-02
   0.158E+03 -.423E+02 -.756E+03   -.160E+03 0.436E+02 0.757E+03   0.246E+01 -.821E+00 -.131E+01   0.208E-01 0.958E-02 0.822E-02
   0.117E+03 -.178E+03 -.203E+04   -.119E+03 0.180E+03 0.203E+04   0.845E+00 -.103E+01 -.137E+01   0.154E-01 0.229E-02 0.169E-01
   0.126E+03 -.416E+02 0.786E+02   -.129E+03 0.427E+02 -.784E+02   0.240E+01 -.110E+01 -.524E+00   -.120E-01 0.363E-02 0.384E-02
   0.101E+03 -.101E+03 -.114E+04   -.104E+03 0.102E+03 0.114E+04   0.313E+01 -.123E+01 -.106E+01   -.400E-01 -.700E-02 -.309E-02
   0.297E+02 -.203E+03 -.224E+04   -.307E+02 0.204E+03 0.224E+04   0.110E+00 -.531E+00 -.159E+01   -.150E-01 -.621E-01 0.368E-01
   0.347E+03 0.232E+01 0.144E+04   -.351E+03 -.165E+01 -.144E+04   0.268E+01 0.146E+00 0.183E+01   0.580E-03 0.118E-01 -.105E-01
   0.157E+03 -.279E+03 0.222E+04   -.158E+03 0.281E+03 -.222E+04   -.797E+00 -.278E-02 0.125E+01   0.599E-02 0.424E-03 -.192E-01
   0.301E+03 -.191E+03 0.903E+03   -.305E+03 0.194E+03 -.901E+03   0.287E+01 -.218E+01 0.308E+00   0.517E-02 -.122E-02 -.729E-02
   0.154E+03 -.664E+02 -.314E+03   -.157E+03 0.672E+02 0.315E+03   0.290E+01 -.819E+00 -.125E+01   0.330E-02 0.340E-03 0.529E-02
   0.164E+03 0.102E+03 -.157E+04   -.166E+03 -.101E+03 0.157E+04   0.146E+01 -.103E+01 -.249E+01   -.692E-02 0.511E-01 0.239E-01
 -----------------------------------------------------------------------------------------------
   -.260E+02 0.115E+02 -.303E+02   0.568E-13 -.142E-11 -.136E-11   0.260E+02 -.113E+02 0.302E+02   0.112E+00 -.345E-01 0.990E-01
 
 
 POSITION                                       TOTAL-FORCE (eV/Angst)
 -----------------------------------------------------------------------------------
      6.84285      7.49250      2.62550        -0.545944      0.662608      1.912765
      7.82056      6.07621      5.25100        -0.138293     -0.241339      0.141642
      8.79827      4.65991      7.87651         0.506823      0.828971     -0.763930
      2.61774      3.87870      3.50067         0.264029     -1.257201      2.492311
      3.59545      2.46241      6.12617        -0.118404     -0.455852     -0.105917
      4.57317      1.04611      8.75167        -0.682427      1.219356     -0.641381
     12.15226      5.61503      2.12498        -0.240571     -0.300064     -0.722909
      3.78957      7.40011      9.33332        -0.555741      0.171360      0.621910
      7.95228      2.02542      3.02849        -0.514656     -0.242902     -0.781088
      8.47237      0.26490      4.37584         0.323984     -1.099049      1.336147
     13.02338      8.27371      7.00134         0.157923     -0.309952     -0.343224
      5.63882      5.20989      2.33581        -0.061716     -0.668685     -1.033772
      6.61816      3.96023      4.55733        -0.079406      0.275964     -0.097991
      7.59587      2.54394      7.18283        -0.260044     -0.335098     -1.424123
      8.44598      1.07607      9.49612        -0.685088      0.355540      1.382550
      1.41534      1.76273      2.80700        -0.947886     -0.733373      1.840992
      2.39305      0.34643      5.43250         0.124318      0.125061      0.012093
      6.94406      8.35524      8.05800        -0.754327      0.486879     -2.801043
      6.98706      6.82916      9.81456         0.999131     -0.387281      0.860669
      2.03854      3.42235      1.00412        -0.464680      0.998805     -1.704847
      2.61012      4.77229      8.61992        -0.943562     -0.300942      1.236519
      9.34130      7.98709      1.80279         0.009637     -0.991267      0.431028
     10.84326      7.57403      3.68216         0.194483     -0.215802      0.671680
     11.82097      6.15773      6.30767        -0.067582      0.096393      0.059001
      0.83312      1.67069      8.72182         0.818523      0.037375      0.992076
      8.08028      5.59876      1.65947         0.510421     -1.191356     -0.715901
      9.02296      4.33443      3.86366         0.112632     -0.083999     -0.217786
     10.00068      2.91813      6.48916         0.007188     -0.147768     -1.386737
      3.82015      2.13692      2.11332         1.867943     -0.802575      1.552989
      4.79786      0.72063      4.73883        -0.202664     -0.004917      0.141782
      9.34887      8.72943      7.36433        -0.331283      0.294163     -1.574850
     10.32070      7.72069      9.33733         0.420108     -0.750387      1.146908
      3.16834      7.94822      2.98849        -0.073247      0.100959      0.443006
      4.14605      6.53193      5.61399         0.290694      0.156515     -0.129707
      5.12376      5.11563      8.23950        -0.078423      0.137332     -1.836516
      7.75083      0.02609      1.67468         1.029541      0.887871     -0.779917
      0.13297      0.02543      9.87274         0.910842     -0.278046      2.102523
      7.35546      3.82659      2.42507        -1.133338      0.490043     -1.577608
      8.33317      2.41029      5.05057         0.225404     -0.056151      1.306910
      9.31088      0.99399      7.67607        -0.644137     -1.053270     -3.764525
      2.29268      1.42847      0.97233        -0.382587     -2.217108     -3.490478
      3.13035      0.21279      3.30024         0.153886      0.141155      0.262356
      7.68136      8.22159      5.92574         0.023371     -0.158584     -0.286386
      8.65907      6.80530      8.55124         0.214984     -1.557668     -0.173956
      2.47854      6.02409      4.17540         0.068241     -0.037310      1.340634
      3.45626      4.60779      6.80091         0.724142      0.330340     -2.830626
      4.17624      3.32115      8.89455         0.477916     -0.779287      2.095898
     11.58056      7.44039      1.54990         0.002925     -1.186418     -2.091732
      7.66309      7.37252      0.75843        -0.546307      0.957743     -3.687120
      8.88655      6.52099      3.30837         0.530339      0.352724      2.526155
      9.86427      5.10469      5.93387         0.008610      0.332435     -0.366561
     10.80551      3.73807      8.25555         0.745607      0.704698      2.120014
      3.78367      4.26494      1.75795         1.378037      0.942725     -1.683338
      4.66145      2.90719      4.18354         0.000716     -0.375305      0.374939
      5.63916      1.49089      6.80904        -0.161892      0.163669     -1.060200
      6.50778      0.31005      9.13171         0.763630      0.002900      1.857586
      4.00964      8.71849      5.05870        -0.002678     -0.097749      0.457989
      4.98735      7.30220      7.68420         0.868062      0.013409     -1.982491
      5.14888      6.02239     10.08600         0.036248     -0.669674      3.483116
      9.53836      0.70969      2.43320         2.626696      0.692850      0.105319
      4.85632      7.15787      2.00790        -0.527816      0.781610     -2.160561
      5.82436      6.04450      4.19167         0.298770      0.569303      2.853787
      6.80207      4.62821      6.81717        -0.027017      0.400518     -0.272452
      8.13871      3.10204      9.07829        -1.352914      1.255774      3.147405
      1.59925      2.43070      5.06683         0.048541     -0.066837     -0.276663
      2.57697      1.01441      7.69234         0.278746      0.057889     -0.736816
      7.42574      8.87701      9.95138        -0.907286      0.878168      3.520446
     10.70128      3.84700      2.44133        -1.048797      0.824668      0.122020
      6.12113      0.05147      0.47702        -1.628086      2.101587     -3.211417
      6.47617      0.23320      3.31650        -1.316681      0.598354      2.152333
     11.02718      8.24201      5.94200         0.183977     -0.047839     -0.250682
     12.00489      6.82571      8.56750        -0.781589     -0.326660     -0.140251
 -----------------------------------------------------------------------------------
    total drift:                                0.138715      0.125686     -0.024972


--------------------------------------------------------------------------------------------------------



  FREE ENERGIE OF THE ION-ELECTRON SYSTEM (eV)
  ---------------------------------------------------
  free  energy   TOTEN  =      -351.32325939 eV

  energy  without entropy=     -350.28135528  energy(sigma->0) =     -350.80230734
 


--------------------------------------------------------------------------------------------------------


    POTLOK:  cpu time    0.2684: real time    0.2687


--------------------------------------------------------------------------------------------------------


     LOOP+:  cpu time  290.5251: real time  290.5842
    4ORBIT:  cpu time    0.0000: real time    0.0000

 total amount of memory used by VASP MPI-rank0    68405. kBytes
=======================================================================

   base      :      30000. kBytes
   nonlr-proj:       2290. kBytes
   fftplans  :       8265. kBytes
   grid      :      13942. kBytes
   one-center:         93. kBytes
   wavefun   :      13815. kBytes
 
  
  
 General timing and accounting informations for this job:
 ========================================================
  
                  Total CPU time used (sec):      293.231
                            User time (sec):      292.759
                          System time (sec):        0.472
                         Elapsed time (sec):      293.537
  
                   Maximum memory used (kb):      186168.
                   Average memory used (kb):           0.
  
                          Minor page faults:       128930
                          Major page faults:            0
                 Voluntary context switches:          234
