<?xml version="1.0" encoding="ISO-8859-1"?>
<modeling>
 <generator>
  <i name="program" type="string">vasp </i>
  <i name="version" type="string">6.1.0  </i>
  <i name="subversion" type="string">28Jan20 (build Mar 31 2020 17:42:31) gamma-only                       parallel </i>
  <i name="platform" type="string">LinuxIFC </i>
  <i name="date" type="string">2020 04 13 </i>
  <i name="time" type="string">01:57:18 </i>
 </generator>
 <incar>
  <i type="string" name="SYSTEM">"Millerite NiS"</i>
  <i type="int" name="NSIM">     4</i>
  <i type="int" name="NELM">   100</i>
  <i name="ENCUT">    450.00000000</i>
  <i type="string" name="LREAL">A</i>
  <i type="int" name="ISMEAR">     0</i>
  <i type="int" name="NWRITE">     2</i>
  <i type="logical" name="LWAVE"> F  </i>
  <i type="logical" name="LCHARG"> F  </i>
  <i type="int" name="NCORE">     6</i>
  <i type="int" name="NELM">   100</i>
 </incar>
 <structure name="primitive_cell" >
  <crystal>
   <varray name="basis" >
    <v>       8.42818148      -4.55101034       0.00000000 </v>
    <v>       0.00000000      10.07973298       0.00000000 </v>
    <v>       0.00000000       0.00000000      19.01113574 </v>
   </varray>
   <i name="volume">   1615.06858132 </i>
   <varray name="rec_basis" >
    <v>       0.11864956       0.00000000       0.00000000 </v>
    <v>       0.05357040       0.09920898       0.00000000 </v>
    <v>       0.00000000       0.00000000       0.05260075 </v>
   </varray>
  </crystal>
  <varray name="positions" >
   <v>       0.58263032       0.78996333       0.25739808 </v>
   <v>       0.51999040       0.66468351       0.41183694 </v>
   <v>       0.33281687       0.29033643       0.05147962 </v>
   <v>       0.27017695       0.16505661       0.20591847 </v>
   <v>       0.20753704       0.03977678       0.36035732 </v>
   <v>       0.02036350       0.66542971       0.00000000 </v>
   <v>       0.95772359       0.54014988       0.15443885 </v>
   <v>       0.89508368       0.41487006       0.30887770 </v>
   <v>       0.83244377       0.28959023       0.46331655 </v>
   <v>       0.66182007       0.68413684       0.06215556 </v>
   <v>       0.59918016       0.55885702       0.21659441 </v>
   <v>       0.53654024       0.43357719       0.37103327 </v>
   <v>       0.28672679       0.93395029       0.16511480 </v>
   <v>       0.22408688       0.80867046       0.31955365 </v>
   <v>       0.16144697       0.68339064       0.47399250 </v>
   <v>       0.97427343       0.30904357       0.11363518 </v>
   <v>       0.91163352       0.18376374       0.26807403 </v>
   <v>       0.84899361       0.05848391       0.42251288 </v>
   <v>       0.90947623       0.91524316       0.10295923 </v>
   <v>       0.84683632       0.78996333       0.25739808 </v>
   <v>       0.78419640       0.66468351       0.41183694 </v>
   <v>       0.53438295       0.16505661       0.20591847 </v>
   <v>       0.47174304       0.03977678       0.36035732 </v>
   <v>       0.28456951       0.66542971       0.00000000 </v>
   <v>       0.22192959       0.54014988       0.15443885 </v>
   <v>       0.15928968       0.41487006       0.30887770 </v>
   <v>       0.09664977       0.28959023       0.46331655 </v>
   <v>       0.82518168       0.67443006       0.15301029 </v>
   <v>       0.76254177       0.54915023       0.30744914 </v>
   <v>       0.69990185       0.42387040       0.46188799 </v>
   <v>       0.51272831       0.04952333       0.10153067 </v>
   <v>       0.45008840       0.92424350       0.25596953 </v>
   <v>       0.38744849       0.79896368       0.41040838 </v>
   <v>       0.20027495       0.42461661       0.05005106 </v>
   <v>       0.13763504       0.29933678       0.20448991 </v>
   <v>       0.07499513       0.17405695       0.35892876 </v>
   <v>       0.86674764       0.09399199       0.05052930 </v>
   <v>       0.80410773       0.96871216       0.20496815 </v>
   <v>       0.74146782       0.84343234       0.35940701 </v>
   <v>       0.49165437       0.34380544       0.15348854 </v>
   <v>       0.42901446       0.21852561       0.30792739 </v>
   <v>       0.36637454       0.09324579       0.46236624 </v>
   <v>       0.17920101       0.71889871       0.10200892 </v>
   <v>       0.11656109       0.59361889       0.25644777 </v>
   <v>       0.05392118       0.46833906       0.41088662 </v>
   <v>       0.48875168       0.67443006       0.15301029 </v>
   <v>       0.42611177       0.54915023       0.30744914 </v>
   <v>       0.36347185       0.42387040       0.46188799 </v>
   <v>       0.17629831       0.04952333       0.10153067 </v>
   <v>       0.11365840       0.92424350       0.25596953 </v>
   <v>       0.05101849       0.79896368       0.41040838 </v>
   <v>       0.86384495       0.42461661       0.05005106 </v>
   <v>       0.80120504       0.29933678       0.20448991 </v>
   <v>       0.73856513       0.17405695       0.35892876 </v>
  </varray>
 </structure>
 <varray name="primitive_index" >
  <v type="int" >        1 </v>
  <v type="int" >        2 </v>
  <v type="int" >        3 </v>
  <v type="int" >        4 </v>
  <v type="int" >        5 </v>
  <v type="int" >        6 </v>
  <v type="int" >        7 </v>
  <v type="int" >        8 </v>
  <v type="int" >        9 </v>
  <v type="int" >       10 </v>
  <v type="int" >       11 </v>
  <v type="int" >       12 </v>
  <v type="int" >       13 </v>
  <v type="int" >       14 </v>
  <v type="int" >       15 </v>
  <v type="int" >       16 </v>
  <v type="int" >       17 </v>
  <v type="int" >       18 </v>
  <v type="int" >       19 </v>
  <v type="int" >       20 </v>
  <v type="int" >       21 </v>
  <v type="int" >       22 </v>
  <v type="int" >       23 </v>
  <v type="int" >       24 </v>
  <v type="int" >       25 </v>
  <v type="int" >       26 </v>
  <v type="int" >       27 </v>
  <v type="int" >       28 </v>
  <v type="int" >       29 </v>
  <v type="int" >       30 </v>
  <v type="int" >       31 </v>
  <v type="int" >       32 </v>
  <v type="int" >       33 </v>
  <v type="int" >       34 </v>
  <v type="int" >       35 </v>
  <v type="int" >       36 </v>
  <v type="int" >       37 </v>
  <v type="int" >       38 </v>
  <v type="int" >       39 </v>
  <v type="int" >       40 </v>
  <v type="int" >       41 </v>
  <v type="int" >       42 </v>
  <v type="int" >       43 </v>
  <v type="int" >       44 </v>
  <v type="int" >       45 </v>
  <v type="int" >       46 </v>
  <v type="int" >       47 </v>
  <v type="int" >       48 </v>
  <v type="int" >       49 </v>
  <v type="int" >       50 </v>
  <v type="int" >       51 </v>
  <v type="int" >       52 </v>
  <v type="int" >       53 </v>
  <v type="int" >       54 </v>
 </varray>
 <kpoints>
  <generation param="Gamma">
   <v type="int" name="divisions">       1        1        1 </v>
   <v name="usershift">      0.00000000       0.00000000       0.00000000 </v>
   <v name="genvec1">      1.00000000       0.00000000       0.00000000 </v>
   <v name="genvec2">      0.00000000       1.00000000       0.00000000 </v>
   <v name="genvec3">      0.00000000       0.00000000       1.00000000 </v>
   <v name="shift">      0.00000000       0.00000000       0.00000000 </v>
  </generation>
  <varray name="kpointlist" >
   <v>       0.00000000       0.00000000       0.00000000 </v>
  </varray>
  <varray name="weights" >
   <v>       1.00000000 </v>
  </varray>
 </kpoints>
 <parameters>
  <separator name="general" >
   <i type="string" name="SYSTEM">"Millerite NiS"</i>
   <i type="logical" name="LCOMPAT"> F  </i>
  </separator>
  <separator name="electronic" >
   <i type="string" name="PREC">normal</i>
   <i name="ENMAX">    450.00000000</i>
   <i name="ENAUG">    703.44300000</i>
   <i name="EDIFF">      0.00010000</i>
   <i type="int" name="IALGO">    38</i>
   <i type="int" name="IWAVPR">    10</i>
   <i type="int" name="NBANDS">   360</i>
   <i type="int" name="NBANDSLOW">    -1</i>
   <i type="int" name="NBANDSHIGH">    -1</i>
   <i name="NELECT">    594.00000000</i>
   <i type="int" name="TURBO">     0</i>
   <i type="int" name="IRESTART">     0</i>
   <i type="int" name="NREBOOT">     0</i>
   <i type="int" name="NMIN">     0</i>
   <i name="EREF">      0.00000000</i>
   <separator name="electronic smearing" >
    <i type="int" name="ISMEAR">     0</i>
    <i name="SIGMA">      0.20000000</i>
    <i name="KSPACING">      0.50000000</i>
    <i type="logical" name="KGAMMA"> T  </i>
    <i type="logical" name="KBLOWUP"> T  </i>
   </separator>
   <separator name="electronic projectors" >
    <i type="logical" name="LREAL"> T  </i>
    <v name="ROPT">     -0.00050000     -0.00050000</v>
    <i type="int" name="LMAXPAW">  -100</i>
    <i type="int" name="LMAXMIX">     2</i>
    <i type="logical" name="NLSPLINE"> F  </i>
   </separator>
   <separator name="electronic startup" >
    <i type="int" name="ISTART">     0</i>
    <i type="int" name="ICHARG">     2</i>
    <i type="int" name="INIWAV">     1</i>
   </separator>
   <separator name="electronic spin" >
    <i type="int" name="ISPIN">     1</i>
    <i type="logical" name="LNONCOLLINEAR"> F  </i>
    <v name="MAGMOM">      1.00000000      1.00000000      1.00000000      1.00000000      1.00000000      1.00000000      1.00000000      1.00000000      1.00000000      1.00000000      1.00000000      1.00000000      1.00000000      1.00000000      1.00000000      1.00000000      1.00000000      1.00000000      1.00000000      1.00000000
      1.00000000      1.00000000      1.00000000      1.00000000      1.00000000      1.00000000      1.00000000      1.00000000      1.00000000      1.00000000      1.00000000      1.00000000      1.00000000      1.00000000      1.00000000      1.00000000      1.00000000      1.00000000      1.00000000      1.00000000
      1.00000000      1.00000000      1.00000000      1.00000000      1.00000000      1.00000000      1.00000000      1.00000000      1.00000000      1.00000000      1.00000000      1.00000000      1.00000000      1.00000000</v>
    <i name="NUPDOWN">     -1.00000000</i>
    <i type="logical" name="LSORBIT"> F  </i>
    <v name="SAXIS">      0.00000000      0.00000000      1.00000000</v>
    <i type="logical" name="LSPIRAL"> F  </i>
    <v name="QSPIRAL">      0.00000000      0.00000000      0.00000000</v>
    <i type="logical" name="LZEROZ"> F  </i>
   </separator>
   <separator name="electronic exchange-correlation" >
    <i type="logical" name="LASPH"> F  </i>
    <i type="logical" name="LMETAGGA"> F  </i>
   </separator>
   <separator name="electronic convergence" >
    <i type="int" name="NELM">   100</i>
    <i type="int" name="NELMDL">    -5</i>
    <i type="int" name="NELMIN">     2</i>
    <i name="ENINI">    450.00000000</i>
    <separator name="electronic convergence detail" >
     <i type="logical" name="LDIAG"> T  </i>
     <i type="logical" name="LSUBROT"> F  </i>
     <i name="WEIMIN">      0.00000000</i>
     <i name="EBREAK">      0.00000007</i>
     <i name="DEPER">      0.30000000</i>
     <i type="int" name="NRMM">     4</i>
     <i name="TIME">      0.40000000</i>
    </separator>
   </separator>
   <separator name="electronic mixer" >
    <i name="AMIX">      0.40000000</i>
    <i name="BMIX">      1.00000000</i>
    <i name="AMIN">      0.10000000</i>
    <i name="AMIX_MAG">      1.60000000</i>
    <i name="BMIX_MAG">      1.00000000</i>
    <separator name="electronic mixer details" >
     <i type="int" name="IMIX">     4</i>
     <i type="logical" name="MIXFIRST"> F  </i>
     <i type="int" name="MAXMIX">   -45</i>
     <i name="WC">    100.00000000</i>
     <i type="int" name="INIMIX">     1</i>
     <i type="int" name="MIXPRE">     1</i>
     <i type="int" name="MREMOVE">     5</i>
    </separator>
   </separator>
   <separator name="electronic dipolcorrection" >
    <i type="logical" name="LDIPOL"> F  </i>
    <i type="logical" name="LMONO"> F  </i>
    <i type="int" name="IDIPOL">     0</i>
    <i name="EPSILON">      1.00000000</i>
    <v name="DIPOL">   -100.00000000   -100.00000000   -100.00000000</v>
    <i name="EFIELD">      0.00000000</i>
   </separator>
  </separator>
  <separator name="grids" >
   <i type="int" name="NGX">    50</i>
   <i type="int" name="NGY">    54</i>
   <i type="int" name="NGZ">   100</i>
   <i type="int" name="NGXF">   100</i>
   <i type="int" name="NGYF">   108</i>
   <i type="int" name="NGZF">   200</i>
   <i type="logical" name="ADDGRID"> F  </i>
  </separator>
  <separator name="ionic" >
   <i type="int" name="NSW">     0</i>
   <i type="int" name="IBRION">    -1</i>
   <i type="int" name="MDALGO">     0</i>
   <i type="int" name="ISIF">     2</i>
   <i name="PSTRESS">      0.00000000</i>
   <i name="EDIFFG">      0.00100000</i>
   <i type="int" name="NFREE">     0</i>
   <i name="POTIM">      0.50000000</i>
   <i name="SMASS">     -3.00000000</i>
   <i name="SCALEE">      1.00000000</i>
  </separator>
  <separator name="ionic md" >
   <i name="TEBEG">      0.00010000</i>
   <i name="TEEND">      0.00010000</i>
   <i type="int" name="NBLOCK">     1</i>
   <i type="int" name="KBLOCK">     1</i>
   <i type="int" name="NPACO">   256</i>
   <i name="APACO">     16.00000000</i>
  </separator>
  <separator name="symmetry" >
   <i type="int" name="ISYM">     2</i>
   <i name="SYMPREC">      0.00001000</i>
  </separator>
  <separator name="dos" >
   <i type="int" name="LORBIT">     0</i>
   <v name="RWIGS">     -1.00000000     -1.00000000</v>
   <i type="int" name="NEDOS">   301</i>
   <i name="EMIN">     10.00000000</i>
   <i name="EMAX">    -10.00000000</i>
   <i name="EFERMI">      0.00000000</i>
  </separator>
  <separator name="writing" >
   <i type="int" name="NWRITE">     2</i>
   <i type="logical" name="LWAVE"> F  </i>
   <i type="logical" name="LDOWNSAMPLE"> F  </i>
   <i type="logical" name="LCHARG"> F  </i>
   <i type="logical" name="LPARD"> F  </i>
   <i type="logical" name="LVTOT"> F  </i>
   <i type="logical" name="LVHAR"> F  </i>
   <i type="logical" name="LELF"> F  </i>
   <i type="logical" name="LOPTICS"> F  </i>
   <v name="STM">      0.00000000      0.00000000      0.00000000      0.00000000      0.00000000      0.00000000      0.00000000</v>
  </separator>
  <separator name="performance" >
   <i type="int" name="NPAR">     8</i>
   <i type="int" name="NSIM">     4</i>
   <i type="int" name="NBLK">    -1</i>
   <i type="logical" name="LPLANE"> T  </i>
   <i type="logical" name="LSCALAPACK"> T  </i>
   <i type="logical" name="LSCAAWARE"> F  </i>
   <i type="logical" name="LSCALU"> F  </i>
   <i type="logical" name="LASYNC"> F  </i>
   <i type="logical" name="LORBITALREAL"> F  </i>
  </separator>
  <separator name="miscellaneous" >
   <i type="int" name="IDIOT">     3</i>
   <i type="int" name="PHON_NSTRUCT">    -1</i>
   <i type="logical" name="LMUSIC"> F  </i>
   <v name="POMASS">     58.69000000     32.06600000</v>
   <v name="DARWINR">      0.00000000      0.00000000</v>
   <v name="DARWINV">      1.00000000      1.00000000</v>
   <i type="logical" name="LCORR"> T  </i>
  </separator>
  <i type="logical" name="GGA_COMPAT"> T  </i>
  <i type="logical" name="LBERRY"> F  </i>
  <i type="int" name="ICORELEVEL">     0</i>
  <i type="logical" name="LDAU"> F  </i>
  <i type="int" name="I_CONSTRAINED_M">     0</i>
  <separator name="electronic exchange-correlation" >
   <i type="string" name="GGA">--</i>
   <i type="int" name="VOSKOWN">     0</i>
   <i type="logical" name="LHFCALC"> F  </i>
   <i type="string" name="PRECFOCK"></i>
   <i type="logical" name="LSYMGRAD"> F  </i>
   <i type="logical" name="LHFONE"> F  </i>
   <i type="logical" name="LRHFCALC"> F  </i>
   <i type="logical" name="LTHOMAS"> F  </i>
   <i type="logical" name="LMODELHF"> F  </i>
   <i type="logical" name="LFOCKACE"> F  </i>
   <i name="ENCUT4O">     -1.00000000</i>
   <i type="int" name="EXXOEP">     0</i>
   <i type="int" name="FOURORBIT">     0</i>
   <i name="AEXX">      0.00000000</i>
   <i name="HFALPHA">      0.00000000</i>
   <i name="MCALPHA">      0.00000000</i>
   <i name="ALDAX">      1.00000000</i>
   <i name="AGGAX">      1.00000000</i>
   <i name="ALDAC">      1.00000000</i>
   <i name="AGGAC">      1.00000000</i>
   <i type="int" name="NKREDX">     1</i>
   <i type="int" name="NKREDY">     1</i>
   <i type="int" name="NKREDZ">     1</i>
   <i type="logical" name="SHIFTRED"> F  </i>
   <i type="logical" name="ODDONLY"> F  </i>
   <i type="logical" name="EVENONLY"> F  </i>
   <i type="int" name="LMAXFOCK">     0</i>
   <i type="int" name="NMAXFOCKAE">     0</i>
   <i type="logical" name="LFOCKAEDFT"> F  </i>
   <i name="HFSCREEN">      0.00000000</i>
   <i name="HFSCREENC">      0.00000000</i>
   <i type="int" name="NBANDSGWLOW">     0</i>
  </separator>
  <separator name="vdW DFT" >
   <i type="logical" name="LUSE_VDW"> F  </i>
   <i name="Zab_VDW">     -0.84910000</i>
   <i name="PARAM1">      0.12340000</i>
   <i name="PARAM2">      1.00000000</i>
   <i name="PARAM3">      0.00000000</i>
  </separator>
  <separator name="model GW" >
   <i type="int" name="MODEL_GW">     0</i>
   <i name="MODEL_EPS0">     17.94520646</i>
   <i name="MODEL_ALPHA">      1.00000000</i>
  </separator>
  <separator name="linear response parameters" >
   <i type="logical" name="LEPSILON"> F  </i>
   <i type="logical" name="LRPA"> F  </i>
   <i type="logical" name="LNABLA"> F  </i>
   <i type="logical" name="LVEL"> F  </i>
   <i type="int" name="KINTER">     0</i>
   <i name="CSHIFT">      0.10000000</i>
   <i name="OMEGAMAX">     -1.00000000</i>
   <i name="DEG_THRESHOLD">      0.00200000</i>
   <i name="RTIME">     -0.10000000</i>
   <i name="WPLASMAI">      0.00000000</i>
   <v name="DFIELD">      0.00000000      0.00000000      0.00000000</v>
   <v name="WPLASMA">      0.00000000      0.00000000      0.00000000      0.00000000      0.00000000      0.00000000      0.00000000      0.00000000      0.00000000</v>
  </separator>
  <separator name="orbital magnetization" >
   <i type="logical" name="NUCIND"> F  </i>
   <v name="MAGPOS">      0.00000000      0.00000000      0.00000000</v>
   <i type="logical" name="LNICSALL"> T  </i>
   <i type="logical" name="ORBITALMAG"> F  </i>
   <i type="logical" name="LMAGBLOCH"> F  </i>
   <i type="logical" name="LCHIMAG"> F  </i>
   <i type="logical" name="LGAUGE"> T  </i>
   <i type="int" name="MAGATOM">     0</i>
   <v name="MAGDIPOL">      0.00000000      0.00000000      0.00000000</v>
   <v name="AVECCONST">      0.00000000      0.00000000      0.00000000</v>
  </separator>
  <separator name="response functions" >
   <i type="logical" name="LFINITE_TEMPERATURE"> F  </i>
   <i type="logical" name="LADDER"> F  </i>
   <i type="logical" name="LRPAFORCE"> F  </i>
   <i type="logical" name="LFXC"> F  </i>
   <i type="logical" name="LHARTREE"> T  </i>
   <i type="int" name="IBSE">     0</i>
   <v type="int" name="KPOINT">    -1     0     0     0</v>
   <i type="logical" name="LTCTC"> F  </i>
   <i type="logical" name="LTCTE"> F  </i>
   <i type="logical" name="LTETE"> F  </i>
   <i type="logical" name="LTRIPLET"> F  </i>
   <i type="logical" name="LFXCEPS"> F  </i>
   <i type="logical" name="LFXHEG"> F  </i>
   <i type="int" name="NATURALO">     2</i>
   <i type="logical" name="LHOLEGF"> F  </i>
   <i type="logical" name="L2ORDER"> F  </i>
   <i type="logical" name="LDMP1"> F  </i>
   <i type="logical" name="LMP2LT"> F  </i>
   <i type="logical" name="LSMP2LT"> F  </i>
   <i type="logical" name="LGWLF"> F  </i>
   <i name="ENCUTGW">     -2.00000000</i>
   <i name="ENCUTGWSOFT">     -2.00000000</i>
   <i name="ENCUTLF">     -1.00000000</i>
   <i type="logical" name="LESF_SPLINES"> F  </i>
   <i type="int" name="LMAXMP2">    -1</i>
   <i name="SCISSOR">      0.00000000</i>
   <i type="int" name="NOMEGA">     0</i>
   <i type="int" name="NOMEGAR">     0</i>
   <i type="int" name="NBANDSGW">    -1</i>
   <i type="int" name="NBANDSO">    -1</i>
   <i type="int" name="NBANDSV">    -1</i>
   <i type="int" name="NELM">   100</i>
   <i type="int" name="NELMHF">     1</i>
   <i type="int" name="DIM">     3</i>
   <i type="int" name="IESPILON">     4</i>
   <i type="int" name="ANTIRES">     0</i>
   <i name="OMEGAMAX">    -30.00000000</i>
   <i name="OMEGAMIN">    -30.00000000</i>
   <i name="OMEGATL">   -200.00000000</i>
   <i type="int" name="OMEGAGRID">     0</i>
   <i name="CSHIFT">     -0.10000000</i>
   <i type="logical" name="LSELFENERGY"> F  </i>
   <i type="logical" name="LSPECTRAL"> F  </i>
   <i type="logical" name="LSPECTRALGW"> F  </i>
   <i type="logical" name="LSINGLES"> F  </i>
   <i type="logical" name="LFERMIGW"> F  </i>
   <i type="logical" name="ODDONLYGW"> F  </i>
   <i type="logical" name="EVENONLYGW"> F  </i>
   <i type="int" name="NKREDLFX">     1</i>
   <i type="int" name="NKREDLFY">     1</i>
   <i type="int" name="NKREDLFZ">     1</i>
   <i type="int" name="MAXMEM">  2800</i>
   <i type="int" name="TELESCOPE">     0</i>
   <i type="int" name="NTAUPAR">    -1</i>
   <i type="int" name="NOMEGAPAR">    -1</i>
   <i name="LAMBDA">      1.00000000</i>
  </separator>
  <separator name="External order field" >
   <i name="OFIELD_KAPPA">      0.00000000</i>
   <v name="OFIELD_K">      0.00000000      0.00000000      0.00000000</v>
   <i name="OFIELD_Q6_NEAR">      0.00000000</i>
   <i name="OFIELD_Q6_FAR">      0.00000000</i>
   <i name="OFIELD_A">      0.00000000</i>
  </separator>
 </parameters>
 <atominfo>
  <atoms>      54 </atoms>
  <types>       2 </types>
  <array name="atoms" >
   <dimension dim="1">ion</dimension>
   <field type="string">element</field>
   <field type="int">atomtype</field>
   <set>
    <rc><c>Ni</c><c>   1</c></rc>
    <rc><c>Ni</c><c>   1</c></rc>
    <rc><c>Ni</c><c>   1</c></rc>
    <rc><c>Ni</c><c>   1</c></rc>
    <rc><c>Ni</c><c>   1</c></rc>
    <rc><c>Ni</c><c>   1</c></rc>
    <rc><c>Ni</c><c>   1</c></rc>
    <rc><c>Ni</c><c>   1</c></rc>
    <rc><c>Ni</c><c>   1</c></rc>
    <rc><c>Ni</c><c>   1</c></rc>
    <rc><c>Ni</c><c>   1</c></rc>
    <rc><c>Ni</c><c>   1</c></rc>
    <rc><c>Ni</c><c>   1</c></rc>
    <rc><c>Ni</c><c>   1</c></rc>
    <rc><c>Ni</c><c>   1</c></rc>
    <rc><c>Ni</c><c>   1</c></rc>
    <rc><c>Ni</c><c>   1</c></rc>
    <rc><c>Ni</c><c>   1</c></rc>
    <rc><c>Ni</c><c>   1</c></rc>
    <rc><c>Ni</c><c>   1</c></rc>
    <rc><c>Ni</c><c>   1</c></rc>
    <rc><c>Ni</c><c>   1</c></rc>
    <rc><c>Ni</c><c>   1</c></rc>
    <rc><c>Ni</c><c>   1</c></rc>
    <rc><c>Ni</c><c>   1</c></rc>
    <rc><c>Ni</c><c>   1</c></rc>
    <rc><c>Ni</c><c>   1</c></rc>
    <rc><c>S </c><c>   2</c></rc>
    <rc><c>S </c><c>   2</c></rc>
    <rc><c>S </c><c>   2</c></rc>
    <rc><c>S </c><c>   2</c></rc>
    <rc><c>S </c><c>   2</c></rc>
    <rc><c>S </c><c>   2</c></rc>
    <rc><c>S </c><c>   2</c></rc>
    <rc><c>S </c><c>   2</c></rc>
    <rc><c>S </c><c>   2</c></rc>
    <rc><c>S </c><c>   2</c></rc>
    <rc><c>S </c><c>   2</c></rc>
    <rc><c>S </c><c>   2</c></rc>
    <rc><c>S </c><c>   2</c></rc>
    <rc><c>S </c><c>   2</c></rc>
    <rc><c>S </c><c>   2</c></rc>
    <rc><c>S </c><c>   2</c></rc>
    <rc><c>S </c><c>   2</c></rc>
    <rc><c>S </c><c>   2</c></rc>
    <rc><c>S </c><c>   2</c></rc>
    <rc><c>S </c><c>   2</c></rc>
    <rc><c>S </c><c>   2</c></rc>
    <rc><c>S </c><c>   2</c></rc>
    <rc><c>S </c><c>   2</c></rc>
    <rc><c>S </c><c>   2</c></rc>
    <rc><c>S </c><c>   2</c></rc>
    <rc><c>S </c><c>   2</c></rc>
    <rc><c>S </c><c>   2</c></rc>
   </set>
  </array>
  <array name="atomtypes" >
   <dimension dim="1">type</dimension>
   <field type="int">atomspertype</field>
   <field type="string">element</field>
   <field>mass</field>
   <field>valence</field>
   <field type="string">pseudopotential</field>
   <set>
    <rc><c>  27</c><c>Ni</c><c>     58.69000000</c><c>     16.00000000</c><c>  PAW_PBE Ni_pv 06Sep2000               </c></rc>
    <rc><c>  27</c><c>S </c><c>     32.06600000</c><c>      6.00000000</c><c>  PAW_PBE S 06Sep2000                   </c></rc>
   </set>
  </array>
 </atominfo>
 <structure name="initialpos" >
  <crystal>
   <varray name="basis" >
    <v>       8.42818148      -4.55101034       0.00000000 </v>
    <v>       0.00000000      10.07973298       0.00000000 </v>
    <v>       0.00000000       0.00000000      19.01113574 </v>
   </varray>
   <i name="volume">   1615.06858132 </i>
   <varray name="rec_basis" >
    <v>       0.11864956       0.00000000       0.00000000 </v>
    <v>       0.05357040       0.09920898       0.00000000 </v>
    <v>       0.00000000       0.00000000       0.05260075 </v>
   </varray>
  </crystal>
  <varray name="positions" >
   <v>       0.58263032       0.78996333       0.25739808 </v>
   <v>       0.51999040       0.66468351       0.41183694 </v>
   <v>       0.33281687       0.29033643       0.05147962 </v>
   <v>       0.27017695       0.16505661       0.20591847 </v>
   <v>       0.20753704       0.03977678       0.36035732 </v>
   <v>       0.02036350       0.66542971       0.00000000 </v>
   <v>       0.95772359       0.54014988       0.15443885 </v>
   <v>       0.89508368       0.41487006       0.30887770 </v>
   <v>       0.83244377       0.28959023       0.46331655 </v>
   <v>       0.66182007       0.68413684       0.06215556 </v>
   <v>       0.59918016       0.55885702       0.21659441 </v>
   <v>       0.53654024       0.43357719       0.37103327 </v>
   <v>       0.28672679       0.93395029       0.16511480 </v>
   <v>       0.22408688       0.80867046       0.31955365 </v>
   <v>       0.16144697       0.68339064       0.47399250 </v>
   <v>       0.97427343       0.30904357       0.11363518 </v>
   <v>       0.91163352       0.18376374       0.26807403 </v>
   <v>       0.84899361       0.05848391       0.42251288 </v>
   <v>       0.90947623       0.91524316       0.10295923 </v>
   <v>       0.84683632       0.78996333       0.25739808 </v>
   <v>       0.78419640       0.66468351       0.41183694 </v>
   <v>       0.53438295       0.16505661       0.20591847 </v>
   <v>       0.47174304       0.03977678       0.36035732 </v>
   <v>       0.28456951       0.66542971       0.00000000 </v>
   <v>       0.22192959       0.54014988       0.15443885 </v>
   <v>       0.15928968       0.41487006       0.30887770 </v>
   <v>       0.09664977       0.28959023       0.46331655 </v>
   <v>       0.82518168       0.67443006       0.15301029 </v>
   <v>       0.76254177       0.54915023       0.30744914 </v>
   <v>       0.69990185       0.42387040       0.46188799 </v>
   <v>       0.51272831       0.04952333       0.10153067 </v>
   <v>       0.45008840       0.92424350       0.25596953 </v>
   <v>       0.38744849       0.79896368       0.41040838 </v>
   <v>       0.20027495       0.42461661       0.05005106 </v>
   <v>       0.13763504       0.29933678       0.20448991 </v>
   <v>       0.07499513       0.17405695       0.35892876 </v>
   <v>       0.86674764       0.09399199       0.05052930 </v>
   <v>       0.80410773       0.96871216       0.20496815 </v>
   <v>       0.74146782       0.84343234       0.35940701 </v>
   <v>       0.49165437       0.34380544       0.15348854 </v>
   <v>       0.42901446       0.21852561       0.30792739 </v>
   <v>       0.36637454       0.09324579       0.46236624 </v>
   <v>       0.17920101       0.71889871       0.10200892 </v>
   <v>       0.11656109       0.59361889       0.25644777 </v>
   <v>       0.05392118       0.46833906       0.41088662 </v>
   <v>       0.48875168       0.67443006       0.15301029 </v>
   <v>       0.42611177       0.54915023       0.30744914 </v>
   <v>       0.36347185       0.42387040       0.46188799 </v>
   <v>       0.17629831       0.04952333       0.10153067 </v>
   <v>       0.11365840       0.92424350       0.25596953 </v>
   <v>       0.05101849       0.79896368       0.41040838 </v>
   <v>       0.86384495       0.42461661       0.05005106 </v>
   <v>       0.80120504       0.29933678       0.20448991 </v>
   <v>       0.73856513       0.17405695       0.35892876 </v>
  </varray>
 </structure>
 <calculation>
  <scstep>
   <time name="dav">    1.15    1.15</time>
   <time name="total">    1.19    1.20</time>
   <energy>
    <i name="alphaZ">   1295.57565721 </i>
    <i name="ewald"> 104588.62567686 </i>
    <i name="hartreedc">-196078.35154701 </i>
    <i name="XCdc">   2734.83116841 </i>
    <i name="pawpsdc">  84547.15000061 </i>
    <i name="pawaedc"> -88231.13391551 </i>
    <i name="eentropy">     -0.35975636 </i>
    <i name="bandstr">  -3866.72489836 </i>
    <i name="atom"> 102001.95379032 </i>
    <i name="e_fr_energy">   6991.56617616 </i>
    <i name="e_wo_entrp">   6991.92593252 </i>
    <i name="e_0_energy">   6991.74605434 </i>
   </energy>
  </scstep>
  <scstep>
   <time name="dav">    0.99    0.99</time>
   <time name="total">    0.99    1.00</time>
   <energy>
    <i name="e_fr_energy">    395.51806628 </i>
    <i name="e_wo_entrp">    396.07663743 </i>
    <i name="e_0_energy">    395.79735185 </i>
   </energy>
  </scstep>
  <scstep>
   <time name="dav">    1.08    1.09</time>
   <time name="total">    1.09    1.09</time>
   <energy>
    <i name="e_fr_energy">   -258.93116784 </i>
    <i name="e_wo_entrp">   -257.94593933 </i>
    <i name="e_0_energy">   -258.43855359 </i>
   </energy>
  </scstep>
  <scstep>
   <time name="dav">    1.07    1.07</time>
   <time name="total">    1.07    1.07</time>
   <energy>
    <i name="e_fr_energy">   -298.57136225 </i>
    <i name="e_wo_entrp">   -297.55078270 </i>
    <i name="e_0_energy">   -298.06107248 </i>
   </energy>
  </scstep>
  <scstep>
   <time name="dav">    1.13    1.13</time>
   <time name="total">    1.16    1.16</time>
   <energy>
    <i name="e_fr_energy">   -299.98313092 </i>
    <i name="e_wo_entrp">   -298.96349576 </i>
    <i name="e_0_energy">   -299.47331334 </i>
   </energy>
  </scstep>
  <scstep>
   <time name="dav">    1.08    1.08</time>
   <time name="total">    1.15    1.15</time>
   <energy>
    <i name="e_fr_energy">   -370.82622074 </i>
    <i name="e_wo_entrp">   -370.10407035 </i>
    <i name="e_0_energy">   -370.46514554 </i>
   </energy>
  </scstep>
  <scstep>
   <time name="dav">    1.10    1.11</time>
   <time name="total">    1.17    1.18</time>
   <energy>
    <i name="e_fr_energy">   -277.17637298 </i>
    <i name="e_wo_entrp">   -276.60523822 </i>
    <i name="e_0_energy">   -276.89080560 </i>
   </energy>
  </scstep>
  <scstep>
   <time name="dav">    1.23    1.23</time>
   <time name="total">    1.30    1.31</time>
   <energy>
    <i name="e_fr_energy">   -317.25274813 </i>
    <i name="e_wo_entrp">   -316.49823891 </i>
    <i name="e_0_energy">   -316.87549352 </i>
   </energy>
  </scstep>
  <scstep>
   <time name="dav">    1.15    1.15</time>
   <time name="total">    1.21    1.22</time>
   <energy>
    <i name="e_fr_energy">   -274.22391595 </i>
    <i name="e_wo_entrp">   -273.54772385 </i>
    <i name="e_0_energy">   -273.88581990 </i>
   </energy>
  </scstep>
  <scstep>
   <time name="dav">    1.22    1.23</time>
   <time name="total">    1.29    1.30</time>
   <energy>
    <i name="e_fr_energy">   -276.29075383 </i>
    <i name="e_wo_entrp">   -275.21867156 </i>
    <i name="e_0_energy">   -275.75471270 </i>
   </energy>
  </scstep>
  <scstep>
   <time name="dav">    1.23    1.23</time>
   <time name="total">    1.30    1.30</time>
   <energy>
    <i name="e_fr_energy">   -278.71607351 </i>
    <i name="e_wo_entrp">   -277.79593990 </i>
    <i name="e_0_energy">   -278.25600670 </i>
   </energy>
  </scstep>
  <scstep>
   <time name="dav">    1.19    1.20</time>
   <time name="total">    1.26    1.27</time>
   <energy>
    <i name="e_fr_energy">   -265.83172567 </i>
    <i name="e_wo_entrp">   -265.13077720 </i>
    <i name="e_0_energy">   -265.48125144 </i>
   </energy>
  </scstep>
  <scstep>
   <time name="dav">    1.21    1.22</time>
   <time name="total">    1.29    1.29</time>
   <energy>
    <i name="e_fr_energy">   -265.47143243 </i>
    <i name="e_wo_entrp">   -264.73857414 </i>
    <i name="e_0_energy">   -265.10500329 </i>
   </energy>
  </scstep>
  <scstep>
   <time name="dav">    1.19    1.19</time>
   <time name="total">    1.26    1.27</time>
   <energy>
    <i name="e_fr_energy">   -263.93687426 </i>
    <i name="e_wo_entrp">   -263.23244803 </i>
    <i name="e_0_energy">   -263.58466114 </i>
   </energy>
  </scstep>
  <scstep>
   <time name="dav">    1.17    1.17</time>
   <time name="total">    1.24    1.24</time>
   <energy>
    <i name="e_fr_energy">   -262.79583328 </i>
    <i name="e_wo_entrp">   -262.05629883 </i>
    <i name="e_0_energy">   -262.42606605 </i>
   </energy>
  </scstep>
  <scstep>
   <time name="dav">    1.19    1.19</time>
   <time name="total">    1.26    1.26</time>
   <energy>
    <i name="e_fr_energy">   -262.57442348 </i>
    <i name="e_wo_entrp">   -261.83209625 </i>
    <i name="e_0_energy">   -262.20325987 </i>
   </energy>
  </scstep>
  <scstep>
   <time name="dav">    1.20    1.20</time>
   <time name="total">    1.27    1.28</time>
   <energy>
    <i name="e_fr_energy">   -262.42501232 </i>
    <i name="e_wo_entrp">   -261.66027871 </i>
    <i name="e_0_energy">   -262.04264552 </i>
   </energy>
  </scstep>
  <scstep>
   <time name="dav">    1.21    1.21</time>
   <time name="total">    1.28    1.28</time>
   <energy>
    <i name="e_fr_energy">   -262.22731992 </i>
    <i name="e_wo_entrp">   -261.44826358 </i>
    <i name="e_0_energy">   -261.83779175 </i>
   </energy>
  </scstep>
  <scstep>
   <time name="dav">    1.19    1.19</time>
   <time name="total">    1.26    1.27</time>
   <energy>
    <i name="e_fr_energy">   -262.19202375 </i>
    <i name="e_wo_entrp">   -261.38317704 </i>
    <i name="e_0_energy">   -261.78760040 </i>
   </energy>
  </scstep>
  <scstep>
   <time name="dav">    1.22    1.23</time>
   <time name="total">    1.30    1.31</time>
   <energy>
    <i name="e_fr_energy">   -262.08607285 </i>
    <i name="e_wo_entrp">   -261.29711331 </i>
    <i name="e_0_energy">   -261.69159308 </i>
   </energy>
  </scstep>
  <scstep>
   <time name="dav">    1.21    1.21</time>
   <time name="total">    1.29    1.30</time>
   <energy>
    <i name="e_fr_energy">   -262.06716661 </i>
    <i name="e_wo_entrp">   -261.25679259 </i>
    <i name="e_0_energy">   -261.66197960 </i>
   </energy>
  </scstep>
  <scstep>
   <time name="dav">    1.20    1.21</time>
   <time name="total">    1.28    1.28</time>
   <energy>
    <i name="e_fr_energy">   -262.03986375 </i>
    <i name="e_wo_entrp">   -261.21164284 </i>
    <i name="e_0_energy">   -261.62575330 </i>
   </energy>
  </scstep>
  <scstep>
   <time name="dav">    1.18    1.19</time>
   <time name="total">    1.26    1.26</time>
   <energy>
    <i name="e_fr_energy">   -262.03115849 </i>
    <i name="e_wo_entrp">   -261.20767065 </i>
    <i name="e_0_energy">   -261.61941457 </i>
   </energy>
  </scstep>
  <scstep>
   <time name="dav">    1.21    1.21</time>
   <time name="total">    1.28    1.28</time>
   <energy>
    <i name="e_fr_energy">   -262.03420316 </i>
    <i name="e_wo_entrp">   -261.19879085 </i>
    <i name="e_0_energy">   -261.61649700 </i>
   </energy>
  </scstep>
  <scstep>
   <time name="dav">    1.18    1.18</time>
   <time name="total">    1.25    1.25</time>
   <energy>
    <i name="e_fr_energy">   -262.02618978 </i>
    <i name="e_wo_entrp">   -261.19389418 </i>
    <i name="e_0_energy">   -261.61004198 </i>
   </energy>
  </scstep>
  <scstep>
   <time name="dav">    1.21    1.21</time>
   <time name="total">    1.28    1.28</time>
   <energy>
    <i name="e_fr_energy">   -262.03049166 </i>
    <i name="e_wo_entrp">   -261.20182058 </i>
    <i name="e_0_energy">   -261.61615612 </i>
   </energy>
  </scstep>
  <scstep>
   <time name="dav">    1.18    1.19</time>
   <time name="total">    1.26    1.26</time>
   <energy>
    <i name="e_fr_energy">   -262.02554988 </i>
    <i name="e_wo_entrp">   -261.20046767 </i>
    <i name="e_0_energy">   -261.61300878 </i>
   </energy>
  </scstep>
  <scstep>
   <time name="dav">    1.19    1.19</time>
   <time name="total">    1.26    1.27</time>
   <energy>
    <i name="e_fr_energy">   -262.02536728 </i>
    <i name="e_wo_entrp">   -261.20022248 </i>
    <i name="e_0_energy">   -261.61279488 </i>
   </energy>
  </scstep>
  <scstep>
   <time name="dav">    1.07    1.08</time>
   <time name="total">    1.15    1.15</time>
   <energy>
    <i name="e_fr_energy">   -262.02424966 </i>
    <i name="e_wo_entrp">   -261.20205395 </i>
    <i name="e_0_energy">   -261.61315180 </i>
   </energy>
  </scstep>
  <scstep>
   <time name="dav">    1.00    1.00</time>
   <time name="total">    1.07    1.08</time>
   <energy>
    <i name="e_fr_energy">   -262.02439046 </i>
    <i name="e_wo_entrp">   -261.20090415 </i>
    <i name="e_0_energy">   -261.61264730 </i>
   </energy>
  </scstep>
  <scstep>
   <time name="dav">    0.85    0.85</time>
   <time name="total">    0.89    0.89</time>
   <energy>
    <i name="alphaZ">   1295.57565721 </i>
    <i name="ewald"> 104588.62567686 </i>
    <i name="hartreedc">-195606.92586750 </i>
    <i name="XCdc">   2713.89289736 </i>
    <i name="pawpsdc">  97268.10354798 </i>
    <i name="pawaedc">-100992.25724491 </i>
    <i name="eentropy">     -0.82429649 </i>
    <i name="bandstr"> -11530.16864040 </i>
    <i name="atom"> 102001.95379032 </i>
    <i name="e_fr_energy">   -262.02447957 </i>
    <i name="e_wo_entrp">   -261.20018309 </i>
    <i name="e_0_energy">   -261.61233133 </i>
   </energy>
  </scstep>
  <structure>
   <crystal>
    <varray name="basis" >
     <v>       8.42818148      -4.55101034       0.00000000 </v>
     <v>       0.00000000      10.07973298       0.00000000 </v>
     <v>       0.00000000       0.00000000      19.01113574 </v>
    </varray>
    <i name="volume">   1615.06858132 </i>
    <varray name="rec_basis" >
     <v>       0.11864956       0.00000000       0.00000000 </v>
     <v>       0.05357040       0.09920898       0.00000000 </v>
     <v>       0.00000000       0.00000000       0.05260075 </v>
    </varray>
   </crystal>
   <varray name="positions" >
    <v>       0.58263032       0.78996333       0.25739808 </v>
    <v>       0.51999040       0.66468351       0.41183694 </v>
    <v>       0.33281687       0.29033643       0.05147962 </v>
    <v>       0.27017695       0.16505661       0.20591847 </v>
    <v>       0.20753704       0.03977678       0.36035732 </v>
    <v>       0.02036350       0.66542971       0.00000000 </v>
    <v>       0.95772359       0.54014988       0.15443885 </v>
    <v>       0.89508368       0.41487006       0.30887770 </v>
    <v>       0.83244377       0.28959023       0.46331655 </v>
    <v>       0.66182007       0.68413684       0.06215556 </v>
    <v>       0.59918016       0.55885702       0.21659441 </v>
    <v>       0.53654024       0.43357719       0.37103327 </v>
    <v>       0.28672679       0.93395029       0.16511480 </v>
    <v>       0.22408688       0.80867046       0.31955365 </v>
    <v>       0.16144697       0.68339064       0.47399250 </v>
    <v>       0.97427343       0.30904357       0.11363518 </v>
    <v>       0.91163352       0.18376374       0.26807403 </v>
    <v>       0.84899361       0.05848391       0.42251288 </v>
    <v>       0.90947623       0.91524316       0.10295923 </v>
    <v>       0.84683632       0.78996333       0.25739808 </v>
    <v>       0.78419640       0.66468351       0.41183694 </v>
    <v>       0.53438295       0.16505661       0.20591847 </v>
    <v>       0.47174304       0.03977678       0.36035732 </v>
    <v>       0.28456951       0.66542971       0.00000000 </v>
    <v>       0.22192959       0.54014988       0.15443885 </v>
    <v>       0.15928968       0.41487006       0.30887770 </v>
    <v>       0.09664977       0.28959023       0.46331655 </v>
    <v>       0.82518168       0.67443006       0.15301029 </v>
    <v>       0.76254177       0.54915023       0.30744914 </v>
    <v>       0.69990185       0.42387040       0.46188799 </v>
    <v>       0.51272831       0.04952333       0.10153067 </v>
    <v>       0.45008840       0.92424350       0.25596953 </v>
    <v>       0.38744849       0.79896368       0.41040838 </v>
    <v>       0.20027495       0.42461661       0.05005106 </v>
    <v>       0.13763504       0.29933678       0.20448991 </v>
    <v>       0.07499513       0.17405695       0.35892876 </v>
    <v>       0.86674764       0.09399199       0.05052930 </v>
    <v>       0.80410773       0.96871216       0.20496815 </v>
    <v>       0.74146782       0.84343234       0.35940701 </v>
    <v>       0.49165437       0.34380544       0.15348854 </v>
    <v>       0.42901446       0.21852561       0.30792739 </v>
    <v>       0.36637454       0.09324579       0.46236624 </v>
    <v>       0.17920101       0.71889871       0.10200892 </v>
    <v>       0.11656109       0.59361889       0.25644777 </v>
    <v>       0.05392118       0.46833906       0.41088662 </v>
    <v>       0.48875168       0.67443006       0.15301029 </v>
    <v>       0.42611177       0.54915023       0.30744914 </v>
    <v>       0.36347185       0.42387040       0.46188799 </v>
    <v>       0.17629831       0.04952333       0.10153067 </v>
    <v>       0.11365840       0.92424350       0.25596953 </v>
    <v>       0.05101849       0.79896368       0.41040838 </v>
    <v>       0.86384495       0.42461661       0.05005106 </v>
    <v>       0.80120504       0.29933678       0.20448991 </v>
    <v>       0.73856513       0.17405695       0.35892876 </v>
   </varray>
  </structure>
  <varray name="forces" >
   <v>       0.30557588       0.02296503      -0.24667719 </v>
   <v>      -0.75791477      -0.06307632      -0.61118044 </v>
   <v>      -0.60162962       0.41201133       1.54698559 </v>
   <v>       0.12656241       0.15107448      -0.19923789 </v>
   <v>       0.25972525      -0.16886329       0.67728431 </v>
   <v>       0.07117939      -1.48458773       1.89513140 </v>
   <v>      -0.11268982      -0.19026933      -0.40034293 </v>
   <v>      -0.03105216      -0.05288597       0.17633789 </v>
   <v>       0.20273673       0.97963574      -1.51296205 </v>
   <v>      -0.04146834       0.07660946       1.93003996 </v>
   <v>      -0.31102316       0.15150061      -0.16054752 </v>
   <v>       0.15208323       0.28651829       0.63418694 </v>
   <v>       0.34682418       0.12934847      -0.47995292 </v>
   <v>       0.01507464      -0.02846471       0.29444671 </v>
   <v>       0.04342440       0.07768295      -1.98710558 </v>
   <v>      -0.13404589      -0.00434672      -0.70753485 </v>
   <v>      -0.02801827      -0.23369746       0.14770037 </v>
   <v>       0.17737550       0.25863905      -1.48726919 </v>
   <v>      -0.14527776       0.90617387       0.22898738 </v>
   <v>      -0.08558203       0.26002706       0.02575040 </v>
   <v>       0.46665564      -0.57096998      -0.55778004 </v>
   <v>       0.02527146      -0.02731463      -0.64763276 </v>
   <v>      -0.29071631       0.14372821       0.61833653 </v>
   <v>      -1.22576868      -0.57667520       1.77273119 </v>
   <v>       0.02912687      -0.15514647      -0.12277632 </v>
   <v>      -0.00653302      -0.03880590       0.23813710 </v>
   <v>       0.71859568       0.69878747      -1.52437277 </v>
   <v>      -0.00930355       0.54097595      -1.30222706 </v>
   <v>      -0.35056956      -0.00121338      -0.26385726 </v>
   <v>      -0.19549256       0.50148111       0.21173988 </v>
   <v>      -0.25298392       0.19911894       0.25238165 </v>
   <v>      -0.04889686      -0.06268246       0.08964101 </v>
   <v>      -0.42316407       0.07638608       0.77597882 </v>
   <v>       1.42746396      -0.22348552      -0.88391081 </v>
   <v>      -0.23450687       0.02099411       0.03880899 </v>
   <v>      -0.37204499      -0.16462816       0.99219744 </v>
   <v>      -0.00385216      -0.81192400       0.92367950 </v>
   <v>       0.04486549      -0.45790556       0.41615107 </v>
   <v>      -0.16401609      -0.09990739       1.23846182 </v>
   <v>      -0.34604629       0.03910904      -0.51753286 </v>
   <v>      -0.02172439      -0.28933726       0.05410934 </v>
   <v>      -0.09915450      -0.17376638      -1.38372730 </v>
   <v>       0.20400673       0.16596410      -1.31831605 </v>
   <v>      -0.02850167      -0.01366323      -0.11050697 </v>
   <v>      -0.13190013      -0.22506719       1.53366819 </v>
   <v>       0.30443231      -0.43531300      -0.94433215 </v>
   <v>       0.16398745      -0.27660981      -0.03122501 </v>
   <v>       0.52886145       0.16277200       0.20317899 </v>
   <v>      -0.04968029       0.21882285      -0.76554261 </v>
   <v>       0.05638809      -0.05124407       0.02975522 </v>
   <v>       0.30142000      -0.30764938       0.79554462 </v>
   <v>       0.52664495       1.20396367      -0.49407487 </v>
   <v>      -0.06498246      -0.11027490       0.03067350 </v>
   <v>       0.07025849      -0.38451448       0.88859954 </v>
  </varray>
  <varray name="stress" >
   <v>     -23.55972976      -0.72094372       4.08465141 </v>
   <v>      -0.72094339     -27.91201547       8.64120240 </v>
   <v>       4.08465134       8.64120223     -27.72889875 </v>
  </varray>
  <energy>
   <i name="e_fr_energy">   -262.02447957 </i>
   <i name="e_wo_entrp">   -261.20018309 </i>
   <i name="e_0_energy">   -261.61233133 </i>
  </energy>
  <time name="totalsc">   38.64   38.81</time>
  <eigenvalues>
   <array>
    <dimension dim="1">band</dimension>
    <dimension dim="2">kpoint</dimension>
    <dimension dim="3">spin</dimension>
    <field>eigene</field>
    <field>occ</field>
    <set>
     <set comment="spin 1">
      <set comment="kpoint 1">
       <r>  -63.2310    1.0000 </r>
       <r>  -63.2254    1.0000 </r>
       <r>  -63.2022    1.0000 </r>
       <r>  -63.2018    1.0000 </r>
       <r>  -63.1987    1.0000 </r>
       <r>  -63.1939    1.0000 </r>
       <r>  -63.1930    1.0000 </r>
       <r>  -63.1901    1.0000 </r>
       <r>  -63.1832    1.0000 </r>
       <r>  -63.1787    1.0000 </r>
       <r>  -63.1700    1.0000 </r>
       <r>  -63.1693    1.0000 </r>
       <r>  -63.1638    1.0000 </r>
       <r>  -63.1635    1.0000 </r>
       <r>  -63.1634    1.0000 </r>
       <r>  -63.1570    1.0000 </r>
       <r>  -63.1554    1.0000 </r>
       <r>  -63.1503    1.0000 </r>
       <r>  -63.1417    1.0000 </r>
       <r>  -63.1396    1.0000 </r>
       <r>  -63.1386    1.0000 </r>
       <r>  -63.1226    1.0000 </r>
       <r>  -63.1217    1.0000 </r>
       <r>  -63.1125    1.0000 </r>
       <r>  -63.1092    1.0000 </r>
       <r>  -63.0991    1.0000 </r>
       <r>  -63.0973    1.0000 </r>
       <r>  -63.0817    1.0000 </r>
       <r>  -63.0817    1.0000 </r>
       <r>  -63.0796    1.0000 </r>
       <r>  -63.0689    1.0000 </r>
       <r>  -63.0583    1.0000 </r>
       <r>  -63.0574    1.0000 </r>
       <r>  -63.0402    1.0000 </r>
       <r>  -63.0358    1.0000 </r>
       <r>  -63.0188    1.0000 </r>
       <r>  -63.0098    1.0000 </r>
       <r>  -63.0048    1.0000 </r>
       <r>  -62.9941    1.0000 </r>
       <r>  -62.9809    1.0000 </r>
       <r>  -62.9700    1.0000 </r>
       <r>  -62.9588    1.0000 </r>
       <r>  -62.9531    1.0000 </r>
       <r>  -62.9435    1.0000 </r>
       <r>  -62.9297    1.0000 </r>
       <r>  -62.9272    1.0000 </r>
       <r>  -62.9164    1.0000 </r>
       <r>  -62.9019    1.0000 </r>
       <r>  -62.8459    1.0000 </r>
       <r>  -62.8245    1.0000 </r>
       <r>  -62.8226    1.0000 </r>
       <r>  -62.8055    1.0000 </r>
       <r>  -62.7806    1.0000 </r>
       <r>  -62.7332    1.0000 </r>
       <r>  -62.6930    1.0000 </r>
       <r>  -62.6715    1.0000 </r>
       <r>  -62.6559    1.0000 </r>
       <r>  -62.6075    1.0000 </r>
       <r>  -62.5825    1.0000 </r>
       <r>  -62.4985    1.0000 </r>
       <r>  -62.4706    1.0000 </r>
       <r>  -62.4342    1.0000 </r>
       <r>  -62.4247    1.0000 </r>
       <r>  -62.4150    1.0000 </r>
       <r>  -62.4135    1.0000 </r>
       <r>  -62.4093    1.0000 </r>
       <r>  -62.3606    1.0000 </r>
       <r>  -62.3220    1.0000 </r>
       <r>  -62.2987    1.0000 </r>
       <r>  -62.1753    1.0000 </r>
       <r>  -62.0219    1.0000 </r>
       <r>  -61.9808    1.0000 </r>
       <r>  -61.9090    1.0000 </r>
       <r>  -61.8781    1.0000 </r>
       <r>  -61.8389    1.0000 </r>
       <r>  -61.7643    1.0000 </r>
       <r>  -61.7431    1.0000 </r>
       <r>  -61.7125    1.0000 </r>
       <r>  -61.6858    1.0000 </r>
       <r>  -61.6318    1.0000 </r>
       <r>  -61.5522    1.0000 </r>
       <r>  -14.4012    1.0000 </r>
       <r>  -13.6105    1.0000 </r>
       <r>  -13.5825    1.0000 </r>
       <r>  -13.4943    1.0000 </r>
       <r>  -13.2587    1.0000 </r>
       <r>  -13.2041    1.0000 </r>
       <r>  -13.1719    1.0000 </r>
       <r>  -13.0931    1.0000 </r>
       <r>  -12.9996    1.0000 </r>
       <r>  -12.9102    1.0000 </r>
       <r>  -12.7404    1.0000 </r>
       <r>  -12.5903    1.0000 </r>
       <r>  -12.5878    1.0000 </r>
       <r>  -12.5093    1.0000 </r>
       <r>  -12.4887    1.0000 </r>
       <r>  -12.4302    1.0000 </r>
       <r>  -12.3779    1.0000 </r>
       <r>  -12.2363    1.0000 </r>
       <r>  -12.1456    1.0000 </r>
       <r>  -11.9913    1.0000 </r>
       <r>  -11.9436    1.0000 </r>
       <r>  -11.6714    1.0000 </r>
       <r>  -11.6379    1.0000 </r>
       <r>  -11.2811    1.0000 </r>
       <r>  -11.2161    1.0000 </r>
       <r>  -10.9302    1.0000 </r>
       <r>  -10.8716    1.0000 </r>
       <r>   -6.1803    1.0000 </r>
       <r>   -5.9002    1.0000 </r>
       <r>   -5.8245    1.0000 </r>
       <r>   -5.7700    1.0000 </r>
       <r>   -5.7198    1.0000 </r>
       <r>   -5.4938    1.0000 </r>
       <r>   -5.4358    1.0000 </r>
       <r>   -5.3495    1.0000 </r>
       <r>   -5.2645    1.0000 </r>
       <r>   -5.2489    1.0000 </r>
       <r>   -5.2284    1.0000 </r>
       <r>   -5.1482    1.0000 </r>
       <r>   -5.1361    1.0000 </r>
       <r>   -5.0868    1.0000 </r>
       <r>   -5.0786    1.0000 </r>
       <r>   -4.9740    1.0000 </r>
       <r>   -4.9358    1.0000 </r>
       <r>   -4.8771    1.0000 </r>
       <r>   -4.8397    1.0000 </r>
       <r>   -4.7657    1.0000 </r>
       <r>   -4.6863    1.0000 </r>
       <r>   -4.5999    1.0000 </r>
       <r>   -4.5905    1.0000 </r>
       <r>   -4.5266    1.0000 </r>
       <r>   -4.4499    1.0000 </r>
       <r>   -4.3830    1.0000 </r>
       <r>   -4.3161    1.0000 </r>
       <r>   -4.2273    1.0000 </r>
       <r>   -4.1737    1.0000 </r>
       <r>   -4.0441    1.0000 </r>
       <r>   -3.9908    1.0000 </r>
       <r>   -3.9425    1.0000 </r>
       <r>   -3.8895    1.0000 </r>
       <r>   -3.7935    1.0000 </r>
       <r>   -3.7395    1.0000 </r>
       <r>   -3.6798    1.0000 </r>
       <r>   -3.6356    1.0000 </r>
       <r>   -3.6003    1.0000 </r>
       <r>   -3.5604    1.0000 </r>
       <r>   -3.4912    1.0000 </r>
       <r>   -3.4805    1.0000 </r>
       <r>   -3.4146    1.0000 </r>
       <r>   -3.3833    1.0000 </r>
       <r>   -3.3652    1.0000 </r>
       <r>   -3.3095    1.0000 </r>
       <r>   -3.2366    1.0000 </r>
       <r>   -3.2221    1.0000 </r>
       <r>   -3.2019    1.0000 </r>
       <r>   -3.1644    1.0000 </r>
       <r>   -3.0920    1.0000 </r>
       <r>   -3.0653    1.0000 </r>
       <r>   -3.0218    1.0000 </r>
       <r>   -2.9979    1.0000 </r>
       <r>   -2.9767    1.0000 </r>
       <r>   -2.9675    1.0000 </r>
       <r>   -2.9537    1.0000 </r>
       <r>   -2.9413    1.0000 </r>
       <r>   -2.8573    1.0000 </r>
       <r>   -2.8383    1.0000 </r>
       <r>   -2.7949    1.0000 </r>
       <r>   -2.7479    1.0000 </r>
       <r>   -2.6995    1.0000 </r>
       <r>   -2.6450    1.0000 </r>
       <r>   -2.5961    1.0000 </r>
       <r>   -2.5281    1.0000 </r>
       <r>   -2.4881    1.0000 </r>
       <r>   -2.4410    1.0000 </r>
       <r>   -2.3602    1.0000 </r>
       <r>   -2.2864    1.0000 </r>
       <r>   -2.2447    1.0000 </r>
       <r>   -2.2134    1.0000 </r>
       <r>   -2.1432    1.0000 </r>
       <r>   -2.0750    1.0000 </r>
       <r>   -2.0186    1.0000 </r>
       <r>   -1.9393    1.0000 </r>
       <r>   -1.9147    1.0000 </r>
       <r>   -1.8901    1.0000 </r>
       <r>   -1.7984    1.0000 </r>
       <r>   -1.7541    1.0000 </r>
       <r>   -1.6808    1.0000 </r>
       <r>   -1.6407    1.0000 </r>
       <r>   -1.6058    1.0000 </r>
       <r>   -1.5830    1.0000 </r>
       <r>   -1.5267    1.0000 </r>
       <r>   -1.5026    1.0000 </r>
       <r>   -1.4940    1.0000 </r>
       <r>   -1.4587    1.0000 </r>
       <r>   -1.4229    1.0000 </r>
       <r>   -1.3951    1.0000 </r>
       <r>   -1.3891    1.0000 </r>
       <r>   -1.3540    1.0000 </r>
       <r>   -1.3309    1.0000 </r>
       <r>   -1.3168    1.0000 </r>
       <r>   -1.3116    1.0000 </r>
       <r>   -1.2637    1.0000 </r>
       <r>   -1.2315    1.0000 </r>
       <r>   -1.1949    1.0000 </r>
       <r>   -1.1796    1.0000 </r>
       <r>   -1.1574    1.0000 </r>
       <r>   -1.1114    1.0000 </r>
       <r>   -1.0928    1.0000 </r>
       <r>   -1.0312    1.0000 </r>
       <r>   -1.0228    1.0000 </r>
       <r>   -1.0079    1.0000 </r>
       <r>   -0.9997    1.0000 </r>
       <r>   -0.9607    1.0000 </r>
       <r>   -0.9456    1.0000 </r>
       <r>   -0.9278    1.0000 </r>
       <r>   -0.9168    1.0000 </r>
       <r>   -0.8994    1.0000 </r>
       <r>   -0.8764    1.0000 </r>
       <r>   -0.8675    1.0000 </r>
       <r>   -0.8443    1.0000 </r>
       <r>   -0.8138    1.0000 </r>
       <r>   -0.8079    1.0000 </r>
       <r>   -0.8047    1.0000 </r>
       <r>   -0.7956    1.0000 </r>
       <r>   -0.7948    1.0000 </r>
       <r>   -0.7532    1.0000 </r>
       <r>   -0.7473    1.0000 </r>
       <r>   -0.7355    1.0000 </r>
       <r>   -0.7232    1.0000 </r>
       <r>   -0.7194    1.0000 </r>
       <r>   -0.7119    1.0000 </r>
       <r>   -0.6855    1.0000 </r>
       <r>   -0.6440    1.0000 </r>
       <r>   -0.6299    1.0000 </r>
       <r>   -0.6241    1.0000 </r>
       <r>   -0.6120    1.0000 </r>
       <r>   -0.5870    1.0000 </r>
       <r>   -0.5856    1.0000 </r>
       <r>   -0.5614    1.0000 </r>
       <r>   -0.5457    1.0000 </r>
       <r>   -0.5366    1.0000 </r>
       <r>   -0.5133    1.0000 </r>
       <r>   -0.5026    1.0000 </r>
       <r>   -0.4729    1.0000 </r>
       <r>   -0.4698    1.0000 </r>
       <r>   -0.4408    1.0000 </r>
       <r>   -0.4281    1.0000 </r>
       <r>   -0.3997    1.0000 </r>
       <r>   -0.3728    1.0000 </r>
       <r>   -0.3600    1.0000 </r>
       <r>   -0.3560    1.0000 </r>
       <r>   -0.3257    1.0000 </r>
       <r>   -0.3246    1.0000 </r>
       <r>   -0.2787    1.0000 </r>
       <r>   -0.2539    1.0000 </r>
       <r>   -0.2478    1.0000 </r>
       <r>   -0.2296    1.0000 </r>
       <r>   -0.1953    1.0000 </r>
       <r>   -0.1759    1.0000 </r>
       <r>   -0.1481    1.0000 </r>
       <r>   -0.1354    1.0000 </r>
       <r>   -0.1113    1.0000 </r>
       <r>   -0.0770    1.0000 </r>
       <r>   -0.0666    1.0000 </r>
       <r>   -0.0529    1.0000 </r>
       <r>   -0.0075    1.0000 </r>
       <r>    0.0291    1.0000 </r>
       <r>    0.0459    1.0000 </r>
       <r>    0.0797    1.0000 </r>
       <r>    0.0961    1.0000 </r>
       <r>    0.1214    1.0000 </r>
       <r>    0.1429    1.0000 </r>
       <r>    0.1703    1.0000 </r>
       <r>    0.1811    1.0000 </r>
       <r>    0.2355    1.0000 </r>
       <r>    0.2407    1.0000 </r>
       <r>    0.2796    1.0000 </r>
       <r>    0.2922    1.0000 </r>
       <r>    0.3356    1.0000 </r>
       <r>    0.3411    1.0000 </r>
       <r>    0.3555    1.0000 </r>
       <r>    0.3888    1.0000 </r>
       <r>    0.3910    0.9999 </r>
       <r>    0.4035    0.9999 </r>
       <r>    0.4514    0.9997 </r>
       <r>    0.4803    0.9994 </r>
       <r>    0.4908    0.9992 </r>
       <r>    0.5036    0.9990 </r>
       <r>    0.5746    0.9951 </r>
       <r>    0.6311    0.9854 </r>
       <r>    0.6616    0.9754 </r>
       <r>    0.7128    0.9456 </r>
       <r>    0.7377    0.9234 </r>
       <r>    0.8136    0.8137 </r>
       <r>    0.8794    0.6650 </r>
       <r>    0.9094    0.5848 </r>
       <r>    0.9861    0.3714 </r>
       <r>    1.0366    0.2465 </r>
       <r>    1.0632    0.1912 </r>
       <r>    1.0921    0.1406 </r>
       <r>    1.1192    0.1021 </r>
       <r>    1.2011    0.0323 </r>
       <r>    1.2311    0.0197 </r>
       <r>    1.2933    0.0062 </r>
       <r>    1.3302    0.0029 </r>
       <r>    1.3680    0.0012 </r>
       <r>    1.4203    0.0003 </r>
       <r>    1.5029    0.0000 </r>
       <r>    1.5597    0.0000 </r>
       <r>    1.5916    0.0000 </r>
       <r>    1.6298    0.0000 </r>
       <r>    1.6635    0.0000 </r>
       <r>    1.6991    0.0000 </r>
       <r>    1.7230    0.0000 </r>
       <r>    1.7651    0.0000 </r>
       <r>    1.8077    0.0000 </r>
       <r>    1.8392    0.0000 </r>
       <r>    1.8765    0.0000 </r>
       <r>    1.9665    0.0000 </r>
       <r>    1.9897    0.0000 </r>
       <r>    2.0101    0.0000 </r>
       <r>    2.0270    0.0000 </r>
       <r>    2.0644    0.0000 </r>
       <r>    2.1405    0.0000 </r>
       <r>    2.2481    0.0000 </r>
       <r>    2.7390    0.0000 </r>
       <r>    3.2589    0.0000 </r>
       <r>    3.3081    0.0000 </r>
       <r>    3.6357    0.0000 </r>
       <r>    4.0918    0.0000 </r>
       <r>    4.3690    0.0000 </r>
       <r>    4.5635    0.0000 </r>
       <r>    4.6798    0.0000 </r>
       <r>    4.8653    0.0000 </r>
       <r>    4.9582    0.0000 </r>
       <r>    4.9876    0.0000 </r>
       <r>    5.0230    0.0000 </r>
       <r>    5.3142    0.0000 </r>
       <r>    5.4627    0.0000 </r>
       <r>    5.4909    0.0000 </r>
       <r>    5.6284    0.0000 </r>
       <r>    5.8106    0.0000 </r>
       <r>    5.8663    0.0000 </r>
       <r>    5.9239    0.0000 </r>
       <r>    5.9679    0.0000 </r>
       <r>    6.0087    0.0000 </r>
       <r>    6.1285    0.0000 </r>
       <r>    6.1945    0.0000 </r>
       <r>    6.3023    0.0000 </r>
       <r>    6.3318    0.0000 </r>
       <r>    6.4852    0.0000 </r>
       <r>    6.5142    0.0000 </r>
       <r>    6.5511    0.0000 </r>
       <r>    6.6584    0.0000 </r>
       <r>    6.6860    0.0000 </r>
       <r>    6.7409    0.0000 </r>
       <r>    6.7967    0.0000 </r>
       <r>    6.8430    0.0000 </r>
       <r>    6.8761    0.0000 </r>
      </set>
     </set>
    </set>
   </array>
  </eigenvalues>
  <separator name="orbital magnetization" >
   <v name="MAGDIPOLOUT">      0.00000000      0.00000000      0.00000000</v>
  </separator>
  <dos>
   <i name="efermi">      0.93967480 </i>
   <total>
    <array>
     <dimension dim="1">gridpoints</dimension>
     <dimension dim="2">spin</dimension>
     <field>energy</field>
     <field>total</field>
     <field>integrated</field>
     <set>
      <set comment="spin 1">
       <r>   -66.7363     0.0000     0.0000 </r>
       <r>   -66.4793     0.0000     0.0000 </r>
       <r>   -66.2222     0.0000     0.0000 </r>
       <r>   -65.9651     0.0000     0.0000 </r>
       <r>   -65.7081     0.0000     0.0000 </r>
       <r>   -65.4510     0.0000     0.0000 </r>
       <r>   -65.1940     0.0000     0.0000 </r>
       <r>   -64.9369     0.0000     0.0000 </r>
       <r>   -64.6799     0.0000     0.0000 </r>
       <r>   -64.4228     0.0000     0.0000 </r>
       <r>   -64.1657     0.0000     0.0000 </r>
       <r>   -63.9087     0.0000     0.0000 </r>
       <r>   -63.6516     0.0832     0.0214 </r>
       <r>   -63.3946    12.3461     3.1951 </r>
       <r>   -63.1375   137.4380    38.5248 </r>
       <r>   -62.8804   198.5436    89.5622 </r>
       <r>   -62.6234    92.8057   113.4188 </r>
       <r>   -62.3663    64.0239   129.8767 </r>
       <r>   -62.1093    39.6077   140.0582 </r>
       <r>   -61.8522    32.6639   148.4548 </r>
       <r>   -61.5951    38.4783   158.3459 </r>
       <r>   -61.3381    13.4481   161.8029 </r>
       <r>   -61.0810     0.7629   161.9990 </r>
       <r>   -60.8240     0.0039   162.0000 </r>
       <r>   -60.5669     0.0000   162.0000 </r>
       <r>   -60.3098     0.0000   162.0000 </r>
       <r>   -60.0528     0.0000   162.0000 </r>
       <r>   -59.7957     0.0000   162.0000 </r>
       <r>   -59.5387     0.0000   162.0000 </r>
       <r>   -59.2816     0.0000   162.0000 </r>
       <r>   -59.0246     0.0000   162.0000 </r>
       <r>   -58.7675     0.0000   162.0000 </r>
       <r>   -58.5104     0.0000   162.0000 </r>
       <r>   -58.2534     0.0000   162.0000 </r>
       <r>   -57.9963     0.0000   162.0000 </r>
       <r>   -57.7393     0.0000   162.0000 </r>
       <r>   -57.4822     0.0000   162.0000 </r>
       <r>   -57.2251     0.0000   162.0000 </r>
       <r>   -56.9681     0.0000   162.0000 </r>
       <r>   -56.7110     0.0000   162.0000 </r>
       <r>   -56.4540     0.0000   162.0000 </r>
       <r>   -56.1969     0.0000   162.0000 </r>
       <r>   -55.9398     0.0000   162.0000 </r>
       <r>   -55.6828     0.0000   162.0000 </r>
       <r>   -55.4257     0.0000   162.0000 </r>
       <r>   -55.1687     0.0000   162.0000 </r>
       <r>   -54.9116     0.0000   162.0000 </r>
       <r>   -54.6545     0.0000   162.0000 </r>
       <r>   -54.3975     0.0000   162.0000 </r>
       <r>   -54.1404     0.0000   162.0000 </r>
       <r>   -53.8834     0.0000   162.0000 </r>
       <r>   -53.6263     0.0000   162.0000 </r>
       <r>   -53.3693     0.0000   162.0000 </r>
       <r>   -53.1122     0.0000   162.0000 </r>
       <r>   -52.8551     0.0000   162.0000 </r>
       <r>   -52.5981     0.0000   162.0000 </r>
       <r>   -52.3410     0.0000   162.0000 </r>
       <r>   -52.0840     0.0000   162.0000 </r>
       <r>   -51.8269     0.0000   162.0000 </r>
       <r>   -51.5698     0.0000   162.0000 </r>
       <r>   -51.3128     0.0000   162.0000 </r>
       <r>   -51.0557     0.0000   162.0000 </r>
       <r>   -50.7987     0.0000   162.0000 </r>
       <r>   -50.5416     0.0000   162.0000 </r>
       <r>   -50.2845     0.0000   162.0000 </r>
       <r>   -50.0275     0.0000   162.0000 </r>
       <r>   -49.7704     0.0000   162.0000 </r>
       <r>   -49.5134     0.0000   162.0000 </r>
       <r>   -49.2563     0.0000   162.0000 </r>
       <r>   -48.9992     0.0000   162.0000 </r>
       <r>   -48.7422     0.0000   162.0000 </r>
       <r>   -48.4851     0.0000   162.0000 </r>
       <r>   -48.2281     0.0000   162.0000 </r>
       <r>   -47.9710     0.0000   162.0000 </r>
       <r>   -47.7140     0.0000   162.0000 </r>
       <r>   -47.4569     0.0000   162.0000 </r>
       <r>   -47.1998     0.0000   162.0000 </r>
       <r>   -46.9428     0.0000   162.0000 </r>
       <r>   -46.6857     0.0000   162.0000 </r>
       <r>   -46.4287     0.0000   162.0000 </r>
       <r>   -46.1716     0.0000   162.0000 </r>
       <r>   -45.9145     0.0000   162.0000 </r>
       <r>   -45.6575     0.0000   162.0000 </r>
       <r>   -45.4004     0.0000   162.0000 </r>
       <r>   -45.1434     0.0000   162.0000 </r>
       <r>   -44.8863     0.0000   162.0000 </r>
       <r>   -44.6292     0.0000   162.0000 </r>
       <r>   -44.3722     0.0000   162.0000 </r>
       <r>   -44.1151     0.0000   162.0000 </r>
       <r>   -43.8581     0.0000   162.0000 </r>
       <r>   -43.6010     0.0000   162.0000 </r>
       <r>   -43.3439     0.0000   162.0000 </r>
       <r>   -43.0869     0.0000   162.0000 </r>
       <r>   -42.8298     0.0000   162.0000 </r>
       <r>   -42.5728     0.0000   162.0000 </r>
       <r>   -42.3157     0.0000   162.0000 </r>
       <r>   -42.0587     0.0000   162.0000 </r>
       <r>   -41.8016     0.0000   162.0000 </r>
       <r>   -41.5445     0.0000   162.0000 </r>
       <r>   -41.2875     0.0000   162.0000 </r>
       <r>   -41.0304     0.0000   162.0000 </r>
       <r>   -40.7734     0.0000   162.0000 </r>
       <r>   -40.5163     0.0000   162.0000 </r>
       <r>   -40.2592     0.0000   162.0000 </r>
       <r>   -40.0022     0.0000   162.0000 </r>
       <r>   -39.7451     0.0000   162.0000 </r>
       <r>   -39.4881     0.0000   162.0000 </r>
       <r>   -39.2310     0.0000   162.0000 </r>
       <r>   -38.9739     0.0000   162.0000 </r>
       <r>   -38.7169     0.0000   162.0000 </r>
       <r>   -38.4598     0.0000   162.0000 </r>
       <r>   -38.2028     0.0000   162.0000 </r>
       <r>   -37.9457     0.0000   162.0000 </r>
       <r>   -37.6886     0.0000   162.0000 </r>
       <r>   -37.4316     0.0000   162.0000 </r>
       <r>   -37.1745     0.0000   162.0000 </r>
       <r>   -36.9175     0.0000   162.0000 </r>
       <r>   -36.6604     0.0000   162.0000 </r>
       <r>   -36.4034     0.0000   162.0000 </r>
       <r>   -36.1463     0.0000   162.0000 </r>
       <r>   -35.8892     0.0000   162.0000 </r>
       <r>   -35.6322     0.0000   162.0000 </r>
       <r>   -35.3751     0.0000   162.0000 </r>
       <r>   -35.1181     0.0000   162.0000 </r>
       <r>   -34.8610     0.0000   162.0000 </r>
       <r>   -34.6039     0.0000   162.0000 </r>
       <r>   -34.3469     0.0000   162.0000 </r>
       <r>   -34.0898     0.0000   162.0000 </r>
       <r>   -33.8328     0.0000   162.0000 </r>
       <r>   -33.5757     0.0000   162.0000 </r>
       <r>   -33.3186     0.0000   162.0000 </r>
       <r>   -33.0616     0.0000   162.0000 </r>
       <r>   -32.8045     0.0000   162.0000 </r>
       <r>   -32.5475     0.0000   162.0000 </r>
       <r>   -32.2904     0.0000   162.0000 </r>
       <r>   -32.0333     0.0000   162.0000 </r>
       <r>   -31.7763     0.0000   162.0000 </r>
       <r>   -31.5192     0.0000   162.0000 </r>
       <r>   -31.2622     0.0000   162.0000 </r>
       <r>   -31.0051     0.0000   162.0000 </r>
       <r>   -30.7481     0.0000   162.0000 </r>
       <r>   -30.4910     0.0000   162.0000 </r>
       <r>   -30.2339     0.0000   162.0000 </r>
       <r>   -29.9769     0.0000   162.0000 </r>
       <r>   -29.7198     0.0000   162.0000 </r>
       <r>   -29.4628     0.0000   162.0000 </r>
       <r>   -29.2057     0.0000   162.0000 </r>
       <r>   -28.9486     0.0000   162.0000 </r>
       <r>   -28.6916     0.0000   162.0000 </r>
       <r>   -28.4345     0.0000   162.0000 </r>
       <r>   -28.1775     0.0000   162.0000 </r>
       <r>   -27.9204     0.0000   162.0000 </r>
       <r>   -27.6633     0.0000   162.0000 </r>
       <r>   -27.4063     0.0000   162.0000 </r>
       <r>   -27.1492     0.0000   162.0000 </r>
       <r>   -26.8922     0.0000   162.0000 </r>
       <r>   -26.6351     0.0000   162.0000 </r>
       <r>   -26.3780     0.0000   162.0000 </r>
       <r>   -26.1210     0.0000   162.0000 </r>
       <r>   -25.8639     0.0000   162.0000 </r>
       <r>   -25.6069     0.0000   162.0000 </r>
       <r>   -25.3498     0.0000   162.0000 </r>
       <r>   -25.0928     0.0000   162.0000 </r>
       <r>   -24.8357     0.0000   162.0000 </r>
       <r>   -24.5786     0.0000   162.0000 </r>
       <r>   -24.3216     0.0000   162.0000 </r>
       <r>   -24.0645     0.0000   162.0000 </r>
       <r>   -23.8075     0.0000   162.0000 </r>
       <r>   -23.5504     0.0000   162.0000 </r>
       <r>   -23.2933     0.0000   162.0000 </r>
       <r>   -23.0363     0.0000   162.0000 </r>
       <r>   -22.7792     0.0000   162.0000 </r>
       <r>   -22.5222     0.0000   162.0000 </r>
       <r>   -22.2651     0.0000   162.0000 </r>
       <r>   -22.0080     0.0000   162.0000 </r>
       <r>   -21.7510     0.0000   162.0000 </r>
       <r>   -21.4939     0.0000   162.0000 </r>
       <r>   -21.2369     0.0000   162.0000 </r>
       <r>   -20.9798     0.0000   162.0000 </r>
       <r>   -20.7227     0.0000   162.0000 </r>
       <r>   -20.4657     0.0000   162.0000 </r>
       <r>   -20.2086     0.0000   162.0000 </r>
       <r>   -19.9516     0.0000   162.0000 </r>
       <r>   -19.6945     0.0000   162.0000 </r>
       <r>   -19.4375     0.0000   162.0000 </r>
       <r>   -19.1804     0.0000   162.0000 </r>
       <r>   -18.9233     0.0000   162.0000 </r>
       <r>   -18.6663     0.0000   162.0000 </r>
       <r>   -18.4092     0.0000   162.0000 </r>
       <r>   -18.1522     0.0000   162.0000 </r>
       <r>   -17.8951     0.0000   162.0000 </r>
       <r>   -17.6380     0.0000   162.0000 </r>
       <r>   -17.3810     0.0000   162.0000 </r>
       <r>   -17.1239     0.0000   162.0000 </r>
       <r>   -16.8669     0.0000   162.0000 </r>
       <r>   -16.6098     0.0000   162.0000 </r>
       <r>   -16.3527     0.0000   162.0000 </r>
       <r>   -16.0957     0.0000   162.0000 </r>
       <r>   -15.8386     0.0000   162.0000 </r>
       <r>   -15.5816     0.0000   162.0000 </r>
       <r>   -15.3245     0.0000   162.0000 </r>
       <r>   -15.0674     0.0000   162.0000 </r>
       <r>   -14.8104     0.0148   162.0038 </r>
       <r>   -14.5533     1.0830   162.2822 </r>
       <r>   -14.2963     4.9012   163.5421 </r>
       <r>   -14.0392     1.7553   163.9933 </r>
       <r>   -13.7821     1.6793   164.4250 </r>
       <r>   -13.5251    12.7210   167.6951 </r>
       <r>   -13.2680    17.6391   172.2293 </r>
       <r>   -13.0110    24.0244   178.4050 </r>
       <r>   -12.7539    18.7043   183.2131 </r>
       <r>   -12.4969    26.4901   190.0227 </r>
       <r>   -12.2398    26.8758   196.9313 </r>
       <r>   -11.9827    17.9392   201.5428 </r>
       <r>   -11.7257    13.6470   205.0509 </r>
       <r>   -11.4686    10.9869   207.8752 </r>
       <r>   -11.2116    10.0617   210.4616 </r>
       <r>   -10.9545    11.1810   213.3358 </r>
       <r>   -10.6974     9.1260   215.6817 </r>
       <r>   -10.4404     1.2272   215.9972 </r>
       <r>   -10.1833     0.0110   216.0000 </r>
       <r>    -9.9263     0.0000   216.0000 </r>
       <r>    -9.6692     0.0000   216.0000 </r>
       <r>    -9.4121     0.0000   216.0000 </r>
       <r>    -9.1551     0.0000   216.0000 </r>
       <r>    -8.8980     0.0000   216.0000 </r>
       <r>    -8.6410     0.0000   216.0000 </r>
       <r>    -8.3839     0.0000   216.0000 </r>
       <r>    -8.1268     0.0000   216.0000 </r>
       <r>    -7.8698     0.0000   216.0000 </r>
       <r>    -7.6127     0.0000   216.0000 </r>
       <r>    -7.3557     0.0000   216.0000 </r>
       <r>    -7.0986     0.0000   216.0000 </r>
       <r>    -6.8416     0.0000   216.0000 </r>
       <r>    -6.5845     0.0166   216.0043 </r>
       <r>    -6.3274     1.1546   216.3011 </r>
       <r>    -6.0704     6.3012   217.9208 </r>
       <r>    -5.8133    15.1499   221.8152 </r>
       <r>    -5.5563    19.5615   226.8437 </r>
       <r>    -5.2992    26.8205   233.7382 </r>
       <r>    -5.0421    42.0644   244.5512 </r>
       <r>    -4.7851    36.9338   254.0454 </r>
       <r>    -4.5280    32.4458   262.3859 </r>
       <r>    -4.2710    29.3546   269.9317 </r>
       <r>    -4.0139    26.7194   276.8002 </r>
       <r>    -3.7568    31.8096   284.9772 </r>
       <r>    -3.4998    41.5997   295.6707 </r>
       <r>    -3.2427    49.1872   308.3147 </r>
       <r>    -2.9857    57.6167   323.1256 </r>
       <r>    -2.7286    54.6226   337.1669 </r>
       <r>    -2.4715    39.2698   347.2615 </r>
       <r>    -2.2145    35.0302   356.2664 </r>
       <r>    -1.9574    35.5686   365.4096 </r>
       <r>    -1.7004    39.6738   375.6081 </r>
       <r>    -1.4433    59.2088   390.8283 </r>
       <r>    -1.1863    75.4446   410.2220 </r>
       <r>    -0.9292    89.1898   433.1491 </r>
       <r>    -0.6721   122.7643   464.7067 </r>
       <r>    -0.4151   118.0188   495.0445 </r>
       <r>    -0.1580    97.4148   520.0859 </r>
       <r>     0.0990    82.7771   541.3645 </r>
       <r>     0.3561    81.9778   562.4377 </r>
       <r>     0.6132    68.0960   579.9424 </r>
       <r>     0.8702    43.7324   591.1842 </r>
       <r>     1.1273    42.4892   602.1064 </r>
       <r>     1.3843    42.3693   612.9978 </r>
       <r>     1.6414    43.9193   624.2877 </r>
       <r>     1.8985    50.5633   637.2854 </r>
       <r>     2.1555    41.2564   647.8908 </r>
       <r>     2.4126    14.7897   651.6926 </r>
       <r>     2.6696     3.6109   652.6208 </r>
       <r>     2.9267     4.7483   653.8414 </r>
       <r>     3.1838     4.4070   654.9743 </r>
       <r>     3.4408    10.2994   657.6218 </r>
       <r>     3.6979     6.6730   659.3372 </r>
       <r>     3.9549     3.7946   660.3126 </r>
       <r>     4.2120     6.1184   661.8854 </r>
       <r>     4.4690     8.8464   664.1595 </r>
       <r>     4.7261    13.0753   667.5206 </r>
       <r>     4.9832    19.2677   672.4735 </r>
       <r>     5.2402    15.8428   676.5461 </r>
       <r>     5.4973    15.0928   680.4258 </r>
       <r>     5.7543    18.1292   685.0861 </r>
       <r>     6.0114    26.5875   691.9207 </r>
       <r>     6.2685    26.3139   698.6849 </r>
       <r>     6.5255    27.1316   705.6593 </r>
       <r>     6.7826    33.4536   714.2589 </r>
       <r>     7.0396    20.1848   719.4476 </r>
       <r>     7.2967     2.1304   719.9952 </r>
       <r>     7.5538     0.0186   720.0000 </r>
       <r>     7.8108     0.0000   720.0000 </r>
       <r>     8.0679     0.0000   720.0000 </r>
       <r>     8.3249     0.0000   720.0000 </r>
       <r>     8.5820     0.0000   720.0000 </r>
       <r>     8.8391     0.0000   720.0000 </r>
       <r>     9.0961     0.0000   720.0000 </r>
       <r>     9.3532     0.0000   720.0000 </r>
       <r>     9.6102     0.0000   720.0000 </r>
       <r>     9.8673     0.0000   720.0000 </r>
       <r>    10.1243     0.0000   720.0000 </r>
       <r>    10.3814     0.0000   720.0000 </r>
      </set>
     </set>
    </array>
   </total>
  </dos>
 </calculation>
 <structure name="finalpos" >
  <crystal>
   <varray name="basis" >
    <v>       8.42818148      -4.55101034       0.00000000 </v>
    <v>       0.00000000      10.07973298       0.00000000 </v>
    <v>       0.00000000       0.00000000      19.01113574 </v>
   </varray>
   <i name="volume">   1615.06858132 </i>
   <varray name="rec_basis" >
    <v>       0.11864956       0.00000000       0.00000000 </v>
    <v>       0.05357040       0.09920898       0.00000000 </v>
    <v>       0.00000000       0.00000000       0.05260075 </v>
   </varray>
  </crystal>
  <varray name="positions" >
   <v>       0.58263032       0.78996333       0.25739808 </v>
   <v>       0.51999040       0.66468351       0.41183694 </v>
   <v>       0.33281687       0.29033643       0.05147962 </v>
   <v>       0.27017695       0.16505661       0.20591847 </v>
   <v>       0.20753704       0.03977678       0.36035732 </v>
   <v>       0.02036350       0.66542971       0.00000000 </v>
   <v>       0.95772359       0.54014988       0.15443885 </v>
   <v>       0.89508368       0.41487006       0.30887770 </v>
   <v>       0.83244377       0.28959023       0.46331655 </v>
   <v>       0.66182007       0.68413684       0.06215556 </v>
   <v>       0.59918016       0.55885702       0.21659441 </v>
   <v>       0.53654024       0.43357719       0.37103327 </v>
   <v>       0.28672679       0.93395029       0.16511480 </v>
   <v>       0.22408688       0.80867046       0.31955365 </v>
   <v>       0.16144697       0.68339064       0.47399250 </v>
   <v>       0.97427343       0.30904357       0.11363518 </v>
   <v>       0.91163352       0.18376374       0.26807403 </v>
   <v>       0.84899361       0.05848391       0.42251288 </v>
   <v>       0.90947623       0.91524316       0.10295923 </v>
   <v>       0.84683632       0.78996333       0.25739808 </v>
   <v>       0.78419640       0.66468351       0.41183694 </v>
   <v>       0.53438295       0.16505661       0.20591847 </v>
   <v>       0.47174304       0.03977678       0.36035732 </v>
   <v>       0.28456951       0.66542971       0.00000000 </v>
   <v>       0.22192959       0.54014988       0.15443885 </v>
   <v>       0.15928968       0.41487006       0.30887770 </v>
   <v>       0.09664977       0.28959023       0.46331655 </v>
   <v>       0.82518168       0.67443006       0.15301029 </v>
   <v>       0.76254177       0.54915023       0.30744914 </v>
   <v>       0.69990185       0.42387040       0.46188799 </v>
   <v>       0.51272831       0.04952333       0.10153067 </v>
   <v>       0.45008840       0.92424350       0.25596953 </v>
   <v>       0.38744849       0.79896368       0.41040838 </v>
   <v>       0.20027495       0.42461661       0.05005106 </v>
   <v>       0.13763504       0.29933678       0.20448991 </v>
   <v>       0.07499513       0.17405695       0.35892876 </v>
   <v>       0.86674764       0.09399199       0.05052930 </v>
   <v>       0.80410773       0.96871216       0.20496815 </v>
   <v>       0.74146782       0.84343234       0.35940701 </v>
   <v>       0.49165437       0.34380544       0.15348854 </v>
   <v>       0.42901446       0.21852561       0.30792739 </v>
   <v>       0.36637454       0.09324579       0.46236624 </v>
   <v>       0.17920101       0.71889871       0.10200892 </v>
   <v>       0.11656109       0.59361889       0.25644777 </v>
   <v>       0.05392118       0.46833906       0.41088662 </v>
   <v>       0.48875168       0.67443006       0.15301029 </v>
   <v>       0.42611177       0.54915023       0.30744914 </v>
   <v>       0.36347185       0.42387040       0.46188799 </v>
   <v>       0.17629831       0.04952333       0.10153067 </v>
   <v>       0.11365840       0.92424350       0.25596953 </v>
   <v>       0.05101849       0.79896368       0.41040838 </v>
   <v>       0.86384495       0.42461661       0.05005106 </v>
   <v>       0.80120504       0.29933678       0.20448991 </v>
   <v>       0.73856513       0.17405695       0.35892876 </v>
  </varray>
 </structure>
</modeling>
