
72 atoms
2 atom types
   0.0000000000    9.5784100000 xlo xhi
   0.0000000000   10.4033537511 ylo yhi
   0.0000000000   19.8703300697 zlo zhi
  -4.7892049999    0.0000000000    0.0000000000 xy xz yz

Atoms # atomic

     1      1    4.0556245538    4.4635129129    0.2039387551
     2      1    4.0556245490    6.3581094339    2.7070534131
     3      1    4.0556245538    8.2527059550    5.2101680512
     4      1    4.0556245586   10.1473024761    7.7132827091
     5      1    4.0556245537    0.6856046174    4.3757964985
     6      1    4.0556245490    2.5802011385    6.8789111565
     7      1    4.0556245538    4.4747976595    9.3820257945
     8      1   -0.7335804510    9.1943618474    1.8726818604
     9      1   -0.7335804510    1.6272605098    1.0383103078
    10      1   -0.7335804462    3.5218570309    3.5414249657
    11      1   -0.7335804510    5.4164535519    6.0445396038
    12      1   -0.7335804462    7.3110500730    8.5476542618
    13      1    5.3209612452    2.7160119697    1.5266145885
    14      1    5.3209612500    4.6106084908    4.0297292266
    15      1    5.3209612548    6.5052050118    6.5328438647
    16      1    5.3209612500    8.3998015329    9.0359585226
    17      1    5.3209612500    0.8327001953    8.2015869700
    18      1    0.5317562452    5.5522643832    0.6922430359
    19      1    0.5317562500    7.4468609042    3.1953576739
    20      1    0.5317562452    9.3414574253    5.6984723319
    21      1    0.5317562452    1.7743560877    4.8641007792
    22      1    0.5317562500    3.6689526088    7.3672154173
    23      1    0.5317562452    5.5635491298    9.8703300753
    24      1   -4.2574487452   10.2831133073    2.3609861213
    25      1   -2.9921120538    8.2527059550    5.2101680512
    26      1   -2.9921120490   10.1473024761    7.7132827091
    27      1    6.5862979462    4.4635129129    0.2039387551
    28      1    6.5862979415    6.3581094339    2.7070534131
    29      1    6.5862979462    0.6856046174    4.3757964985
    30      1    6.5862979414    2.5802011385    6.8789111565
    31      1    6.5862979462    4.4747976595    9.3820257945
    32      1    1.7970929415    9.1943618474    1.8726818604
    33      1    1.7970929414    1.6272605098    1.0383103078
    34      1    1.7970929462    3.5218570309    3.5414249657
    35      1    1.7970929414    5.4164535519    6.0445396038
    36      1    1.7970929462    7.3110500730    8.5476542618
    37      2   -2.6462165118    6.0272032094    5.0217319090
    38      2   -2.6462165166    7.9217997305    7.5248465669
    39      2    6.9321934881    2.2380101673    0.0155026328
    40      2    6.9321934834    4.1326066883    2.5186172709
    41      2    6.9321934833    0.3546983929    6.6904750143
    42      2    6.9321934881    2.2492949139    9.1935896722
    43      2    2.1429884882    6.9688590914    1.6842457182
    44      2    2.1429884882    8.8634556229    4.1873603762
    45      2    2.1429884833    1.2963542749    3.3529888235
    46      2    2.1429884881    3.1909507959    5.8561034616
    47      2    2.1429884929    5.0855473170    8.3592181196
    48      2   -2.6462165118    9.8051115048    0.8498741656
    49      2    0.5317562500    1.6382445892    8.3437154867
    50      2   -4.2574487548   10.1470018191    5.8406008487
    51      2    5.3209612452    6.3578087770    0.8343715526
    52      2    5.3209612500    8.2524052981    3.3374861907
    53      2    5.3209612548    0.6853039501    2.5031146381
    54      2    5.3209612500    2.5799004711    5.0062292960
    55      2    5.3209612500    4.4744970026    7.5093439341
    56      2    0.5317562500    9.1940611801    0.0000000000
    57      2    0.5317562452    3.5215563635    1.6687431053
    58      2    0.5317562500    5.4161528846    4.1718577434
    59      2    0.5317562452    7.3107494057    6.6749724013
    60      2    0.5317562500    9.2053459267    9.1780870394
    61      2    3.7097290118    2.2380101673    0.0155026328
    62      2    3.7097290071    4.1326066883    2.5186172709
    63      2    3.7097290119    6.0272032094    5.0217319090
    64      2    3.7097290071    7.9217997305    7.5248465669
    65      2    3.7097290070    0.3546983929    6.6904750143
    66      2    3.7097290118    2.2492949139    9.1935896722
    67      2   -1.0794759881    6.9688590914    1.6842457182
    68      2   -1.0794759881    8.8634556229    4.1873603762
    69      2   -1.0794759882    3.1909507959    5.8561034616
    70      2   -1.0794759834    5.0855473170    8.3592181196
    71      2    8.4989340070    1.2963542749    3.3529888235
    72      2    3.7097290119    9.8051115048    0.8498741656
