 vasp.6.1.0 28Jan20 (build Mar 31 2020 17:42:31) gamma-only                     
  
 executed on             LinuxIFC date 2020.04.11  20:31:04
 running on   48 total cores
 distrk:  each k-point on   48 cores,    1 groups
 distr:  one band on NCORE=   6 cores,    8 groups


--------------------------------------------------------------------------------------------------------


 INCAR:
 POTCAR:    PAW_PBE Ni_pv 06Sep2000               
 POTCAR:    PAW_PBE S 06Sep2000                   
 POTCAR:    PAW_PBE Ni_pv 06Sep2000               
   VRHFIN =Ni:                                                                                      
   LEXCH  = PE                                                                                      
   EATOM  =  3501.1230 eV,  257.3253 Ry                                                             
                                                                                                    
   TITEL  = PAW_PBE Ni_pv 06Sep2000                                                                 
   LULTRA =        F    use ultrasoft PP ?                                                          
   IUNSCR =        1    unscreen: 0-lin 1-nonlin 2-no                                               
   RPACOR =    1.500    partial core radius                                                         
   POMASS =   58.690; ZVAL   =   16.000    mass and valenz                                          
   RCORE  =    2.000    outmost cutoff radius                                                       
   RWIGS  =    2.000; RWIGS  =    1.058    wigner-seitz radius (au A)                               
   ENMAX  =  367.986; ENMIN  =  275.989 eV                                                          
   RCLOC  =    1.301    cutoff for local pot                                                        
   LCOR   =        T    correct aug charges                                                         
   LPAW   =        T    paw PP                                                                      
   EAUG   =  703.443                                                                                
   DEXC   =    0.000                                                                                
   RMAX   =    2.041    core radius for proj-oper                                                   
   RAUG   =    1.300    factor for augmentation sphere                                              
   RDEP   =    2.103    radius for radial grids                                                     
   RDEPT  =    1.618    core radius for aug-charge                                                  
                                                                                                    
   Atomic configuration                                                                             
    8 entries                                                                                       
     n  l   j            E        occ.                                                              
     1  0  0.50     -8206.4253   2.0000                                                             
     2  0  0.50      -976.1748   2.0000                                                             
     2  1  1.50      -839.0571   6.0000                                                             
     3  0  0.50      -105.9991   2.0000                                                             
     3  1  1.50       -66.4603   6.0000                                                             
     3  2  2.50        -4.6458   9.0000                                                             
     4  0  0.50        -4.4926   1.0000                                                             
     4  3  2.50        -1.3606   0.0000                                                             
   Description                                                                                      
     l       E           TYP  RCUT    TYP  RCUT                                                     
     1    -66.4602962     23  1.700                                                                 
     1     -1.3605826     23  1.700                                                                 
     2     -4.6457867     23  2.000                                                                 
     2     -6.0063693     23  2.000                                                                 
     0     -4.4925576     23  1.900                                                                 
     0     16.3626226     23  1.900                                                                 
  local pseudopotential read in
  partial core-charges read in
  partial kinetic energy density read in
  atomic valenz-charges read in
  non local Contribution for L=           1  read in
    real space projection operators read in
  non local Contribution for L=           1  read in
    real space projection operators read in
  non local Contribution for L=           2  read in
    real space projection operators read in
  non local Contribution for L=           2  read in
    real space projection operators read in
  non local Contribution for L=           0  read in
    real space projection operators read in
  non local Contribution for L=           0  read in
    real space projection operators read in
    PAW grid and wavefunctions read in
 
   number of l-projection  operators is LMAX  =           6
   number of lm-projection operators is LMMAX =          18
 
 POTCAR:    PAW_PBE S 06Sep2000                   
   VRHFIN =S : s2p4                                                                                 
   LEXCH  = PE                                                                                      
   EATOM  =   276.8230 eV,   20.3459 Ry                                                             
                                                                                                    
   TITEL  = PAW_PBE S 06Sep2000                                                                     
   LULTRA =        F    use ultrasoft PP ?                                                          
   IUNSCR =        1    unscreen: 0-lin 1-nonlin 2-no                                               
   RPACOR =    1.500    partial core radius                                                         
   POMASS =   32.066; ZVAL   =    6.000    mass and valenz                                          
   RCORE  =    1.900    outmost cutoff radius                                                       
   RWIGS  =    2.200; RWIGS  =    1.164    wigner-seitz radius (au A)                               
   ENMAX  =  258.689; ENMIN  =  194.016 eV                                                          
   ICORE  =        2    local potential                                                             
   LCOR   =        T    correct aug charges                                                         
   LPAW   =        T    paw PP                                                                      
   EAUG   =  335.092                                                                                
   DEXC   =    0.000                                                                                
   RMAX   =    1.942    core radius for proj-oper                                                   
   RAUG   =    1.300    factor for augmentation sphere                                              
   RDEP   =    1.954    radius for radial grids                                                     
   RDEPT  =    1.744    core radius for aug-charge                                                  
                                                                                                    
   Atomic configuration                                                                             
    6 entries                                                                                       
     n  l   j            E        occ.                                                              
     1  0  0.50     -2405.8406   2.0000                                                             
     2  0  0.50      -211.7007   2.0000                                                             
     2  1  1.50      -156.4958   6.0000                                                             
     3  0  0.50       -17.2562   2.0000                                                             
     3  1  0.50        -7.0085   4.0000                                                             
     3  2  1.50        -6.8029   0.0000                                                             
   Description                                                                                      
     l       E           TYP  RCUT    TYP  RCUT                                                     
     0    -17.2561641     23  1.900                                                                 
     0    -15.8743224     23  1.900                                                                 
     1     -7.0085400     23  1.900                                                                 
     1     -2.7779785     23  1.900                                                                 
     2     -6.8029130     23  1.900                                                                 
  local pseudopotential read in
  partial core-charges read in
  partial kinetic energy density read in
  atomic valenz-charges read in
  non local Contribution for L=           0  read in
    real space projection operators read in
  non local Contribution for L=           0  read in
    real space projection operators read in
  non local Contribution for L=           1  read in
    real space projection operators read in
  non local Contribution for L=           1  read in
    real space projection operators read in
    PAW grid and wavefunctions read in
 
   number of l-projection  operators is LMAX  =           4
   number of lm-projection operators is LMMAX =           8
 
 Optimization of the real space projectors (new method)

 maximal supplied QI-value         = 18.90
 optimisation between [QCUT,QGAM] = [ 10.77, 21.73] = [ 32.49,132.25] Ry 
 Optimized for a Real-space Cutoff    1.38 Angstroem

   l    n(q)    QCUT    max X(q) W(low)/X(q) W(high)/X(q)  e(spline) 
   1      8    10.771     2.836    0.40E-04    0.29E-04    0.12E-06
   1      8    10.771     4.023    0.10E-03    0.48E-04    0.29E-06
   2      8    10.771    73.368    0.42E-03    0.97E-04    0.44E-06
   2      8    10.771    69.010    0.42E-03    0.99E-04    0.45E-06
   0      9    10.771    54.797    0.10E-03    0.56E-04    0.74E-07
   0      9    10.771    24.266    0.89E-04    0.49E-04    0.67E-07
 Optimization of the real space projectors (new method)

 maximal supplied QI-value         = 19.84
 optimisation between [QCUT,QGAM] = [ 10.71, 21.63] = [ 32.15,130.99] Ry 
 Optimized for a Real-space Cutoff    1.19 Angstroem

   l    n(q)    QCUT    max X(q) W(low)/X(q) W(high)/X(q)  e(spline) 
   0      8    10.715   187.594    0.41E-03    0.53E-04    0.66E-07
   0      8    10.715   164.243    0.41E-03    0.53E-04    0.65E-07
   1      7    10.715    67.533    0.19E-03    0.59E-03    0.68E-07
   1      7    10.715    50.729    0.19E-03    0.58E-03    0.67E-07
  PAW_PBE Ni_pv 06Sep2000               :
 energy of atom  1       EATOM=-3501.1230
 kinetic energy error for atom=    0.0925 (will be added to EATOM!!)
  PAW_PBE S 06Sep2000                   :
 energy of atom  2       EATOM= -276.8230
 kinetic energy error for atom=    0.0033 (will be added to EATOM!!)
 
 
 POSCAR: Structure 34 made from -102-8.xsd file
  positions in direct lattice
  No initial velocities read in
 exchange correlation table for  LEXCH =        8
   RHO(1)=    0.500       N(1)  =     2000
   RHO(2)=  100.500       N(2)  =     4000
 


--------------------------------------------------------------------------------------------------------


 ion  position               nearest neighbor table
   1  0.439  0.464  0.163-  30 2.25  37 2.26  45 2.26  38 2.36  46 2.36   5 2.53  22 2.53
   2  0.491  0.464  0.342-  31 2.25  38 2.26  46 2.26  47 2.36   6 2.53  23 2.53
   3  0.163  0.964  0.073-  27 2.25  39 2.36  35 2.36  11 2.53   7 2.53
   4  0.215  0.964  0.253-  28 2.25  39 2.26  35 2.26  40 2.36  36 2.36  12 2.53   8 2.53
   5  0.439  0.200  0.163-  35 2.25  37 2.26  41 2.26  38 2.36  42 2.36   1 2.53  22 2.53
   6  0.491  0.200  0.342-  36 2.25  38 2.26  42 2.26  43 2.36   2 2.53  23 2.53
   7  0.163  0.700  0.073-  32 2.25  39 2.36  30 2.36  11 2.53   3 2.53
   8  0.215  0.700  0.253-  33 2.25  39 2.26  30 2.26  40 2.36  31 2.36  12 2.53   4 2.53
   9  0.131  0.332  0.139-  37 2.25  27 2.26  32 2.26  28 2.36  33 2.36  18 2.53  14 2.53
  10  0.182  0.332  0.319-  38 2.25  28 2.26  33 2.26  29 2.36  34 2.36  19 2.53  15 2.53
  11  0.355  0.832  0.049-  51 2.25  30 2.36  35 2.36   7 2.53   3 2.53
  12  0.407  0.832  0.229-  52 2.25  30 2.26  35 2.26  31 2.36  36 2.36   8 2.53   4 2.53
  13  0.458  0.832  0.408-  31 2.26  36 2.26
  14  0.939  0.464  0.163-  44 2.25  49 2.26  32 2.26  50 2.36  33 2.36  18 2.53   9 2.53
  15  0.991  0.464  0.342-  50 2.26  33 2.26  34 2.36  19 2.53  10 2.53
  16  0.663  0.964  0.073-  41 2.25  51 2.26  52 2.36  48 2.36  24 2.53  20 2.53
  17  0.715  0.964  0.253-  42 2.25  52 2.26  48 2.26  25 2.53  21 2.53
  18  0.939  0.200  0.163-  48 2.25  49 2.26  27 2.26  50 2.36  28 2.36  14 2.53   9 2.53
  19  0.991  0.200  0.342-  50 2.26  28 2.26  29 2.36  15 2.53  10 2.53
  20  0.663  0.700  0.073-  45 2.25  51 2.26  52 2.36  44 2.36  24 2.53  16 2.53
  21  0.715  0.700  0.253-  46 2.25  52 2.26  44 2.26  25 2.53  17 2.53
  22  0.631  0.332  0.139-  49 2.25  41 2.26  45 2.26  42 2.36  46 2.36   5 2.53   1 2.53
  23  0.682  0.332  0.319-  50 2.25  42 2.26  46 2.26  43 2.36  47 2.36   6 2.53   2 2.53
  24  0.855  0.832  0.049-  44 2.36  48 2.36  16 2.53  20 2.53
  25  0.907  0.832  0.229-  39 2.25  44 2.26  48 2.26  21 2.53  17 2.53
  26  0.958  0.832  0.408-  40 2.25
  27  0.060  0.164  0.060-   3 2.25   9 2.26  18 2.26
  28  0.111  0.164  0.239-   4 2.25  10 2.26  19 2.26   9 2.36  18 2.36
  29  0.163  0.164  0.418-  10 2.36  19 2.36
  30  0.336  0.664  0.149-   1 2.25  12 2.26   8 2.26  11 2.36   7 2.36
  31  0.387  0.664  0.329-   2 2.25  13 2.26   8 2.36  12 2.36
  32  0.060  0.500  0.060-   7 2.25   9 2.26  14 2.26
  33  0.111  0.500  0.239-   8 2.25  10 2.26  15 2.26   9 2.36  14 2.36
  34  0.163  0.500  0.418-  10 2.36  15 2.36
  35  0.336  1.000  0.149-   5 2.25  12 2.26   4 2.26  11 2.36   3 2.36
  36  0.387  1.000  0.329-   6 2.25  13 2.26   4 2.36  12 2.36
  37  0.316  0.332  0.090-   9 2.25   5 2.26   1 2.26
  38  0.368  0.332  0.269-  10 2.25   6 2.26   2 2.26   1 2.36   5 2.36
  39  0.092  0.832  0.179-  25 2.25   8 2.26   4 2.26   3 2.36   7 2.36
  40  0.144  0.832  0.359-  26 2.25   8 2.36   4 2.36
  41  0.560  0.164  0.060-  16 2.25  22 2.26   5 2.26
  42  0.611  0.164  0.239-  17 2.25  23 2.26   6 2.26  22 2.36   5 2.36
  43  0.663  0.164  0.418-  23 2.36   6 2.36
  44  0.836  0.664  0.149-  14 2.25  25 2.26  21 2.26  24 2.36  20 2.36
  45  0.560  0.500  0.060-  20 2.25  22 2.26   1 2.26
  46  0.611  0.500  0.239-  21 2.25  23 2.26   2 2.26  22 2.36   1 2.36
  47  0.663  0.500  0.418-  23 2.36   2 2.36
  48  0.836  1.000  0.149-  18 2.25  25 2.26  17 2.26  24 2.36  16 2.36
  49  0.816  0.332  0.090-  22 2.25  18 2.26  14 2.26
  50  0.868  0.332  0.269-  23 2.25  19 2.26  15 2.26  14 2.36  18 2.36
  51  0.540  0.832  0.000-  11 2.25  16 2.26  20 2.26
  52  0.592  0.832  0.179-  12 2.25  17 2.26  21 2.26  20 2.36  16 2.36
 
  LATTYP: Found a simple orthorhombic cell.
 ALAT       =     9.5784100000
 B/A-ratio  =     1.1751911892
 C/A-ratio  =     1.7949213288
  
  Lattice vectors:
  
 A1 = (   0.0000000000,  -9.5784100000,   0.0000000000)
 A2 = ( -11.2564630382,   0.0000000000,   0.0000000000)
 A3 = (   0.0000000000,   0.0000000000, -17.1924924047)


Analysis of symmetry for initial positions (statically):
=====================================================================
 Subroutine PRICEL returns:
 Original cell was already a primitive cell.
 

 Routine SETGRP: Setting up the symmetry group for a 
 simple orthorhombic supercell.


 Subroutine GETGRP returns: Found  2 space group operations
 (whereof  1 operations were pure point group operations)
 out of a pool of  8 trial point group operations.


The static configuration has the point symmetry C_1 .
 The point group associated with its full space group is C_1h.


Analysis of symmetry for dynamics (positions and initial velocities):
=====================================================================
 Subroutine PRICEL returns:
 Original cell was already a primitive cell.
 

 Routine SETGRP: Setting up the symmetry group for a 
 simple orthorhombic supercell.


 Subroutine GETGRP returns: Found  2 space group operations
 (whereof  1 operations were pure point group operations)
 out of a pool of  8 trial point group operations.


The dynamic configuration has the point symmetry C_1 .
 The point group associated with its full space group is C_1h.


 Subroutine INISYM returns: Found  2 space group operations
 (whereof  1 operations are pure point group operations),
 and found     1 'primitive' translations


----------------------------------------------------------------------------------------

                                     Primitive cell                                     

  volume of cell :    1853.6777

  direct lattice vectors                    reciprocal lattice vectors
    11.256463038  0.000000000  0.000000000     0.088837852  0.000000000  0.000000000
     0.000000000  9.578410000  0.000000000     0.000000000  0.104401461  0.000000000
     0.000000000  0.000000000 17.192492405     0.000000000  0.000000000  0.058164923

  length of vectors
    11.256463038  9.578410000 17.192492405     0.088837852  0.104401461  0.058164923

  position of ions in fractional coordinates (direct lattice)
     0.439334990  0.463887997  0.162833771
     0.491186924  0.463887997  0.342246010
     0.163409030  0.963887997  0.073127651
     0.215260964  0.963887997  0.252539890
     0.439334990  0.199681997  0.162833771
     0.491186924  0.199681997  0.342246010
     0.163409030  0.699681997  0.073127651
     0.215260964  0.699681997  0.252539890
     0.130639703  0.331784997  0.139132876
     0.182491637  0.331784997  0.318545115
     0.354713728  0.831784997  0.049426756
     0.406565662  0.831784997  0.228838995
     0.458417597  0.831784997  0.408251235
     0.939334990  0.463887997  0.162833771
     0.991186924  0.463887997  0.342246010
     0.663409030  0.963887997  0.073127651
     0.715260964  0.963887997  0.252539890
     0.939334990  0.199681997  0.162833771
     0.991186924  0.199681997  0.342246010
     0.663409030  0.699681997  0.073127651
     0.715260964  0.699681997  0.252539890
     0.630639703  0.331784997  0.139132876
     0.682491637  0.331784997  0.318545115
     0.854713728  0.831784997  0.049426756
     0.906565662  0.831784997  0.228838995
     0.958417597  0.831784997  0.408251235
     0.059637103  0.163569997  0.059526290
     0.111489038  0.163569997  0.238938529
     0.163340972  0.163569997  0.418350768
     0.335563063  0.663569997  0.149232409
     0.387414997  0.663569997  0.328644649
     0.059637103  0.499999997  0.059526290
     0.111489038  0.499999997  0.238938529
     0.163340972  0.499999997  0.418350768
     0.335563063  0.999999997  0.149232409
     0.387414997  0.999999997  0.328644649
     0.316036869  0.331784997  0.089706120
     0.367888803  0.331784997  0.269118359
     0.091962844  0.831784997  0.179412239
     0.143814778  0.831784997  0.358824478
     0.559637103  0.163569997  0.059526290
     0.611489038  0.163569997  0.238938529
     0.663340972  0.163569997  0.418350768
     0.835563063  0.663569997  0.149232409
     0.559637103  0.499999997  0.059526290
     0.611489038  0.499999997  0.238938529
     0.663340972  0.499999997  0.418350768
     0.835563063  0.999999997  0.149232409
     0.816036869  0.331784997  0.089706120
     0.867888803  0.331784997  0.269118359
     0.540110910  0.831784997  0.000000000
     0.591962844  0.831784997  0.179412239

  ion indices of the primitive-cell ions
   primitive index   ion index
                 1           1
                 2           2
                 3           3
                 4           4
                 5           5
                 6           6
                 7           7
                 8           8
                 9           9
                10          10
                11          11
                12          12
                13          13
                14          14
                15          15
                16          16
                17          17
                18          18
                19          19
                20          20
                21          21
                22          22
                23          23
                24          24
                25          25
                26          26
                27          27
                28          28
                29          29
                30          30
                31          31
                32          32
                33          33
                34          34
                35          35
                36          36
                37          37
                38          38
                39          39
                40          40
                41          41
                42          42
                43          43
                44          44
                45          45
                46          46
                47          47
                48          48
                49          49
                50          50
                51          51
                52          52

----------------------------------------------------------------------------------------

 
 
 KPOINTS: gamma-point-only calculation. no periodi

Automatic generation of k-mesh.
Space group operators:
 irot       det(A)        alpha          n_x          n_y          n_z        tau_x        tau_y        tau_z
    1     1.000000     0.000000     1.000000     0.000000     0.000000     0.000000     0.000000     0.000000
    2    -1.000000   180.000000     0.000000     1.000000     0.000000     0.000000    -0.336430     0.000000
 
 Subroutine IBZKPT returns following result:
 ===========================================
 
 Found      1 irreducible k-points:
 
 Following reciprocal coordinates:
            Coordinates               Weight
  0.000000  0.000000  0.000000      1.000000
 
 Following cartesian coordinates:
            Coordinates               Weight
  0.000000  0.000000  0.000000      1.000000
 


--------------------------------------------------------------------------------------------------------




 Dimension of arrays:
   k-points           NKPTS =      1   k-points in BZ     NKDIM =      1   number of bands    NBANDS=    344
   number of dos      NEDOS =    301   number of ions     NIONS =     52
   non local maximal  LDIM  =      6   non local SUM 2l+1 LMDIM =     18
   total plane-waves  NPLWV = 270000
   max r-space proj   IRMAX =   1656   max aug-charges    IRDMAX=   4788
   dimension x,y,z NGX =    60 NGY =   50 NGZ =   90
   dimension x,y,z NGXF=   120 NGYF=  100 NGZF=  180
   support grid    NGXF=   120 NGYF=  100 NGZF=  180
   ions per type =              26  26
   NGX,Y,Z   is equivalent  to a cutoff of   8.86,  8.68,  8.70 a.u.
   NGXF,Y,Z  is equivalent  to a cutoff of  17.72, 17.36, 17.41 a.u.

 SYSTEM =  "Millerite NiS"                         
 POSCAR =  Structure 34 made from -102-8.xsd file  

 Startparameter for this run:
   NWRITE =      2    write-flag & timer
   PREC   = normal    normal or accurate (medium, high low for compatibility)
   ISTART =      0    job   : 0-new  1-cont  2-samecut
   ICHARG =      2    charge: 1-file 2-atom 10-const
   ISPIN  =      1    spin polarized calculation?
   LNONCOLLINEAR =      F non collinear calculations
   LSORBIT =      F    spin-orbit coupling
   INIWAV =      1    electr: 0-lowe 1-rand  2-diag
   LASPH  =      F    aspherical Exc in radial PAW
   METAGGA=      F    non-selfconsistent MetaGGA calc.

 Electronic Relaxation 1
   ENCUT  =  450.0 eV  33.07 Ry    5.75 a.u.  19.47 16.57 29.74*2*pi/ulx,y,z
   ENINI  =  450.0     initial cutoff
   ENAUG  =  703.4 eV  augmentation charge cutoff
   NELM   =    100;   NELMIN=  2; NELMDL= -5     # of ELM steps 
   EDIFF  = 0.1E-03   stopping-criterion for ELM
   LREAL  =      T    real-space projection
   NLSPLINE    = F    spline interpolate recip. space projectors
   LCOMPAT=      F    compatible to vasp.4.4
   GGA_COMPAT  = T    GGA compatible to vasp.4.4-vasp.4.6
   LMAXPAW     = -100 max onsite density
   LMAXMIX     =    2 max onsite mixed and CHGCAR
   VOSKOWN=      0    Vosko Wilk Nusair interpolation
   ROPT   =   -0.00050  -0.00050
 Ionic relaxation
   EDIFFG = 0.1E-02   stopping-criterion for IOM
   NSW    =      0    number of steps for IOM
   NBLOCK =      1;   KBLOCK =      1    inner block; outer block 
   IBRION =     -1    ionic relax: 0-MD 1-quasi-New 2-CG
   NFREE  =      0    steps in history (QN), initial steepest desc. (CG)
   ISIF   =      2    stress and relaxation
   IWAVPR =     10    prediction:  0-non 1-charg 2-wave 3-comb
   ISYM   =      2    0-nonsym 1-usesym 2-fastsym
   LCORR  =      T    Harris-Foulkes like correction to forces

   POTIM  = 0.5000    time-step for ionic-motion
   TEIN   =    0.0    initial temperature
   TEBEG  =    0.0;   TEEND  =   0.0 temperature during run
   SMASS  =  -3.00    Nose mass-parameter (am)
   estimated Nose-frequenzy (Omega)   =  0.10E-29 period in steps = 0.13E+47 mass=  -0.290E-26a.u.
   SCALEE = 1.0000    scale energy and forces
   NPACO  =    256;   APACO  = 16.0  distance and # of slots for P.C.
   PSTRESS=    0.0 pullay stress

  Mass of Ions in am
   POMASS =  58.69 32.07
  Ionic Valenz
   ZVAL   =  16.00  6.00
  Atomic Wigner-Seitz radii
   RWIGS  =  -1.00 -1.00
  virtual crystal weights 
   VCA    =   1.00  1.00
   NELECT =     572.0000    total number of electrons
   NUPDOWN=      -1.0000    fix difference up-down

 DOS related values:
   EMIN   =  10.00;   EMAX   =-10.00  energy-range for DOS
   EFERMI =   0.00
   ISMEAR =     0;   SIGMA  =   0.20  broadening in eV -4-tet -1-fermi 0-gaus

 Electronic relaxation 2 (details)
   IALGO  =     38    algorithm
   LDIAG  =      T    sub-space diagonalisation (order eigenvalues)
   LSUBROT=      F    optimize rotation matrix (better conditioning)
   TURBO    =      0    0=normal 1=particle mesh
   IRESTART =      0    0=no restart 2=restart with 2 vectors
   NREBOOT  =      0    no. of reboots
   NMIN     =      0    reboot dimension
   EREF     =   0.00    reference energy to select bands
   IMIX   =      4    mixing-type and parameters
     AMIX     =   0.40;   BMIX     =  1.00
     AMIX_MAG =   1.60;   BMIX_MAG =  1.00
     AMIN     =   0.10
     WC   =   100.;   INIMIX=   1;  MIXPRE=   1;  MAXMIX= -45

 Intra band minimization:
   WEIMIN = 0.0000     energy-eigenvalue tresh-hold
   EBREAK =  0.73E-07  absolut break condition
   DEPER  =   0.30     relativ break condition  

   TIME   =   0.40     timestep for ELM

  volume/ion in A,a.u.               =      35.65       240.56
  Fermi-wavevector in a.u.,A,eV,Ry     =   1.106272  2.090552 16.651337  1.223839
  Thomas-Fermi vector in A             =   2.242771
 
 Write flags
   LWAVE        =      F    write WAVECAR
   LDOWNSAMPLE  =      F    k-point downsampling of WAVECAR
   LCHARG       =      F    write CHGCAR
   LVTOT        =      F    write LOCPOT, total local potential
   LVHAR        =      F    write LOCPOT, Hartree potential only
   LELF         =      F    write electronic localiz. function (ELF)
   LORBIT       =      0    0 simple, 1 ext, 2 COOP (PROOUT), +10 PAW based schemes


 Dipole corrections
   LMONO  =      F    monopole corrections only (constant potential shift)
   LDIPOL =      F    correct potential (dipole corrections)
   IDIPOL =      0    1-x, 2-y, 3-z, 4-all directions 
   EPSILON=  1.0000000 bulk dielectric constant

 Exchange correlation treatment:
   GGA     =    --    GGA type
   LEXCH   =     8    internal setting for exchange type
   VOSKOWN=      0    Vosko Wilk Nusair interpolation
   LHFCALC =     F    Hartree Fock is set to
   LHFONE  =     F    Hartree Fock one center treatment
   AEXX    =    0.0000 exact exchange contribution

 Linear response parameters
   LEPSILON=     F    determine dielectric tensor
   LRPA    =     F    only Hartree local field effects (RPA)
   LNABLA  =     F    use nabla operator in PAW spheres
   LVEL    =     F    velocity operator in full k-point grid
   LINTERFAST=   F  fast interpolation
   KINTER  =     0    interpolate to denser k-point grid
   CSHIFT  =0.1000    complex shift for real part using Kramers Kronig
   OMEGAMAX=  -1.0    maximum frequency
   DEG_THRESHOLD= 0.2000000E-02 threshold for treating states as degnerate
   RTIME   =   -0.100 relaxation time in fs
  (WPLASMAI=    0.000 imaginary part of plasma frequency in eV, 0.658/RTIME)
   DFIELD  = 0.0000000 0.0000000 0.0000000 field for delta impulse in time
 
 Orbital magnetization related:
   ORBITALMAG=     F  switch on orbital magnetization
   LCHIMAG   =     F  perturbation theory with respect to B field
   DQ        =  0.001000  dq finite difference perturbation B field
   LLRAUG    =     F  two centre corrections for induced B field



--------------------------------------------------------------------------------------------------------


 Static calculation
 charge density and potential will be updated during run
 non-spin polarized calculation
 Variant of blocked Davidson
 Davidson routine will perform the subspace rotation
 perform sub-space diagonalisation
    after iterative eigenvector-optimisation
 modified Broyden-mixing scheme, WC =      100.0
 initial mixing is a Kerker type mixing with AMIX =  0.4000 and BMIX =      1.0000
 Hartree-type preconditioning will be used
 using additional bands           58
 real space projection scheme for non local part
 use partial core corrections
 calculate Harris-corrections to forces 
   (improved forces if not selfconsistent)
 use gradient corrections 
 use of overlap-Matrix (Vanderbilt PP)
 Gauss-broadening in eV      SIGMA  =   0.20


--------------------------------------------------------------------------------------------------------


  energy-cutoff  :      450.00
  volume of cell :     1853.68
      direct lattice vectors                 reciprocal lattice vectors
    11.256463038  0.000000000  0.000000000     0.088837852  0.000000000  0.000000000
     0.000000000  9.578410000  0.000000000     0.000000000  0.104401461  0.000000000
     0.000000000  0.000000000 17.192492405     0.000000000  0.000000000  0.058164923

  length of vectors
    11.256463038  9.578410000 17.192492405     0.088837852  0.104401461  0.058164923


 
 k-points in units of 2pi/SCALE and weight: gamma-point-only calculation. no periodi
   0.00000000  0.00000000  0.00000000       1.000
 
 k-points in reciprocal lattice and weights: gamma-point-only calculation. no periodi
   0.00000000  0.00000000  0.00000000       1.000
 
 position of ions in fractional coordinates (direct lattice) 
   0.43933499  0.46388800  0.16283377
   0.49118692  0.46388800  0.34224601
   0.16340903  0.96388800  0.07312765
   0.21526096  0.96388800  0.25253989
   0.43933499  0.19968200  0.16283377
   0.49118692  0.19968200  0.34224601
   0.16340903  0.69968200  0.07312765
   0.21526096  0.69968200  0.25253989
   0.13063970  0.33178500  0.13913288
   0.18249164  0.33178500  0.31854511
   0.35471373  0.83178500  0.04942676
   0.40656566  0.83178500  0.22883899
   0.45841760  0.83178500  0.40825124
   0.93933499  0.46388800  0.16283377
   0.99118692  0.46388800  0.34224601
   0.66340903  0.96388800  0.07312765
   0.71526096  0.96388800  0.25253989
   0.93933499  0.19968200  0.16283377
   0.99118692  0.19968200  0.34224601
   0.66340903  0.69968200  0.07312765
   0.71526096  0.69968200  0.25253989
   0.63063970  0.33178500  0.13913288
   0.68249164  0.33178500  0.31854511
   0.85471373  0.83178500  0.04942676
   0.90656566  0.83178500  0.22883899
   0.95841760  0.83178500  0.40825124
   0.05963710  0.16357000  0.05952629
   0.11148904  0.16357000  0.23893853
   0.16334097  0.16357000  0.41835077
   0.33556306  0.66357000  0.14923241
   0.38741500  0.66357000  0.32864465
   0.05963710  0.50000000  0.05952629
   0.11148904  0.50000000  0.23893853
   0.16334097  0.50000000  0.41835077
   0.33556306  1.00000000  0.14923241
   0.38741500  1.00000000  0.32864465
   0.31603687  0.33178500  0.08970612
   0.36788880  0.33178500  0.26911836
   0.09196284  0.83178500  0.17941224
   0.14381478  0.83178500  0.35882448
   0.55963710  0.16357000  0.05952629
   0.61148904  0.16357000  0.23893853
   0.66334097  0.16357000  0.41835077
   0.83556306  0.66357000  0.14923241
   0.55963710  0.50000000  0.05952629
   0.61148904  0.50000000  0.23893853
   0.66334097  0.50000000  0.41835077
   0.83556306  1.00000000  0.14923241
   0.81603687  0.33178500  0.08970612
   0.86788880  0.33178500  0.26911836
   0.54011091  0.83178500  0.00000000
   0.59196284  0.83178500  0.17941224
 
 position of ions in cartesian coordinates  (Angst):
   4.94535808  4.44330943  2.79951837
   5.52902745  4.44330943  5.88406193
   1.83940771  9.23251443  1.25724658
   2.42307708  9.23251443  4.34179014
   4.94535808  1.91263604  2.79951837
   5.52902745  1.91263604  5.88406193
   1.83940771  6.70184104  1.25724658
   2.42307708  6.70184104  4.34179014
   1.47054099  3.17797273  2.39204091
   2.05421037  3.17797273  5.47658447
   3.99282197  7.96717773  0.84976913
   4.57649135  7.96717773  3.93431268
   5.16016074  7.96717773  7.01885626
  10.57358960  4.44330943  2.79951837
  11.15725897  4.44330943  5.88406193
   7.46763923  9.23251443  1.25724658
   8.05130860  9.23251443  4.34179014
  10.57358960  1.91263604  2.79951837
  11.15725897  1.91263604  5.88406193
   7.46763923  6.70184104  1.25724658
   8.05130860  6.70184104  4.34179014
   7.09877251  3.17797273  2.39204091
   7.68244189  3.17797273  5.47658447
   9.62105349  7.96717773  0.84976913
  10.20472287  7.96717773  3.93431268
  10.78839226  7.96717773  7.01885626
   0.67130285  1.56674049  1.02340529
   1.25497224  1.56674049  4.10794885
   1.83864161  1.56674049  7.19249240
   3.77725322  6.35594549  2.56567706
   4.36092259  6.35594549  5.65022063
   0.67130285  4.78920497  1.02340529
   1.25497224  4.78920497  4.10794885
   1.83864161  4.78920497  7.19249240
   3.77725322  9.57840997  2.56567706
   4.36092259  9.57840997  5.65022063
   3.55745733  3.17797273  1.54227179
   4.14112671  3.17797273  4.62681534
   1.03517635  7.96717773  3.08454356
   1.61884573  7.96717773  6.16908711
   6.29953436  1.56674049  1.02340529
   6.88320375  1.56674049  4.10794885
   7.46687313  1.56674049  7.19249240
   9.40548473  6.35594549  2.56567706
   6.29953436  4.78920497  1.02340529
   6.88320375  4.78920497  4.10794885
   7.46687313  4.78920497  7.19249240
   9.40548473  9.57840997  2.56567706
   9.18568885  3.17797273  1.54227179
   9.76935823  3.17797273  4.62681534
   6.07973849  7.96717773  0.00000000
   6.66340787  7.96717773  3.08454356
 


--------------------------------------------------------------------------------------------------------


 use parallel FFT for orbitals z direction half grid
 k-point   1 :   0.0000 0.0000 0.0000  plane waves:   20117

 maximum and minimum number of plane-waves per node :      3359     3348

 maximum number of plane-waves:     20117
 maximum index in each direction: 
   IXMAX=   19   IYMAX=   16   IZMAX=   29
   IXMIN=  -19   IYMIN=  -16   IZMIN=    0


 real space projection operators:
  total allocation   :       7322.69 KBytes
  max/ min on nodes  :       1231.47       1214.56


 parallel 3D FFT for wavefunctions:
    minimum data exchange during FFTs selected (reduces bandwidth)
 parallel 3D FFT for charge:
    minimum data exchange during FFTs selected (reduces bandwidth)


 total amount of memory used by VASP MPI-rank0    41547. kBytes
=======================================================================

   base      :      30000. kBytes
   nonlr-proj:       1513. kBytes
   fftplans  :       2754. kBytes
   grid      :       4856. kBytes
   one-center:         69. kBytes
   wavefun   :       2355. kBytes
 
     INWAV:  cpu time    0.0000: real time    0.0000
 Broyden mixing: mesh for mixing (old mesh)
   NGX = 39   NGY = 33   NGZ = 59
  (NGX  =120   NGY  =100   NGZ  =180)
  gives a total of  75933 points

 initial charge density was supplied:
 charge density of overlapping atoms calculated
 number of electron     572.0000000 magnetization 
 keeping initial charge density in first step


--------------------------------------------------------------------------------------------------------


 Maximum index for non-local projection operator          267
 Maximum index for augmentation-charges          315 (set IRDMAX)


--------------------------------------------------------------------------------------------------------


 First call to EWALD:  gamma=   0.144
 Maximum number of real-space cells 3x 3x 2
 Maximum number of reciprocal cells 3x 2x 4

    FEWALD:  cpu time    0.0033: real time    0.0034


--------------------------------------- Iteration      1(   1)  ---------------------------------------


    POTLOK:  cpu time    0.0504: real time    0.0510
    SETDIJ:  cpu time    0.0054: real time    0.0056
     EDDAV:  cpu time    1.6724: real time    1.6781
       DOS:  cpu time    0.0013: real time    0.0013
    --------------------------------------------
      LOOP:  cpu time    1.7295: real time    1.7359

 eigenvalue-minimisations  :   848
 total energy-change (2. order) : 0.6248777E+04  (-0.3618286E+05)
 number of electron     572.0000000 magnetization 
 augmentation part      572.0000000 magnetization 

 Free energy of the ion-electron system (eV)
  ---------------------------------------------------
  alpha Z        PSCENC =      1046.73971423
  Ewald energy   TEWEN  =     87804.97673355
  -Hartree energ DENC   =   -175176.33110354
  -exchange      EXHF   =         0.00000000
  -V(xc)+E(xc)   XCENC  =      2627.24832820
  PAW double counting   =     81415.77407466   -84963.31414086
  entropy T*S    EENTRO =        -0.26234331
  eigenvalues    EBANDS =     -4730.15793429
  atomic energy  EATOM  =     98224.10364994
  Solvation  Ediel_sol  =         0.00000000
  ---------------------------------------------------
  free energy    TOTEN  =      6248.77697857 eV

  energy without entropy =     6249.03932188  energy(sigma->0) =     6248.90815023


--------------------------------------------------------------------------------------------------------




--------------------------------------- Iteration      1(   2)  ---------------------------------------


     EDDAV:  cpu time    1.4799: real time    1.4858
       DOS:  cpu time    0.0005: real time    0.0005
    --------------------------------------------
      LOOP:  cpu time    1.4804: real time    1.4863

 eigenvalue-minimisations  :   728
 total energy-change (2. order) :-0.5900435E+04  (-0.5695239E+04)
 number of electron     572.0000000 magnetization 
 augmentation part      572.0000000 magnetization 

 Free energy of the ion-electron system (eV)
  ---------------------------------------------------
  alpha Z        PSCENC =      1046.73971423
  Ewald energy   TEWEN  =     87804.97673355
  -Hartree energ DENC   =   -175176.33110354
  -exchange      EXHF   =         0.00000000
  -V(xc)+E(xc)   XCENC  =      2627.24832820
  PAW double counting   =     81415.77407466   -84963.31414086
  entropy T*S    EENTRO =        -0.60430569
  eigenvalues    EBANDS =    -10630.25136725
  atomic energy  EATOM  =     98224.10364994
  Solvation  Ediel_sol  =         0.00000000
  ---------------------------------------------------
  free energy    TOTEN  =       348.34158324 eV

  energy without entropy =      348.94588893  energy(sigma->0) =      348.64373608


--------------------------------------------------------------------------------------------------------




--------------------------------------- Iteration      1(   3)  ---------------------------------------


     EDDAV:  cpu time    1.6202: real time    1.6251
       DOS:  cpu time    0.0007: real time    0.0007
    --------------------------------------------
      LOOP:  cpu time    1.6209: real time    1.6259

 eigenvalue-minimisations  :   808
 total energy-change (2. order) :-0.5978790E+03  (-0.5658270E+03)
 number of electron     572.0000000 magnetization 
 augmentation part      572.0000000 magnetization 

 Free energy of the ion-electron system (eV)
  ---------------------------------------------------
  alpha Z        PSCENC =      1046.73971423
  Ewald energy   TEWEN  =     87804.97673355
  -Hartree energ DENC   =   -175176.33110354
  -exchange      EXHF   =         0.00000000
  -V(xc)+E(xc)   XCENC  =      2627.24832820
  PAW double counting   =     81415.77407466   -84963.31414086
  entropy T*S    EENTRO =        -1.02778171
  eigenvalues    EBANDS =    -11227.70684306
  atomic energy  EATOM  =     98224.10364994
  Solvation  Ediel_sol  =         0.00000000
  ---------------------------------------------------
  free energy    TOTEN  =      -249.53736860 eV

  energy without entropy =     -248.50958689  energy(sigma->0) =     -249.02347774


--------------------------------------------------------------------------------------------------------




--------------------------------------- Iteration      1(   4)  ---------------------------------------


     EDDAV:  cpu time    1.6407: real time    1.6446
       DOS:  cpu time    0.0005: real time    0.0005
    --------------------------------------------
      LOOP:  cpu time    1.6412: real time    1.6451

 eigenvalue-minimisations  :   832
 total energy-change (2. order) :-0.3642007E+02  (-0.3592962E+02)
 number of electron     572.0000000 magnetization 
 augmentation part      572.0000000 magnetization 

 Free energy of the ion-electron system (eV)
  ---------------------------------------------------
  alpha Z        PSCENC =      1046.73971423
  Ewald energy   TEWEN  =     87804.97673355
  -Hartree energ DENC   =   -175176.33110354
  -exchange      EXHF   =         0.00000000
  -V(xc)+E(xc)   XCENC  =      2627.24832820
  PAW double counting   =     81415.77407466   -84963.31414086
  entropy T*S    EENTRO =        -1.07412162
  eigenvalues    EBANDS =    -11264.08057734
  atomic energy  EATOM  =     98224.10364994
  Solvation  Ediel_sol  =         0.00000000
  ---------------------------------------------------
  free energy    TOTEN  =      -285.95744278 eV

  energy without entropy =     -284.88332116  energy(sigma->0) =     -285.42038197


--------------------------------------------------------------------------------------------------------




--------------------------------------- Iteration      1(   5)  ---------------------------------------


     EDDAV:  cpu time    1.6768: real time    1.6832
       DOS:  cpu time    0.0006: real time    0.0006
    CHARGE:  cpu time    0.0618: real time    0.0620
    MIXING:  cpu time    0.0025: real time    0.0028
    --------------------------------------------
      LOOP:  cpu time    1.7416: real time    1.7486

 eigenvalue-minimisations  :   856
 total energy-change (2. order) :-0.1135653E+01  (-0.1133913E+01)
 number of electron     572.0000593 magnetization 
 augmentation part      205.6189107 magnetization 

 Broyden mixing:
  rms(total) = 0.69906E+01    rms(broyden)= 0.69764E+01
  rms(prec ) = 0.75849E+01
  weight for this iteration     100.00

 Free energy of the ion-electron system (eV)
  ---------------------------------------------------
  alpha Z        PSCENC =      1046.73971423
  Ewald energy   TEWEN  =     87804.97673355
  -Hartree energ DENC   =   -175176.33110354
  -exchange      EXHF   =         0.00000000
  -V(xc)+E(xc)   XCENC  =      2627.24832820
  PAW double counting   =     81415.77407466   -84963.31414086
  entropy T*S    EENTRO =        -1.07054737
  eigenvalues    EBANDS =    -11265.21980439
  atomic energy  EATOM  =     98224.10364994
  Solvation  Ediel_sol  =         0.00000000
  ---------------------------------------------------
  free energy    TOTEN  =      -287.09309559 eV

  energy without entropy =     -286.02254821  energy(sigma->0) =     -286.55782190


--------------------------------------------------------------------------------------------------------




--------------------------------------- Iteration      1(   6)  ---------------------------------------


    POTLOK:  cpu time    0.0503: real time    0.0515
    SETDIJ:  cpu time    0.0040: real time    0.0058
     EDDAV:  cpu time    1.6137: real time    1.6177
       DOS:  cpu time    0.0005: real time    0.0005
    CHARGE:  cpu time    0.0620: real time    0.0622
    MIXING:  cpu time    0.0020: real time    0.0021
    --------------------------------------------
      LOOP:  cpu time    1.7326: real time    1.7397

 eigenvalue-minimisations  :   840
 total energy-change (2. order) :-0.8524608E+02  (-0.7835469E+02)
 number of electron     572.0000705 magnetization 
 augmentation part      257.9979006 magnetization 

 Broyden mixing:
  rms(total) = 0.15253E+02    rms(broyden)= 0.15249E+02
  rms(prec ) = 0.16085E+02
  weight for this iteration     100.00

 eigenvalues of (default mixing * dielectric matrix)
  average eigenvalue GAMMA=   0.1998
  0.1998

 Free energy of the ion-electron system (eV)
  ---------------------------------------------------
  alpha Z        PSCENC =      1046.73971423
  Ewald energy   TEWEN  =     87804.97673355
  -Hartree energ DENC   =   -173026.02621557
  -exchange      EXHF   =         0.00000000
  -V(xc)+E(xc)   XCENC  =      2569.60908142
  PAW double counting   =     82013.40714467   -85380.04731955
  entropy T*S    EENTRO =        -0.79180483
  eigenvalues    EBANDS =    -13624.31016348
  atomic energy  EATOM  =     98224.10364994
  Solvation  Ediel_sol  =         0.00000000
  ---------------------------------------------------
  free energy    TOTEN  =      -372.33917961 eV

  energy without entropy =     -371.54737479  energy(sigma->0) =     -371.94327720


--------------------------------------------------------------------------------------------------------




--------------------------------------- Iteration      1(   7)  ---------------------------------------


    POTLOK:  cpu time    0.0492: real time    0.0493
    SETDIJ:  cpu time    0.0046: real time    0.0046
     EDDAV:  cpu time    1.6110: real time    1.6148
       DOS:  cpu time    0.0021: real time    0.0021
    CHARGE:  cpu time    0.0771: real time    0.0773
    MIXING:  cpu time    0.0024: real time    0.0024
    --------------------------------------------
      LOOP:  cpu time    1.7464: real time    1.7506

 eigenvalue-minimisations  :   816
 total energy-change (2. order) : 0.1011392E+03  (-0.1449935E+02)
 number of electron     572.0000713 magnetization 
 augmentation part      242.6563404 magnetization 

 Broyden mixing:
  rms(total) = 0.63619E+01    rms(broyden)= 0.63610E+01
  rms(prec ) = 0.68676E+01
  weight for this iteration     100.00

 eigenvalues of (default mixing * dielectric matrix)
  average eigenvalue GAMMA=   0.4898
  0.4898  0.4898

 Free energy of the ion-electron system (eV)
  ---------------------------------------------------
  alpha Z        PSCENC =      1046.73971423
  Ewald energy   TEWEN  =     87804.97673355
  -Hartree energ DENC   =   -173922.29518060
  -exchange      EXHF   =         0.00000000
  -V(xc)+E(xc)   XCENC  =      2591.09464528
  PAW double counting   =     84951.64008204   -88424.51384137
  entropy T*S    EENTRO =        -0.72488150
  eigenvalues    EBANDS =    -12542.22088041
  atomic energy  EATOM  =     98224.10364994
  Solvation  Ediel_sol  =         0.00000000
  ---------------------------------------------------
  free energy    TOTEN  =      -271.19995885 eV

  energy without entropy =     -270.47507735  energy(sigma->0) =     -270.83751810


--------------------------------------------------------------------------------------------------------




--------------------------------------- Iteration      1(   8)  ---------------------------------------


    POTLOK:  cpu time    0.0493: real time    0.0494
    SETDIJ:  cpu time    0.0049: real time    0.0049
     EDDAV:  cpu time    1.8510: real time    1.8554
       DOS:  cpu time    0.0021: real time    0.0021
    CHARGE:  cpu time    0.0771: real time    0.0773
    MIXING:  cpu time    0.0029: real time    0.0029
    --------------------------------------------
      LOOP:  cpu time    1.9874: real time    1.9921

 eigenvalue-minimisations  :   960
 total energy-change (2. order) :-0.9063528E+01  (-0.1590243E+02)
 number of electron     572.0000419 magnetization 
 augmentation part      221.4768763 magnetization 

 Broyden mixing:
  rms(total) = 0.10433E+02    rms(broyden)= 0.10430E+02
  rms(prec ) = 0.12647E+02
  weight for this iteration     100.00

 eigenvalues of (default mixing * dielectric matrix)
  average eigenvalue GAMMA=   0.3647
  0.5035  0.5035  0.0872

 Free energy of the ion-electron system (eV)
  ---------------------------------------------------
  alpha Z        PSCENC =      1046.73971423
  Ewald energy   TEWEN  =     87804.97673355
  -Hartree energ DENC   =   -174523.17899415
  -exchange      EXHF   =         0.00000000
  -V(xc)+E(xc)   XCENC  =      2607.78436225
  PAW double counting   =     88606.00454208   -92156.91988491
  entropy T*S    EENTRO =        -0.89635615
  eigenvalues    EBANDS =    -11888.87725392
  atomic energy  EATOM  =     98224.10364994
  Solvation  Ediel_sol  =         0.00000000
  ---------------------------------------------------
  free energy    TOTEN  =      -280.26348709 eV

  energy without entropy =     -279.36713094  energy(sigma->0) =     -279.81530902


--------------------------------------------------------------------------------------------------------




--------------------------------------- Iteration      1(   9)  ---------------------------------------


    POTLOK:  cpu time    0.0504: real time    0.0529
    SETDIJ:  cpu time    0.0041: real time    0.0070
     EDDAV:  cpu time    1.8902: real time    1.8963
       DOS:  cpu time    0.0012: real time    0.0012
    CHARGE:  cpu time    0.0768: real time    0.0770
    MIXING:  cpu time    0.0022: real time    0.0022
    --------------------------------------------
      LOOP:  cpu time    2.0250: real time    2.0366

 eigenvalue-minimisations  :   928
 total energy-change (2. order) : 0.1533344E+02  (-0.7402798E+01)
 number of electron     572.0000612 magnetization 
 augmentation part      222.4145510 magnetization 

 Broyden mixing:
  rms(total) = 0.46857E+01    rms(broyden)= 0.46823E+01
  rms(prec ) = 0.53666E+01
  weight for this iteration     100.00

 eigenvalues of (default mixing * dielectric matrix)
  average eigenvalue GAMMA=   0.3837
  0.8142  0.3188  0.3188  0.0831

 Free energy of the ion-electron system (eV)
  ---------------------------------------------------
  alpha Z        PSCENC =      1046.73971423
  Ewald energy   TEWEN  =     87804.97673355
  -Hartree energ DENC   =   -174568.14472543
  -exchange      EXHF   =         0.00000000
  -V(xc)+E(xc)   XCENC  =      2607.98018279
  PAW double counting   =     89172.76700210   -92730.90781937
  entropy T*S    EENTRO =        -0.91767230
  eigenvalues    EBANDS =    -11821.52711101
  atomic energy  EATOM  =     98224.10364994
  Solvation  Ediel_sol  =         0.00000000
  ---------------------------------------------------
  free energy    TOTEN  =      -264.93004551 eV

  energy without entropy =     -264.01237321  energy(sigma->0) =     -264.47120936


--------------------------------------------------------------------------------------------------------




--------------------------------------- Iteration      1(  10)  ---------------------------------------


    POTLOK:  cpu time    0.0487: real time    0.0492
    SETDIJ:  cpu time    0.0036: real time    0.0050
     EDDAV:  cpu time    1.8049: real time    1.8102
       DOS:  cpu time    0.0026: real time    0.0026
    CHARGE:  cpu time    0.0764: real time    0.0766
    MIXING:  cpu time    0.0024: real time    0.0024
    --------------------------------------------
      LOOP:  cpu time    1.9385: real time    1.9460

 eigenvalue-minimisations  :   936
 total energy-change (2. order) : 0.1100448E+02  (-0.2673339E+01)
 number of electron     572.0000725 magnetization 
 augmentation part      220.9679885 magnetization 

 Broyden mixing:
  rms(total) = 0.53466E+01    rms(broyden)= 0.53424E+01
  rms(prec ) = 0.64764E+01
  weight for this iteration     100.00

 eigenvalues of (default mixing * dielectric matrix)
  average eigenvalue GAMMA=   0.4564
  1.3080  0.3835  0.3835  0.1035  0.1035

 Free energy of the ion-electron system (eV)
  ---------------------------------------------------
  alpha Z        PSCENC =      1046.73971423
  Ewald energy   TEWEN  =     87804.97673355
  -Hartree energ DENC   =   -174590.26489700
  -exchange      EXHF   =         0.00000000
  -V(xc)+E(xc)   XCENC  =      2609.46096289
  PAW double counting   =     90347.44679545   -93922.00700584
  entropy T*S    EENTRO =        -1.11722180
  eigenvalues    EBANDS =    -11773.26430100
  atomic energy  EATOM  =     98224.10364994
  Solvation  Ediel_sol  =         0.00000000
  ---------------------------------------------------
  free energy    TOTEN  =      -253.92556957 eV

  energy without entropy =     -252.80834777  energy(sigma->0) =     -253.36695867


--------------------------------------------------------------------------------------------------------




--------------------------------------- Iteration      1(  11)  ---------------------------------------


    POTLOK:  cpu time    0.0488: real time    0.0490
    SETDIJ:  cpu time    0.0050: real time    0.0051
     EDDAV:  cpu time    1.8179: real time    1.8223
       DOS:  cpu time    0.0009: real time    0.0009
    CHARGE:  cpu time    0.0764: real time    0.0766
    MIXING:  cpu time    0.0024: real time    0.0024
    --------------------------------------------
      LOOP:  cpu time    1.9515: real time    1.9562

 eigenvalue-minimisations  :   952
 total energy-change (2. order) :-0.1199725E+02  (-0.4797028E+01)
 number of electron     572.0000624 magnetization 
 augmentation part      221.8246632 magnetization 

 Broyden mixing:
  rms(total) = 0.75040E+01    rms(broyden)= 0.75020E+01
  rms(prec ) = 0.88526E+01
  weight for this iteration     100.00

 eigenvalues of (default mixing * dielectric matrix)
  average eigenvalue GAMMA=   0.4853
  1.7871  0.4073  0.4073  0.1142  0.1142  0.0815

 Free energy of the ion-electron system (eV)
  ---------------------------------------------------
  alpha Z        PSCENC =      1046.73971423
  Ewald energy   TEWEN  =     87804.97673355
  -Hartree energ DENC   =   -174552.92595832
  -exchange      EXHF   =         0.00000000
  -V(xc)+E(xc)   XCENC  =      2607.42768658
  PAW double counting   =     91680.08659447   -95261.30798568
  entropy T*S    EENTRO =        -0.80238661
  eigenvalues    EBANDS =    -11814.22087213
  atomic energy  EATOM  =     98224.10364994
  Solvation  Ediel_sol  =         0.00000000
  ---------------------------------------------------
  free energy    TOTEN  =      -265.92282398 eV

  energy without entropy =     -265.12043737  energy(sigma->0) =     -265.52163068


--------------------------------------------------------------------------------------------------------




--------------------------------------- Iteration      1(  12)  ---------------------------------------


    POTLOK:  cpu time    0.0478: real time    0.0479
    SETDIJ:  cpu time    0.0045: real time    0.0045
     EDDAV:  cpu time    1.8276: real time    1.8321
       DOS:  cpu time    0.0008: real time    0.0008
    CHARGE:  cpu time    0.0614: real time    0.0615
    MIXING:  cpu time    0.0024: real time    0.0024
    --------------------------------------------
      LOOP:  cpu time    1.9445: real time    1.9492

 eigenvalue-minimisations  :   968
 total energy-change (2. order) : 0.7508829E+01  (-0.1708564E+01)
 number of electron     572.0000623 magnetization 
 augmentation part      225.3695095 magnetization 

 Broyden mixing:
  rms(total) = 0.34418E+01    rms(broyden)= 0.34407E+01
  rms(prec ) = 0.40111E+01
  weight for this iteration     100.00

 eigenvalues of (default mixing * dielectric matrix)
  average eigenvalue GAMMA=   0.4743
  1.8991  0.4035  0.4035  0.3322  0.0990  0.0990  0.0837

 Free energy of the ion-electron system (eV)
  ---------------------------------------------------
  alpha Z        PSCENC =      1046.73971423
  Ewald energy   TEWEN  =     87804.97673355
  -Hartree energ DENC   =   -174501.69038599
  -exchange      EXHF   =         0.00000000
  -V(xc)+E(xc)   XCENC  =      2605.27894944
  PAW double counting   =     92904.86070544   -96492.67402912
  entropy T*S    EENTRO =        -0.82207607
  eigenvalues    EBANDS =    -11849.18725599
  atomic energy  EATOM  =     98224.10364994
  Solvation  Ediel_sol  =         0.00000000
  ---------------------------------------------------
  free energy    TOTEN  =      -258.41399458 eV

  energy without entropy =     -257.59191851  energy(sigma->0) =     -258.00295654


--------------------------------------------------------------------------------------------------------




--------------------------------------- Iteration      1(  13)  ---------------------------------------


    POTLOK:  cpu time    0.0484: real time    0.0485
    SETDIJ:  cpu time    0.0045: real time    0.0046
     EDDAV:  cpu time    1.7589: real time    1.7633
       DOS:  cpu time    0.0007: real time    0.0007
    CHARGE:  cpu time    0.0611: real time    0.0613
    MIXING:  cpu time    0.0026: real time    0.0026
    --------------------------------------------
      LOOP:  cpu time    1.8763: real time    1.8810

 eigenvalue-minimisations  :   928
 total energy-change (2. order) : 0.2615200E+01  (-0.1192361E+01)
 number of electron     572.0000613 magnetization 
 augmentation part      226.9902818 magnetization 

 Broyden mixing:
  rms(total) = 0.32563E+01    rms(broyden)= 0.32544E+01
  rms(prec ) = 0.38364E+01
  weight for this iteration     100.00

 eigenvalues of (default mixing * dielectric matrix)
  average eigenvalue GAMMA=   0.4715
  1.9148  0.5849  0.4140  0.4140  0.1356  0.1119  0.1119  0.0849

 Free energy of the ion-electron system (eV)
  ---------------------------------------------------
  alpha Z        PSCENC =      1046.73971423
  Ewald energy   TEWEN  =     87804.97673355
  -Hartree energ DENC   =   -174482.59795171
  -exchange      EXHF   =         0.00000000
  -V(xc)+E(xc)   XCENC  =      2604.88744538
  PAW double counting   =     93290.08762068   -96881.41939749
  entropy T*S    EENTRO =        -0.97940901
  eigenvalues    EBANDS =    -11861.59720003
  atomic energy  EATOM  =     98224.10364994
  Solvation  Ediel_sol  =         0.00000000
  ---------------------------------------------------
  free energy    TOTEN  =      -255.79879447 eV

  energy without entropy =     -254.81938546  energy(sigma->0) =     -255.30908996


--------------------------------------------------------------------------------------------------------




--------------------------------------- Iteration      1(  14)  ---------------------------------------


    POTLOK:  cpu time    0.0485: real time    0.0486
    SETDIJ:  cpu time    0.0046: real time    0.0046
     EDDAV:  cpu time    1.7784: real time    1.7840
       DOS:  cpu time    0.0005: real time    0.0005
    CHARGE:  cpu time    0.0616: real time    0.0617
    MIXING:  cpu time    0.0029: real time    0.0029
    --------------------------------------------
      LOOP:  cpu time    1.8964: real time    1.9023

 eigenvalue-minimisations  :   936
 total energy-change (2. order) : 0.2758555E+01  (-0.7138665E+00)
 number of electron     572.0000595 magnetization 
 augmentation part      226.3240210 magnetization 

 Broyden mixing:
  rms(total) = 0.26922E+01    rms(broyden)= 0.26902E+01
  rms(prec ) = 0.32993E+01
  weight for this iteration     100.00

 eigenvalues of (default mixing * dielectric matrix)
  average eigenvalue GAMMA=   0.4560
  1.9173  0.6436  0.4219  0.4219  0.2727  0.1368  0.1027  0.1027  0.0843

 Free energy of the ion-electron system (eV)
  ---------------------------------------------------
  alpha Z        PSCENC =      1046.73971423
  Ewald energy   TEWEN  =     87804.97673355
  -Hartree energ DENC   =   -174507.44950654
  -exchange      EXHF   =         0.00000000
  -V(xc)+E(xc)   XCENC  =      2605.82111025
  PAW double counting   =     93406.39100040   -97001.93602416
  entropy T*S    EENTRO =        -0.79833193
  eigenvalues    EBANDS =    -11830.88858548
  atomic energy  EATOM  =     98224.10364994
  Solvation  Ediel_sol  =         0.00000000
  ---------------------------------------------------
  free energy    TOTEN  =      -253.04023974 eV

  energy without entropy =     -252.24190781  energy(sigma->0) =     -252.64107378


--------------------------------------------------------------------------------------------------------




--------------------------------------- Iteration      1(  15)  ---------------------------------------


    POTLOK:  cpu time    0.0482: real time    0.0501
    SETDIJ:  cpu time    0.0058: real time    0.0059
     EDDAV:  cpu time    1.6866: real time    1.6907
       DOS:  cpu time    0.0013: real time    0.0013
    CHARGE:  cpu time    0.0611: real time    0.0613
    MIXING:  cpu time    0.0030: real time    0.0030
    --------------------------------------------
      LOOP:  cpu time    1.8060: real time    1.8123

 eigenvalue-minimisations  :   880
 total energy-change (2. order) : 0.2541870E+01  (-0.4241441E+00)
 number of electron     572.0000610 magnetization 
 augmentation part      226.3143409 magnetization 

 Broyden mixing:
  rms(total) = 0.20650E+01    rms(broyden)= 0.20636E+01
  rms(prec ) = 0.25616E+01
  weight for this iteration     100.00

 eigenvalues of (default mixing * dielectric matrix)
  average eigenvalue GAMMA=   0.4323
  1.9096  0.4985  0.4985  0.4162  0.4162  0.1807  0.1044  0.1044  0.0850  0.1094

 Free energy of the ion-electron system (eV)
  ---------------------------------------------------
  alpha Z        PSCENC =      1046.73971423
  Ewald energy   TEWEN  =     87804.97673355
  -Hartree energ DENC   =   -174526.68041248
  -exchange      EXHF   =         0.00000000
  -V(xc)+E(xc)   XCENC  =      2606.28838559
  PAW double counting   =     93402.71772959   -96999.22137744
  entropy T*S    EENTRO =        -0.91139342
  eigenvalues    EBANDS =    -11808.51139921
  atomic energy  EATOM  =     98224.10364994
  Solvation  Ediel_sol  =         0.00000000
  ---------------------------------------------------
  free energy    TOTEN  =      -250.49836965 eV

  energy without entropy =     -249.58697623  energy(sigma->0) =     -250.04267294


--------------------------------------------------------------------------------------------------------




--------------------------------------- Iteration      1(  16)  ---------------------------------------


    POTLOK:  cpu time    0.0486: real time    0.0492
    SETDIJ:  cpu time    0.0045: real time    0.0045
     EDDAV:  cpu time    1.7793: real time    1.7836
       DOS:  cpu time    0.0012: real time    0.0012
    CHARGE:  cpu time    0.0617: real time    0.0619
    MIXING:  cpu time    0.0030: real time    0.0030
    --------------------------------------------
      LOOP:  cpu time    1.8983: real time    1.9034

 eigenvalue-minimisations  :   944
 total energy-change (2. order) : 0.3793102E+00  (-0.3076795E+00)
 number of electron     572.0000607 magnetization 
 augmentation part      225.0915203 magnetization 

 Broyden mixing:
  rms(total) = 0.33947E+01    rms(broyden)= 0.33937E+01
  rms(prec ) = 0.40614E+01
  weight for this iteration     100.00

 eigenvalues of (default mixing * dielectric matrix)
  average eigenvalue GAMMA=   0.4209
  1.9256  0.6041  0.6041  0.4047  0.4047  0.2220  0.1058  0.1058  0.1147  0.0854
  0.0531

 Free energy of the ion-electron system (eV)
  ---------------------------------------------------
  alpha Z        PSCENC =      1046.73971423
  Ewald energy   TEWEN  =     87804.97673355
  -Hartree energ DENC   =   -174539.73187341
  -exchange      EXHF   =         0.00000000
  -V(xc)+E(xc)   XCENC  =      2606.51482489
  PAW double counting   =     93350.28507763   -96946.35158541
  entropy T*S    EENTRO =        -1.00930894
  eigenvalues    EBANDS =    -11795.64629191
  atomic energy  EATOM  =     98224.10364994
  Solvation  Ediel_sol  =         0.00000000
  ---------------------------------------------------
  free energy    TOTEN  =      -250.11905944 eV

  energy without entropy =     -249.10975050  energy(sigma->0) =     -249.61440497


--------------------------------------------------------------------------------------------------------




--------------------------------------- Iteration      1(  17)  ---------------------------------------


    POTLOK:  cpu time    0.0482: real time    0.0484
    SETDIJ:  cpu time    0.0044: real time    0.0044
     EDDAV:  cpu time    1.7478: real time    1.7530
       DOS:  cpu time    0.0013: real time    0.0013
    CHARGE:  cpu time    0.0604: real time    0.0606
    MIXING:  cpu time    0.0029: real time    0.0029
    --------------------------------------------
      LOOP:  cpu time    1.8650: real time    1.8704

 eigenvalue-minimisations  :   928
 total energy-change (2. order) : 0.6197739E+00  (-0.8506707E+00)
 number of electron     572.0000619 magnetization 
 augmentation part      225.8059996 magnetization 

 Broyden mixing:
  rms(total) = 0.18827E+01    rms(broyden)= 0.18814E+01
  rms(prec ) = 0.22410E+01
  weight for this iteration     100.00

 eigenvalues of (default mixing * dielectric matrix)
  average eigenvalue GAMMA=   0.4269
  1.9550  0.7661  0.7661  0.4065  0.4065  0.2337  0.1055  0.1055  0.0850  0.1238
  0.1238  0.0450

 Free energy of the ion-electron system (eV)
  ---------------------------------------------------
  alpha Z        PSCENC =      1046.73971423
  Ewald energy   TEWEN  =     87804.97673355
  -Hartree energ DENC   =   -174543.03284590
  -exchange      EXHF   =         0.00000000
  -V(xc)+E(xc)   XCENC  =      2606.49949102
  PAW double counting   =     93314.85063088   -96910.09422204
  entropy T*S    EENTRO =        -0.83734525
  eigenvalues    EBANDS =    -11792.70509191
  atomic energy  EATOM  =     98224.10364994
  Solvation  Ediel_sol  =         0.00000000
  ---------------------------------------------------
  free energy    TOTEN  =      -249.49928550 eV

  energy without entropy =     -248.66194024  energy(sigma->0) =     -249.08061287


--------------------------------------------------------------------------------------------------------




--------------------------------------- Iteration      1(  18)  ---------------------------------------


    POTLOK:  cpu time    0.0492: real time    0.0493
    SETDIJ:  cpu time    0.0046: real time    0.0046
     EDDAV:  cpu time    1.7599: real time    1.7643
       DOS:  cpu time    0.0011: real time    0.0011
    CHARGE:  cpu time    0.0605: real time    0.0607
    MIXING:  cpu time    0.0030: real time    0.0030
    --------------------------------------------
      LOOP:  cpu time    1.8782: real time    1.8829

 eigenvalue-minimisations  :   936
 total energy-change (2. order) : 0.1034990E+01  (-0.1852480E+00)
 number of electron     572.0000625 magnetization 
 augmentation part      225.9813800 magnetization 

 Broyden mixing:
  rms(total) = 0.11684E+01    rms(broyden)= 0.11670E+01
  rms(prec ) = 0.14225E+01
  weight for this iteration     100.00

 eigenvalues of (default mixing * dielectric matrix)
  average eigenvalue GAMMA=   0.4320
  1.9746  0.8554  0.8554  0.4045  0.4045  0.2928  0.2437  0.1049  0.1049  0.1341
  0.0849  0.1108  0.0456

 Free energy of the ion-electron system (eV)
  ---------------------------------------------------
  alpha Z        PSCENC =      1046.73971423
  Ewald energy   TEWEN  =     87804.97673355
  -Hartree energ DENC   =   -174551.42936331
  -exchange      EXHF   =         0.00000000
  -V(xc)+E(xc)   XCENC  =      2606.59687986
  PAW double counting   =     93276.41230836   -96870.86558766
  entropy T*S    EENTRO =        -0.87545874
  eigenvalues    EBANDS =    -11784.12317175
  atomic energy  EATOM  =     98224.10364994
  Solvation  Ediel_sol  =         0.00000000
  ---------------------------------------------------
  free energy    TOTEN  =      -248.46429552 eV

  energy without entropy =     -247.58883678  energy(sigma->0) =     -248.02656615


--------------------------------------------------------------------------------------------------------




--------------------------------------- Iteration      1(  19)  ---------------------------------------


    POTLOK:  cpu time    0.0490: real time    0.0491
    SETDIJ:  cpu time    0.0045: real time    0.0045
     EDDAV:  cpu time    1.7825: real time    1.7869
       DOS:  cpu time    0.0014: real time    0.0014
    CHARGE:  cpu time    0.0604: real time    0.0605
    MIXING:  cpu time    0.0033: real time    0.0033
    --------------------------------------------
      LOOP:  cpu time    1.9011: real time    1.9058

 eigenvalue-minimisations  :   952
 total energy-change (2. order) : 0.6032611E-01  (-0.9397141E-01)
 number of electron     572.0000645 magnetization 
 augmentation part      225.9848637 magnetization 

 Broyden mixing:
  rms(total) = 0.11475E+01    rms(broyden)= 0.11469E+01
  rms(prec ) = 0.13597E+01
  weight for this iteration     100.00

 eigenvalues of (default mixing * dielectric matrix)
  average eigenvalue GAMMA=   0.4608
  2.0464  1.0494  1.0494  0.5210  0.4122  0.4122  0.2358  0.1586  0.1051  0.1051
  0.0849  0.1155  0.1097  0.0455

 Free energy of the ion-electron system (eV)
  ---------------------------------------------------
  alpha Z        PSCENC =      1046.73971423
  Ewald energy   TEWEN  =     87804.97673355
  -Hartree energ DENC   =   -174554.19313228
  -exchange      EXHF   =         0.00000000
  -V(xc)+E(xc)   XCENC  =      2606.58381298
  PAW double counting   =     93258.73705497   -96852.11670562
  entropy T*S    EENTRO =        -0.85476008
  eigenvalues    EBANDS =    -11782.38033710
  atomic energy  EATOM  =     98224.10364994
  Solvation  Ediel_sol  =         0.00000000
  ---------------------------------------------------
  free energy    TOTEN  =      -248.40396941 eV

  energy without entropy =     -247.54920933  energy(sigma->0) =     -247.97658937


--------------------------------------------------------------------------------------------------------




--------------------------------------- Iteration      1(  20)  ---------------------------------------


    POTLOK:  cpu time    0.0494: real time    0.0495
    SETDIJ:  cpu time    0.0046: real time    0.0046
     EDDAV:  cpu time    1.8488: real time    1.8532
       DOS:  cpu time    0.0010: real time    0.0010
    CHARGE:  cpu time    0.0604: real time    0.0605
    MIXING:  cpu time    0.0033: real time    0.0033
    --------------------------------------------
      LOOP:  cpu time    1.9674: real time    1.9722

 eigenvalue-minimisations  :   992
 total energy-change (2. order) : 0.3137517E+00  (-0.5108836E-01)
 number of electron     572.0000644 magnetization 
 augmentation part      226.0340593 magnetization 

 Broyden mixing:
  rms(total) = 0.83221E+00    rms(broyden)= 0.83160E+00
  rms(prec ) = 0.99238E+00
  weight for this iteration     100.00

 eigenvalues of (default mixing * dielectric matrix)
  average eigenvalue GAMMA=   0.4557
  2.0483  1.1155  1.1155  0.4911  0.4158  0.4158  0.2812  0.2429  0.1051  0.1051
  0.1402  0.0849  0.1192  0.1090  0.0455

 Free energy of the ion-electron system (eV)
  ---------------------------------------------------
  alpha Z        PSCENC =      1046.73971423
  Ewald energy   TEWEN  =     87804.97673355
  -Hartree energ DENC   =   -174559.90921022
  -exchange      EXHF   =         0.00000000
  -V(xc)+E(xc)   XCENC  =      2606.70621341
  PAW double counting   =     93289.02458756   -96881.59349350
  entropy T*S    EENTRO =        -0.90647348
  eigenvalues    EBANDS =    -11777.23193919
  atomic energy  EATOM  =     98224.10364994
  Solvation  Ediel_sol  =         0.00000000
  ---------------------------------------------------
  free energy    TOTEN  =      -248.09021770 eV

  energy without entropy =     -247.18374422  energy(sigma->0) =     -247.63698096


--------------------------------------------------------------------------------------------------------




--------------------------------------- Iteration      1(  21)  ---------------------------------------


    POTLOK:  cpu time    0.0493: real time    0.0494
    SETDIJ:  cpu time    0.0045: real time    0.0045
     EDDAV:  cpu time    1.7318: real time    1.7360
       DOS:  cpu time    0.0006: real time    0.0006
    CHARGE:  cpu time    0.0588: real time    0.0589
    MIXING:  cpu time    0.0033: real time    0.0034
    --------------------------------------------
      LOOP:  cpu time    1.8484: real time    1.8528

 eigenvalue-minimisations  :   920
 total energy-change (2. order) : 0.7763410E-01  (-0.2741914E-01)
 number of electron     572.0000641 magnetization 
 augmentation part      225.8412659 magnetization 

 Broyden mixing:
  rms(total) = 0.76662E+00    rms(broyden)= 0.76626E+00
  rms(prec ) = 0.91199E+00
  weight for this iteration     100.00

 eigenvalues of (default mixing * dielectric matrix)
  average eigenvalue GAMMA=   0.4892
  2.0169  1.2989  1.2989  0.6512  0.6512  0.4100  0.4100  0.2422  0.1563  0.1051
  0.1051  0.0849  0.1292  0.1170  0.1055  0.0455

 Free energy of the ion-electron system (eV)
  ---------------------------------------------------
  alpha Z        PSCENC =      1046.73971423
  Ewald energy   TEWEN  =     87804.97673355
  -Hartree energ DENC   =   -174568.59037990
  -exchange      EXHF   =         0.00000000
  -V(xc)+E(xc)   XCENC  =      2606.78716497
  PAW double counting   =     93256.11688063   -96848.02245300
  entropy T*S    EENTRO =        -0.88978200
  eigenvalues    EBANDS =    -11769.23411201
  atomic energy  EATOM  =     98224.10364994
  Solvation  Ediel_sol  =         0.00000000
  ---------------------------------------------------
  free energy    TOTEN  =      -248.01258360 eV

  energy without entropy =     -247.12280160  energy(sigma->0) =     -247.56769260


--------------------------------------------------------------------------------------------------------




--------------------------------------- Iteration      1(  22)  ---------------------------------------


    POTLOK:  cpu time    0.0492: real time    0.0493
    SETDIJ:  cpu time    0.0045: real time    0.0045
     EDDAV:  cpu time    1.7661: real time    1.7703
       DOS:  cpu time    0.0006: real time    0.0006
    CHARGE:  cpu time    0.0583: real time    0.0584
    MIXING:  cpu time    0.0038: real time    0.0038
    --------------------------------------------
      LOOP:  cpu time    1.8823: real time    1.8868

 eigenvalue-minimisations  :   936
 total energy-change (2. order) : 0.1377388E+00  (-0.3684884E-01)
 number of electron     572.0000645 magnetization 
 augmentation part      225.4285503 magnetization 

 Broyden mixing:
  rms(total) = 0.58884E+00    rms(broyden)= 0.58835E+00
  rms(prec ) = 0.69572E+00
  weight for this iteration     100.00

 eigenvalues of (default mixing * dielectric matrix)
  average eigenvalue GAMMA=   0.4958
  2.0112  1.3635  1.3635  0.7600  0.7600  0.4047  0.4047  0.2987  0.2256  0.1499
  0.1050  0.1050  0.0849  0.1249  0.1136  0.1072  0.0455

 Free energy of the ion-electron system (eV)
  ---------------------------------------------------
  alpha Z        PSCENC =      1046.73971423
  Ewald energy   TEWEN  =     87804.97673355
  -Hartree energ DENC   =   -174587.49334664
  -exchange      EXHF   =         0.00000000
  -V(xc)+E(xc)   XCENC  =      2606.98033726
  PAW double counting   =     93157.98716159   -96748.33587367
  entropy T*S    EENTRO =        -0.90269420
  eigenvalues    EBANDS =    -11751.93052681
  atomic energy  EATOM  =     98224.10364994
  Solvation  Ediel_sol  =         0.00000000
  ---------------------------------------------------
  free energy    TOTEN  =      -247.87484477 eV

  energy without entropy =     -246.97215056  energy(sigma->0) =     -247.42349766


--------------------------------------------------------------------------------------------------------




--------------------------------------- Iteration      1(  23)  ---------------------------------------


    POTLOK:  cpu time    0.0489: real time    0.0491
    SETDIJ:  cpu time    0.0045: real time    0.0045
     EDDAV:  cpu time    1.7389: real time    1.7442
       DOS:  cpu time    0.0005: real time    0.0005
    CHARGE:  cpu time    0.0591: real time    0.0592
    MIXING:  cpu time    0.0038: real time    0.0038
    --------------------------------------------
      LOOP:  cpu time    1.8558: real time    1.8613

 eigenvalue-minimisations  :   912
 total energy-change (2. order) : 0.4766044E-01  (-0.1544704E-01)
 number of electron     572.0000650 magnetization 
 augmentation part      225.4957131 magnetization 

 Broyden mixing:
  rms(total) = 0.50882E+00    rms(broyden)= 0.50854E+00
  rms(prec ) = 0.61297E+00
  weight for this iteration     100.00

 eigenvalues of (default mixing * dielectric matrix)
  average eigenvalue GAMMA=   0.4945
  2.0117  1.3778  1.3778  0.8379  0.8379  0.4077  0.4077  0.3866  0.2451  0.1768
  0.1498  0.1051  0.1051  0.0849  0.1219  0.1159  0.1060  0.0455

 Free energy of the ion-electron system (eV)
  ---------------------------------------------------
  alpha Z        PSCENC =      1046.73971423
  Ewald energy   TEWEN  =     87804.97673355
  -Hartree energ DENC   =   -174590.59406730
  -exchange      EXHF   =         0.00000000
  -V(xc)+E(xc)   XCENC  =      2606.99665005
  PAW double counting   =     93076.11057554   -96665.07969907
  entropy T*S    EENTRO =        -0.92823159
  eigenvalues    EBANDS =    -11750.15250967
  atomic energy  EATOM  =     98224.10364994
  Solvation  Ediel_sol  =         0.00000000
  ---------------------------------------------------
  free energy    TOTEN  =      -247.82718433 eV

  energy without entropy =     -246.89895274  energy(sigma->0) =     -247.36306853


--------------------------------------------------------------------------------------------------------




--------------------------------------- Iteration      1(  24)  ---------------------------------------


    POTLOK:  cpu time    0.0498: real time    0.0520
    SETDIJ:  cpu time    0.0046: real time    0.0046
     EDDAV:  cpu time    1.6464: real time    1.6515
       DOS:  cpu time    0.0005: real time    0.0005
    CHARGE:  cpu time    0.0588: real time    0.0589
    MIXING:  cpu time    0.0040: real time    0.0040
    --------------------------------------------
      LOOP:  cpu time    1.7641: real time    1.7715

 eigenvalue-minimisations  :   856
 total energy-change (2. order) : 0.3325371E-01  (-0.9076573E-02)
 number of electron     572.0000648 magnetization 
 augmentation part      225.5412831 magnetization 

 Broyden mixing:
  rms(total) = 0.45717E+00    rms(broyden)= 0.45704E+00
[...]
    344       5.5566      0.00000


--------------------------------------------------------------------------------------------------------


 soft charge-density along one line, spin component           1
         0         1         2         3         4         5         6         7         8         9
 total charge-density along one line
 
 pseudopotential strength for first ion, spin component:           1
-65.971   0.013  -0.025  12.329  -0.006   0.011  -0.006  -0.043
  0.013 -66.059  -0.025  -0.006  12.364   0.010   0.006  -0.012
 -0.025  -0.025 -66.018   0.011   0.010  12.349  -0.008   0.006
 12.329  -0.006   0.011   4.848   0.001  -0.003   0.002   0.012
 -0.006  12.364   0.010   0.001   4.836  -0.003  -0.002   0.005
  0.011   0.010  12.349  -0.003  -0.003   4.843   0.003  -0.002
 -0.006   0.006  -0.008   0.002  -0.002   0.003 -11.166  -0.026
 -0.043  -0.012   0.006   0.012   0.005  -0.002  -0.026 -11.166
  0.006  -0.045   0.001  -0.002   0.012  -0.000  -0.023   0.022
  0.006   0.000  -0.038  -0.002  -0.001   0.010  -0.008  -0.064
  0.015   0.002   0.004  -0.005  -0.001  -0.002  -0.023  -0.017
 -0.006   0.006  -0.008   0.002  -0.002   0.003 -11.708  -0.026
 -0.042  -0.012   0.006   0.012   0.004  -0.002  -0.026 -11.707
  0.006  -0.044   0.001  -0.002   0.012  -0.000  -0.023   0.022
  0.006   0.000  -0.038  -0.002  -0.001   0.010  -0.008  -0.063
  0.015   0.002   0.004  -0.005  -0.001  -0.002  -0.023  -0.017
  0.003   0.012   0.001  -0.002  -0.001   0.001   0.006  -0.003
  0.006   0.027   0.002  -0.004  -0.001   0.002   0.013  -0.007
 total augmentation occupancy for first ion, spin component:           1
  1.995   0.000  -0.000  -0.020   0.000  -0.000   0.006   0.004  -0.002   0.001  -0.006  -0.005  -0.003   0.002  -0.000   0.006
  0.000   1.994  -0.000   0.000  -0.021  -0.000   0.001   0.009   0.003  -0.006   0.001  -0.000  -0.009  -0.002   0.006  -0.001
 -0.000  -0.000   1.995  -0.000  -0.000  -0.021   0.006   0.001  -0.001   0.007  -0.010  -0.005  -0.000   0.001  -0.005   0.010
 -0.020   0.000  -0.000   0.128  -0.005   0.003   0.241   0.083   0.031  -0.034  -0.030  -0.218  -0.077  -0.033   0.013   0.022
  0.000  -0.021  -0.000  -0.005   0.120   0.001   0.014   0.136   0.011  -0.113   0.019  -0.024  -0.126  -0.017   0.104  -0.022
 -0.000  -0.000  -0.021   0.003   0.001   0.132  -0.006  -0.013  -0.056   0.095  -0.208  -0.003  -0.002   0.056  -0.100   0.188
  0.006   0.001   0.006   0.241   0.014  -0.006   3.624  -0.108  -0.380  -0.263  -0.325  -1.904  -0.031  -0.036   0.092   0.052
  0.004   0.009   0.001   0.083   0.136  -0.013  -0.108   3.672   0.159  -0.375   0.059  -0.035  -1.697   0.030  -0.151  -0.148
 -0.002   0.003  -0.001   0.031   0.011  -0.056  -0.380   0.159   3.866   0.159  -0.238  -0.040   0.033  -1.844   0.143   0.018
  0.001  -0.006   0.007  -0.034  -0.113   0.095  -0.263  -0.375   0.159   3.330  -0.026   0.090  -0.152   0.143  -1.924  -0.048
 -0.006   0.001  -0.010  -0.030   0.019  -0.208  -0.325   0.059  -0.238  -0.026   3.964   0.052  -0.150   0.023  -0.054  -1.917
 -0.005  -0.000  -0.005  -0.218  -0.024  -0.003  -1.904  -0.035  -0.040   0.090   0.052   1.907   0.122   0.308   0.023   0.128
 -0.003  -0.009  -0.000  -0.077  -0.126  -0.002  -0.031  -1.697   0.033  -0.152  -0.150   0.122   1.524  -0.152   0.475   0.200
  0.002  -0.002   0.001  -0.033  -0.017   0.056  -0.036   0.030  -1.844   0.143   0.023   0.308  -0.152   1.628  -0.334   0.127
 -0.000   0.006  -0.005   0.013   0.104  -0.100   0.092  -0.151   0.143  -1.924  -0.054   0.023   0.475  -0.334   2.102   0.091
  0.006  -0.001   0.010   0.022  -0.022   0.188   0.052  -0.148   0.018  -0.048  -1.917   0.128   0.200   0.127   0.091   1.699
 -0.004  -0.034  -0.004  -0.019  -0.055   0.002  -0.088   0.192   0.086  -0.057  -0.107   0.036  -0.133  -0.112   0.026   0.053
  0.001   0.016   0.002   0.001   0.001  -0.001   0.008  -0.020   0.014   0.015   0.014   0.002   0.010   0.001  -0.004  -0.002


------------------------ aborting loop because EDIFF is reached ----------------------------------------


    CHARGE:  cpu time    0.0619: real time    0.0621
    FORLOC:  cpu time    0.0099: real time    0.0099
    FORNL :  cpu time    0.2653: real time    0.2660
    STRESS:  cpu time    0.8043: real time    0.8065
    FORCOR:  cpu time    0.0567: real time    0.0569
    FORHAR:  cpu time    0.0204: real time    0.0205
    MIXING:  cpu time    0.0054: real time    0.0054
    OFIELD:  cpu time    0.0002: real time    0.0002

  FORCE on cell =-STRESS in cart. coord.  units (eV):
  Direction    XX          YY          ZZ          XY          YZ          ZX
  --------------------------------------------------------------------------------------
  Alpha Z  1046.73971  1046.73971  1046.73971
  Ewald  123380.12209122624.28781************     0.00000     0.00000   162.76607
  Hartree149216.29730148559.20664************    -0.00115     0.00049    11.85972
  E(xc)   -3623.64864 -3623.31186 -3627.10144     0.00006    -0.00002     0.93661
  Local  ************************272298.50624     0.00405    -0.00186  -161.79550
  n-local  -499.91092  -509.02950  -508.84034     0.00148     0.01222     7.11058
  augment  4175.17758  4188.67086  4181.58514    -0.01838     0.00048    -9.26729
  Kinetic  7902.07194  7891.87987  7913.69080    -0.00054     0.00113   -21.83875
  Fock        0.00000     0.00000     0.00000     0.00000     0.00000     0.00000
  -------------------------------------------------------------------------------------
  Total     -35.65550   -33.15874   -43.09417     0.00000     0.00000   -10.22857
  in kB     -30.81789   -28.65988   -37.24731     0.00000     0.00000    -8.84079
  external pressure =      -32.24 kB  Pullay stress =        0.00 kB


 VOLUME and BASIS-vectors are now :
 -----------------------------------------------------------------------------
  energy-cutoff  :      450.00
  volume of cell :     1853.68
      direct lattice vectors                 reciprocal lattice vectors
    11.256463038  0.000000000  0.000000000     0.088837852  0.000000000  0.000000000
     0.000000000  9.578410000  0.000000000     0.000000000  0.104401461  0.000000000
     0.000000000  0.000000000 17.192492405     0.000000000  0.000000000  0.058164923

  length of vectors
    11.256463038  9.578410000 17.192492405     0.088837852  0.104401461  0.058164923


 FORCES acting on ions
    electron-ion (+dipol)            ewald-force                    non-local-force                 convergence-correction
 -----------------------------------------------------------------------------------------------
   0.264E+03 -.351E+03 0.126E+04   -.265E+03 0.351E+03 -.127E+04   0.899E+00 -.415E+00 0.463E+01   0.605E-01 -.396E-02 0.879E-01
   0.217E+03 -.459E+03 -.287E+04   -.213E+03 0.460E+03 0.287E+04   -.320E+01 -.113E+01 -.476E+00   -.726E-02 0.529E-01 0.940E-01
   0.312E+03 -.494E+03 0.299E+04   -.313E+03 0.495E+03 -.298E+04   0.582E+00 -.128E+01 -.201E+01   -.265E-01 0.158E-02 -.470E-01
   0.285E+03 -.399E+03 -.114E+04   -.286E+03 0.399E+03 0.114E+04   0.647E+00 -.758E+00 -.984E+00   0.348E-01 -.265E-01 0.173E+00
   0.264E+03 0.351E+03 0.126E+04   -.265E+03 -.351E+03 -.127E+04   0.899E+00 0.415E+00 0.463E+01   0.605E-01 0.396E-02 0.879E-01
   0.217E+03 0.459E+03 -.287E+04   -.213E+03 -.460E+03 0.287E+04   -.320E+01 0.113E+01 -.476E+00   -.726E-02 -.529E-01 0.940E-01
   0.312E+03 0.494E+03 0.299E+04   -.313E+03 -.495E+03 -.298E+04   0.582E+00 0.128E+01 -.201E+01   -.265E-01 -.159E-02 -.470E-01
   0.285E+03 0.399E+03 -.114E+04   -.286E+03 -.399E+03 0.114E+04   0.647E+00 0.758E+00 -.984E+00   0.348E-01 0.265E-01 0.173E+00
   -.423E+03 0.448E-02 0.193E+04   0.427E+03 0.343E-13 -.193E+04   -.340E+01 0.977E-21 0.445E+01   0.545E-01 0.450E-06 0.414E-01
   -.472E+03 0.538E-02 -.222E+04   0.473E+03 0.129E-12 0.223E+04   -.129E+01 -.135E-18 -.452E+01   0.589E-01 -.240E-06 0.527E-01
   -.271E+03 0.412E-02 0.335E+04   0.274E+03 0.198E-13 -.335E+04   -.226E+01 0.366E-18 -.180E+01   0.838E-01 -.673E-05 -.772E-01
   -.527E+03 0.485E-02 -.458E+03   0.528E+03 0.333E-13 0.458E+03   -.120E+01 0.122E-19 0.316E+00   0.621E-01 -.496E-05 0.233E+00
   -.272E+03 0.573E-02 -.348E+04   0.260E+03 -.790E-13 0.346E+04   0.105E+02 -.213E-18 0.133E+02   0.394E-01 -.860E-05 0.136E+00
   0.308E+03 -.403E+03 0.120E+04   -.309E+03 0.403E+03 -.121E+04   0.776E+00 -.364E+00 0.438E+01   -.592E-01 0.691E-01 0.522E-01
   0.485E+03 -.619E+03 -.283E+04   -.477E+03 0.615E+03 0.283E+04   -.685E+01 0.356E+01 0.127E+01   -.367E-01 0.485E-01 0.808E-01
   0.522E+02 -.616E+03 0.282E+04   -.559E+02 0.618E+03 -.282E+04   0.299E+01 -.142E+01 0.198E+01   0.600E-01 -.358E-01 -.407E-01
   0.132E+02 -.282E+03 -.145E+04   -.133E+02 0.279E+03 0.145E+04   -.222E+00 0.306E+01 0.383E+01   -.368E-01 -.309E-01 0.113E+00
   0.308E+03 0.403E+03 0.120E+04   -.309E+03 -.403E+03 -.121E+04   0.776E+00 0.364E+00 0.438E+01   -.592E-01 -.691E-01 0.522E-01
   0.485E+03 0.619E+03 -.283E+04   -.477E+03 -.615E+03 0.283E+04   -.685E+01 -.356E+01 0.127E+01   -.367E-01 -.485E-01 0.808E-01
   0.522E+02 0.616E+03 0.282E+04   -.559E+02 -.618E+03 -.282E+04   0.299E+01 0.142E+01 0.198E+01   0.601E-01 0.358E-01 -.407E-01
   0.132E+02 0.282E+03 -.145E+04   -.133E+02 -.279E+03 0.145E+04   -.222E+00 -.306E+01 0.383E+01   -.368E-01 0.309E-01 0.113E+00
   -.523E+03 0.446E-02 0.189E+04   0.527E+03 -.272E-13 -.190E+04   -.324E+01 -.580E-20 0.470E+01   -.199E-01 0.628E-06 0.443E-01
   -.640E+03 0.542E-02 -.224E+04   0.641E+03 -.916E-13 0.225E+04   -.134E+01 -.141E-18 -.432E+01   -.801E-01 0.268E-06 0.602E-01
   -.599E+03 0.419E-02 0.338E+04   0.591E+03 0.347E-14 -.337E+04   0.864E+01 -.369E-18 -.864E+01   -.317E-01 -.652E-05 -.115E+00
   -.373E+03 0.481E-02 -.732E+03   0.370E+03 0.813E-13 0.730E+03   0.283E+01 -.277E-19 0.956E+00   -.530E-01 -.479E-05 0.101E+00
   0.301E+03 0.537E-02 -.325E+04   -.287E+03 -.434E-13 0.324E+04   -.126E+02 -.182E-18 0.134E+02   -.232E-01 -.568E-05 0.976E-01
   0.507E+02 -.208E+02 0.138E+04   -.515E+02 0.209E+02 -.138E+04   0.125E+01 -.977E+00 0.523E+01   -.174E-01 -.266E-02 -.491E-01
   -.354E+02 0.162E+03 -.152E+03   0.369E+02 -.165E+03 0.151E+03   -.172E+01 0.260E+01 0.120E+01   0.126E-01 -.129E-01 0.457E-01
   -.928E+02 0.148E+03 -.142E+04   0.942E+02 -.150E+03 0.143E+04   -.278E+01 0.288E+01 -.398E+01   0.159E-01 -.285E-01 0.325E-01
   -.628E+02 0.191E+03 0.589E+03   0.639E+02 -.193E+03 -.590E+03   -.121E+01 0.219E+01 -.653E+00   0.267E-01 -.665E-02 0.312E-01
   0.169E+02 0.717E+02 -.976E+03   -.172E+02 -.731E+02 0.977E+03   0.856E+00 0.204E+01 -.124E+00   0.523E-01 0.585E-01 0.104E+00
   0.507E+02 0.208E+02 0.138E+04   -.515E+02 -.209E+02 -.138E+04   0.125E+01 0.977E+00 0.523E+01   -.174E-01 0.266E-02 -.491E-01
   -.354E+02 -.162E+03 -.152E+03   0.369E+02 0.165E+03 0.151E+03   -.172E+01 -.260E+01 0.120E+01   0.126E-01 0.129E-01 0.457E-01
   -.928E+02 -.148E+03 -.142E+04   0.942E+02 0.150E+03 0.143E+04   -.278E+01 -.288E+01 -.398E+01   0.159E-01 0.285E-01 0.325E-01
   -.628E+02 -.191E+03 0.589E+03   0.639E+02 0.193E+03 -.590E+03   -.121E+01 -.219E+01 -.653E+00   0.267E-01 0.665E-02 0.312E-01
   0.169E+02 -.717E+02 -.976E+03   -.172E+02 0.731E+02 0.977E+03   0.856E+00 -.204E+01 -.124E+00   0.523E-01 -.585E-01 0.104E+00
   0.720E+02 -.418E-05 0.124E+04   -.721E+02 -.472E-13 -.125E+04   -.116E+00 0.694E-19 0.624E+01   0.193E-01 0.131E-05 -.905E-02
   0.170E+03 -.675E-06 -.432E+03   -.173E+03 0.648E-14 0.433E+03   0.276E+01 -.102E-18 0.341E-01   0.310E-01 0.614E-06 0.519E-01
   0.214E+03 -.313E-04 0.255E+03   -.216E+03 0.678E-13 -.254E+03   0.202E+01 -.170E-18 -.145E+01   -.232E-01 -.957E-06 0.506E-01
   0.136E+02 0.586E-05 -.120E+04   -.104E+02 0.268E-13 0.121E+04   -.483E+01 0.193E-19 -.462E+01   0.114E-02 -.139E-05 0.565E-01
   0.279E+02 -.503E+02 0.137E+04   -.290E+02 0.508E+02 -.137E+04   0.165E+01 -.860E+00 0.564E+01   0.169E-01 -.417E-02 -.148E-01
   -.118E+03 0.170E+03 -.167E+03   0.120E+03 -.172E+03 0.166E+03   -.147E+01 0.228E+01 0.145E+01   -.134E-01 -.781E-02 0.399E-01
   -.164E+03 0.185E+03 -.140E+04   0.165E+03 -.186E+03 0.141E+04   -.205E+01 0.169E+01 -.494E+01   -.289E-01 -.361E-01 0.337E-01
   -.958E+02 0.175E+03 0.539E+03   0.965E+02 -.177E+03 -.540E+03   -.723E+00 0.185E+01 -.179E+00   -.217E-01 0.352E-01 -.778E-02
   0.279E+02 0.503E+02 0.137E+04   -.290E+02 -.508E+02 -.137E+04   0.165E+01 0.860E+00 0.564E+01   0.169E-01 0.417E-02 -.148E-01
   -.118E+03 -.170E+03 -.167E+03   0.120E+03 0.172E+03 0.166E+03   -.147E+01 -.228E+01 0.145E+01   -.134E-01 0.781E-02 0.399E-01
   -.164E+03 -.185E+03 -.140E+04   0.165E+03 0.186E+03 0.141E+04   -.205E+01 -.169E+01 -.494E+01   -.289E-01 0.361E-01 0.337E-01
   -.958E+02 -.175E+03 0.539E+03   0.965E+02 0.177E+03 -.540E+03   -.723E+00 -.185E+01 -.179E+00   -.217E-01 -.352E-01 -.778E-02
   0.516E+02 -.541E-05 0.123E+04   -.515E+02 -.492E-13 -.123E+04   -.159E+00 -.125E-19 0.617E+01   -.354E-01 0.136E-05 -.282E-01
   0.173E+03 -.429E-05 -.455E+03   -.176E+03 0.185E-13 0.455E+03   0.317E+01 0.192E-19 0.659E+00   -.220E-01 0.583E-06 0.448E-01
   0.721E+02 0.405E-04 0.150E+04   -.725E+02 0.311E-13 -.150E+04   0.503E+00 0.286E-18 0.483E+01   0.274E-01 -.215E-05 -.426E-01
   0.124E+03 -.308E-04 0.190E+03   -.125E+03 0.845E-13 -.191E+03   0.200E+01 -.353E-19 0.146E+01   0.196E-01 -.103E-05 0.280E-01
 -----------------------------------------------------------------------------------------------
   0.193E+02 0.561E-01 -.658E+02   0.853E-12 -.171E-12 -.665E-11   -.192E+02 -.222E-15 0.637E+02   0.172E+00 -.194E-04 0.218E+01
 
 
 POSITION                                       TOTAL-FORCE (eV/Angst)
 -----------------------------------------------------------------------------------
      4.94536      4.44331      2.79952        -0.175712     -0.091200     -0.367667
      5.52903      4.44331      5.88406         0.651165      0.653458     -0.213091
      1.83941      9.23251      1.25725        -0.235820      0.265817      1.090714
      2.42308      9.23251      4.34179        -0.283052     -0.136094      0.161415
      4.94536      1.91264      2.79952        -0.175712      0.091200     -0.367667
      5.52903      1.91264      5.88406         0.651165     -0.653458     -0.213091
      1.83941      6.70184      1.25725        -0.235820     -0.265817      1.090714
      2.42308      6.70184      4.34179        -0.283052      0.136094      0.161415
      1.47054      3.17797      2.39204         0.468988     -0.000000     -0.185289
      2.05421      3.17797      5.47658         0.064247     -0.000000      0.767806
      3.99282      7.96718      0.84977         0.431560     -0.000000      1.242727
      4.57649      7.96718      3.93431         0.544001     -0.000000      0.058470
      5.16016      7.96718      7.01886        -1.076966     -0.000000     -1.954461
     10.57359      4.44331      2.79952        -0.223303      0.072845     -0.218717
     11.15726      4.44331      5.88406         1.225973     -0.123530     -0.035893
      7.46764      9.23251      1.25725        -0.640067     -0.107486      0.313628
      8.05131      9.23251      4.34179        -0.354857      0.185730     -0.854974
     10.57359      1.91264      2.79952        -0.223303     -0.072845     -0.218717
     11.15726      1.91264      5.88406         1.225973      0.123530     -0.035893
      7.46764      6.70184      1.25725        -0.640067      0.107486      0.313628
      8.05131      6.70184      4.34179        -0.354857     -0.185730     -0.854974
      7.09877      3.17797      2.39204         0.528085     -0.000000     -0.448342
      7.68244      3.17797      5.47658        -0.337160     -0.000000      1.062133
      9.62105      7.96718      0.84977        -0.217928     -0.000000      1.830175
     10.20472      7.96718      3.93431        -0.057171     -0.000000     -0.617845
     10.78839      7.96718      7.01886         1.540971     -0.000000     -1.975220
      0.67130      1.56674      1.02341         0.489264     -0.892097      0.129895
      1.25497      1.56674      4.10795        -0.224767      0.298975      0.380507
      1.83864      1.56674      7.19249        -1.355870      0.929255     -1.219573
      3.77725      6.35595      2.56568        -0.112303      0.330896     -0.979703
      4.36092      6.35595      5.65022         0.584139      0.705717      0.876840
      0.67130      4.78920      1.02341         0.489264      0.892097      0.129895
      1.25497      4.78920      4.10795        -0.224767     -0.298975      0.380507
      1.83864      4.78920      7.19249        -1.355870     -0.929255     -1.219573
      3.77725      9.57841      2.56568        -0.112303     -0.330896     -0.979703
      4.36092      9.57841      5.65022         0.584139     -0.705717      0.876840
      3.55746      3.17797      1.54227        -0.188256     -0.000000      0.689597
      4.14113      3.17797      4.62682         0.220767     -0.000000      0.839035
      1.03518      7.96718      3.08454        -0.026421     -0.000000     -0.772335
      1.61885      7.96718      6.16909        -1.669418     -0.000000      0.726981
      6.29953      1.56674      1.02341         0.537565     -0.367004      0.235582
      6.88320      1.56674      4.10795         0.232482      0.108174      0.104335
      7.46687      1.56674      7.19249        -0.764264      0.308529     -1.377650
      9.40548      6.35595      2.56568         0.008206      0.426168     -0.346513
      6.29953      4.78920      1.02341         0.537565      0.367004      0.235582
      6.88320      4.78920      4.10795         0.232482     -0.108174      0.104335
      7.46687      4.78920      7.19249        -0.764264     -0.308529     -1.377650
      9.40548      9.57841      2.56568         0.008206     -0.426168     -0.346513
      9.18569      3.17797      1.54227        -0.127486     -0.000000      0.937172
      9.76936      3.17797      4.62682         0.255132     -0.000000      0.904653
      6.07974      7.96718      0.00000         0.161419     -0.000000      0.575414
      6.66341      7.96718      3.08454         0.768077     -0.000000      0.961061
 -----------------------------------------------------------------------------------
    total drift:                                0.309923      0.056093      0.068281


--------------------------------------------------------------------------------------------------------



  FREE ENERGIE OF THE ION-ELECTRON SYSTEM (eV)
  ---------------------------------------------------
  free  energy   TOTEN  =      -247.69050390 eV

  energy  without entropy=     -246.73730201  energy(sigma->0) =     -247.21390295
 


--------------------------------------------------------------------------------------------------------


    POTLOK:  cpu time    0.0548: real time    0.0549


--------------------------------------------------------------------------------------------------------


     LOOP+:  cpu time   65.7678: real time   66.0020
    4ORBIT:  cpu time    0.0000: real time    0.0000

 total amount of memory used by VASP MPI-rank0    41547. kBytes
=======================================================================

   base      :      30000. kBytes
   nonlr-proj:       1513. kBytes
   fftplans  :       2754. kBytes
   grid      :       4856. kBytes
   one-center:         69. kBytes
   wavefun   :       2355. kBytes
 
  
  
 General timing and accounting informations for this job:
 ========================================================
  
                  Total CPU time used (sec):       67.546
                            User time (sec):       66.837
                          System time (sec):        0.708
                         Elapsed time (sec):       68.169
  
                   Maximum memory used (kb):      210868.
                   Average memory used (kb):           0.
  
                          Minor page faults:        59026
                          Major page faults:            0
                 Voluntary context switches:          875
