<?xml version="1.0" encoding="ISO-8859-1"?>
<modeling>
 <generator>
  <i name="program" type="string">vasp </i>
  <i name="version" type="string">6.1.0  </i>
  <i name="subversion" type="string">28Jan20 (build Mar 31 2020 17:42:31) gamma-only                       parallel </i>
  <i name="platform" type="string">LinuxIFC </i>
  <i name="date" type="string">2020 04 12 </i>
  <i name="time" type="string">16:18:50 </i>
 </generator>
 <incar>
  <i type="string" name="SYSTEM">"Millerite NiS"</i>
  <i type="int" name="NSIM">     4</i>
  <i type="int" name="NELM">   100</i>
  <i name="ENCUT">    450.00000000</i>
  <i type="string" name="LREAL">A</i>
  <i type="int" name="ISMEAR">     0</i>
  <i type="int" name="NWRITE">     2</i>
  <i type="logical" name="LWAVE"> F  </i>
  <i type="logical" name="LCHARG"> F  </i>
  <i type="int" name="NCORE">     6</i>
  <i type="int" name="NELM">   100</i>
 </incar>
 <structure name="primitive_cell" >
  <crystal>
   <varray name="basis" >
    <v>       9.42510255       3.57329804       0.00000000 </v>
    <v>       0.00000000      10.07973298       0.00000000 </v>
    <v>       0.00000000       0.00000000      20.51013988 </v>
   </varray>
   <i name="volume">   1948.51491473 </i>
   <varray name="rec_basis" >
    <v>       0.10609964       0.00000000       0.00000000 </v>
    <v>      -0.03761267       0.09920898       0.00000000 </v>
    <v>       0.00000000       0.00000000       0.04875637 </v>
   </varray>
  </crystal>
  <varray name="positions" >
   <v>       0.37433215       0.75136220       0.09511235 </v>
   <v>       0.52460066       0.60109368       0.22312232 </v>
   <v>       0.67486918       0.45082517       0.35113229 </v>
   <v>       0.82513769       0.30055666       0.47914226 </v>
   <v>       0.60748648       0.18487454       0.00977237 </v>
   <v>       0.75775499       0.03460603       0.13778234 </v>
   <v>       0.05829201       0.73406900       0.39380228 </v>
   <v>       0.90802350       0.88433751       0.26579231 </v>
   <v>       0.14117783       0.31784985       0.18045233 </v>
   <v>       0.29144634       0.16758134       0.30846230 </v>
   <v>       0.44171485       0.01731283       0.43647227 </v>
   <v>       0.99090931       0.46811837       0.05244236 </v>
   <v>       0.00994000       0.11575434       0.41150025 </v>
   <v>       0.55913447       0.56655988       0.02747034 </v>
   <v>       0.70940298       0.41629137       0.15548031 </v>
   <v>       0.85967149       0.26602286       0.28349028 </v>
   <v>       0.09282582       0.69953520       0.19815030 </v>
   <v>       0.24309433       0.54926668       0.32616027 </v>
   <v>       0.39336284       0.39899817       0.45417024 </v>
   <v>       0.94255730       0.84980371       0.07014033 </v>
   <v>       0.32598014       0.13304754       0.11281032 </v>
   <v>       0.47624865       0.98277903       0.24082029 </v>
   <v>       0.62651717       0.83251052       0.36883026 </v>
   <v>       0.77678568       0.68224200       0.49684023 </v>
   <v>       0.04964185       0.34025850       0.44532126 </v>
   <v>       0.59883631       0.79106404       0.06129134 </v>
   <v>       0.74910482       0.64079553       0.18930132 </v>
   <v>       0.89937333       0.49052701       0.31731129 </v>
   <v>       0.98225915       0.07430787       0.10396133 </v>
   <v>       0.13252766       0.92403935       0.23197131 </v>
   <v>       0.28279617       0.77377084       0.35998128 </v>
   <v>       0.43306468       0.62350233       0.48799125 </v>
   <v>       0.21541347       0.50782021       0.01862135 </v>
   <v>       0.36568198       0.35755170       0.14663132 </v>
   <v>       0.51595050       0.20728318       0.27464130 </v>
   <v>       0.66621901       0.05701467       0.40265127 </v>
   <v>       0.06382158       0.26208477       0.34135992 </v>
   <v>       0.21409009       0.11181626       0.46936989 </v>
   <v>       0.76328455       0.56262179       0.08533998 </v>
   <v>       0.91355307       0.41235328       0.21334995 </v>
   <v>       0.14670739       0.84586562       0.12800997 </v>
   <v>       0.29697590       0.69559711       0.25601994 </v>
   <v>       0.44724442       0.54532860       0.38402991 </v>
   <v>       0.59751293       0.39506009       0.51203988 </v>
   <v>       0.99643888       0.99613414       0.00000000 </v>
   <v>       0.37986171       0.27937797       0.04266999 </v>
   <v>       0.53013023       0.12910945       0.17067996 </v>
   <v>       0.68039874       0.97884094       0.29868993 </v>
   <v>       0.83066725       0.82857243       0.42669990 </v>
   <v>       0.37769571       0.94821064       0.04346280 </v>
   <v>       0.52796422       0.79794212       0.17147277 </v>
   <v>       0.67823274       0.64767361       0.29948274 </v>
   <v>       0.82850125       0.49740510       0.42749271 </v>
   <v>       0.76111855       0.23145446       0.08613279 </v>
   <v>       0.91138706       0.08118595       0.21414276 </v>
   <v>       0.06165557       0.93091744       0.34215273 </v>
   <v>       0.21192409       0.78064893       0.47016270 </v>
   <v>       0.14454139       0.51469829       0.12880278 </v>
   <v>       0.29480990       0.36442978       0.25681275 </v>
   <v>       0.44507841       0.21416127       0.38482272 </v>
   <v>       0.47740939       0.51206696       0.12840637 </v>
   <v>       0.62767790       0.36179845       0.25641634 </v>
   <v>       0.77794641       0.21152993       0.38442631 </v>
   <v>       0.92821492       0.06126142       0.51243628 </v>
   <v>       0.01110074       0.64504228       0.29908633 </v>
   <v>       0.16136925       0.49477376       0.42709630 </v>
   <v>       0.71056371       0.94557930       0.04306639 </v>
   <v>       0.86083223       0.79531079       0.17107636 </v>
   <v>       0.09398655       0.22882313       0.08573638 </v>
   <v>       0.24425506       0.07855462       0.21374635 </v>
   <v>       0.39452358       0.92828610       0.34175632 </v>
   <v>       0.54479209       0.77801759       0.46976629 </v>
  </varray>
 </structure>
 <varray name="primitive_index" >
  <v type="int" >        1 </v>
  <v type="int" >        2 </v>
  <v type="int" >        3 </v>
  <v type="int" >        4 </v>
  <v type="int" >        5 </v>
  <v type="int" >        6 </v>
  <v type="int" >        7 </v>
  <v type="int" >        8 </v>
  <v type="int" >        9 </v>
  <v type="int" >       10 </v>
  <v type="int" >       11 </v>
  <v type="int" >       12 </v>
  <v type="int" >       13 </v>
  <v type="int" >       14 </v>
  <v type="int" >       15 </v>
  <v type="int" >       16 </v>
  <v type="int" >       17 </v>
  <v type="int" >       18 </v>
  <v type="int" >       19 </v>
  <v type="int" >       20 </v>
  <v type="int" >       21 </v>
  <v type="int" >       22 </v>
  <v type="int" >       23 </v>
  <v type="int" >       24 </v>
  <v type="int" >       25 </v>
  <v type="int" >       26 </v>
  <v type="int" >       27 </v>
  <v type="int" >       28 </v>
  <v type="int" >       29 </v>
  <v type="int" >       30 </v>
  <v type="int" >       31 </v>
  <v type="int" >       32 </v>
  <v type="int" >       33 </v>
  <v type="int" >       34 </v>
  <v type="int" >       35 </v>
  <v type="int" >       36 </v>
  <v type="int" >       37 </v>
  <v type="int" >       38 </v>
  <v type="int" >       39 </v>
  <v type="int" >       40 </v>
  <v type="int" >       41 </v>
  <v type="int" >       42 </v>
  <v type="int" >       43 </v>
  <v type="int" >       44 </v>
  <v type="int" >       45 </v>
  <v type="int" >       46 </v>
  <v type="int" >       47 </v>
  <v type="int" >       48 </v>
  <v type="int" >       49 </v>
  <v type="int" >       50 </v>
  <v type="int" >       51 </v>
  <v type="int" >       52 </v>
  <v type="int" >       53 </v>
  <v type="int" >       54 </v>
  <v type="int" >       55 </v>
  <v type="int" >       56 </v>
  <v type="int" >       57 </v>
  <v type="int" >       58 </v>
  <v type="int" >       59 </v>
  <v type="int" >       60 </v>
  <v type="int" >       61 </v>
  <v type="int" >       62 </v>
  <v type="int" >       63 </v>
  <v type="int" >       64 </v>
  <v type="int" >       65 </v>
  <v type="int" >       66 </v>
  <v type="int" >       67 </v>
  <v type="int" >       68 </v>
  <v type="int" >       69 </v>
  <v type="int" >       70 </v>
  <v type="int" >       71 </v>
  <v type="int" >       72 </v>
 </varray>
 <kpoints>
  <generation param="Gamma">
   <v type="int" name="divisions">       1        1        1 </v>
   <v name="usershift">      0.00000000       0.00000000       0.00000000 </v>
   <v name="genvec1">      1.00000000       0.00000000       0.00000000 </v>
   <v name="genvec2">     -0.00000000       1.00000000       0.00000000 </v>
   <v name="genvec3">      0.00000000       0.00000000       1.00000000 </v>
   <v name="shift">      0.00000000       0.00000000       0.00000000 </v>
  </generation>
  <varray name="kpointlist" >
   <v>       0.00000000       0.00000000       0.00000000 </v>
  </varray>
  <varray name="weights" >
   <v>       1.00000000 </v>
  </varray>
 </kpoints>
 <parameters>
  <separator name="general" >
   <i type="string" name="SYSTEM">"Millerite NiS"</i>
   <i type="logical" name="LCOMPAT"> F  </i>
  </separator>
  <separator name="electronic" >
   <i type="string" name="PREC">normal</i>
   <i name="ENMAX">    450.00000000</i>
   <i name="ENAUG">    703.44300000</i>
   <i name="EDIFF">      0.00010000</i>
   <i type="int" name="IALGO">    38</i>
   <i type="int" name="IWAVPR">    10</i>
   <i type="int" name="NBANDS">   480</i>
   <i type="int" name="NBANDSLOW">    -1</i>
   <i type="int" name="NBANDSHIGH">    -1</i>
   <i name="NELECT">    792.00000000</i>
   <i type="int" name="TURBO">     0</i>
   <i type="int" name="IRESTART">     0</i>
   <i type="int" name="NREBOOT">     0</i>
   <i type="int" name="NMIN">     0</i>
   <i name="EREF">      0.00000000</i>
   <separator name="electronic smearing" >
    <i type="int" name="ISMEAR">     0</i>
    <i name="SIGMA">      0.20000000</i>
    <i name="KSPACING">      0.50000000</i>
    <i type="logical" name="KGAMMA"> T  </i>
    <i type="logical" name="KBLOWUP"> T  </i>
   </separator>
   <separator name="electronic projectors" >
    <i type="logical" name="LREAL"> T  </i>
    <v name="ROPT">     -0.00050000     -0.00050000</v>
    <i type="int" name="LMAXPAW">  -100</i>
    <i type="int" name="LMAXMIX">     2</i>
    <i type="logical" name="NLSPLINE"> F  </i>
   </separator>
   <separator name="electronic startup" >
    <i type="int" name="ISTART">     0</i>
    <i type="int" name="ICHARG">     2</i>
    <i type="int" name="INIWAV">     1</i>
   </separator>
   <separator name="electronic spin" >
    <i type="int" name="ISPIN">     1</i>
    <i type="logical" name="LNONCOLLINEAR"> F  </i>
    <v name="MAGMOM">      1.00000000      1.00000000      1.00000000      1.00000000      1.00000000      1.00000000      1.00000000      1.00000000      1.00000000      1.00000000      1.00000000      1.00000000      1.00000000      1.00000000      1.00000000      1.00000000      1.00000000      1.00000000      1.00000000      1.00000000
      1.00000000      1.00000000      1.00000000      1.00000000      1.00000000      1.00000000      1.00000000      1.00000000      1.00000000      1.00000000      1.00000000      1.00000000      1.00000000      1.00000000      1.00000000      1.00000000      1.00000000      1.00000000      1.00000000      1.00000000
      1.00000000      1.00000000      1.00000000      1.00000000      1.00000000      1.00000000      1.00000000      1.00000000      1.00000000      1.00000000      1.00000000      1.00000000      1.00000000      1.00000000      1.00000000      1.00000000      1.00000000      1.00000000      1.00000000      1.00000000
      1.00000000      1.00000000      1.00000000      1.00000000      1.00000000      1.00000000      1.00000000      1.00000000      1.00000000      1.00000000      1.00000000      1.00000000</v>
    <i name="NUPDOWN">     -1.00000000</i>
    <i type="logical" name="LSORBIT"> F  </i>
    <v name="SAXIS">      0.00000000      0.00000000      1.00000000</v>
    <i type="logical" name="LSPIRAL"> F  </i>
    <v name="QSPIRAL">      0.00000000      0.00000000      0.00000000</v>
    <i type="logical" name="LZEROZ"> F  </i>
   </separator>
   <separator name="electronic exchange-correlation" >
    <i type="logical" name="LASPH"> F  </i>
    <i type="logical" name="LMETAGGA"> F  </i>
   </separator>
   <separator name="electronic convergence" >
    <i type="int" name="NELM">   100</i>
    <i type="int" name="NELMDL">    -5</i>
    <i type="int" name="NELMIN">     2</i>
    <i name="ENINI">    450.00000000</i>
    <separator name="electronic convergence detail" >
     <i type="logical" name="LDIAG"> T  </i>
     <i type="logical" name="LSUBROT"> F  </i>
     <i name="WEIMIN">      0.00000000</i>
     <i name="EBREAK">      0.00000005</i>
     <i name="DEPER">      0.30000000</i>
     <i type="int" name="NRMM">     4</i>
     <i name="TIME">      0.40000000</i>
    </separator>
   </separator>
   <separator name="electronic mixer" >
    <i name="AMIX">      0.40000000</i>
    <i name="BMIX">      1.00000000</i>
    <i name="AMIN">      0.10000000</i>
    <i name="AMIX_MAG">      1.60000000</i>
    <i name="BMIX_MAG">      1.00000000</i>
    <separator name="electronic mixer details" >
     <i type="int" name="IMIX">     4</i>
     <i type="logical" name="MIXFIRST"> F  </i>
     <i type="int" name="MAXMIX">   -45</i>
     <i name="WC">    100.00000000</i>
     <i type="int" name="INIMIX">     1</i>
     <i type="int" name="MIXPRE">     1</i>
     <i type="int" name="MREMOVE">     5</i>
    </separator>
   </separator>
   <separator name="electronic dipolcorrection" >
    <i type="logical" name="LDIPOL"> F  </i>
    <i type="logical" name="LMONO"> F  </i>
    <i type="int" name="IDIPOL">     0</i>
    <i name="EPSILON">      1.00000000</i>
    <v name="DIPOL">   -100.00000000   -100.00000000   -100.00000000</v>
    <i name="EFIELD">      0.00000000</i>
   </separator>
  </separator>
  <separator name="grids" >
   <i type="int" name="NGX">    54</i>
   <i type="int" name="NGY">    54</i>
   <i type="int" name="NGZ">   108</i>
   <i type="int" name="NGXF">   108</i>
   <i type="int" name="NGYF">   108</i>
   <i type="int" name="NGZF">   216</i>
   <i type="logical" name="ADDGRID"> F  </i>
  </separator>
  <separator name="ionic" >
   <i type="int" name="NSW">     0</i>
   <i type="int" name="IBRION">    -1</i>
   <i type="int" name="MDALGO">     0</i>
   <i type="int" name="ISIF">     2</i>
   <i name="PSTRESS">      0.00000000</i>
   <i name="EDIFFG">      0.00100000</i>
   <i type="int" name="NFREE">     0</i>
   <i name="POTIM">      0.50000000</i>
   <i name="SMASS">     -3.00000000</i>
   <i name="SCALEE">      1.00000000</i>
  </separator>
  <separator name="ionic md" >
   <i name="TEBEG">      0.00010000</i>
   <i name="TEEND">      0.00010000</i>
   <i type="int" name="NBLOCK">     1</i>
   <i type="int" name="KBLOCK">     1</i>
   <i type="int" name="NPACO">   256</i>
   <i name="APACO">     16.00000000</i>
  </separator>
  <separator name="symmetry" >
   <i type="int" name="ISYM">     2</i>
   <i name="SYMPREC">      0.00001000</i>
  </separator>
  <separator name="dos" >
   <i type="int" name="LORBIT">     0</i>
   <v name="RWIGS">     -1.00000000     -1.00000000</v>
   <i type="int" name="NEDOS">   301</i>
   <i name="EMIN">     10.00000000</i>
   <i name="EMAX">    -10.00000000</i>
   <i name="EFERMI">      0.00000000</i>
  </separator>
  <separator name="writing" >
   <i type="int" name="NWRITE">     2</i>
   <i type="logical" name="LWAVE"> F  </i>
   <i type="logical" name="LDOWNSAMPLE"> F  </i>
   <i type="logical" name="LCHARG"> F  </i>
   <i type="logical" name="LPARD"> F  </i>
   <i type="logical" name="LVTOT"> F  </i>
   <i type="logical" name="LVHAR"> F  </i>
   <i type="logical" name="LELF"> F  </i>
   <i type="logical" name="LOPTICS"> F  </i>
   <v name="STM">      0.00000000      0.00000000      0.00000000      0.00000000      0.00000000      0.00000000      0.00000000</v>
  </separator>
  <separator name="performance" >
   <i type="int" name="NPAR">     8</i>
   <i type="int" name="NSIM">     4</i>
   <i type="int" name="NBLK">    -1</i>
   <i type="logical" name="LPLANE"> T  </i>
   <i type="logical" name="LSCALAPACK"> T  </i>
   <i type="logical" name="LSCAAWARE"> F  </i>
   <i type="logical" name="LSCALU"> F  </i>
   <i type="logical" name="LASYNC"> F  </i>
   <i type="logical" name="LORBITALREAL"> F  </i>
  </separator>
  <separator name="miscellaneous" >
   <i type="int" name="IDIOT">     3</i>
   <i type="int" name="PHON_NSTRUCT">    -1</i>
   <i type="logical" name="LMUSIC"> F  </i>
   <v name="POMASS">     58.69000000     32.06600000</v>
   <v name="DARWINR">      0.00000000      0.00000000</v>
   <v name="DARWINV">      1.00000000      1.00000000</v>
   <i type="logical" name="LCORR"> T  </i>
  </separator>
  <i type="logical" name="GGA_COMPAT"> T  </i>
  <i type="logical" name="LBERRY"> F  </i>
  <i type="int" name="ICORELEVEL">     0</i>
  <i type="logical" name="LDAU"> F  </i>
  <i type="int" name="I_CONSTRAINED_M">     0</i>
  <separator name="electronic exchange-correlation" >
   <i type="string" name="GGA">--</i>
   <i type="int" name="VOSKOWN">     0</i>
   <i type="logical" name="LHFCALC"> F  </i>
   <i type="string" name="PRECFOCK"></i>
   <i type="logical" name="LSYMGRAD"> F  </i>
   <i type="logical" name="LHFONE"> F  </i>
   <i type="logical" name="LRHFCALC"> F  </i>
   <i type="logical" name="LTHOMAS"> F  </i>
   <i type="logical" name="LMODELHF"> F  </i>
   <i type="logical" name="LFOCKACE"> F  </i>
   <i name="ENCUT4O">     -1.00000000</i>
   <i type="int" name="EXXOEP">     0</i>
   <i type="int" name="FOURORBIT">     0</i>
   <i name="AEXX">      0.00000000</i>
   <i name="HFALPHA">      0.00000000</i>
   <i name="MCALPHA">      0.00000000</i>
   <i name="ALDAX">      1.00000000</i>
   <i name="AGGAX">      1.00000000</i>
   <i name="ALDAC">      1.00000000</i>
   <i name="AGGAC">      1.00000000</i>
   <i type="int" name="NKREDX">     1</i>
   <i type="int" name="NKREDY">     1</i>
   <i type="int" name="NKREDZ">     1</i>
   <i type="logical" name="SHIFTRED"> F  </i>
   <i type="logical" name="ODDONLY"> F  </i>
   <i type="logical" name="EVENONLY"> F  </i>
   <i type="int" name="LMAXFOCK">     0</i>
   <i type="int" name="NMAXFOCKAE">     0</i>
   <i type="logical" name="LFOCKAEDFT"> F  </i>
   <i name="HFSCREEN">      0.00000000</i>
   <i name="HFSCREENC">      0.00000000</i>
   <i type="int" name="NBANDSGWLOW">     0</i>
  </separator>
  <separator name="vdW DFT" >
   <i type="logical" name="LUSE_VDW"> F  </i>
   <i name="Zab_VDW">     -0.84910000</i>
   <i name="PARAM1">      0.12340000</i>
   <i name="PARAM2">      1.00000000</i>
   <i name="PARAM3">      0.00000000</i>
  </separator>
  <separator name="model GW" >
   <i type="int" name="MODEL_GW">     0</i>
   <i name="MODEL_EPS0">     16.23762429</i>
   <i name="MODEL_ALPHA">      1.00000000</i>
  </separator>
  <separator name="linear response parameters" >
   <i type="logical" name="LEPSILON"> F  </i>
   <i type="logical" name="LRPA"> F  </i>
   <i type="logical" name="LNABLA"> F  </i>
   <i type="logical" name="LVEL"> F  </i>
   <i type="int" name="KINTER">     0</i>
   <i name="CSHIFT">      0.10000000</i>
   <i name="OMEGAMAX">     -1.00000000</i>
   <i name="DEG_THRESHOLD">      0.00200000</i>
   <i name="RTIME">     -0.10000000</i>
   <i name="WPLASMAI">      0.00000000</i>
   <v name="DFIELD">      0.00000000      0.00000000      0.00000000</v>
   <v name="WPLASMA">      0.00000000      0.00000000      0.00000000      0.00000000      0.00000000      0.00000000      0.00000000      0.00000000      0.00000000</v>
  </separator>
  <separator name="orbital magnetization" >
   <i type="logical" name="NUCIND"> F  </i>
   <v name="MAGPOS">      0.00000000      0.00000000      0.00000000</v>
   <i type="logical" name="LNICSALL"> T  </i>
   <i type="logical" name="ORBITALMAG"> F  </i>
   <i type="logical" name="LMAGBLOCH"> F  </i>
   <i type="logical" name="LCHIMAG"> F  </i>
   <i type="logical" name="LGAUGE"> T  </i>
   <i type="int" name="MAGATOM">     0</i>
   <v name="MAGDIPOL">      0.00000000      0.00000000      0.00000000</v>
   <v name="AVECCONST">      0.00000000      0.00000000      0.00000000</v>
  </separator>
  <separator name="response functions" >
   <i type="logical" name="LFINITE_TEMPERATURE"> F  </i>
   <i type="logical" name="LADDER"> F  </i>
   <i type="logical" name="LRPAFORCE"> F  </i>
   <i type="logical" name="LFXC"> F  </i>
   <i type="logical" name="LHARTREE"> T  </i>
   <i type="int" name="IBSE">     0</i>
   <v type="int" name="KPOINT">    -1     0     0     0</v>
   <i type="logical" name="LTCTC"> F  </i>
   <i type="logical" name="LTCTE"> F  </i>
   <i type="logical" name="LTETE"> F  </i>
   <i type="logical" name="LTRIPLET"> F  </i>
   <i type="logical" name="LFXCEPS"> F  </i>
   <i type="logical" name="LFXHEG"> F  </i>
   <i type="int" name="NATURALO">     2</i>
   <i type="logical" name="LHOLEGF"> F  </i>
   <i type="logical" name="L2ORDER"> F  </i>
   <i type="logical" name="LDMP1"> F  </i>
   <i type="logical" name="LMP2LT"> F  </i>
   <i type="logical" name="LSMP2LT"> F  </i>
   <i type="logical" name="LGWLF"> F  </i>
   <i name="ENCUTGW">     -2.00000000</i>
   <i name="ENCUTGWSOFT">     -2.00000000</i>
   <i name="ENCUTLF">     -1.00000000</i>
   <i type="logical" name="LESF_SPLINES"> F  </i>
   <i type="int" name="LMAXMP2">    -1</i>
   <i name="SCISSOR">      0.00000000</i>
   <i type="int" name="NOMEGA">     0</i>
   <i type="int" name="NOMEGAR">     0</i>
   <i type="int" name="NBANDSGW">    -1</i>
   <i type="int" name="NBANDSO">    -1</i>
   <i type="int" name="NBANDSV">    -1</i>
   <i type="int" name="NELM">   100</i>
   <i type="int" name="NELMHF">     1</i>
   <i type="int" name="DIM">     3</i>
   <i type="int" name="IESPILON">     4</i>
   <i type="int" name="ANTIRES">     0</i>
   <i name="OMEGAMAX">    -30.00000000</i>
   <i name="OMEGAMIN">    -30.00000000</i>
   <i name="OMEGATL">   -200.00000000</i>
   <i type="int" name="OMEGAGRID">     0</i>
   <i name="CSHIFT">     -0.10000000</i>
   <i type="logical" name="LSELFENERGY"> F  </i>
   <i type="logical" name="LSPECTRAL"> F  </i>
   <i type="logical" name="LSPECTRALGW"> F  </i>
   <i type="logical" name="LSINGLES"> F  </i>
   <i type="logical" name="LFERMIGW"> F  </i>
   <i type="logical" name="ODDONLYGW"> F  </i>
   <i type="logical" name="EVENONLYGW"> F  </i>
   <i type="int" name="NKREDLFX">     1</i>
   <i type="int" name="NKREDLFY">     1</i>
   <i type="int" name="NKREDLFZ">     1</i>
   <i type="int" name="MAXMEM">  2800</i>
   <i type="int" name="TELESCOPE">     0</i>
   <i type="int" name="NTAUPAR">    -1</i>
   <i type="int" name="NOMEGAPAR">    -1</i>
   <i name="LAMBDA">      1.00000000</i>
  </separator>
  <separator name="External order field" >
   <i name="OFIELD_KAPPA">      0.00000000</i>
   <v name="OFIELD_K">      0.00000000      0.00000000      0.00000000</v>
   <i name="OFIELD_Q6_NEAR">      0.00000000</i>
   <i name="OFIELD_Q6_FAR">      0.00000000</i>
   <i name="OFIELD_A">      0.00000000</i>
  </separator>
 </parameters>
 <atominfo>
  <atoms>      72 </atoms>
  <types>       2 </types>
  <array name="atoms" >
   <dimension dim="1">ion</dimension>
   <field type="string">element</field>
   <field type="int">atomtype</field>
   <set>
    <rc><c>Ni</c><c>   1</c></rc>
    <rc><c>Ni</c><c>   1</c></rc>
    <rc><c>Ni</c><c>   1</c></rc>
    <rc><c>Ni</c><c>   1</c></rc>
    <rc><c>Ni</c><c>   1</c></rc>
    <rc><c>Ni</c><c>   1</c></rc>
    <rc><c>Ni</c><c>   1</c></rc>
    <rc><c>Ni</c><c>   1</c></rc>
    <rc><c>Ni</c><c>   1</c></rc>
    <rc><c>Ni</c><c>   1</c></rc>
    <rc><c>Ni</c><c>   1</c></rc>
    <rc><c>Ni</c><c>   1</c></rc>
    <rc><c>Ni</c><c>   1</c></rc>
    <rc><c>Ni</c><c>   1</c></rc>
    <rc><c>Ni</c><c>   1</c></rc>
    <rc><c>Ni</c><c>   1</c></rc>
    <rc><c>Ni</c><c>   1</c></rc>
    <rc><c>Ni</c><c>   1</c></rc>
    <rc><c>Ni</c><c>   1</c></rc>
    <rc><c>Ni</c><c>   1</c></rc>
    <rc><c>Ni</c><c>   1</c></rc>
    <rc><c>Ni</c><c>   1</c></rc>
    <rc><c>Ni</c><c>   1</c></rc>
    <rc><c>Ni</c><c>   1</c></rc>
    <rc><c>Ni</c><c>   1</c></rc>
    <rc><c>Ni</c><c>   1</c></rc>
    <rc><c>Ni</c><c>   1</c></rc>
    <rc><c>Ni</c><c>   1</c></rc>
    <rc><c>Ni</c><c>   1</c></rc>
    <rc><c>Ni</c><c>   1</c></rc>
    <rc><c>Ni</c><c>   1</c></rc>
    <rc><c>Ni</c><c>   1</c></rc>
    <rc><c>Ni</c><c>   1</c></rc>
    <rc><c>Ni</c><c>   1</c></rc>
    <rc><c>Ni</c><c>   1</c></rc>
    <rc><c>Ni</c><c>   1</c></rc>
    <rc><c>S </c><c>   2</c></rc>
    <rc><c>S </c><c>   2</c></rc>
    <rc><c>S </c><c>   2</c></rc>
    <rc><c>S </c><c>   2</c></rc>
    <rc><c>S </c><c>   2</c></rc>
    <rc><c>S </c><c>   2</c></rc>
    <rc><c>S </c><c>   2</c></rc>
    <rc><c>S </c><c>   2</c></rc>
    <rc><c>S </c><c>   2</c></rc>
    <rc><c>S </c><c>   2</c></rc>
    <rc><c>S </c><c>   2</c></rc>
    <rc><c>S </c><c>   2</c></rc>
    <rc><c>S </c><c>   2</c></rc>
    <rc><c>S </c><c>   2</c></rc>
    <rc><c>S </c><c>   2</c></rc>
    <rc><c>S </c><c>   2</c></rc>
    <rc><c>S </c><c>   2</c></rc>
    <rc><c>S </c><c>   2</c></rc>
    <rc><c>S </c><c>   2</c></rc>
    <rc><c>S </c><c>   2</c></rc>
    <rc><c>S </c><c>   2</c></rc>
    <rc><c>S </c><c>   2</c></rc>
    <rc><c>S </c><c>   2</c></rc>
    <rc><c>S </c><c>   2</c></rc>
    <rc><c>S </c><c>   2</c></rc>
    <rc><c>S </c><c>   2</c></rc>
    <rc><c>S </c><c>   2</c></rc>
    <rc><c>S </c><c>   2</c></rc>
    <rc><c>S </c><c>   2</c></rc>
    <rc><c>S </c><c>   2</c></rc>
    <rc><c>S </c><c>   2</c></rc>
    <rc><c>S </c><c>   2</c></rc>
    <rc><c>S </c><c>   2</c></rc>
    <rc><c>S </c><c>   2</c></rc>
    <rc><c>S </c><c>   2</c></rc>
    <rc><c>S </c><c>   2</c></rc>
   </set>
  </array>
  <array name="atomtypes" >
   <dimension dim="1">type</dimension>
   <field type="int">atomspertype</field>
   <field type="string">element</field>
   <field>mass</field>
   <field>valence</field>
   <field type="string">pseudopotential</field>
   <set>
    <rc><c>  36</c><c>Ni</c><c>     58.69000000</c><c>     16.00000000</c><c>  PAW_PBE Ni_pv 06Sep2000               </c></rc>
    <rc><c>  36</c><c>S </c><c>     32.06600000</c><c>      6.00000000</c><c>  PAW_PBE S 06Sep2000                   </c></rc>
   </set>
  </array>
 </atominfo>
 <structure name="initialpos" >
  <crystal>
   <varray name="basis" >
    <v>       9.42510255       3.57329804       0.00000000 </v>
    <v>       0.00000000      10.07973298       0.00000000 </v>
    <v>       0.00000000       0.00000000      20.51013988 </v>
   </varray>
   <i name="volume">   1948.51491473 </i>
   <varray name="rec_basis" >
    <v>       0.10609964       0.00000000       0.00000000 </v>
    <v>      -0.03761267       0.09920898       0.00000000 </v>
    <v>       0.00000000       0.00000000       0.04875637 </v>
   </varray>
  </crystal>
  <varray name="positions" >
   <v>       0.37433215       0.75136220       0.09511235 </v>
   <v>       0.52460066       0.60109368       0.22312232 </v>
   <v>       0.67486918       0.45082517       0.35113229 </v>
   <v>       0.82513769       0.30055666       0.47914226 </v>
   <v>       0.60748648       0.18487454       0.00977237 </v>
   <v>       0.75775499       0.03460603       0.13778234 </v>
   <v>       0.05829201       0.73406900       0.39380228 </v>
   <v>       0.90802350       0.88433751       0.26579231 </v>
   <v>       0.14117783       0.31784985       0.18045233 </v>
   <v>       0.29144634       0.16758134       0.30846230 </v>
   <v>       0.44171485       0.01731283       0.43647227 </v>
   <v>       0.99090931       0.46811837       0.05244236 </v>
   <v>       0.00994000       0.11575434       0.41150025 </v>
   <v>       0.55913447       0.56655988       0.02747034 </v>
   <v>       0.70940298       0.41629137       0.15548031 </v>
   <v>       0.85967149       0.26602286       0.28349028 </v>
   <v>       0.09282582       0.69953520       0.19815030 </v>
   <v>       0.24309433       0.54926668       0.32616027 </v>
   <v>       0.39336284       0.39899817       0.45417024 </v>
   <v>       0.94255730       0.84980371       0.07014033 </v>
   <v>       0.32598014       0.13304754       0.11281032 </v>
   <v>       0.47624865       0.98277903       0.24082029 </v>
   <v>       0.62651717       0.83251052       0.36883026 </v>
   <v>       0.77678568       0.68224200       0.49684023 </v>
   <v>       0.04964185       0.34025850       0.44532126 </v>
   <v>       0.59883631       0.79106404       0.06129134 </v>
   <v>       0.74910482       0.64079553       0.18930132 </v>
   <v>       0.89937333       0.49052701       0.31731129 </v>
   <v>       0.98225915       0.07430787       0.10396133 </v>
   <v>       0.13252766       0.92403935       0.23197131 </v>
   <v>       0.28279617       0.77377084       0.35998128 </v>
   <v>       0.43306468       0.62350233       0.48799125 </v>
   <v>       0.21541347       0.50782021       0.01862135 </v>
   <v>       0.36568198       0.35755170       0.14663132 </v>
   <v>       0.51595050       0.20728318       0.27464130 </v>
   <v>       0.66621901       0.05701467       0.40265127 </v>
   <v>       0.06382158       0.26208477       0.34135992 </v>
   <v>       0.21409009       0.11181626       0.46936989 </v>
   <v>       0.76328455       0.56262179       0.08533998 </v>
   <v>       0.91355307       0.41235328       0.21334995 </v>
   <v>       0.14670739       0.84586562       0.12800997 </v>
   <v>       0.29697590       0.69559711       0.25601994 </v>
   <v>       0.44724442       0.54532860       0.38402991 </v>
   <v>       0.59751293       0.39506009       0.51203988 </v>
   <v>       0.99643888       0.99613414       0.00000000 </v>
   <v>       0.37986171       0.27937797       0.04266999 </v>
   <v>       0.53013023       0.12910945       0.17067996 </v>
   <v>       0.68039874       0.97884094       0.29868993 </v>
   <v>       0.83066725       0.82857243       0.42669990 </v>
   <v>       0.37769571       0.94821064       0.04346280 </v>
   <v>       0.52796422       0.79794212       0.17147277 </v>
   <v>       0.67823274       0.64767361       0.29948274 </v>
   <v>       0.82850125       0.49740510       0.42749271 </v>
   <v>       0.76111855       0.23145446       0.08613279 </v>
   <v>       0.91138706       0.08118595       0.21414276 </v>
   <v>       0.06165557       0.93091744       0.34215273 </v>
   <v>       0.21192409       0.78064893       0.47016270 </v>
   <v>       0.14454139       0.51469829       0.12880278 </v>
   <v>       0.29480990       0.36442978       0.25681275 </v>
   <v>       0.44507841       0.21416127       0.38482272 </v>
   <v>       0.47740939       0.51206696       0.12840637 </v>
   <v>       0.62767790       0.36179845       0.25641634 </v>
   <v>       0.77794641       0.21152993       0.38442631 </v>
   <v>       0.92821492       0.06126142       0.51243628 </v>
   <v>       0.01110074       0.64504228       0.29908633 </v>
   <v>       0.16136925       0.49477376       0.42709630 </v>
   <v>       0.71056371       0.94557930       0.04306639 </v>
   <v>       0.86083223       0.79531079       0.17107636 </v>
   <v>       0.09398655       0.22882313       0.08573638 </v>
   <v>       0.24425506       0.07855462       0.21374635 </v>
   <v>       0.39452358       0.92828610       0.34175632 </v>
   <v>       0.54479209       0.77801759       0.46976629 </v>
  </varray>
 </structure>
 <calculation>
  <scstep>
   <time name="dav">    2.01    2.01</time>
   <time name="total">    2.06    2.07</time>
   <energy>
    <i name="alphaZ">   1909.09476555 </i>
    <i name="ewald"> 165892.75571498 </i>
    <i name="hartreedc">-288525.97189540 </i>
    <i name="XCdc">   3652.51667291 </i>
    <i name="pawpsdc"> 112729.53333415 </i>
    <i name="pawaedc">-117641.51188735 </i>
    <i name="eentropy">     -0.37146125 </i>
    <i name="bandstr">  -4202.96870919 </i>
    <i name="atom"> 136002.60505376 </i>
    <i name="e_fr_energy">   9815.68158816 </i>
    <i name="e_wo_entrp">   9816.05304941 </i>
    <i name="e_0_energy">   9815.86731879 </i>
   </energy>
  </scstep>
  <scstep>
   <time name="dav">    1.78    1.79</time>
   <time name="total">    1.78    1.79</time>
   <energy>
    <i name="e_fr_energy">    623.46962340 </i>
    <i name="e_wo_entrp">    624.28656641 </i>
    <i name="e_0_energy">    623.87809490 </i>
   </energy>
  </scstep>
  <scstep>
   <time name="dav">    1.89    1.90</time>
   <time name="total">    1.90    1.90</time>
   <energy>
    <i name="e_fr_energy">   -340.78764789 </i>
    <i name="e_wo_entrp">   -339.62728736 </i>
    <i name="e_0_energy">   -340.20746762 </i>
   </energy>
  </scstep>
  <scstep>
   <time name="dav">    1.96    1.97</time>
   <time name="total">    1.96    1.97</time>
   <energy>
    <i name="e_fr_energy">   -404.31272865 </i>
    <i name="e_wo_entrp">   -403.09068671 </i>
    <i name="e_0_energy">   -403.70170768 </i>
   </energy>
  </scstep>
  <scstep>
   <time name="dav">    2.05    2.06</time>
   <time name="total">    2.09    2.10</time>
   <energy>
    <i name="e_fr_energy">   -406.71213331 </i>
    <i name="e_wo_entrp">   -405.50174239 </i>
    <i name="e_0_energy">   -406.10693785 </i>
   </energy>
  </scstep>
  <scstep>
   <time name="dav">    1.96    1.97</time>
   <time name="total">    2.05    2.06</time>
   <energy>
    <i name="e_fr_energy">   -489.93031625 </i>
    <i name="e_wo_entrp">   -488.99518249 </i>
    <i name="e_0_energy">   -489.46274937 </i>
   </energy>
  </scstep>
  <scstep>
   <time name="dav">    1.95    1.96</time>
   <time name="total">    2.04    2.04</time>
   <energy>
    <i name="e_fr_energy">   -374.27186541 </i>
    <i name="e_wo_entrp">   -373.41932338 </i>
    <i name="e_0_energy">   -373.84559439 </i>
   </energy>
  </scstep>
  <scstep>
   <time name="dav">    2.24    2.24</time>
   <time name="total">    2.33    2.34</time>
   <energy>
    <i name="e_fr_energy">   -424.32446976 </i>
    <i name="e_wo_entrp">   -423.35015288 </i>
    <i name="e_0_energy">   -423.83731132 </i>
   </energy>
  </scstep>
  <scstep>
   <time name="dav">    2.06    2.07</time>
   <time name="total">    2.15    2.16</time>
   <energy>
    <i name="e_fr_energy">   -370.64241748 </i>
    <i name="e_wo_entrp">   -369.48408514 </i>
    <i name="e_0_energy">   -370.06325131 </i>
   </energy>
  </scstep>
  <scstep>
   <time name="dav">    2.27    2.28</time>
   <time name="total">    2.36    2.37</time>
   <energy>
    <i name="e_fr_energy">   -384.65451972 </i>
    <i name="e_wo_entrp">   -383.38530653 </i>
    <i name="e_0_energy">   -384.01991312 </i>
   </energy>
  </scstep>
  <scstep>
   <time name="dav">    2.25    2.25</time>
   <time name="total">    2.34    2.34</time>
   <energy>
    <i name="e_fr_energy">   -377.30189205 </i>
    <i name="e_wo_entrp">   -376.21999310 </i>
    <i name="e_0_energy">   -376.76094258 </i>
   </energy>
  </scstep>
  <scstep>
   <time name="dav">    2.05    2.05</time>
   <time name="total">    2.13    2.14</time>
   <energy>
    <i name="e_fr_energy">   -364.87853017 </i>
    <i name="e_wo_entrp">   -363.77434157 </i>
    <i name="e_0_energy">   -364.32643587 </i>
   </energy>
  </scstep>
  <scstep>
   <time name="dav">    2.12    2.13</time>
   <time name="total">    2.21    2.22</time>
   <energy>
    <i name="e_fr_energy">   -363.51798457 </i>
    <i name="e_wo_entrp">   -362.65644338 </i>
    <i name="e_0_energy">   -363.08721397 </i>
   </energy>
  </scstep>
  <scstep>
   <time name="dav">    2.11    2.12</time>
   <time name="total">    2.20    2.21</time>
   <energy>
    <i name="e_fr_energy">   -361.54077589 </i>
    <i name="e_wo_entrp">   -360.62229095 </i>
    <i name="e_0_energy">   -361.08153342 </i>
   </energy>
  </scstep>
  <scstep>
   <time name="dav">    2.07    2.07</time>
   <time name="total">    2.15    2.16</time>
   <energy>
    <i name="e_fr_energy">   -359.25235858 </i>
    <i name="e_wo_entrp">   -358.35142665 </i>
    <i name="e_0_energy">   -358.80189261 </i>
   </energy>
  </scstep>
  <scstep>
   <time name="dav">    2.15    2.15</time>
   <time name="total">    2.24    2.25</time>
   <energy>
    <i name="e_fr_energy">   -358.18381430 </i>
    <i name="e_wo_entrp">   -357.26141591 </i>
    <i name="e_0_energy">   -357.72261510 </i>
   </energy>
  </scstep>
  <scstep>
   <time name="dav">    2.16    2.17</time>
   <time name="total">    2.25    2.26</time>
   <energy>
    <i name="e_fr_energy">   -357.52797946 </i>
    <i name="e_wo_entrp">   -356.58636051 </i>
    <i name="e_0_energy">   -357.05716999 </i>
   </energy>
  </scstep>
  <scstep>
   <time name="dav">    2.15    2.16</time>
   <time name="total">    2.24    2.25</time>
   <energy>
    <i name="e_fr_energy">   -357.29617753 </i>
    <i name="e_wo_entrp">   -356.33177439 </i>
    <i name="e_0_energy">   -356.81397596 </i>
   </energy>
  </scstep>
  <scstep>
   <time name="dav">    2.14    2.14</time>
   <time name="total">    2.23    2.24</time>
   <energy>
    <i name="e_fr_energy">   -357.02741739 </i>
    <i name="e_wo_entrp">   -356.06501827 </i>
    <i name="e_0_energy">   -356.54621783 </i>
   </energy>
  </scstep>
  <scstep>
   <time name="dav">    2.20    2.21</time>
   <time name="total">    2.30    2.30</time>
   <energy>
    <i name="e_fr_energy">   -356.80316312 </i>
    <i name="e_wo_entrp">   -355.81189876 </i>
    <i name="e_0_energy">   -356.30753094 </i>
   </energy>
  </scstep>
  <scstep>
   <time name="dav">    2.24    2.25</time>
   <time name="total">    2.33    2.34</time>
   <energy>
    <i name="e_fr_energy">   -356.63821872 </i>
    <i name="e_wo_entrp">   -355.62550401 </i>
    <i name="e_0_energy">   -356.13186136 </i>
   </energy>
  </scstep>
  <scstep>
   <time name="dav">    2.15    2.15</time>
   <time name="total">    2.24    2.25</time>
   <energy>
    <i name="e_fr_energy">   -356.55037828 </i>
    <i name="e_wo_entrp">   -355.55050837 </i>
    <i name="e_0_energy">   -356.05044332 </i>
   </energy>
  </scstep>
  <scstep>
   <time name="dav">    2.08    2.08</time>
   <time name="total">    2.16    2.17</time>
   <energy>
    <i name="e_fr_energy">   -356.50273829 </i>
    <i name="e_wo_entrp">   -355.48894987 </i>
    <i name="e_0_energy">   -355.99584408 </i>
   </energy>
  </scstep>
  <scstep>
   <time name="dav">    2.27    2.28</time>
   <time name="total">    2.37    2.37</time>
   <energy>
    <i name="e_fr_energy">   -356.52471255 </i>
    <i name="e_wo_entrp">   -355.49487137 </i>
    <i name="e_0_energy">   -356.00979196 </i>
   </energy>
  </scstep>
  <scstep>
   <time name="dav">    2.08    2.09</time>
   <time name="total">    2.17    2.18</time>
   <energy>
    <i name="e_fr_energy">   -356.48839495 </i>
    <i name="e_wo_entrp">   -355.45355132 </i>
    <i name="e_0_energy">   -355.97097314 </i>
   </energy>
  </scstep>
  <scstep>
   <time name="dav">    2.13    2.13</time>
   <time name="total">    2.22    2.23</time>
   <energy>
    <i name="e_fr_energy">   -356.48740862 </i>
    <i name="e_wo_entrp">   -355.47902259 </i>
    <i name="e_0_energy">   -355.98321561 </i>
   </energy>
  </scstep>
  <scstep>
   <time name="dav">    2.05    2.06</time>
   <time name="total">    2.15    2.15</time>
   <energy>
    <i name="e_fr_energy">   -356.48244417 </i>
    <i name="e_wo_entrp">   -355.46675886 </i>
    <i name="e_0_energy">   -355.97460152 </i>
   </energy>
  </scstep>
  <scstep>
   <time name="dav">    2.03    2.04</time>
   <time name="total">    2.13    2.14</time>
   <energy>
    <i name="e_fr_energy">   -356.47962913 </i>
    <i name="e_wo_entrp">   -355.47270306 </i>
    <i name="e_0_energy">   -355.97616610 </i>
   </energy>
  </scstep>
  <scstep>
   <time name="dav">    2.00    2.01</time>
   <time name="total">    2.10    2.10</time>
   <energy>
    <i name="e_fr_energy">   -356.47309476 </i>
    <i name="e_wo_entrp">   -355.45434719 </i>
    <i name="e_0_energy">   -355.96372097 </i>
   </energy>
  </scstep>
  <scstep>
   <time name="dav">    2.11    2.12</time>
   <time name="total">    2.21    2.21</time>
   <energy>
    <i name="e_fr_energy">   -356.47235171 </i>
    <i name="e_wo_entrp">   -355.45370474 </i>
    <i name="e_0_energy">   -355.96302822 </i>
   </energy>
  </scstep>
  <scstep>
   <time name="dav">    1.94    1.95</time>
   <time name="total">    2.04    2.04</time>
   <energy>
    <i name="e_fr_energy">   -356.47072488 </i>
    <i name="e_wo_entrp">   -355.45566413 </i>
    <i name="e_0_energy">   -355.96319451 </i>
   </energy>
  </scstep>
  <scstep>
   <time name="dav">    1.80    1.80</time>
   <time name="total">    1.89    1.90</time>
   <energy>
    <i name="e_fr_energy">   -356.47096167 </i>
    <i name="e_wo_entrp">   -355.45487854 </i>
    <i name="e_0_energy">   -355.96292011 </i>
   </energy>
  </scstep>
  <scstep>
   <time name="dav">    1.71    1.71</time>
   <time name="total">    1.81    1.81</time>
   <energy>
    <i name="e_fr_energy">   -356.47086551 </i>
    <i name="e_wo_entrp">   -355.45687589 </i>
    <i name="e_0_energy">   -355.96387070 </i>
   </energy>
  </scstep>
  <scstep>
   <time name="dav">    1.58    1.59</time>
   <time name="total">    1.63    1.63</time>
   <energy>
    <i name="alphaZ">   1909.09476555 </i>
    <i name="ewald"> 165892.75571498 </i>
    <i name="hartreedc">-287733.27156780 </i>
    <i name="XCdc">   3622.97770032 </i>
    <i name="pawpsdc"> 130588.44242095 </i>
    <i name="pawaedc">-135558.21059441 </i>
    <i name="eentropy">     -1.01479291 </i>
    <i name="bandstr"> -15079.84954129 </i>
    <i name="atom"> 136002.60505376 </i>
    <i name="e_fr_energy">   -356.47084085 </i>
    <i name="e_wo_entrp">   -355.45604794 </i>
    <i name="e_0_energy">   -355.96344439 </i>
   </energy>
  </scstep>
  <structure>
   <crystal>
    <varray name="basis" >
     <v>       9.42510255       3.57329804       0.00000000 </v>
     <v>       0.00000000      10.07973298       0.00000000 </v>
     <v>       0.00000000       0.00000000      20.51013988 </v>
    </varray>
    <i name="volume">   1948.51491473 </i>
    <varray name="rec_basis" >
     <v>       0.10609964       0.00000000       0.00000000 </v>
     <v>      -0.03761267       0.09920898       0.00000000 </v>
     <v>       0.00000000       0.00000000       0.04875637 </v>
    </varray>
   </crystal>
   <varray name="positions" >
    <v>       0.37433215       0.75136220       0.09511235 </v>
    <v>       0.52460066       0.60109368       0.22312232 </v>
    <v>       0.67486918       0.45082517       0.35113229 </v>
    <v>       0.82513769       0.30055666       0.47914226 </v>
    <v>       0.60748648       0.18487454       0.00977237 </v>
    <v>       0.75775499       0.03460603       0.13778234 </v>
    <v>       0.05829201       0.73406900       0.39380228 </v>
    <v>       0.90802350       0.88433751       0.26579231 </v>
    <v>       0.14117783       0.31784985       0.18045233 </v>
    <v>       0.29144634       0.16758134       0.30846230 </v>
    <v>       0.44171485       0.01731283       0.43647227 </v>
    <v>       0.99090931       0.46811837       0.05244236 </v>
    <v>       0.00994000       0.11575434       0.41150025 </v>
    <v>       0.55913447       0.56655988       0.02747034 </v>
    <v>       0.70940298       0.41629137       0.15548031 </v>
    <v>       0.85967149       0.26602286       0.28349028 </v>
    <v>       0.09282582       0.69953520       0.19815030 </v>
    <v>       0.24309433       0.54926668       0.32616027 </v>
    <v>       0.39336284       0.39899817       0.45417024 </v>
    <v>       0.94255730       0.84980371       0.07014033 </v>
    <v>       0.32598014       0.13304754       0.11281032 </v>
    <v>       0.47624865       0.98277903       0.24082029 </v>
    <v>       0.62651717       0.83251052       0.36883026 </v>
    <v>       0.77678568       0.68224200       0.49684023 </v>
    <v>       0.04964185       0.34025850       0.44532126 </v>
    <v>       0.59883631       0.79106404       0.06129134 </v>
    <v>       0.74910482       0.64079553       0.18930132 </v>
    <v>       0.89937333       0.49052701       0.31731129 </v>
    <v>       0.98225915       0.07430787       0.10396133 </v>
    <v>       0.13252766       0.92403935       0.23197131 </v>
    <v>       0.28279617       0.77377084       0.35998128 </v>
    <v>       0.43306468       0.62350233       0.48799125 </v>
    <v>       0.21541347       0.50782021       0.01862135 </v>
    <v>       0.36568198       0.35755170       0.14663132 </v>
    <v>       0.51595050       0.20728318       0.27464130 </v>
    <v>       0.66621901       0.05701467       0.40265127 </v>
    <v>       0.06382158       0.26208477       0.34135992 </v>
    <v>       0.21409009       0.11181626       0.46936989 </v>
    <v>       0.76328455       0.56262179       0.08533998 </v>
    <v>       0.91355307       0.41235328       0.21334995 </v>
    <v>       0.14670739       0.84586562       0.12800997 </v>
    <v>       0.29697590       0.69559711       0.25601994 </v>
    <v>       0.44724442       0.54532860       0.38402991 </v>
    <v>       0.59751293       0.39506009       0.51203988 </v>
    <v>       0.99643888       0.99613414       0.00000000 </v>
    <v>       0.37986171       0.27937797       0.04266999 </v>
    <v>       0.53013023       0.12910945       0.17067996 </v>
    <v>       0.68039874       0.97884094       0.29868993 </v>
    <v>       0.83066725       0.82857243       0.42669990 </v>
    <v>       0.37769571       0.94821064       0.04346280 </v>
    <v>       0.52796422       0.79794212       0.17147277 </v>
    <v>       0.67823274       0.64767361       0.29948274 </v>
    <v>       0.82850125       0.49740510       0.42749271 </v>
    <v>       0.76111855       0.23145446       0.08613279 </v>
    <v>       0.91138706       0.08118595       0.21414276 </v>
    <v>       0.06165557       0.93091744       0.34215273 </v>
    <v>       0.21192409       0.78064893       0.47016270 </v>
    <v>       0.14454139       0.51469829       0.12880278 </v>
    <v>       0.29480990       0.36442978       0.25681275 </v>
    <v>       0.44507841       0.21416127       0.38482272 </v>
    <v>       0.47740939       0.51206696       0.12840637 </v>
    <v>       0.62767790       0.36179845       0.25641634 </v>
    <v>       0.77794641       0.21152993       0.38442631 </v>
    <v>       0.92821492       0.06126142       0.51243628 </v>
    <v>       0.01110074       0.64504228       0.29908633 </v>
    <v>       0.16136925       0.49477376       0.42709630 </v>
    <v>       0.71056371       0.94557930       0.04306639 </v>
    <v>       0.86083223       0.79531079       0.17107636 </v>
    <v>       0.09398655       0.22882313       0.08573638 </v>
    <v>       0.24425506       0.07855462       0.21374635 </v>
    <v>       0.39452358       0.92828610       0.34175632 </v>
    <v>       0.54479209       0.77801759       0.46976629 </v>
   </varray>
  </structure>
  <varray name="forces" >
   <v>       0.11183452       0.57036633       0.15510825 </v>
   <v>       0.01145593       0.15753614      -0.01115490 </v>
   <v>       0.14258319       0.03831123      -0.04309367 </v>
   <v>      -0.52182204      -0.88411145      -0.20923912 </v>
   <v>      -0.13429612      -0.20644037       1.80978588 </v>
   <v>      -0.20749203       0.19462015      -0.05272496 </v>
   <v>       0.26417989       0.04707818       0.54323453 </v>
   <v>       0.24193336       0.07340594      -0.07538299 </v>
   <v>      -0.12759462      -0.00877496      -0.23355212 </v>
   <v>       0.20074227       0.04490949       0.04410242 </v>
   <v>      -0.77836894      -0.31631405      -0.41687329 </v>
   <v>       0.27114091      -0.20288149       1.24919007 </v>
   <v>       0.04302508       0.15510516       0.80672822 </v>
   <v>       0.46909422      -0.12385902       1.83177998 </v>
   <v>      -0.18398057      -0.07440365      -0.21980998 </v>
   <v>       0.04686425       0.13402604      -0.00773764 </v>
   <v>      -0.09321228       0.09305924       0.02700250 </v>
   <v>      -0.05155974      -0.09316519       0.04385965 </v>
   <v>       0.53488175       0.69770508      -0.57792822 </v>
   <v>      -0.03812616       0.70577274      -0.11210417 </v>
   <v>      -0.17864359      -0.13381880      -0.27700251 </v>
   <v>      -0.00473963      -0.13402753      -0.11699180 </v>
   <v>       0.03326925       0.14362600       0.33988041 </v>
   <v>      -0.79020322       0.19911674      -2.01806912 </v>
   <v>       0.57500543       0.08781104      -0.83285938 </v>
   <v>      -0.45808903       0.57805610       0.34117770 </v>
   <v>      -0.16489834       0.01033123       0.02467126 </v>
   <v>      -0.00612979      -0.18440554       0.07568299 </v>
   <v>      -0.02092535       0.31337075      -0.42702672 </v>
   <v>      -0.07065043      -0.05981304       0.05953724 </v>
   <v>      -0.00612775      -0.10623068       0.41458592 </v>
   <v>       0.27142837      -0.26604046      -0.89700663 </v>
   <v>       0.30015132      -1.15671633       1.79873275 </v>
   <v>       0.05776144       0.00359053      -0.12060448 </v>
   <v>       0.04973412      -0.05309965       0.06120160 </v>
   <v>       0.53890468       0.04773949      -0.52387235 </v>
   <v>      -0.20798871      -0.24371284       0.05711626 </v>
   <v>      -0.65726768       0.28325850       0.32090528 </v>
   <v>       0.12382848       0.39229392      -1.79624574 </v>
   <v>      -0.04995107       0.02188896      -0.01516179 </v>
   <v>       0.13629410      -0.25782921      -0.87753728 </v>
   <v>       0.01014448      -0.02828960       0.13846700 </v>
   <v>      -0.44192693      -0.12439146       0.24916620 </v>
   <v>      -1.39886942       0.22243249       0.17841734 </v>
   <v>      -0.10874864      -0.72862153       0.88123747 </v>
   <v>       0.58323006       1.09789308      -1.25777241 </v>
   <v>      -0.08657547      -0.16306436      -0.03334582 </v>
   <v>      -0.22889930      -0.11385445       0.04877491 </v>
   <v>      -0.69855887      -0.28613339       1.01767138 </v>
   <v>       0.70642024      -0.94926984       0.23884900 </v>
   <v>       0.24650288      -0.31648913       0.22402339 </v>
   <v>       0.12081588      -0.10195630      -0.11333283 </v>
   <v>       0.45565136      -0.04608153       1.19139497 </v>
   <v>      -0.38212305      -0.34642130      -0.59404226 </v>
   <v>      -0.05851528       0.00785016      -0.13078788 </v>
   <v>      -0.00122738      -0.28746695       0.03024956 </v>
   <v>       0.53006392      -0.18093106      -0.67583618 </v>
   <v>      -0.22937261       0.01221019      -1.33001825 </v>
   <v>      -0.04714566      -0.14333565      -0.20934889 </v>
   <v>       0.32794922      -0.42960092       1.04131960 </v>
   <v>      -0.43817993       0.43433596      -0.92003327 </v>
   <v>      -0.05821541      -0.06655436       0.13409068 </v>
   <v>       0.26570324      -0.15976942       0.17599275 </v>
   <v>      -0.24881422       1.58846976      -1.20870407 </v>
   <v>      -0.00793804       0.04270738       0.15605761 </v>
   <v>       0.61142637      -0.15981849       0.63441664 </v>
   <v>       0.09491796      -0.14953535      -0.46258953 </v>
   <v>       0.10433204       0.01074124      -0.14168030 </v>
   <v>      -0.26977116       0.28452678       0.00558738 </v>
   <v>       0.16932556      -0.00834500       0.12462420 </v>
   <v>       0.16756358       0.07680681      -0.09068139 </v>
   <v>       0.63878911       0.52462152       0.55552896 </v>
  </varray>
  <varray name="stress" >
   <v>     -29.13032294       4.88103548      -7.22324534 </v>
   <v>       4.88103560     -22.94674540       7.44877329 </v>
   <v>      -7.22324582       7.44877329     -17.63752317 </v>
  </varray>
  <energy>
   <i name="e_fr_energy">   -356.47084085 </i>
   <i name="e_wo_entrp">   -355.45604794 </i>
   <i name="e_0_energy">   -355.96344439 </i>
  </energy>
  <time name="totalsc">   74.07   74.36</time>
  <eigenvalues>
   <array>
    <dimension dim="1">band</dimension>
    <dimension dim="2">kpoint</dimension>
    <dimension dim="3">spin</dimension>
    <field>eigene</field>
    <field>occ</field>
    <set>
     <set comment="spin 1">
      <set comment="kpoint 1">
       <r>  -62.7639    1.0000 </r>
       <r>  -62.7621    1.0000 </r>
       <r>  -62.7516    1.0000 </r>
       <r>  -62.7436    1.0000 </r>
       <r>  -62.7414    1.0000 </r>
       <r>  -62.7389    1.0000 </r>
       <r>  -62.7353    1.0000 </r>
       <r>  -62.7351    1.0000 </r>
       <r>  -62.7259    1.0000 </r>
       <r>  -62.7246    1.0000 </r>
       <r>  -62.7245    1.0000 </r>
       <r>  -62.7242    1.0000 </r>
       <r>  -62.7229    1.0000 </r>
       <r>  -62.7188    1.0000 </r>
       <r>  -62.7183    1.0000 </r>
       <r>  -62.7157    1.0000 </r>
       <r>  -62.7106    1.0000 </r>
       <r>  -62.7102    1.0000 </r>
       <r>  -62.7060    1.0000 </r>
       <r>  -62.7038    1.0000 </r>
       <r>  -62.7015    1.0000 </r>
       <r>  -62.7011    1.0000 </r>
       <r>  -62.7010    1.0000 </r>
       <r>  -62.6911    1.0000 </r>
       <r>  -62.6854    1.0000 </r>
       <r>  -62.6808    1.0000 </r>
       <r>  -62.6779    1.0000 </r>
       <r>  -62.6768    1.0000 </r>
       <r>  -62.6713    1.0000 </r>
       <r>  -62.6704    1.0000 </r>
       <r>  -62.6665    1.0000 </r>
       <r>  -62.6601    1.0000 </r>
       <r>  -62.6538    1.0000 </r>
       <r>  -62.6511    1.0000 </r>
       <r>  -62.6494    1.0000 </r>
       <r>  -62.6426    1.0000 </r>
       <r>  -62.6425    1.0000 </r>
       <r>  -62.6409    1.0000 </r>
       <r>  -62.6310    1.0000 </r>
       <r>  -62.6308    1.0000 </r>
       <r>  -62.6196    1.0000 </r>
       <r>  -62.6049    1.0000 </r>
       <r>  -62.6025    1.0000 </r>
       <r>  -62.6010    1.0000 </r>
       <r>  -62.5968    1.0000 </r>
       <r>  -62.5932    1.0000 </r>
       <r>  -62.5844    1.0000 </r>
       <r>  -62.5683    1.0000 </r>
       <r>  -62.5504    1.0000 </r>
       <r>  -62.5379    1.0000 </r>
       <r>  -62.5342    1.0000 </r>
       <r>  -62.5184    1.0000 </r>
       <r>  -62.5168    1.0000 </r>
       <r>  -62.5111    1.0000 </r>
       <r>  -62.5058    1.0000 </r>
       <r>  -62.4952    1.0000 </r>
       <r>  -62.4897    1.0000 </r>
       <r>  -62.4895    1.0000 </r>
       <r>  -62.4841    1.0000 </r>
       <r>  -62.4755    1.0000 </r>
       <r>  -62.4753    1.0000 </r>
       <r>  -62.4721    1.0000 </r>
       <r>  -62.4668    1.0000 </r>
       <r>  -62.4480    1.0000 </r>
       <r>  -62.4451    1.0000 </r>
       <r>  -62.4351    1.0000 </r>
       <r>  -62.4279    1.0000 </r>
       <r>  -62.4221    1.0000 </r>
       <r>  -62.4205    1.0000 </r>
       <r>  -62.4182    1.0000 </r>
       <r>  -62.4121    1.0000 </r>
       <r>  -62.4095    1.0000 </r>
       <r>  -62.3899    1.0000 </r>
       <r>  -62.3733    1.0000 </r>
       <r>  -62.3658    1.0000 </r>
       <r>  -62.3550    1.0000 </r>
       <r>  -62.3387    1.0000 </r>
       <r>  -62.3338    1.0000 </r>
       <r>  -62.3311    1.0000 </r>
       <r>  -62.3133    1.0000 </r>
       <r>  -62.2923    1.0000 </r>
       <r>  -62.2772    1.0000 </r>
       <r>  -62.2754    1.0000 </r>
       <r>  -62.2706    1.0000 </r>
       <r>  -62.2221    1.0000 </r>
       <r>  -62.1991    1.0000 </r>
       <r>  -62.1751    1.0000 </r>
       <r>  -62.1577    1.0000 </r>
       <r>  -62.1310    1.0000 </r>
       <r>  -62.0886    1.0000 </r>
       <r>  -62.0322    1.0000 </r>
       <r>  -61.9671    1.0000 </r>
       <r>  -61.9030    1.0000 </r>
       <r>  -61.8409    1.0000 </r>
       <r>  -61.8387    1.0000 </r>
       <r>  -61.8155    1.0000 </r>
       <r>  -61.7123    1.0000 </r>
       <r>  -61.6962    1.0000 </r>
       <r>  -61.6810    1.0000 </r>
       <r>  -61.5538    1.0000 </r>
       <r>  -61.5453    1.0000 </r>
       <r>  -61.4718    1.0000 </r>
       <r>  -61.4225    1.0000 </r>
       <r>  -61.3795    1.0000 </r>
       <r>  -61.3650    1.0000 </r>
       <r>  -61.3131    1.0000 </r>
       <r>  -61.2981    1.0000 </r>
       <r>  -61.1184    1.0000 </r>
       <r>  -14.0754    1.0000 </r>
       <r>  -13.4212    1.0000 </r>
       <r>  -13.2650    1.0000 </r>
       <r>  -13.2347    1.0000 </r>
       <r>  -13.0901    1.0000 </r>
       <r>  -13.0641    1.0000 </r>
       <r>  -12.8418    1.0000 </r>
       <r>  -12.8312    1.0000 </r>
       <r>  -12.7099    1.0000 </r>
       <r>  -12.6893    1.0000 </r>
       <r>  -12.6578    1.0000 </r>
       <r>  -12.6009    1.0000 </r>
       <r>  -12.5625    1.0000 </r>
       <r>  -12.4011    1.0000 </r>
       <r>  -12.3001    1.0000 </r>
       <r>  -12.2268    1.0000 </r>
       <r>  -12.2188    1.0000 </r>
       <r>  -12.1759    1.0000 </r>
       <r>  -12.1656    1.0000 </r>
       <r>  -12.0821    1.0000 </r>
       <r>  -12.0055    1.0000 </r>
       <r>  -11.9705    1.0000 </r>
       <r>  -11.9167    1.0000 </r>
       <r>  -11.8895    1.0000 </r>
       <r>  -11.8112    1.0000 </r>
       <r>  -11.7222    1.0000 </r>
       <r>  -11.6753    1.0000 </r>
       <r>  -11.5816    1.0000 </r>
       <r>  -11.5261    1.0000 </r>
       <r>  -11.3863    1.0000 </r>
       <r>  -11.1608    1.0000 </r>
       <r>  -11.0979    1.0000 </r>
       <r>  -10.8771    1.0000 </r>
       <r>  -10.8115    1.0000 </r>
       <r>  -10.4861    1.0000 </r>
       <r>  -10.1677    1.0000 </r>
       <r>   -5.8158    1.0000 </r>
       <r>   -5.7746    1.0000 </r>
       <r>   -5.7322    1.0000 </r>
       <r>   -5.4722    1.0000 </r>
       <r>   -5.4639    1.0000 </r>
       <r>   -5.2743    1.0000 </r>
       <r>   -5.2368    1.0000 </r>
       <r>   -5.2097    1.0000 </r>
       <r>   -5.1771    1.0000 </r>
       <r>   -5.0492    1.0000 </r>
       <r>   -4.9775    1.0000 </r>
       <r>   -4.9638    1.0000 </r>
       <r>   -4.9377    1.0000 </r>
       <r>   -4.9027    1.0000 </r>
       <r>   -4.8712    1.0000 </r>
       <r>   -4.8637    1.0000 </r>
       <r>   -4.8210    1.0000 </r>
       <r>   -4.7653    1.0000 </r>
       <r>   -4.7290    1.0000 </r>
       <r>   -4.6935    1.0000 </r>
       <r>   -4.6317    1.0000 </r>
       <r>   -4.5969    1.0000 </r>
       <r>   -4.5803    1.0000 </r>
       <r>   -4.5594    1.0000 </r>
       <r>   -4.4777    1.0000 </r>
       <r>   -4.4495    1.0000 </r>
       <r>   -4.4115    1.0000 </r>
       <r>   -4.3720    1.0000 </r>
       <r>   -4.3371    1.0000 </r>
       <r>   -4.1885    1.0000 </r>
       <r>   -4.1435    1.0000 </r>
       <r>   -4.0708    1.0000 </r>
       <r>   -4.0340    1.0000 </r>
       <r>   -3.9873    1.0000 </r>
       <r>   -3.9555    1.0000 </r>
       <r>   -3.9046    1.0000 </r>
       <r>   -3.8193    1.0000 </r>
       <r>   -3.7906    1.0000 </r>
       <r>   -3.7677    1.0000 </r>
       <r>   -3.6933    1.0000 </r>
       <r>   -3.6339    1.0000 </r>
       <r>   -3.5717    1.0000 </r>
       <r>   -3.5600    1.0000 </r>
       <r>   -3.4622    1.0000 </r>
       <r>   -3.4416    1.0000 </r>
       <r>   -3.3996    1.0000 </r>
       <r>   -3.3379    1.0000 </r>
       <r>   -3.2818    1.0000 </r>
       <r>   -3.2296    1.0000 </r>
       <r>   -3.2167    1.0000 </r>
       <r>   -3.1939    1.0000 </r>
       <r>   -3.1631    1.0000 </r>
       <r>   -3.1497    1.0000 </r>
       <r>   -3.1175    1.0000 </r>
       <r>   -3.0953    1.0000 </r>
       <r>   -3.0770    1.0000 </r>
       <r>   -3.0238    1.0000 </r>
       <r>   -2.9911    1.0000 </r>
       <r>   -2.9753    1.0000 </r>
       <r>   -2.9640    1.0000 </r>
       <r>   -2.9425    1.0000 </r>
       <r>   -2.9295    1.0000 </r>
       <r>   -2.8918    1.0000 </r>
       <r>   -2.8392    1.0000 </r>
       <r>   -2.7979    1.0000 </r>
       <r>   -2.7686    1.0000 </r>
       <r>   -2.7590    1.0000 </r>
       <r>   -2.7511    1.0000 </r>
       <r>   -2.6975    1.0000 </r>
       <r>   -2.6791    1.0000 </r>
       <r>   -2.6650    1.0000 </r>
       <r>   -2.6388    1.0000 </r>
       <r>   -2.6192    1.0000 </r>
       <r>   -2.5861    1.0000 </r>
       <r>   -2.5718    1.0000 </r>
       <r>   -2.5502    1.0000 </r>
       <r>   -2.5079    1.0000 </r>
       <r>   -2.4896    1.0000 </r>
       <r>   -2.4566    1.0000 </r>
       <r>   -2.4313    1.0000 </r>
       <r>   -2.4145    1.0000 </r>
       <r>   -2.3858    1.0000 </r>
       <r>   -2.3778    1.0000 </r>
       <r>   -2.3182    1.0000 </r>
       <r>   -2.2925    1.0000 </r>
       <r>   -2.2717    1.0000 </r>
       <r>   -2.2237    1.0000 </r>
       <r>   -2.2106    1.0000 </r>
       <r>   -2.1436    1.0000 </r>
       <r>   -2.1191    1.0000 </r>
       <r>   -2.0210    1.0000 </r>
       <r>   -1.9899    1.0000 </r>
       <r>   -1.9266    1.0000 </r>
       <r>   -1.8683    1.0000 </r>
       <r>   -1.8457    1.0000 </r>
       <r>   -1.8102    1.0000 </r>
       <r>   -1.7903    1.0000 </r>
       <r>   -1.7721    1.0000 </r>
       <r>   -1.7160    1.0000 </r>
       <r>   -1.5897    1.0000 </r>
       <r>   -1.5457    1.0000 </r>
       <r>   -1.5336    1.0000 </r>
       <r>   -1.4935    1.0000 </r>
       <r>   -1.4582    1.0000 </r>
       <r>   -1.4182    1.0000 </r>
       <r>   -1.3939    1.0000 </r>
       <r>   -1.3488    1.0000 </r>
       <r>   -1.3301    1.0000 </r>
       <r>   -1.2835    1.0000 </r>
       <r>   -1.2715    1.0000 </r>
       <r>   -1.2577    1.0000 </r>
       <r>   -1.1611    1.0000 </r>
       <r>   -1.1336    1.0000 </r>
       <r>   -1.1123    1.0000 </r>
       <r>   -1.0997    1.0000 </r>
       <r>   -1.0745    1.0000 </r>
       <r>   -1.0632    1.0000 </r>
       <r>   -1.0228    1.0000 </r>
       <r>   -1.0049    1.0000 </r>
       <r>   -0.9994    1.0000 </r>
       <r>   -0.9740    1.0000 </r>
       <r>   -0.9675    1.0000 </r>
       <r>   -0.9374    1.0000 </r>
       <r>   -0.9200    1.0000 </r>
       <r>   -0.8881    1.0000 </r>
       <r>   -0.8689    1.0000 </r>
       <r>   -0.8407    1.0000 </r>
       <r>   -0.8333    1.0000 </r>
       <r>   -0.8031    1.0000 </r>
       <r>   -0.8006    1.0000 </r>
       <r>   -0.7832    1.0000 </r>
       <r>   -0.7547    1.0000 </r>
       <r>   -0.7441    1.0000 </r>
       <r>   -0.7121    1.0000 </r>
       <r>   -0.7073    1.0000 </r>
       <r>   -0.6807    1.0000 </r>
       <r>   -0.6581    1.0000 </r>
       <r>   -0.6148    1.0000 </r>
       <r>   -0.6067    1.0000 </r>
       <r>   -0.5805    1.0000 </r>
       <r>   -0.5710    1.0000 </r>
       <r>   -0.5618    1.0000 </r>
       <r>   -0.5346    1.0000 </r>
       <r>   -0.5155    1.0000 </r>
       <r>   -0.5133    1.0000 </r>
       <r>   -0.5040    1.0000 </r>
       <r>   -0.4885    1.0000 </r>
       <r>   -0.4832    1.0000 </r>
       <r>   -0.4613    1.0000 </r>
       <r>   -0.4475    1.0000 </r>
       <r>   -0.4380    1.0000 </r>
       <r>   -0.4252    1.0000 </r>
       <r>   -0.4121    1.0000 </r>
       <r>   -0.4087    1.0000 </r>
       <r>   -0.3992    1.0000 </r>
       <r>   -0.3868    1.0000 </r>
       <r>   -0.3818    1.0000 </r>
       <r>   -0.3620    1.0000 </r>
       <r>   -0.3589    1.0000 </r>
       <r>   -0.3402    1.0000 </r>
       <r>   -0.3278    1.0000 </r>
       <r>   -0.3174    1.0000 </r>
       <r>   -0.3086    1.0000 </r>
       <r>   -0.2967    1.0000 </r>
       <r>   -0.2826    1.0000 </r>
       <r>   -0.2748    1.0000 </r>
       <r>   -0.2599    1.0000 </r>
       <r>   -0.2466    1.0000 </r>
       <r>   -0.2432    1.0000 </r>
       <r>   -0.2355    1.0000 </r>
       <r>   -0.2171    1.0000 </r>
       <r>   -0.2037    1.0000 </r>
       <r>   -0.1979    1.0000 </r>
       <r>   -0.1805    1.0000 </r>
       <r>   -0.1701    1.0000 </r>
       <r>   -0.1658    1.0000 </r>
       <r>   -0.1596    1.0000 </r>
       <r>   -0.1539    1.0000 </r>
       <r>   -0.1414    1.0000 </r>
       <r>   -0.1361    1.0000 </r>
       <r>   -0.1160    1.0000 </r>
       <r>   -0.1011    1.0000 </r>
       <r>   -0.0872    1.0000 </r>
       <r>   -0.0829    1.0000 </r>
       <r>   -0.0721    1.0000 </r>
       <r>   -0.0682    1.0000 </r>
       <r>   -0.0494    1.0000 </r>
       <r>   -0.0383    1.0000 </r>
       <r>   -0.0292    1.0000 </r>
       <r>   -0.0160    1.0000 </r>
       <r>   -0.0028    1.0000 </r>
       <r>    0.0038    1.0000 </r>
       <r>    0.0116    1.0000 </r>
       <r>    0.0303    1.0000 </r>
       <r>    0.0448    1.0000 </r>
       <r>    0.0647    1.0000 </r>
       <r>    0.0698    1.0000 </r>
       <r>    0.0977    1.0000 </r>
       <r>    0.1087    1.0000 </r>
       <r>    0.1251    1.0000 </r>
       <r>    0.1287    1.0000 </r>
       <r>    0.1460    1.0000 </r>
       <r>    0.1641    1.0000 </r>
       <r>    0.1769    1.0000 </r>
       <r>    0.1898    1.0000 </r>
       <r>    0.2031    1.0000 </r>
       <r>    0.2153    1.0000 </r>
       <r>    0.2600    1.0000 </r>
       <r>    0.2740    1.0000 </r>
       <r>    0.2979    1.0000 </r>
       <r>    0.3069    1.0000 </r>
       <r>    0.3345    1.0000 </r>
       <r>    0.3694    1.0000 </r>
       <r>    0.3836    1.0000 </r>
       <r>    0.4182    1.0000 </r>
       <r>    0.4297    1.0000 </r>
       <r>    0.4674    1.0000 </r>
       <r>    0.4794    1.0000 </r>
       <r>    0.5093    1.0000 </r>
       <r>    0.5208    1.0000 </r>
       <r>    0.5290    1.0000 </r>
       <r>    0.5451    1.0000 </r>
       <r>    0.5589    1.0000 </r>
       <r>    0.5781    1.0000 </r>
       <r>    0.6200    1.0000 </r>
       <r>    0.6423    1.0000 </r>
       <r>    0.6606    1.0000 </r>
       <r>    0.6801    1.0000 </r>
       <r>    0.6964    1.0000 </r>
       <r>    0.7140    1.0000 </r>
       <r>    0.7294    1.0000 </r>
       <r>    0.7548    1.0000 </r>
       <r>    0.7617    1.0000 </r>
       <r>    0.8036    1.0000 </r>
       <r>    0.8214    1.0000 </r>
       <r>    0.8351    1.0000 </r>
       <r>    0.8487    1.0000 </r>
       <r>    0.8931    0.9998 </r>
       <r>    0.9061    0.9998 </r>
       <r>    0.9412    0.9994 </r>
       <r>    0.9821    0.9985 </r>
       <r>    1.0015    0.9977 </r>
       <r>    1.0361    0.9951 </r>
       <r>    1.0561    0.9927 </r>
       <r>    1.1008    0.9832 </r>
       <r>    1.1235    0.9753 </r>
       <r>    1.1698    0.9493 </r>
       <r>    1.1878    0.9346 </r>
       <r>    1.2163    0.9047 </r>
       <r>    1.3327    0.6866 </r>
       <r>    1.3725    0.5810 </r>
       <r>    1.3966    0.5135 </r>
       <r>    1.4289    0.4229 </r>
       <r>    1.4428    0.3850 </r>
       <r>    1.4925    0.2599 </r>
       <r>    1.5501    0.1465 </r>
       <r>    1.5993    0.0809 </r>
       <r>    1.6121    0.0682 </r>
       <r>    1.6265    0.0558 </r>
       <r>    1.6537    0.0372 </r>
       <r>    1.7126    0.0139 </r>
       <r>    1.7519    0.0066 </r>
       <r>    1.7591    0.0057 </r>
       <r>    1.7749    0.0041 </r>
       <r>    1.8271    0.0013 </r>
       <r>    1.8604    0.0006 </r>
       <r>    1.9148    0.0001 </r>
       <r>    1.9199    0.0001 </r>
       <r>    1.9807    0.0000 </r>
       <r>    2.0292    0.0000 </r>
       <r>    2.0460    0.0000 </r>
       <r>    2.1074    0.0000 </r>
       <r>    2.1125    0.0000 </r>
       <r>    2.1160    0.0000 </r>
       <r>    2.1760    0.0000 </r>
       <r>    2.2031    0.0000 </r>
       <r>    2.2162    0.0000 </r>
       <r>    2.2642    0.0000 </r>
       <r>    2.3018    0.0000 </r>
       <r>    2.3393    0.0000 </r>
       <r>    2.3558    0.0000 </r>
       <r>    2.3738    0.0000 </r>
       <r>    2.4092    0.0000 </r>
       <r>    2.4407    0.0000 </r>
       <r>    2.4582    0.0000 </r>
       <r>    2.5253    0.0000 </r>
       <r>    2.5762    0.0000 </r>
       <r>    2.6452    0.0000 </r>
       <r>    2.8185    0.0000 </r>
       <r>    3.1417    0.0000 </r>
       <r>    3.8339    0.0000 </r>
       <r>    4.1072    0.0000 </r>
       <r>    4.3007    0.0000 </r>
       <r>    4.5714    0.0000 </r>
       <r>    4.6506    0.0000 </r>
       <r>    4.6581    0.0000 </r>
       <r>    4.8354    0.0000 </r>
       <r>    4.9247    0.0000 </r>
       <r>    5.1280    0.0000 </r>
       <r>    5.1611    0.0000 </r>
       <r>    5.2770    0.0000 </r>
       <r>    5.6362    0.0000 </r>
       <r>    5.6564    0.0000 </r>
       <r>    5.6939    0.0000 </r>
       <r>    5.8057    0.0000 </r>
       <r>    5.8508    0.0000 </r>
       <r>    5.9186    0.0000 </r>
       <r>    6.0093    0.0000 </r>
       <r>    6.1952    0.0000 </r>
       <r>    6.2442    0.0000 </r>
       <r>    6.2869    0.0000 </r>
       <r>    6.3395    0.0000 </r>
       <r>    6.3611    0.0000 </r>
       <r>    6.4085    0.0000 </r>
       <r>    6.5006    0.0000 </r>
       <r>    6.6233    0.0000 </r>
       <r>    6.6571    0.0000 </r>
       <r>    6.7085    0.0000 </r>
       <r>    6.7748    0.0000 </r>
       <r>    6.8844    0.0000 </r>
       <r>    6.9069    0.0000 </r>
       <r>    6.9775    0.0000 </r>
       <r>    7.0374    0.0000 </r>
       <r>    7.0793    0.0000 </r>
       <r>    7.0994    0.0000 </r>
       <r>    7.1763    0.0000 </r>
       <r>    7.1961    0.0000 </r>
       <r>    7.2517    0.0000 </r>
       <r>    7.2678    0.0000 </r>
       <r>    7.3009    0.0000 </r>
       <r>    7.3404    0.0000 </r>
       <r>    7.3590    0.0000 </r>
       <r>    7.4402    0.0000 </r>
       <r>    7.4851    0.0000 </r>
       <r>    7.5139    0.0000 </r>
       <r>    7.5901    0.0000 </r>
      </set>
     </set>
    </set>
   </array>
  </eigenvalues>
  <separator name="orbital magnetization" >
   <v name="MAGDIPOLOUT">      0.00000000      0.00000000      0.00000000</v>
  </separator>
  <dos>
   <i name="efermi">      1.40143092 </i>
   <total>
    <array>
     <dimension dim="1">gridpoints</dimension>
     <dimension dim="2">spin</dimension>
     <field>energy</field>
     <field>total</field>
     <field>integrated</field>
     <set>
      <set comment="spin 1">
       <r>   -66.2816     0.0000     0.0000 </r>
       <r>   -66.0236     0.0000     0.0000 </r>
       <r>   -65.7657     0.0000     0.0000 </r>
       <r>   -65.5077     0.0000     0.0000 </r>
       <r>   -65.2497     0.0000     0.0000 </r>
       <r>   -64.9918     0.0000     0.0000 </r>
       <r>   -64.7338     0.0000     0.0000 </r>
       <r>   -64.4758     0.0000     0.0000 </r>
       <r>   -64.2179     0.0000     0.0000 </r>
       <r>   -63.9599     0.0000     0.0000 </r>
       <r>   -63.7019     0.0000     0.0000 </r>
       <r>   -63.4440     0.0000     0.0000 </r>
       <r>   -63.1860     0.1266     0.0327 </r>
       <r>   -62.9280    18.4725     4.7979 </r>
       <r>   -62.6701   196.2725    55.4293 </r>
       <r>   -62.4121   294.4399   131.3843 </r>
       <r>   -62.1542   154.9371   171.3526 </r>
       <r>   -61.8962    57.0412   186.0672 </r>
       <r>   -61.6382    42.1282   196.9348 </r>
       <r>   -61.3803    40.3422   207.3417 </r>
       <r>   -61.1223    27.2811   214.3792 </r>
       <r>   -60.8643     5.9849   215.9231 </r>
       <r>   -60.6064     0.2968   215.9997 </r>
       <r>   -60.3484     0.0011   216.0000 </r>
       <r>   -60.0904     0.0000   216.0000 </r>
       <r>   -59.8325     0.0000   216.0000 </r>
       <r>   -59.5745     0.0000   216.0000 </r>
       <r>   -59.3165     0.0000   216.0000 </r>
       <r>   -59.0586     0.0000   216.0000 </r>
       <r>   -58.8006     0.0000   216.0000 </r>
       <r>   -58.5426     0.0000   216.0000 </r>
       <r>   -58.2847     0.0000   216.0000 </r>
       <r>   -58.0267     0.0000   216.0000 </r>
       <r>   -57.7688     0.0000   216.0000 </r>
       <r>   -57.5108     0.0000   216.0000 </r>
       <r>   -57.2528     0.0000   216.0000 </r>
       <r>   -56.9949     0.0000   216.0000 </r>
       <r>   -56.7369     0.0000   216.0000 </r>
       <r>   -56.4789     0.0000   216.0000 </r>
       <r>   -56.2210     0.0000   216.0000 </r>
       <r>   -55.9630     0.0000   216.0000 </r>
       <r>   -55.7050     0.0000   216.0000 </r>
       <r>   -55.4471     0.0000   216.0000 </r>
       <r>   -55.1891     0.0000   216.0000 </r>
       <r>   -54.9311     0.0000   216.0000 </r>
       <r>   -54.6732     0.0000   216.0000 </r>
       <r>   -54.4152     0.0000   216.0000 </r>
       <r>   -54.1573     0.0000   216.0000 </r>
       <r>   -53.8993     0.0000   216.0000 </r>
       <r>   -53.6413     0.0000   216.0000 </r>
       <r>   -53.3834     0.0000   216.0000 </r>
       <r>   -53.1254     0.0000   216.0000 </r>
       <r>   -52.8674     0.0000   216.0000 </r>
       <r>   -52.6095     0.0000   216.0000 </r>
       <r>   -52.3515     0.0000   216.0000 </r>
       <r>   -52.0935     0.0000   216.0000 </r>
       <r>   -51.8356     0.0000   216.0000 </r>
       <r>   -51.5776     0.0000   216.0000 </r>
       <r>   -51.3196     0.0000   216.0000 </r>
       <r>   -51.0617     0.0000   216.0000 </r>
       <r>   -50.8037     0.0000   216.0000 </r>
       <r>   -50.5457     0.0000   216.0000 </r>
       <r>   -50.2878     0.0000   216.0000 </r>
       <r>   -50.0298     0.0000   216.0000 </r>
       <r>   -49.7719     0.0000   216.0000 </r>
       <r>   -49.5139     0.0000   216.0000 </r>
       <r>   -49.2559     0.0000   216.0000 </r>
       <r>   -48.9980     0.0000   216.0000 </r>
       <r>   -48.7400     0.0000   216.0000 </r>
       <r>   -48.4820     0.0000   216.0000 </r>
       <r>   -48.2241     0.0000   216.0000 </r>
       <r>   -47.9661     0.0000   216.0000 </r>
       <r>   -47.7081     0.0000   216.0000 </r>
       <r>   -47.4502     0.0000   216.0000 </r>
       <r>   -47.1922     0.0000   216.0000 </r>
       <r>   -46.9342     0.0000   216.0000 </r>
       <r>   -46.6763     0.0000   216.0000 </r>
       <r>   -46.4183     0.0000   216.0000 </r>
       <r>   -46.1603     0.0000   216.0000 </r>
       <r>   -45.9024     0.0000   216.0000 </r>
       <r>   -45.6444     0.0000   216.0000 </r>
       <r>   -45.3865     0.0000   216.0000 </r>
       <r>   -45.1285     0.0000   216.0000 </r>
       <r>   -44.8705     0.0000   216.0000 </r>
       <r>   -44.6126     0.0000   216.0000 </r>
       <r>   -44.3546     0.0000   216.0000 </r>
       <r>   -44.0966     0.0000   216.0000 </r>
       <r>   -43.8387     0.0000   216.0000 </r>
       <r>   -43.5807     0.0000   216.0000 </r>
       <r>   -43.3227     0.0000   216.0000 </r>
       <r>   -43.0648     0.0000   216.0000 </r>
       <r>   -42.8068     0.0000   216.0000 </r>
       <r>   -42.5488     0.0000   216.0000 </r>
       <r>   -42.2909     0.0000   216.0000 </r>
       <r>   -42.0329     0.0000   216.0000 </r>
       <r>   -41.7750     0.0000   216.0000 </r>
       <r>   -41.5170     0.0000   216.0000 </r>
       <r>   -41.2590     0.0000   216.0000 </r>
       <r>   -41.0011     0.0000   216.0000 </r>
       <r>   -40.7431     0.0000   216.0000 </r>
       <r>   -40.4851     0.0000   216.0000 </r>
       <r>   -40.2272     0.0000   216.0000 </r>
       <r>   -39.9692     0.0000   216.0000 </r>
       <r>   -39.7112     0.0000   216.0000 </r>
       <r>   -39.4533     0.0000   216.0000 </r>
       <r>   -39.1953     0.0000   216.0000 </r>
       <r>   -38.9373     0.0000   216.0000 </r>
       <r>   -38.6794     0.0000   216.0000 </r>
       <r>   -38.4214     0.0000   216.0000 </r>
       <r>   -38.1634     0.0000   216.0000 </r>
       <r>   -37.9055     0.0000   216.0000 </r>
       <r>   -37.6475     0.0000   216.0000 </r>
       <r>   -37.3896     0.0000   216.0000 </r>
       <r>   -37.1316     0.0000   216.0000 </r>
       <r>   -36.8736     0.0000   216.0000 </r>
       <r>   -36.6157     0.0000   216.0000 </r>
       <r>   -36.3577     0.0000   216.0000 </r>
       <r>   -36.0997     0.0000   216.0000 </r>
       <r>   -35.8418     0.0000   216.0000 </r>
       <r>   -35.5838     0.0000   216.0000 </r>
       <r>   -35.3258     0.0000   216.0000 </r>
       <r>   -35.0679     0.0000   216.0000 </r>
       <r>   -34.8099     0.0000   216.0000 </r>
       <r>   -34.5519     0.0000   216.0000 </r>
       <r>   -34.2940     0.0000   216.0000 </r>
       <r>   -34.0360     0.0000   216.0000 </r>
       <r>   -33.7780     0.0000   216.0000 </r>
       <r>   -33.5201     0.0000   216.0000 </r>
       <r>   -33.2621     0.0000   216.0000 </r>
       <r>   -33.0042     0.0000   216.0000 </r>
       <r>   -32.7462     0.0000   216.0000 </r>
       <r>   -32.4882     0.0000   216.0000 </r>
       <r>   -32.2303     0.0000   216.0000 </r>
       <r>   -31.9723     0.0000   216.0000 </r>
       <r>   -31.7143     0.0000   216.0000 </r>
       <r>   -31.4564     0.0000   216.0000 </r>
       <r>   -31.1984     0.0000   216.0000 </r>
       <r>   -30.9404     0.0000   216.0000 </r>
       <r>   -30.6825     0.0000   216.0000 </r>
       <r>   -30.4245     0.0000   216.0000 </r>
       <r>   -30.1665     0.0000   216.0000 </r>
       <r>   -29.9086     0.0000   216.0000 </r>
       <r>   -29.6506     0.0000   216.0000 </r>
       <r>   -29.3927     0.0000   216.0000 </r>
       <r>   -29.1347     0.0000   216.0000 </r>
       <r>   -28.8767     0.0000   216.0000 </r>
       <r>   -28.6188     0.0000   216.0000 </r>
       <r>   -28.3608     0.0000   216.0000 </r>
       <r>   -28.1028     0.0000   216.0000 </r>
       <r>   -27.8449     0.0000   216.0000 </r>
       <r>   -27.5869     0.0000   216.0000 </r>
       <r>   -27.3289     0.0000   216.0000 </r>
       <r>   -27.0710     0.0000   216.0000 </r>
       <r>   -26.8130     0.0000   216.0000 </r>
       <r>   -26.5550     0.0000   216.0000 </r>
       <r>   -26.2971     0.0000   216.0000 </r>
       <r>   -26.0391     0.0000   216.0000 </r>
       <r>   -25.7811     0.0000   216.0000 </r>
       <r>   -25.5232     0.0000   216.0000 </r>
       <r>   -25.2652     0.0000   216.0000 </r>
       <r>   -25.0073     0.0000   216.0000 </r>
       <r>   -24.7493     0.0000   216.0000 </r>
       <r>   -24.4913     0.0000   216.0000 </r>
       <r>   -24.2334     0.0000   216.0000 </r>
       <r>   -23.9754     0.0000   216.0000 </r>
       <r>   -23.7174     0.0000   216.0000 </r>
       <r>   -23.4595     0.0000   216.0000 </r>
       <r>   -23.2015     0.0000   216.0000 </r>
       <r>   -22.9435     0.0000   216.0000 </r>
       <r>   -22.6856     0.0000   216.0000 </r>
       <r>   -22.4276     0.0000   216.0000 </r>
       <r>   -22.1696     0.0000   216.0000 </r>
       <r>   -21.9117     0.0000   216.0000 </r>
       <r>   -21.6537     0.0000   216.0000 </r>
       <r>   -21.3957     0.0000   216.0000 </r>
       <r>   -21.1378     0.0000   216.0000 </r>
       <r>   -20.8798     0.0000   216.0000 </r>
       <r>   -20.6219     0.0000   216.0000 </r>
       <r>   -20.3639     0.0000   216.0000 </r>
       <r>   -20.1059     0.0000   216.0000 </r>
       <r>   -19.8480     0.0000   216.0000 </r>
       <r>   -19.5900     0.0000   216.0000 </r>
       <r>   -19.3320     0.0000   216.0000 </r>
       <r>   -19.0741     0.0000   216.0000 </r>
       <r>   -18.8161     0.0000   216.0000 </r>
       <r>   -18.5581     0.0000   216.0000 </r>
       <r>   -18.3002     0.0000   216.0000 </r>
       <r>   -18.0422     0.0000   216.0000 </r>
       <r>   -17.7842     0.0000   216.0000 </r>
       <r>   -17.5263     0.0000   216.0000 </r>
       <r>   -17.2683     0.0000   216.0000 </r>
       <r>   -17.0104     0.0000   216.0000 </r>
       <r>   -16.7524     0.0000   216.0000 </r>
       <r>   -16.4944     0.0000   216.0000 </r>
       <r>   -16.2365     0.0000   216.0000 </r>
       <r>   -15.9785     0.0000   216.0000 </r>
       <r>   -15.7205     0.0000   216.0000 </r>
       <r>   -15.4626     0.0000   216.0000 </r>
       <r>   -15.2046     0.0000   216.0000 </r>
       <r>   -14.9466     0.0000   216.0000 </r>
       <r>   -14.6887     0.0001   216.0000 </r>
       <r>   -14.4307     0.0464   216.0120 </r>
       <r>   -14.1727     1.8571   216.4911 </r>
       <r>   -13.9148     4.8582   217.7443 </r>
       <r>   -13.6568     1.3834   218.1012 </r>
       <r>   -13.3988     6.4400   219.7625 </r>
       <r>   -13.1409    18.1307   224.4395 </r>
       <r>   -12.8829    20.3796   229.6967 </r>
       <r>   -12.6250    29.7995   237.3840 </r>
       <r>   -12.3670    27.5502   244.4910 </r>
       <r>   -12.1090    35.2828   253.5927 </r>
       <r>   -11.8511    37.1002   263.1632 </r>
       <r>   -11.5931    28.8357   270.6018 </r>
       <r>   -11.3351    18.2645   275.3134 </r>
       <r>   -11.0772    13.3191   278.7492 </r>
       <r>   -10.8192    13.4879   282.2287 </r>
       <r>   -10.5612     8.7974   284.4981 </r>
       <r>   -10.3033     6.3699   286.1413 </r>
       <r>   -10.0453     5.6990   287.6114 </r>
       <r>    -9.7873     1.4785   287.9928 </r>
       <r>    -9.5294     0.0277   288.0000 </r>
       <r>    -9.2714     0.0000   288.0000 </r>
       <r>    -9.0134     0.0000   288.0000 </r>
       <r>    -8.7555     0.0000   288.0000 </r>
       <r>    -8.4975     0.0000   288.0000 </r>
       <r>    -8.2396     0.0000   288.0000 </r>
       <r>    -7.9816     0.0000   288.0000 </r>
       <r>    -7.7236     0.0000   288.0000 </r>
       <r>    -7.4657     0.0000   288.0000 </r>
       <r>    -7.2077     0.0000   288.0000 </r>
       <r>    -6.9497     0.0000   288.0000 </r>
       <r>    -6.6918     0.0000   288.0000 </r>
       <r>    -6.4338     0.0001   288.0000 </r>
       <r>    -6.1758     0.0665   288.0172 </r>
       <r>    -5.9179     3.7072   288.9735 </r>
       <r>    -5.6599    15.8580   293.0643 </r>
       <r>    -5.4019    17.5931   297.6027 </r>
       <r>    -5.1440    28.4578   304.9438 </r>
       <r>    -4.8860    44.3766   316.3914 </r>
       <r>    -4.6281    52.8420   330.0227 </r>
       <r>    -4.3701    45.9433   341.8745 </r>
       <r>    -4.1121    33.6814   350.5631 </r>
       <r>    -3.8542    38.6681   360.5381 </r>
       <r>    -3.5962    39.4837   370.7235 </r>
       <r>    -3.3382    42.8860   381.7865 </r>
       <r>    -3.0803    62.4225   397.8893 </r>
       <r>    -2.8223    73.5346   416.8586 </r>
       <r>    -2.5643    77.3574   436.8141 </r>
       <r>    -2.3064    72.2451   455.4508 </r>
       <r>    -2.0484    50.9724   468.5999 </r>
       <r>    -1.7904    44.4729   480.0723 </r>
       <r>    -1.5325    44.8182   491.6338 </r>
       <r>    -1.2745    56.7276   506.2675 </r>
       <r>    -1.0165    74.9934   525.6132 </r>
       <r>    -0.7586    97.6996   550.8162 </r>
       <r>    -0.5006   120.4798   581.8957 </r>
       <r>    -0.2427   167.7237   625.1625 </r>
       <r>     0.0153   173.5292   669.9269 </r>
       <r>     0.2733   130.3798   703.5602 </r>
       <r>     0.5312    98.1967   728.8915 </r>
       <r>     0.7892    95.2986   753.4752 </r>
       <r>     1.0472    76.6279   773.2425 </r>
       <r>     1.3051    54.3213   787.2554 </r>
       <r>     1.5631    52.3841   800.7687 </r>
       <r>     1.8211    59.6972   816.1684 </r>
       <r>     2.0790    58.7733   831.3299 </r>
       <r>     2.3370    63.1405   847.6179 </r>
       <r>     2.5950    48.6424   860.1659 </r>
       <r>     2.8529    18.7719   865.0084 </r>
       <r>     3.1109     6.8976   866.7877 </r>
       <r>     3.3689     4.2835   867.8927 </r>
       <r>     3.6268     0.9713   868.1433 </r>
       <r>     3.8848     4.8729   869.4003 </r>
       <r>     4.1427     7.8940   871.4367 </r>
       <r>     4.4007     9.3874   873.8583 </r>
       <r>     4.6587    15.1760   877.7731 </r>
       <r>     4.9166    18.2315   882.4762 </r>
       <r>     5.1746    16.4167   886.7112 </r>
       <r>     5.4326    12.6807   889.9823 </r>
       <r>     5.6905    16.6266   894.2714 </r>
       <r>     5.9485    26.2343   901.0389 </r>
       <r>     6.2065    23.1735   907.0169 </r>
       <r>     6.4644    32.6068   915.4283 </r>
       <r>     6.7224    29.5863   923.0605 </r>
       <r>     6.9804    33.4294   931.6841 </r>
       <r>     7.2383    45.0805   943.3132 </r>
       <r>     7.4963    44.3452   954.7527 </r>
       <r>     7.7542    18.6761   959.5705 </r>
       <r>     8.0122     1.6513   959.9965 </r>
       <r>     8.2702     0.0136   960.0000 </r>
       <r>     8.5281     0.0000   960.0000 </r>
       <r>     8.7861     0.0000   960.0000 </r>
       <r>     9.0441     0.0000   960.0000 </r>
       <r>     9.3020     0.0000   960.0000 </r>
       <r>     9.5600     0.0000   960.0000 </r>
       <r>     9.8180     0.0000   960.0000 </r>
       <r>    10.0759     0.0000   960.0000 </r>
       <r>    10.3339     0.0000   960.0000 </r>
       <r>    10.5919     0.0000   960.0000 </r>
       <r>    10.8498     0.0000   960.0000 </r>
       <r>    11.1078     0.0000   960.0000 </r>
      </set>
     </set>
    </array>
   </total>
  </dos>
 </calculation>
 <structure name="finalpos" >
  <crystal>
   <varray name="basis" >
    <v>       9.42510255       3.57329804       0.00000000 </v>
    <v>       0.00000000      10.07973298       0.00000000 </v>
    <v>       0.00000000       0.00000000      20.51013988 </v>
   </varray>
   <i name="volume">   1948.51491473 </i>
   <varray name="rec_basis" >
    <v>       0.10609964       0.00000000       0.00000000 </v>
    <v>      -0.03761267       0.09920898       0.00000000 </v>
    <v>       0.00000000       0.00000000       0.04875637 </v>
   </varray>
  </crystal>
  <varray name="positions" >
   <v>       0.37433215       0.75136220       0.09511235 </v>
   <v>       0.52460066       0.60109368       0.22312232 </v>
   <v>       0.67486918       0.45082517       0.35113229 </v>
   <v>       0.82513769       0.30055666       0.47914226 </v>
   <v>       0.60748648       0.18487454       0.00977237 </v>
   <v>       0.75775499       0.03460603       0.13778234 </v>
   <v>       0.05829201       0.73406900       0.39380228 </v>
   <v>       0.90802350       0.88433751       0.26579231 </v>
   <v>       0.14117783       0.31784985       0.18045233 </v>
   <v>       0.29144634       0.16758134       0.30846230 </v>
   <v>       0.44171485       0.01731283       0.43647227 </v>
   <v>       0.99090931       0.46811837       0.05244236 </v>
   <v>       0.00994000       0.11575434       0.41150025 </v>
   <v>       0.55913447       0.56655988       0.02747034 </v>
   <v>       0.70940298       0.41629137       0.15548031 </v>
   <v>       0.85967149       0.26602286       0.28349028 </v>
   <v>       0.09282582       0.69953520       0.19815030 </v>
   <v>       0.24309433       0.54926668       0.32616027 </v>
   <v>       0.39336284       0.39899817       0.45417024 </v>
   <v>       0.94255730       0.84980371       0.07014033 </v>
   <v>       0.32598014       0.13304754       0.11281032 </v>
   <v>       0.47624865       0.98277903       0.24082029 </v>
   <v>       0.62651717       0.83251052       0.36883026 </v>
   <v>       0.77678568       0.68224200       0.49684023 </v>
   <v>       0.04964185       0.34025850       0.44532126 </v>
   <v>       0.59883631       0.79106404       0.06129134 </v>
   <v>       0.74910482       0.64079553       0.18930132 </v>
   <v>       0.89937333       0.49052701       0.31731129 </v>
   <v>       0.98225915       0.07430787       0.10396133 </v>
   <v>       0.13252766       0.92403935       0.23197131 </v>
   <v>       0.28279617       0.77377084       0.35998128 </v>
   <v>       0.43306468       0.62350233       0.48799125 </v>
   <v>       0.21541347       0.50782021       0.01862135 </v>
   <v>       0.36568198       0.35755170       0.14663132 </v>
   <v>       0.51595050       0.20728318       0.27464130 </v>
   <v>       0.66621901       0.05701467       0.40265127 </v>
   <v>       0.06382158       0.26208477       0.34135992 </v>
   <v>       0.21409009       0.11181626       0.46936989 </v>
   <v>       0.76328455       0.56262179       0.08533998 </v>
   <v>       0.91355307       0.41235328       0.21334995 </v>
   <v>       0.14670739       0.84586562       0.12800997 </v>
   <v>       0.29697590       0.69559711       0.25601994 </v>
   <v>       0.44724442       0.54532860       0.38402991 </v>
   <v>       0.59751293       0.39506009       0.51203988 </v>
   <v>       0.99643888       0.99613414       0.00000000 </v>
   <v>       0.37986171       0.27937797       0.04266999 </v>
   <v>       0.53013023       0.12910945       0.17067996 </v>
   <v>       0.68039874       0.97884094       0.29868993 </v>
   <v>       0.83066725       0.82857243       0.42669990 </v>
   <v>       0.37769571       0.94821064       0.04346280 </v>
   <v>       0.52796422       0.79794212       0.17147277 </v>
   <v>       0.67823274       0.64767361       0.29948274 </v>
   <v>       0.82850125       0.49740510       0.42749271 </v>
   <v>       0.76111855       0.23145446       0.08613279 </v>
   <v>       0.91138706       0.08118595       0.21414276 </v>
   <v>       0.06165557       0.93091744       0.34215273 </v>
   <v>       0.21192409       0.78064893       0.47016270 </v>
   <v>       0.14454139       0.51469829       0.12880278 </v>
   <v>       0.29480990       0.36442978       0.25681275 </v>
   <v>       0.44507841       0.21416127       0.38482272 </v>
   <v>       0.47740939       0.51206696       0.12840637 </v>
   <v>       0.62767790       0.36179845       0.25641634 </v>
   <v>       0.77794641       0.21152993       0.38442631 </v>
   <v>       0.92821492       0.06126142       0.51243628 </v>
   <v>       0.01110074       0.64504228       0.29908633 </v>
   <v>       0.16136925       0.49477376       0.42709630 </v>
   <v>       0.71056371       0.94557930       0.04306639 </v>
   <v>       0.86083223       0.79531079       0.17107636 </v>
   <v>       0.09398655       0.22882313       0.08573638 </v>
   <v>       0.24425506       0.07855462       0.21374635 </v>
   <v>       0.39452358       0.92828610       0.34175632 </v>
   <v>       0.54479209       0.77801759       0.46976629 </v>
  </varray>
 </structure>
</modeling>
