       N       E                     dE             d eps       ncg     rms          rms(c)
DAV:   1     0.699471913132E+04    0.69947E+04   -0.37867E+05   880   0.159E+03
DAV:   2     0.408411625452E+03   -0.65863E+04   -0.63609E+04   760   0.508E+02
DAV:   3    -0.257732245766E+03   -0.66614E+03   -0.63107E+03   840   0.170E+02
DAV:   4    -0.298769455914E+03   -0.41037E+02   -0.40568E+02   888   0.375E+01
DAV:   5    -0.299903067714E+03   -0.11336E+01   -0.11319E+01   880   0.663E+00    0.702E+01
DAV:   6    -0.368858365530E+03   -0.68955E+02   -0.73503E+02   880   0.117E+02    0.137E+02
DAV:   7    -0.277117683086E+03    0.91741E+02   -0.13239E+02   856   0.616E+01    0.547E+01
DAV:   8    -0.312458714944E+03   -0.35341E+02   -0.12987E+02  1008   0.751E+01    0.122E+02
DAV:   9    -0.274790226096E+03    0.37668E+02   -0.83679E+01   904   0.466E+01    0.443E+01
DAV:  10    -0.289313439979E+03   -0.14523E+02   -0.34200E+01  1080   0.475E+01    0.114E+02
DAV:  11    -0.274424825727E+03    0.14889E+02   -0.44598E+01   984   0.231E+01    0.480E+01
DAV:  12    -0.270305599165E+03    0.41192E+01   -0.27401E+01  1008   0.302E+01    0.336E+01
DAV:  13    -0.266994130068E+03    0.33115E+01   -0.10060E+01   896   0.227E+01    0.244E+01
DAV:  14    -0.265828056846E+03    0.11661E+01   -0.41488E+00   912   0.144E+01    0.215E+01
DAV:  15    -0.264596679150E+03    0.12314E+01   -0.16827E+00   920   0.943E+00    0.169E+01
DAV:  16    -0.264193929034E+03    0.40275E+00   -0.97154E-01   992   0.735E+00    0.164E+01
DAV:  17    -0.263450040153E+03    0.74389E+00   -0.66434E-01   968   0.676E+00    0.131E+01
DAV:  18    -0.262903691646E+03    0.54635E+00   -0.47410E-01   984   0.524E+00    0.103E+01
DAV:  19    -0.262666344440E+03    0.23735E+00   -0.27820E-01   984   0.350E+00    0.819E+00
DAV:  20    -0.262567414572E+03    0.98930E-01   -0.13059E-01   960   0.238E+00    0.714E+00
DAV:  21    -0.262458793870E+03    0.10862E+00   -0.95117E-02   944   0.217E+00    0.575E+00
DAV:  22    -0.262418660232E+03    0.40134E-01   -0.17711E-01   992   0.238E+00    0.516E+00
DAV:  23    -0.262351027250E+03    0.67633E-01   -0.13943E-01  1000   0.279E+00    0.328E+00
DAV:  24    -0.262317503140E+03    0.33524E-01   -0.11124E-01  1008   0.194E+00    0.221E+00
DAV:  25    -0.262310766880E+03    0.67363E-02   -0.60943E-02   992   0.136E+00    0.198E+00
DAV:  26    -0.262312892387E+03   -0.21255E-02   -0.41905E-02   960   0.119E+00    0.200E+00
DAV:  27    -0.262305504209E+03    0.73882E-02   -0.25846E-02  1000   0.102E+00    0.129E+00
DAV:  28    -0.262305201860E+03    0.30235E-03   -0.22034E-02   968   0.105E+00    0.133E+00
DAV:  29    -0.262303248850E+03    0.19530E-02   -0.21565E-02  1032   0.761E-01    0.960E-01
DAV:  30    -0.262301444121E+03    0.18047E-02   -0.66829E-03   952   0.568E-01    0.730E-01
DAV:  31    -0.262301429857E+03    0.14264E-04   -0.30906E-03   920   0.420E-01    0.663E-01
DAV:  32    -0.262300464645E+03    0.96521E-03   -0.20495E-03   904   0.382E-01    0.393E-01
DAV:  33    -0.262300584057E+03   -0.11941E-03   -0.10640E-03   800   0.225E-01    0.258E-01
DAV:  34    -0.262300597270E+03   -0.13212E-04   -0.66019E-04   744   0.206E-01
   1 F= -.26230060E+03 E0= -.26188672E+03  d E =-.827751E+00
