"Millerite NiS"                         
           1
     8.295146   -4.789205    0.000000
     0.000000    9.578410    0.000000
     0.000000    0.000000   18.970897
   Ni   S 
    27    27
Direct configuration=     1
   0.45843243  0.54156757  0.05515958
   0.45843243  0.54156757  0.22063832
   0.45843243  0.54156757  0.38611705
   0.12509910  0.87490090  0.11031916
   0.12509910  0.87490090  0.27579789
   0.12509910  0.87490090  0.44127663
   0.79176577  0.20823423  0.00000000
   0.79176577  0.20823423  0.16547874
   0.79176577  0.20823423  0.33095747
   0.45843243  0.27736157  0.05515958
   0.45843243  0.27736157  0.22063832
   0.45843243  0.27736157  0.38611705
   0.12509910  0.61069490  0.11031916
   0.12509910  0.61069490  0.27579789
   0.12509910  0.61069490  0.44127663
   0.79176577  0.94402823  0.00000000
   0.79176577  0.94402823  0.16547874
   0.79176577  0.94402823  0.33095747
   0.72263843  0.54156757  0.05515958
   0.72263843  0.54156757  0.22063832
   0.72263843  0.54156757  0.38611705
   0.38930510  0.87490090  0.11031916
   0.38930510  0.87490090  0.27579789
   0.38930510  0.87490090  0.44127663
   0.05597177  0.20823423  0.00000000
   0.05597177  0.20823423  0.16547874
   0.05597177  0.20823423  0.33095747
   0.65864443  0.34135557  0.14191931
   0.65864443  0.34135557  0.30739805
   0.65864443  0.34135557  0.47287678
   0.32531110  0.67468890  0.03160015
   0.32531110  0.67468890  0.19707889
   0.32531110  0.67468890  0.36255763
   0.99197777  0.00802223  0.08675973
   0.99197777  0.00802223  0.25223847
   0.99197777  0.00802223  0.41771720
   0.65864443  0.67778557  0.14191931
   0.65864443  0.67778557  0.30739805
   0.65864443  0.67778557  0.47287678
   0.32531110  0.01111890  0.03160015
   0.32531110  0.01111890  0.19707889
   0.32531110  0.01111890  0.36255763
   0.99197777  0.34445223  0.08675973
   0.99197777  0.34445223  0.25223847
   0.99197777  0.34445223  0.41771720
   0.32221443  0.34135557  0.14191931
   0.32221443  0.34135557  0.30739805
   0.32221443  0.34135557  0.47287678
   0.98888110  0.67468890  0.03160015
   0.98888110  0.67468890  0.19707889
   0.98888110  0.67468890  0.36255763
   0.65554777  0.00802223  0.08675973
   0.65554777  0.00802223  0.25223847
   0.65554777  0.00802223  0.41771720
