 vasp.5.4.4.18Apr17-6-g9f103f2a35 (build Aug 13 2019 17:33:20) gamma-only       
  
 executed on             LinuxIFC date 2020.05.11  20:45:58
 running on   12 total cores
 distrk:  each k-point on   12 cores,    1 groups
 distr:  one band on NCORES_PER_BAND=   6 cores,    2 groups


--------------------------------------------------------------------------------------------------------


 INCAR:
 POTCAR:    PAW_PBE Ni_pv 06Sep2000               
 POTCAR:    PAW_PBE S 06Sep2000                   
 POTCAR:    PAW_PBE Ni_pv 06Sep2000               
   VRHFIN =Ni:                                                                  
   LEXCH  = PE                                                                  
   EATOM  =  3501.1230 eV,  257.3253 Ry                                         
                                                                                
   TITEL  = PAW_PBE Ni_pv 06Sep2000                                             
   LULTRA =        F    use ultrasoft PP ?                                      
   IUNSCR =        1    unscreen: 0-lin 1-nonlin 2-no                           
   RPACOR =    1.500    partial core radius                                     
   POMASS =   58.690; ZVAL   =   16.000    mass and valenz                      
   RCORE  =    2.000    outmost cutoff radius                                   
   RWIGS  =    2.000; RWIGS  =    1.058    wigner-seitz radius (au A)           
   ENMAX  =  367.986; ENMIN  =  275.989 eV                                      
   RCLOC  =    1.301    cutoff for local pot                                    
   LCOR   =        T    correct aug charges                                     
   LPAW   =        T    paw PP                                                  
   EAUG   =  703.443                                                            
   DEXC   =    0.000                                                            
   RMAX   =    2.041    core radius for proj-oper                               
   RAUG   =    1.300    factor for augmentation sphere                          
   RDEP   =    2.103    radius for radial grids                                 
   RDEPT  =    1.618    core radius for aug-charge                              
                                                                                
   Atomic configuration                                                         
    8 entries                                                                   
     n  l   j            E        occ.                                          
     1  0  0.50     -8206.4253   2.0000                                         
     2  0  0.50      -976.1748   2.0000                                         
     2  1  1.50      -839.0571   6.0000                                         
     3  0  0.50      -105.9991   2.0000                                         
     3  1  1.50       -66.4603   6.0000                                         
     3  2  2.50        -4.6458   9.0000                                         
     4  0  0.50        -4.4926   1.0000                                         
     4  3  2.50        -1.3606   0.0000                                         
   Description                                                                  
     l       E           TYP  RCUT    TYP  RCUT                                 
     1    -66.4602962     23  1.700                                             
     1     -1.3605826     23  1.700                                             
     2     -4.6457867     23  2.000                                             
     2     -6.0063693     23  2.000                                             
     0     -4.4925576     23  1.900                                             
     0     16.3626226     23  1.900                                             
  local pseudopotential read in
  partial core-charges read in
  partial kinetic energy density read in
  atomic valenz-charges read in
  non local Contribution for L=           1  read in
    real space projection operators read in
  non local Contribution for L=           1  read in
    real space projection operators read in
  non local Contribution for L=           2  read in
    real space projection operators read in
  non local Contribution for L=           2  read in
    real space projection operators read in
  non local Contribution for L=           0  read in
    real space projection operators read in
  non local Contribution for L=           0  read in
    real space projection operators read in
    PAW grid and wavefunctions read in
 
   number of l-projection  operators is LMAX  =           6
   number of lm-projection operators is LMMAX =          18
 
 POTCAR:    PAW_PBE S 06Sep2000                   
   VRHFIN =S : s2p4                                                             
   LEXCH  = PE                                                                  
   EATOM  =   276.8230 eV,   20.3459 Ry                                         
                                                                                
   TITEL  = PAW_PBE S 06Sep2000                                                 
   LULTRA =        F    use ultrasoft PP ?                                      
   IUNSCR =        1    unscreen: 0-lin 1-nonlin 2-no                           
   RPACOR =    1.500    partial core radius                                     
   POMASS =   32.066; ZVAL   =    6.000    mass and valenz                      
   RCORE  =    1.900    outmost cutoff radius                                   
   RWIGS  =    2.200; RWIGS  =    1.164    wigner-seitz radius (au A)           
   ENMAX  =  258.689; ENMIN  =  194.016 eV                                      
   ICORE  =        2    local potential                                         
   LCOR   =        T    correct aug charges                                     
   LPAW   =        T    paw PP                                                  
   EAUG   =  335.092                                                            
   DEXC   =    0.000                                                            
   RMAX   =    1.942    core radius for proj-oper                               
   RAUG   =    1.300    factor for augmentation sphere                          
   RDEP   =    1.954    radius for radial grids                                 
   RDEPT  =    1.744    core radius for aug-charge                              
                                                                                
   Atomic configuration                                                         
    6 entries                                                                   
     n  l   j            E        occ.                                          
     1  0  0.50     -2405.8406   2.0000                                         
     2  0  0.50      -211.7007   2.0000                                         
     2  1  1.50      -156.4958   6.0000                                         
     3  0  0.50       -17.2562   2.0000                                         
     3  1  0.50        -7.0085   4.0000                                         
     3  2  1.50        -6.8029   0.0000                                         
   Description                                                                  
     l       E           TYP  RCUT    TYP  RCUT                                 
     0    -17.2561641     23  1.900                                             
     0    -15.8743224     23  1.900                                             
     1     -7.0085400     23  1.900                                             
     1     -2.7779785     23  1.900                                             
     2     -6.8029130     23  1.900                                             
  local pseudopotential read in
  partial core-charges read in
  partial kinetic energy density read in
  atomic valenz-charges read in
  non local Contribution for L=           0  read in
    real space projection operators read in
  non local Contribution for L=           0  read in
    real space projection operators read in
  non local Contribution for L=           1  read in
    real space projection operators read in
  non local Contribution for L=           1  read in
    real space projection operators read in
    PAW grid and wavefunctions read in
 
   number of l-projection  operators is LMAX  =           4
   number of lm-projection operators is LMMAX =           8
 
 Optimization of the real space projectors (new method)

 maximal supplied QI-value         = 18.90
 optimisation between [QCUT,QGAM] = [ 10.77, 21.73] = [ 32.49,132.25] Ry 
 Optimized for a Real-space Cutoff    1.38 Angstroem

   l    n(q)    QCUT    max X(q) W(low)/X(q) W(high)/X(q)  e(spline) 
   1      8    10.771     2.836    0.40E-04    0.29E-04    0.12E-06
   1      8    10.771     4.023    0.10E-03    0.48E-04    0.29E-06
   2      8    10.771    73.368    0.42E-03    0.97E-04    0.44E-06
   2      8    10.771    69.010    0.42E-03    0.99E-04    0.45E-06
   0      9    10.771    54.797    0.10E-03    0.56E-04    0.74E-07
   0      9    10.771    24.266    0.89E-04    0.49E-04    0.67E-07
 Optimization of the real space projectors (new method)

 maximal supplied QI-value         = 19.84
 optimisation between [QCUT,QGAM] = [ 10.71, 21.63] = [ 32.15,130.99] Ry 
 Optimized for a Real-space Cutoff    1.19 Angstroem

   l    n(q)    QCUT    max X(q) W(low)/X(q) W(high)/X(q)  e(spline) 
   0      8    10.715   187.594    0.41E-03    0.53E-04    0.66E-07
   0      8    10.715   164.243    0.41E-03    0.53E-04    0.65E-07
   1      7    10.715    67.533    0.19E-03    0.59E-03    0.68E-07
   1      7    10.715    50.729    0.19E-03    0.58E-03    0.67E-07
  PAW_PBE Ni_pv 06Sep2000               :
 energy of atom  1       EATOM=-3501.1230
 kinetic energy error for atom=    0.0925 (will be added to EATOM!!)
  PAW_PBE S 06Sep2000                   :
 energy of atom  2       EATOM= -276.8230
 kinetic energy error for atom=    0.0033 (will be added to EATOM!!)
 
 
 POSCAR: Type_036 Type_136                       
  positions in cartesian coordinates
  No initial velocities read in
 exchange correlation table for  LEXCH =        8
   RHO(1)=    0.500       N(1)  =     2000
   RHO(2)=  100.500       N(2)  =     4000
 


--------------------------------------------------------------------------------------------------------


 ion  position               nearest neighbor table
   1  0.780  0.145  0.121-  63 2.07  49 2.07  41 2.25  50 2.36  64 2.36
   2  0.797  0.145  0.285-  50 2.04  64 2.04  42 2.05
   3  0.224  0.645  0.095-  43 2.01  44 2.18  61 2.22  51 2.22   4 2.32
   4  0.297  0.645  0.216-  52 2.13  62 2.13  44 2.25  51 2.26  61 2.26   3 2.32  27 2.53  14 2.53

   5  0.396  0.145  0.125-  45 2.03  46 2.20  67 2.24  53 2.24   6 2.35
   6  0.470  0.145  0.248-  54 2.09  68 2.09  46 2.25  53 2.26  67 2.26   5 2.35  30 2.53  17 2.53

   7  0.952  0.645  0.152-  66 2.11  56 2.11  55 2.17  65 2.17  47 2.25  31 2.53  18 2.53
   8  0.125  0.145  0.184-  57 2.09  71 2.09  38 2.25   9 2.32  58 2.36  72 2.36  33 2.53  20 2.53

   9  0.102  0.145  0.326-  37 2.01  72 2.16  58 2.16   8 2.32
  10  0.642  0.645  0.280-  60 2.01  70 2.01  40 2.25  59 2.30  69 2.30  36 2.53  23 2.53
  11  0.922  0.934  0.131-  56 2.04  63 2.10  64 2.11  55 2.17  12 2.47  38 2.48
  12  0.946  0.016  0.274-  37 2.05  38 2.08  55 2.15  64 2.23  11 2.47  25 2.48
  13  0.402  0.518  0.042-  61 2.02  39 2.02  26 2.43  14 2.44
  14  0.425  0.513  0.191-  39 2.14  62 2.15  53 2.25  61 2.26  40 2.36  13 2.44  15 2.46  27 2.53
                             4 2.53
  15  0.464  0.472  0.335-  54 2.01  62 2.05  40 2.05  14 2.46
  16  0.566  0.019  0.065-  67 1.99  41 2.02  29 2.42
  17  0.597  0.013  0.223-  68 2.07  42 2.10  59 2.21  67 2.26  41 2.26   6 2.53  30 2.53
  18  0.080  0.513  0.127-  43 2.08  66 2.09  57 2.11  65 2.22  44 2.36  19 2.43   7 2.53  31 2.53

  19  0.103  0.487  0.275-  58 2.05  65 2.07  44 2.08  18 2.43
  20  0.252  0.013  0.159-  45 2.06  71 2.09  51 2.25  46 2.36  72 2.36   8 2.53  33 2.53
  21  0.291  0.980  0.310-  46 2.04  52 2.04  72 2.05
  22  0.774  0.432  0.118-  49 2.02  50 2.14  69 2.17  47 2.25  23 2.34
  23  0.770  0.513  0.254-  48 2.03  70 2.04  69 2.09  50 2.25  47 2.26  22 2.34  10 2.53  36 2.53

  24  0.922  0.356  0.131-  66 2.04  49 2.10  50 2.11  65 2.17  25 2.47  38 2.48
  25  0.946  0.275  0.274-  37 2.05  38 2.08  65 2.15  50 2.23  24 2.47  12 2.48
  26  0.402  0.772  0.042-  51 2.02  39 2.02  13 2.43  27 2.44
  27  0.425  0.777  0.191-  39 2.14  52 2.15  67 2.25  51 2.26  40 2.36  26 2.44  28 2.46  14 2.53
                             4 2.53
  28  0.464  0.818  0.335-  68 2.01  52 2.05  40 2.05  27 2.46
  29  0.566  0.272  0.065-  53 1.99  41 2.02  16 2.42
  30  0.597  0.277  0.223-  54 2.07  42 2.10  69 2.21  53 2.26  41 2.26   6 2.53  17 2.53
  31  0.080  0.777  0.127-  43 2.08  56 2.09  71 2.11  55 2.22  44 2.36  32 2.43   7 2.53  18 2.53

  32  0.103  0.803  0.275-  72 2.05  55 2.07  44 2.08  31 2.43
  33  0.252  0.277  0.159-  45 2.06  57 2.09  61 2.25  46 2.36  58 2.36   8 2.53  20 2.53
  34  0.291  0.311  0.310-  46 2.04  62 2.04  58 2.05
  35  0.774  0.859  0.118-  63 2.02  64 2.14  59 2.17  47 2.25  36 2.34
  36  0.770  0.777  0.254-  48 2.03  60 2.04  59 2.09  64 2.25  47 2.26  35 2.34  10 2.53  23 2.53

  37  0.989  0.145  0.365-   9 2.01  12 2.05  25 2.05
  38  0.991  0.145  0.182-  12 2.08  25 2.08   8 2.25  24 2.48  11 2.48
  39  0.480  0.645  0.101-  13 2.02  26 2.02  14 2.14  27 2.14
  40  0.509  0.645  0.278-  28 2.05  15 2.05  10 2.25  27 2.36  14 2.36
  41  0.647  0.145  0.119-  29 2.02  16 2.02   1 2.25  30 2.26  17 2.26  42 2.76
  42  0.675  0.145  0.287-   2 2.05  17 2.10  30 2.10  41 2.76
  43  0.120  0.645  0.034-   3 2.01  31 2.08  18 2.08
  44  0.164  0.645  0.214-  32 2.08  19 2.08   3 2.18   4 2.25  31 2.36  18 2.36
  45  0.289  0.145  0.066-   5 2.03  20 2.06  33 2.06
  46  0.336  0.145  0.246-  21 2.04  34 2.04   5 2.20   6 2.25  33 2.36  20 2.36
  47  0.819  0.645  0.151-  35 2.25  22 2.25   7 2.25  36 2.26  23 2.26
  48  0.836  0.645  0.324-  23 2.03  36 2.03
  49  0.834  0.295  0.047-  22 2.02   1 2.07  24 2.10  50 2.71
  50  0.829  0.314  0.214-   2 2.04  24 2.11  22 2.14  25 2.23  23 2.25   1 2.36  49 2.71
  51  0.312  0.814  0.119-  26 2.02   3 2.22  20 2.25   4 2.26  27 2.26
  52  0.349  0.794  0.297-  21 2.04  28 2.05   4 2.13  27 2.15
  53  0.484  0.314  0.151-  29 1.99   5 2.24  14 2.25  30 2.26   6 2.26
  54  0.524  0.292  0.325-  15 2.01  30 2.07   6 2.09
  55  0.991  0.824  0.224-  32 2.07  12 2.15   7 2.17  11 2.17  31 2.22  56 2.73
  56  0.976  0.790  0.057-  11 2.04  31 2.09   7 2.11  55 2.73  66 2.77
  57  0.140  0.322  0.110-   8 2.09  33 2.09  18 2.11  58 2.77
  58  0.174  0.314  0.278-  34 2.05  19 2.05   9 2.16   8 2.36  33 2.36  57 2.77
  59  0.666  0.825  0.189-  36 2.09  35 2.17  17 2.21  10 2.30  60 2.70
  60  0.694  0.789  0.352-  10 2.01  36 2.04  59 2.70  70 2.76
  61  0.312  0.477  0.119-  13 2.02   3 2.22  33 2.25   4 2.26  14 2.26
  62  0.349  0.496  0.297-  34 2.04  15 2.05   4 2.13  14 2.15
  63  0.834  0.996  0.047-  35 2.02   1 2.07  11 2.10  64 2.71
  64  0.829  0.977  0.214-   2 2.04  11 2.11  35 2.14  12 2.23  36 2.25   1 2.36  63 2.71
  65  0.991  0.467  0.224-  19 2.07  25 2.15   7 2.17  24 2.17  18 2.22  66 2.73
  66  0.976  0.501  0.057-  24 2.04  18 2.09   7 2.11  65 2.73  56 2.77
  67  0.484  0.977  0.151-  16 1.99   5 2.24  27 2.25  17 2.26   6 2.26
  68  0.524  0.999  0.325-  28 2.01  17 2.07   6 2.09
  69  0.666  0.466  0.189-  23 2.09  22 2.17  30 2.21  10 2.30  70 2.70
  70  0.694  0.501  0.352-  10 2.01  23 2.04  69 2.70  60 2.76
  71  0.140  0.968  0.110-   8 2.09  20 2.09  31 2.11  72 2.77
  72  0.174  0.977  0.278-  21 2.05  32 2.05   9 2.16   8 2.36  20 2.36  71 2.77
 
  LATTYP: Found a simple orthorhombic cell.
 ALAT       =     9.5784100000
 B/A-ratio  =     1.6880763216
 C/A-ratio  =     1.7627867312
  
  Lattice vectors:
  
 A1 = (   0.0000000000,   9.5784100000,   0.0000000000)
 A2 = (   0.0000000000,   0.0000000000, -16.1690871197)
 A3 = ( -16.8846940542,   0.0000000000,   0.0000000000)


Analysis of symmetry for initial positions (statically):
=====================================================================
 Subroutine PRICEL returns:
 Original cell was already a primitive cell.
 

 Routine SETGRP: Setting up the symmetry group for a 
 simple orthorhombic supercell.


 Subroutine GETGRP returns: Found  2 space group operations
 (whereof  1 operations were pure point group operations)
 out of a pool of  8 trial point group operations.


The static configuration has the point symmetry C_1 .
 The point group associated with its full space group is C_1h.


Analysis of symmetry for dynamics (positions and initial velocities):
=====================================================================
 Subroutine PRICEL returns:
 Original cell was already a primitive cell.
 

 Routine SETGRP: Setting up the symmetry group for a 
 simple orthorhombic supercell.


 Subroutine GETGRP returns: Found  2 space group operations
 (whereof  1 operations were pure point group operations)
 out of a pool of  8 trial point group operations.


The dynamic configuration has the point symmetry C_1 .
 The point group associated with its full space group is C_1h.


 Subroutine INISYM returns: Found  2 space group operations
 (whereof  1 operations are pure point group operations),
 and found     1 'primitive' translations

 
 
 KPOINTS: gamma-point-only calculation. no periodi

Automatic generation of k-mesh.
Space group operators:
 irot       det(A)        alpha          n_x          n_y          n_z        tau_x        tau_y        tau_z
    1     1.000000     0.000000     1.000000     0.000000     0.000000     0.000000     0.000000     0.000000
    2    -1.000000   180.000000     0.000000     1.000000     0.000000    -0.000000     0.290594     0.000000
 
 Subroutine IBZKPT returns following result:
 ===========================================
 
 Found      1 irreducible k-points:
 
 Following reciprocal coordinates:
            Coordinates               Weight
  0.000000  0.000000  0.000000      1.000000
 
 Following cartesian coordinates:
            Coordinates               Weight
  0.000000  0.000000  0.000000      1.000000
 


--------------------------------------------------------------------------------------------------------




 Dimension of arrays:
   k-points           NKPTS =      1   k-points in BZ     NKDIM =      1   number of bands    NBANDS=    476
   number of dos      NEDOS =    301   number of ions     NIONS =     72
   non local maximal  LDIM  =      6   non local SUM 2l+1 LMDIM =     18
   total plane-waves  NPLWV = 378000
   max r-space proj   IRMAX =   1644   max aug-charges    IRDMAX=   4753
   dimension x,y,z NGX =    90 NGY =   50 NGZ =   84
   dimension x,y,z NGXF=   180 NGYF=  100 NGZF=  168
   support grid    NGXF=   180 NGYF=  100 NGZF=  168
   ions per type =              36  36
   NGX,Y,Z   is equivalent  to a cutoff of   8.86,  8.68,  8.64 a.u.
   NGXF,Y,Z  is equivalent  to a cutoff of  17.72, 17.36, 17.27 a.u.

 SYSTEM =  "Millerite NiS"                         
 POSCAR =  Type_036 Type_136                       

 Startparameter for this run:
   NWRITE =      2    write-flag & timer
   PREC   = normal    normal or accurate (medium, high low for compatibility)
   ISTART =      0    job   : 0-new  1-cont  2-samecut
   ICHARG =      2    charge: 1-file 2-atom 10-const
   ISPIN  =      1    spin polarized calculation?
   LNONCOLLINEAR =      F non collinear calculations
   LSORBIT =      F    spin-orbit coupling
   INIWAV =      1    electr: 0-lowe 1-rand  2-diag
   LASPH  =      F    aspherical Exc in radial PAW
   METAGGA=      F    non-selfconsistent MetaGGA calc.

 Electronic Relaxation 1
   ENCUT  =  450.0 eV  33.07 Ry    5.75 a.u.  29.20 16.57 27.97*2*pi/ulx,y,z
   ENINI  =  450.0     initial cutoff
   ENAUG  =  703.4 eV  augmentation charge cutoff
   NELM   =    100;   NELMIN=  2; NELMDL= -5     # of ELM steps 
   EDIFF  = 0.1E-03   stopping-criterion for ELM
   LREAL  =      T    real-space projection
   NLSPLINE    = F    spline interpolate recip. space projectors
   LCOMPAT=      F    compatible to vasp.4.4
   GGA_COMPAT  = T    GGA compatible to vasp.4.4-vasp.4.6
   LMAXPAW     = -100 max onsite density
   LMAXMIX     =    2 max onsite mixed and CHGCAR
   VOSKOWN=      0    Vosko Wilk Nusair interpolation
   ROPT   =   -0.00050  -0.00050
 Ionic relaxation
   EDIFFG = 0.1E-02   stopping-criterion for IOM
   NSW    =      0    number of steps for IOM
   NBLOCK =      1;   KBLOCK =      1    inner block; outer block 
   IBRION =     -1    ionic relax: 0-MD 1-quasi-New 2-CG
   NFREE  =      0    steps in history (QN), initial steepest desc. (CG)
   ISIF   =      2    stress and relaxation
   IWAVPR =     10    prediction:  0-non 1-charg 2-wave 3-comb
   ISYM   =      2    0-nonsym 1-usesym 2-fastsym
   LCORR  =      T    Harris-Foulkes like correction to forces

   POTIM  = 0.5000    time-step for ionic-motion
   TEIN   =    0.0    initial temperature
   TEBEG  =    0.0;   TEEND  =   0.0 temperature during run
   SMASS  =  -3.00    Nose mass-parameter (am)
   estimated Nose-frequenzy (Omega)   =  0.10E-29 period in steps =****** mass=  -0.652E-26a.u.
   SCALEE = 1.0000    scale energy and forces
   NPACO  =    256;   APACO  = 16.0  distance and # of slots for P.C.
   PSTRESS=    0.0 pullay stress

  Mass of Ions in am
   POMASS =  58.69 32.07
  Ionic Valenz
   ZVAL   =  16.00  6.00
  Atomic Wigner-Seitz radii
   RWIGS  =  -1.00 -1.00
  virtual crystal weights 
   VCA    =   1.00  1.00
   NELECT =     792.0000    total number of electrons
   NUPDOWN=      -1.0000    fix difference up-down

 DOS related values:
   EMIN   =  10.00;   EMAX   =-10.00  energy-range for DOS
   EFERMI =   0.00
   ISMEAR =     0;   SIGMA  =   0.20  broadening in eV -4-tet -1-fermi 0-gaus

 Electronic relaxation 2 (details)
   IALGO  =     38    algorithm
   LDIAG  =      T    sub-space diagonalisation (order eigenvalues)
   LSUBROT=      F    optimize rotation matrix (better conditioning)
   TURBO    =      0    0=normal 1=particle mesh
   IRESTART =      0    0=no restart 2=restart with 2 vectors
   NREBOOT  =      0    no. of reboots
   NMIN     =      0    reboot dimension
   EREF     =   0.00    reference energy to select bands
   IMIX   =      4    mixing-type and parameters
     AMIX     =   0.40;   BMIX     =  1.00
     AMIX_MAG =   1.60;   BMIX_MAG =  1.00
     AMIN     =   0.10
     WC   =   100.;   INIMIX=   1;  MIXPRE=   1;  MAXMIX= -45

 Intra band minimization:
   WEIMIN = 0.0000     energy-eigenvalue tresh-hold
   EBREAK =  0.53E-07  absolut break condition
   DEPER  =   0.30     relativ break condition  

   TIME   =   0.40     timestep for ELM

  volume/ion in A,a.u.               =      36.32       245.10
  Fermi-wavevector in a.u.,A,eV,Ry     =   1.099409  2.077581 16.445356  1.208700
  Thomas-Fermi vector in A             =   2.235803
 
 Write flags
   LWAVE        =      F    write WAVECAR
   LDOWNSAMPLE  =      F    k-point downsampling of WAVECAR
   LCHARG       =      F    write CHGCAR
   LVTOT        =      F    write LOCPOT, total local potential
   LVHAR        =      F    write LOCPOT, Hartree potential only
   LELF         =      F    write electronic localiz. function (ELF)
   LORBIT       =      0    0 simple, 1 ext, 2 COOP (PROOUT), +10 PAW based schemes


 Dipole corrections
   LMONO  =      F    monopole corrections only (constant potential shift)
   LDIPOL =      F    correct potential (dipole corrections)
   IDIPOL =      0    1-x, 2-y, 3-z, 4-all directions 
   EPSILON=  1.0000000 bulk dielectric constant

 Exchange correlation treatment:
   GGA     =    --    GGA type
   LEXCH   =     8    internal setting for exchange type
   VOSKOWN=      0    Vosko Wilk Nusair interpolation
   LHFCALC =     F    Hartree Fock is set to
   LHFONE  =     F    Hartree Fock one center treatment
   AEXX    =    0.0000 exact exchange contribution

 Linear response parameters
   LEPSILON=     F    determine dielectric tensor
   LRPA    =     F    only Hartree local field effects (RPA)
   LNABLA  =     F    use nabla operator in PAW spheres
   LVEL    =     F    velocity operator in full k-point grid
   LINTERFAST=   F  fast interpolation
   KINTER  =     0    interpolate to denser k-point grid
   CSHIFT  =0.1000    complex shift for real part using Kramers Kronig
   OMEGAMAX=  -1.0    maximum frequency
   DEG_THRESHOLD= 0.2000000E-02 threshold for treating states as degnerate
   RTIME   =   -0.100 relaxation time in fs
  (WPLASMAI=    0.000 imaginary part of plasma frequency in eV, 0.658/RTIME)
   DFIELD  = 0.0000000 0.0000000 0.0000000 field for delta impulse in time
 
 Orbital magnetization related:
   ORBITALMAG=     F  switch on orbital magnetization
   LCHIMAG   =     F  perturbation theory with respect to B field
   DQ        =  0.001000  dq finite difference perturbation B field
   LLRAUG    =     F  two centre corrections for induced B field



--------------------------------------------------------------------------------------------------------


 Static calculation
 charge density and potential will be updated during run
 non-spin polarized calculation
 Variant of blocked Davidson
 Davidson routine will perform the subspace rotation
 perform sub-space diagonalisation
    after iterative eigenvector-optimisation
 modified Broyden-mixing scheme, WC =      100.0
 initial mixing is a Kerker type mixing with AMIX =  0.4000 and BMIX =      1.0000
 Hartree-type preconditioning will be used
 using additional bands           80
 real space projection scheme for non local part
 use partial core corrections
 calculate Harris-corrections to forces 
   (improved forces if not selfconsistent)
 use gradient corrections 
 use of overlap-Matrix (Vanderbilt PP)
 Gauss-broadening in eV      SIGMA  =   0.20


--------------------------------------------------------------------------------------------------------


  energy-cutoff  :      450.00
  volume of cell :     2615.00
      direct lattice vectors                 reciprocal lattice vectors
    16.884694054  0.000000000  0.000000000     0.059225237  0.000000000  0.000000000
     0.000000000  9.578410000  0.000000000     0.000000000  0.104401461  0.000000000
     0.000000000  0.000000000 16.169087120     0.000000000  0.000000000  0.061846411

  length of vectors
    16.884694054  9.578410000 16.169087120     0.059225237  0.104401461  0.061846411


 
 k-points in units of 2pi/SCALE and weight: gamma-point-only calculation. no periodi
   0.00000000  0.00000000  0.00000000       1.000
 
 k-points in reciprocal lattice and weights: gamma-point-only calculation. no periodi
   0.00000000  0.00000000  0.00000000       1.000
 
 position of ions in fractional coordinates (direct lattice) 
   0.78004631  0.14529695  0.12058499
   0.79703960  0.14529695  0.28464424
   0.22408199  0.64529695  0.09461620
   0.29733029  0.64529695  0.21596896
   0.39552314  0.14529695  0.12483555
   0.46975828  0.14529695  0.24776362
   0.95247430  0.64529695  0.15237965
   0.12490229  0.14529695  0.18417431
   0.10156951  0.14529695  0.32575967
   0.64218627  0.64529695  0.27955828
   0.92196912  0.93434684  0.13138686
   0.94602038  0.01588784  0.27431231
   0.40238163  0.51829759  0.04169770
   0.42486676  0.51319395  0.19076795
   0.46403585  0.47228730  0.33541544
   0.56569573  0.01896211  0.06536593
   0.59729475  0.01319395  0.22256260
   0.08001077  0.51319395  0.12717863
   0.10274976  0.48732432  0.27490817
   0.25243876  0.01319395  0.15897329
   0.29123388  0.97960153  0.30961497
   0.77377464  0.43183399  0.11804236
   0.76972274  0.51319395  0.25435726
   0.92196912  0.35624706  0.13138686
   0.94602038  0.27470607  0.27431231
   0.40238163  0.77229632  0.04169770
   0.42486676  0.77739995  0.19076795
   0.46403585  0.81830661  0.33541544
   0.56569573  0.27163180  0.06536593
   0.59729475  0.27739995  0.22256260
   0.08001077  0.77739995  0.12717863
   0.10274976  0.80326959  0.27490817
   0.25243876  0.27739995  0.15897329
   0.29123388  0.31099238  0.30961497
   0.77377464  0.85875992  0.11804236
   0.76972274  0.77739995  0.25435726
   0.98860617  0.14529695  0.36526338
   0.99146121  0.14529695  0.18240970
   0.47955461  0.64529695  0.10089240
   0.50874518  0.64529695  0.27779368
   0.64660522  0.14529695  0.11882039
   0.67536251  0.14529695  0.28704293
   0.12037972  0.64529695  0.03379161
   0.16388920  0.64529695  0.21420436
   0.28914553  0.14529695  0.06614120
   0.33631719  0.14529695  0.24599902
   0.81903321  0.64529695  0.15061505
   0.83596371  0.64529695  0.32428140
   0.83440015  0.29455053  0.04707468
   0.82906105  0.31351195  0.21449973
   0.31177708  0.81351195  0.11911576
   0.34939157  0.79409537  0.29714342
   0.48420507  0.31351195  0.15091042
   0.52416053  0.29188433  0.32518620
   0.99113863  0.82399841  0.22412303
   0.97596827  0.79007148  0.05729127
   0.14044747  0.32216517  0.11014572
   0.17391704  0.31351195  0.27808905
   0.66631073  0.82501168  0.18888704
   0.69394090  0.78922526  0.35230016
   0.31177708  0.47708195  0.11911576
   0.34939157  0.49649854  0.29714342
   0.83440015  0.99604338  0.04707468
   0.82906105  0.97708195  0.21449973
   0.99113863  0.46659550  0.22412303
   0.97596827  0.50052243  0.05729127
   0.48420507  0.97708195  0.15091042
   0.52416053  0.99870958  0.32518620
   0.66631073  0.46558222  0.18888704
   0.69394090  0.50136864  0.35230016
   0.14044747  0.96842874  0.11014572
   0.17391704  0.97708195  0.27808905
 
 position of ions in cartesian coordinates  (Angst):
  13.17084324  1.39171380  1.94974924
  13.45776982  1.39171380  4.60243745
   3.78355584  6.18091880  1.52985754
   5.02033090  6.18091880  3.49202101
   6.67828723  1.39171380  2.01847694
   7.93172480  1.39171380  4.00611161
  16.08223715  6.18091880  2.46383984
   2.10893700  1.39171380  2.97793043
   1.71497007  1.39171380  5.26723651
  10.84311871  6.18091880  4.52020220
  15.56716651  8.94955716  2.12440552
  15.97326467  0.15218026  4.43537959
   6.79409068  4.96446680  0.67421369
   7.17374517  4.91558210  3.08454355
   7.83510329  4.52376136  5.42336143
   9.55159939  0.18162686  1.05690750
  10.08513906  0.12637710  3.59863415
   1.35095736  4.91558210  2.05636238
   1.73489818  4.66779213  4.44501422
   4.26235126  0.12637710  2.57045296
   4.91739499  9.38302512  5.00619149
  13.06494798  4.13628300  1.90863717
  12.99653297  4.91558210  4.11272474
  15.56716651  3.41228044  2.12440552
  15.97326467  2.63124733  4.43537959
   6.79409068  7.39737080  0.67421369
   7.17374517  7.44625549  3.08454355
   7.83510329  7.83807624  5.42336143
   9.55159939  2.60180073  1.05690750
  10.08513906  2.65705049  3.59863415
   1.35095736  7.44625549  2.05636238
   1.73489818  7.69404546  4.44501422
   4.26235126  2.65705049  2.57045296
   4.91739499  2.97881248  5.00619149
  13.06494798  8.22555459  1.90863717
  12.99653297  7.44625549  4.11272474
  16.69231264  1.39171380  5.90597536
  16.74051913  1.39171380  2.94939840
   8.09713285  6.18091880  1.63133805
   8.59000678  6.18091880  4.49167018
  10.91773131  1.39171380  1.92121721
  11.40328930  1.39171380  4.64122220
   2.03257468  6.18091880  0.54637943
   2.76721897  6.18091880  3.46348899
   4.88213383  1.39171380  1.06944280
   5.67861288  1.39171380  3.97757959
  13.82912522  6.18091880  2.43530780
  14.11499154  6.18091880  5.24333423
  14.08859126  2.82132574  0.76115460
  13.99844227  3.00294604  3.46826489
   5.26426054  7.79215104  1.92599312
   5.89936981  7.60617103  4.80453784
   8.17565445  3.00294604  2.44008371
   8.85029015  2.79578779  5.25796402
  16.73507257  7.89259457  3.62386475
  16.47892563  7.56762858  0.92634761
   2.37141249  3.08583011  1.78095579
   2.93653601  3.00294604  4.49644608
  11.25045280  7.90230017  3.05413093
  11.71697975  7.55952316  5.69637200
   5.26426054  4.56968656  1.92599312
   5.89936981  4.75566657  4.80453784
  14.08859126  9.54051185  0.76115460
  13.99844227  9.35889156  3.46826489
  16.73507257  4.46924302  3.62386475
  16.47892563  4.79420901  0.92634761
   8.17565445  9.35889156  2.44008371
   8.85029015  9.56604980  5.25796402
  11.25045280  4.45953743  3.05413093
  11.71697975  4.80231443  5.69637200
   2.37141249  9.27600748  1.78095579
   2.93653601  9.35889156  4.49644608
 


--------------------------------------------------------------------------------------------------------


 use parallel FFT for orbitals z direction half grid
 k-point  1 :   0.0000 0.0000 0.0000  plane waves:   28369

 maximum and minimum number of plane-waves per node :      4733     4722

 maximum number of plane-waves:     28369
 maximum index in each direction: 
   IXMAX=   29   IYMAX=   16   IZMAX=   27
   IXMIN=  -29   IYMIN=  -16   IZMIN=    0


 real space projection operators:
  total allocation   :      10061.55 KBytes
  max/ min on nodes  :       1687.45       1667.02


 parallel 3D FFT for wavefunctions:
    minimum data exchange during FFTs selected (reduces bandwidth)
 parallel 3D FFT for charge:
    minimum data exchange during FFTs selected (reduces bandwidth)


 total amount of memory used by VASP MPI-rank0    77182. kBytes
=======================================================================

   base      :      30000. kBytes
   nonlr-proj:       2073. kBytes
   fftplans  :       9935. kBytes
   grid      :      16773. kBytes
   one-center:         93. kBytes
   wavefun   :      18308. kBytes
 
     INWAV:  cpu time    0.0000: real time    0.0000
 Broyden mixing: mesh for mixing (old mesh)
   NGX = 59   NGY = 33   NGZ = 55
  (NGX  =180   NGY  =100   NGZ  =168)
  gives a total of 107085 points

 initial charge density was supplied:
 charge density of overlapping atoms calculated
 number of electron     792.0000000 magnetization 
 keeping initial charge density in first step


--------------------------------------------------------------------------------------------------------


 Maximum index for non-local projection operator          267
 Maximum index for augmentation-charges          427 (set IRDMAX)


--------------------------------------------------------------------------------------------------------


 First call to EWALD:  gamma=   0.129
 Maximum number of real-space cells 2x 4x 2
 Maximum number of reciprocal cells 3x 2x 3

    FEWALD:  cpu time    0.0064: real time    0.0064


--------------------------------------- Iteration      1(   1)  ---------------------------------------


    POTLOK:  cpu time    0.3245: real time    0.3246
    SETDIJ:  cpu time    0.0166: real time    0.0166
     EDDAV:  cpu time    8.5648: real time    8.5686
       DOS:  cpu time    0.0012: real time    0.0012
    --------------------------------------------
      LOOP:  cpu time    8.9072: real time    8.9111

 eigenvalue-minimisations  :  1176
 total energy-change (2. order) : 0.8863210E+04  (-0.5057637E+05)
 number of electron     792.0000000 magnetization 
 augmentation part      792.0000000 magnetization 

 Free energy of the ion-electron system (eV)
  ---------------------------------------------------
  alpha Z        PSCENC =      1422.52235994
  Ewald energy   TEWEN  =    146137.77231067
  -Hartree energ DENC   =   -266462.67007087
  -exchange      EXHF   =         0.00000000
  -V(xc)+E(xc)   XCENC  =      3679.76418957
  PAW double counting   =    112729.53333415  -117641.51188735
  entropy T*S    EENTRO =        -0.53139832
  eigenvalues    EBANDS =     -7004.27402122
  atomic energy  EATOM  =    136002.60505376
  Solvation  Ediel_sol  =         0.00000000
  ---------------------------------------------------
  free energy    TOTEN  =      8863.20987033 eV

  energy without entropy =     8863.74126865  energy(sigma->0) =     8863.47556949


--------------------------------------------------------------------------------------------------------




--------------------------------------- Iteration      1(   2)  ---------------------------------------


     EDDAV:  cpu time    7.4427: real time    7.4440
       DOS:  cpu time    0.0011: real time    0.0011
    --------------------------------------------
      LOOP:  cpu time    7.4438: real time    7.4452

 eigenvalue-minimisations  :  1012
 total energy-change (2. order) :-0.8371500E+04  (-0.8095352E+04)
 number of electron     792.0000000 magnetization 
 augmentation part      792.0000000 magnetization 

 Free energy of the ion-electron system (eV)
  ---------------------------------------------------
  alpha Z        PSCENC =      1422.52235994
  Ewald energy   TEWEN  =    146137.77231067
  -Hartree energ DENC   =   -266462.67007087
  -exchange      EXHF   =         0.00000000
  -V(xc)+E(xc)   XCENC  =      3679.76418957
  PAW double counting   =    112729.53333415  -117641.51188735
  entropy T*S    EENTRO =        -0.79936604
  eigenvalues    EBANDS =    -15375.50621866
  atomic energy  EATOM  =    136002.60505376
  Solvation  Ediel_sol  =         0.00000000
  ---------------------------------------------------
  free energy    TOTEN  =       491.70970517 eV

  energy without entropy =      492.50907121  energy(sigma->0) =      492.10938819


--------------------------------------------------------------------------------------------------------




--------------------------------------- Iteration      1(   3)  ---------------------------------------


     EDDAV:  cpu time    8.1533: real time    8.1554
       DOS:  cpu time    0.0011: real time    0.0011
    --------------------------------------------
      LOOP:  cpu time    8.1545: real time    8.1565

 eigenvalue-minimisations  :  1104
 total energy-change (2. order) :-0.8356331E+03  (-0.8012708E+03)
 number of electron     792.0000000 magnetization 
 augmentation part      792.0000000 magnetization 

 Free energy of the ion-electron system (eV)
  ---------------------------------------------------
  alpha Z        PSCENC =      1422.52235994
  Ewald energy   TEWEN  =    146137.77231067
  -Hartree energ DENC   =   -266462.67007087
  -exchange      EXHF   =         0.00000000
  -V(xc)+E(xc)   XCENC  =      3679.76418957
  PAW double counting   =    112729.53333415  -117641.51188735
  entropy T*S    EENTRO =        -1.13040946
  eigenvalues    EBANDS =    -16210.80826029
  atomic energy  EATOM  =    136002.60505376
  Solvation  Ediel_sol  =         0.00000000
  ---------------------------------------------------
  free energy    TOTEN  =      -343.92337988 eV

  energy without entropy =     -342.79297042  energy(sigma->0) =     -343.35817515


--------------------------------------------------------------------------------------------------------




--------------------------------------- Iteration      1(   4)  ---------------------------------------


     EDDAV:  cpu time    7.9533: real time    7.9552
       DOS:  cpu time    0.0014: real time    0.0013
    --------------------------------------------
      LOOP:  cpu time    7.9547: real time    7.9565

 eigenvalue-minimisations  :  1112
 total energy-change (2. order) :-0.4539485E+02  (-0.4482545E+02)
 number of electron     792.0000000 magnetization 
 augmentation part      792.0000000 magnetization 

 Free energy of the ion-electron system (eV)
  ---------------------------------------------------
  alpha Z        PSCENC =      1422.52235994
  Ewald energy   TEWEN  =    146137.77231067
  -Hartree energ DENC   =   -266462.67007087
  -exchange      EXHF   =         0.00000000
  -V(xc)+E(xc)   XCENC  =      3679.76418957
  PAW double counting   =    112729.53333415  -117641.51188735
  entropy T*S    EENTRO =        -1.16954540
  eigenvalues    EBANDS =    -16256.16397429
  atomic energy  EATOM  =    136002.60505376
  Solvation  Ediel_sol  =         0.00000000
  ---------------------------------------------------
  free energy    TOTEN  =      -389.31822983 eV

  energy without entropy =     -388.14868443  energy(sigma->0) =     -388.73345713


--------------------------------------------------------------------------------------------------------




--------------------------------------- Iteration      1(   5)  ---------------------------------------


     EDDAV:  cpu time    8.5292: real time    8.5309
       DOS:  cpu time    0.0014: real time    0.0014
    CHARGE:  cpu time    0.3127: real time    0.3128
    MIXING:  cpu time    0.0134: real time    0.0134
    --------------------------------------------
      LOOP:  cpu time    8.8568: real time    8.8586

 eigenvalue-minimisations  :  1176
 total energy-change (2. order) :-0.1627022E+01  (-0.1624614E+01)
 number of electron     791.9997578 magnetization 
 augmentation part      286.2713580 magnetization 

 Broyden mixing:
  rms(total) = 0.98447E+01    rms(broyden)= 0.98368E+01
  rms(prec ) = 0.10375E+02
  weight for this iteration     100.00

 Free energy of the ion-electron system (eV)
  ---------------------------------------------------
  alpha Z        PSCENC =      1422.52235994
  Ewald energy   TEWEN  =    146137.77231067
  -Hartree energ DENC   =   -266462.67007087
  -exchange      EXHF   =         0.00000000
  -V(xc)+E(xc)   XCENC  =      3679.76418957
  PAW double counting   =    112729.53333415  -117641.51188735
  entropy T*S    EENTRO =        -1.16168171
  eigenvalues    EBANDS =    -16257.79886007
  atomic energy  EATOM  =    136002.60505376
  Solvation  Ediel_sol  =         0.00000000
  ---------------------------------------------------
  free energy    TOTEN  =      -390.94525191 eV

  energy without entropy =     -389.78357021  energy(sigma->0) =     -390.36441106


--------------------------------------------------------------------------------------------------------




--------------------------------------- Iteration      1(   6)  ---------------------------------------


    POTLOK:  cpu time    0.3121: real time    0.3124
    SETDIJ:  cpu time    0.0169: real time    0.0169
     EDDAV:  cpu time    8.6634: real time    8.6649
       DOS:  cpu time    0.0012: real time    0.0012
    CHARGE:  cpu time    0.2967: real time    0.2968
    MIXING:  cpu time    0.0097: real time    0.0098
    --------------------------------------------
      LOOP:  cpu time    9.3000: real time    9.3019

 eigenvalue-minimisations  :  1200
 total energy-change (2. order) :-0.7046487E+02  (-0.9822073E+02)
 number of electron     791.9997052 magnetization 
 augmentation part      346.4256230 magnetization 

 Broyden mixing:
  rms(total) = 0.16419E+02    rms(broyden)= 0.16417E+02
  rms(prec ) = 0.17147E+02
  weight for this iteration     100.00

 eigenvalues of (default mixing * dielectric matrix)
  average eigenvalue GAMMA=   0.2206
  0.2206

 Free energy of the ion-electron system (eV)
  ---------------------------------------------------
  alpha Z        PSCENC =      1422.52235994
  Ewald energy   TEWEN  =    146137.77231067
  -Hartree energ DENC   =   -263847.72975048
  -exchange      EXHF   =         0.00000000
  -V(xc)+E(xc)   XCENC  =      3606.47076991
  PAW double counting   =    117855.21614293  -122536.81684080
  entropy T*S    EENTRO =        -0.67265415
  eigenvalues    EBANDS =    -19100.77750873
  atomic energy  EATOM  =    136002.60505376
  Solvation  Ediel_sol  =         0.00000000
  ---------------------------------------------------
  free energy    TOTEN  =      -461.41011696 eV

  energy without entropy =     -460.73746281  energy(sigma->0) =     -461.07378988


--------------------------------------------------------------------------------------------------------




--------------------------------------- Iteration      1(   7)  ---------------------------------------


    POTLOK:  cpu time    0.3152: real time    0.3152
    SETDIJ:  cpu time    0.0180: real time    0.0180
     EDDAV:  cpu time    7.9510: real time    7.9524
       DOS:  cpu time    0.0011: real time    0.0011
    CHARGE:  cpu time    0.2944: real time    0.2944
    MIXING:  cpu time    0.0100: real time    0.0100
    --------------------------------------------
      LOOP:  cpu time    8.5897: real time    8.5911

 eigenvalue-minimisations  :  1096
 total energy-change (2. order) : 0.9927485E+02  (-0.1913788E+02)
 number of electron     791.9997157 magnetization 
 augmentation part      332.2214994 magnetization 

 Broyden mixing:
  rms(total) = 0.71498E+01    rms(broyden)= 0.71488E+01
  rms(prec ) = 0.75810E+01
  weight for this iteration     100.00

 eigenvalues of (default mixing * dielectric matrix)
  average eigenvalue GAMMA=   0.5376
  0.5376  0.5376

 Free energy of the ion-electron system (eV)
  ---------------------------------------------------
  alpha Z        PSCENC =      1422.52235994
  Ewald energy   TEWEN  =    146137.77231067
  -Hartree energ DENC   =   -264866.23061622
  -exchange      EXHF   =         0.00000000
  -V(xc)+E(xc)   XCENC  =      3631.82782181
  PAW double counting   =    122359.26523158  -127177.53435061
  entropy T*S    EENTRO =        -1.17703019
  eigenvalues    EBANDS =    -17871.18604479
  atomic energy  EATOM  =    136002.60505376
  Solvation  Ediel_sol  =         0.00000000
  ---------------------------------------------------
  free energy    TOTEN  =      -362.13526405 eV

  energy without entropy =     -360.95823386  energy(sigma->0) =     -361.54674896


--------------------------------------------------------------------------------------------------------




--------------------------------------- Iteration      1(   8)  ---------------------------------------


    POTLOK:  cpu time    0.3103: real time    0.3103
    SETDIJ:  cpu time    0.0171: real time    0.0171
     EDDAV:  cpu time    9.4551: real time    9.4566
       DOS:  cpu time    0.0013: real time    0.0013
    CHARGE:  cpu time    0.3135: real time    0.3135
    MIXING:  cpu time    0.0104: real time    0.0104
    --------------------------------------------
      LOOP:  cpu time   10.1076: real time   10.1092

 eigenvalue-minimisations  :  1344
 total energy-change (2. order) :-0.5281511E+02  (-0.2513248E+02)
 number of electron     791.9997451 magnetization 
 augmentation part      299.8063568 magnetization 

 Broyden mixing:
  rms(total) = 0.15237E+02    rms(broyden)= 0.15235E+02
  rms(prec ) = 0.18649E+02
  weight for this iteration     100.00

 eigenvalues of (default mixing * dielectric matrix)
  average eigenvalue GAMMA=   0.4542
  0.7582  0.4670  0.1374

 Free energy of the ion-electron system (eV)
  ---------------------------------------------------
  alpha Z        PSCENC =      1422.52235994
  Ewald energy   TEWEN  =    146137.77231067
  -Hartree energ DENC   =   -265953.28345392
  -exchange      EXHF   =         0.00000000
  -V(xc)+E(xc)   XCENC  =      3659.65875114
  PAW double counting   =    130475.67521723  -135438.22958537
  entropy T*S    EENTRO =        -0.96774156
  eigenvalues    EBANDS =    -16720.70328801
  atomic energy  EATOM  =    136002.60505376
  Solvation  Ediel_sol  =         0.00000000
  ---------------------------------------------------
  free energy    TOTEN  =      -414.95037611 eV

  energy without entropy =     -413.98263455  energy(sigma->0) =     -414.46650533


--------------------------------------------------------------------------------------------------------




--------------------------------------- Iteration      1(   9)  ---------------------------------------


    POTLOK:  cpu time    0.3117: real time    0.3120
    SETDIJ:  cpu time    0.0169: real time    0.0169
     EDDAV:  cpu time    9.1730: real time    9.1747
       DOS:  cpu time    0.0012: real time    0.0012
    CHARGE:  cpu time    0.2956: real time    0.2957
    MIXING:  cpu time    0.0108: real time    0.0108
    --------------------------------------------
      LOOP:  cpu time    9.8092: real time    9.8113

 eigenvalue-minimisations  :  1296
 total energy-change (2. order) : 0.5152016E+02  (-0.1702857E+02)
 number of electron     791.9997459 magnetization 
 augmentation part      304.1463513 magnetization 

 Broyden mixing:
  rms(total) = 0.61601E+01    rms(broyden)= 0.61520E+01
  rms(prec ) = 0.71086E+01
  weight for this iteration     100.00

 eigenvalues of (default mixing * dielectric matrix)
  average eigenvalue GAMMA=   0.5773
  1.4351  0.3847  0.3847  0.1048

 Free energy of the ion-electron system (eV)
  ---------------------------------------------------
  alpha Z        PSCENC =      1422.52235994
  Ewald energy   TEWEN  =    146137.77231067
  -Hartree energ DENC   =   -265939.84753628
  -exchange      EXHF   =         0.00000000
  -V(xc)+E(xc)   XCENC  =      3657.39706588
  PAW double counting   =    132666.09214349  -137636.47157656
  entropy T*S    EENTRO =        -0.92891707
  eigenvalues    EBANDS =    -16672.57111954
  atomic energy  EATOM  =    136002.60505376
  Solvation  Ediel_sol  =         0.00000000
  ---------------------------------------------------
  free energy    TOTEN  =      -363.43021570 eV

  energy without entropy =     -362.50129863  energy(sigma->0) =     -362.96575717


--------------------------------------------------------------------------------------------------------




--------------------------------------- Iteration      1(  10)  ---------------------------------------


    POTLOK:  cpu time    0.3121: real time    0.3124
    SETDIJ:  cpu time    0.0168: real time    0.0168
     EDDAV:  cpu time    9.3344: real time    9.3361
       DOS:  cpu time    0.0012: real time    0.0012
    CHARGE:  cpu time    0.2988: real time    0.2988
    MIXING:  cpu time    0.0110: real time    0.0110
    --------------------------------------------
      LOOP:  cpu time    9.9743: real time    9.9763

 eigenvalue-minimisations  :  1328
 total energy-change (2. order) :-0.2072682E+02  (-0.1160057E+02)
 number of electron     791.9997333 magnetization 
 augmentation part      301.2728929 magnetization 

 Broyden mixing:
  rms(total) = 0.11164E+02    rms(broyden)= 0.11161E+02
  rms(prec ) = 0.13619E+02
  weight for this iteration     100.00

 eigenvalues of (default mixing * dielectric matrix)
  average eigenvalue GAMMA=   0.6570
  2.2152  0.4210  0.4210  0.1137  0.1137

 Free energy of the ion-electron system (eV)
  ---------------------------------------------------
  alpha Z        PSCENC =      1422.52235994
  Ewald energy   TEWEN  =    146137.77231067
  -Hartree energ DENC   =   -265906.38270883
  -exchange      EXHF   =         0.00000000
  -V(xc)+E(xc)   XCENC  =      3656.92599963
  PAW double counting   =    137470.02178729  -142473.80086709
  entropy T*S    EENTRO =        -0.95749087
  eigenvalues    EBANDS =    -16692.86347619
  atomic energy  EATOM  =    136002.60505376
  Solvation  Ediel_sol  =         0.00000000
  ---------------------------------------------------
  free energy    TOTEN  =      -384.15703169 eV

  energy without entropy =     -383.19954082  energy(sigma->0) =     -383.67828626


--------------------------------------------------------------------------------------------------------




--------------------------------------- Iteration      1(  11)  ---------------------------------------


    POTLOK:  cpu time    0.3125: real time    0.3128
    SETDIJ:  cpu time    0.0168: real time    0.0168
     EDDAV:  cpu time    9.1611: real time    9.1626
       DOS:  cpu time    0.0011: real time    0.0011
    CHARGE:  cpu time    0.5104: real time    0.5104
    MIXING:  cpu time    0.0160: real time    0.0160
    --------------------------------------------
      LOOP:  cpu time   10.0178: real time   10.0197

 eigenvalue-minimisations  :  1336
 total energy-change (2. order) : 0.1684392E+02  (-0.7848568E+01)
 number of electron     791.9997262 magnetization 
 augmentation part      309.7569011 magnetization 

 Broyden mixing:
  rms(total) = 0.76915E+01    rms(broyden)= 0.76893E+01
  rms(prec ) = 0.93636E+01
  weight for this iteration     100.00

 eigenvalues of (default mixing * dielectric matrix)
  average eigenvalue GAMMA=   0.5866
  2.3228  0.4206  0.4206  0.1348  0.1348  0.0858

 Free energy of the ion-electron system (eV)
  ---------------------------------------------------
  alpha Z        PSCENC =      1422.52235994
  Ewald energy   TEWEN  =    146137.77231067
  -Hartree energ DENC   =   -265680.10171608
  -exchange      EXHF   =         0.00000000
  -V(xc)+E(xc)   XCENC  =      3651.00699320
  PAW double counting   =    143327.78203277  -148351.72098046
  entropy T*S    EENTRO =        -0.82940156
  eigenvalues    EBANDS =    -16876.34975948
  atomic energy  EATOM  =    136002.60505376
  Solvation  Ediel_sol  =         0.00000000
  ---------------------------------------------------
  free energy    TOTEN  =      -367.31310724 eV

  energy without entropy =     -366.48370568  energy(sigma->0) =     -366.89840646


--------------------------------------------------------------------------------------------------------




--------------------------------------- Iteration      1(  12)  ---------------------------------------


    POTLOK:  cpu time    0.3116: real time    0.3116
    SETDIJ:  cpu time    0.0169: real time    0.0169
     EDDAV:  cpu time    8.9559: real time    8.9576
       DOS:  cpu time    0.0012: real time    0.0012
    CHARGE:  cpu time    0.2941: real time    0.2941
    MIXING:  cpu time    0.0119: real time    0.0119
    --------------------------------------------
      LOOP:  cpu time    9.5916: real time    9.5934

 eigenvalue-minimisations  :  1296
 total energy-change (2. order) : 0.1503204E+02  (-0.5693283E+01)
 number of electron     791.9997333 magnetization 
 augmentation part      313.6529172 magnetization 

 Broyden mixing:
  rms(total) = 0.39437E+01    rms(broyden)= 0.39419E+01
  rms(prec ) = 0.46663E+01
  weight for this iteration     100.00

 eigenvalues of (default mixing * dielectric matrix)
  average eigenvalue GAMMA=   0.5438
  2.3185  0.4179  0.4179  0.3224  0.1188  0.1054  0.1054

 Free energy of the ion-electron system (eV)
  ---------------------------------------------------
  alpha Z        PSCENC =      1422.52235994
  Ewald energy   TEWEN  =    146137.77231067
  -Hartree energ DENC   =   -265637.03489741
  -exchange      EXHF   =         0.00000000
  -V(xc)+E(xc)   XCENC  =      3649.63391378
  PAW double counting   =    144337.96739669  -149365.15156592
  entropy T*S    EENTRO =        -0.91129791
  eigenvalues    EBANDS =    -16899.68434313
  atomic energy  EATOM  =    136002.60505376
  Solvation  Ediel_sol  =         0.00000000
  ---------------------------------------------------
  free energy    TOTEN  =      -352.28106954 eV

  energy without entropy =     -351.36977162  energy(sigma->0) =     -351.82542058


--------------------------------------------------------------------------------------------------------




--------------------------------------- Iteration      1(  13)  ---------------------------------------


    POTLOK:  cpu time    0.3140: real time    0.3142
    SETDIJ:  cpu time    0.0167: real time    0.0167
     EDDAV:  cpu time    9.2795: real time    9.2812
       DOS:  cpu time    0.0012: real time    0.0012
    CHARGE:  cpu time    0.2954: real time    0.2954
    MIXING:  cpu time    0.0130: real time    0.0130
    --------------------------------------------
      LOOP:  cpu time    9.9198: real time    9.9217

 eigenvalue-minimisations  :  1312
 total energy-change (2. order) : 0.5661271E+01  (-0.1928375E+01)
 number of electron     791.9997376 magnetization 
 augmentation part      313.8086794 magnetization 

 Broyden mixing:
  rms(total) = 0.32894E+01    rms(broyden)= 0.32877E+01
  rms(prec ) = 0.41656E+01
  weight for this iteration     100.00

 eigenvalues of (default mixing * dielectric matrix)
  average eigenvalue GAMMA=   0.5372
  2.2405  0.6906  0.4297  0.4297  0.1409  0.1409  0.1275  0.0982

 Free energy of the ion-electron system (eV)
  ---------------------------------------------------
  alpha Z        PSCENC =      1422.52235994
  Ewald energy   TEWEN  =    146137.77231067
  -Hartree energ DENC   =   -265658.15621063
  -exchange      EXHF   =         0.00000000
  -V(xc)+E(xc)   XCENC  =      3650.01431039
  PAW double counting   =    144259.10964420  -149287.86160310
  entropy T*S    EENTRO =        -0.89981279
  eigenvalues    EBANDS =    -16871.72585094
  atomic energy  EATOM  =    136002.60505376
  Solvation  Ediel_sol  =         0.00000000
  ---------------------------------------------------
  free energy    TOTEN  =      -346.61979849 eV

  energy without entropy =     -345.71998571  energy(sigma->0) =     -346.16989210


--------------------------------------------------------------------------------------------------------




--------------------------------------- Iteration      1(  14)  ---------------------------------------


    POTLOK:  cpu time    0.3217: real time    0.3220
    SETDIJ:  cpu time    0.0185: real time    0.0185
     EDDAV:  cpu time    9.0637: real time    9.0661
       DOS:  cpu time    0.0013: real time    0.0013
    CHARGE:  cpu time    0.2980: real time    0.2981
    MIXING:  cpu time    0.0132: real time    0.0132
    --------------------------------------------
      LOOP:  cpu time    9.7164: real time    9.7191

 eigenvalue-minimisations  :  1272
 total energy-change (2. order) : 0.2342119E+01  (-0.1483351E+01)
 number of electron     791.9997343 magnetization 
 augmentation part      312.8727360 magnetization 

 Broyden mixing:
  rms(total) = 0.25860E+01    rms(broyden)= 0.25849E+01
  rms(prec ) = 0.30107E+01
  weight for this iteration     100.00

 eigenvalues of (default mixing * dielectric matrix)
  average eigenvalue GAMMA=   0.5018
  2.1665  0.6829  0.4414  0.4414  0.3043  0.1298  0.1298  0.1205  0.0998

 Free energy of the ion-electron system (eV)
  ---------------------------------------------------
  alpha Z        PSCENC =      1422.52235994
  Ewald energy   TEWEN  =    146137.77231067
  -Hartree energ DENC   =   -265700.25210096
  -exchange      EXHF   =         0.00000000
  -V(xc)+E(xc)   XCENC  =      3650.26907392
  PAW double counting   =    143656.26069086  -148681.85779201
  entropy T*S    EENTRO =        -1.13827952
  eigenvalues    EBANDS =    -16830.45899596
  atomic energy  EATOM  =    136002.60505376
  Solvation  Ediel_sol  =         0.00000000
  ---------------------------------------------------
  free energy    TOTEN  =      -344.27767930 eV

  energy without entropy =     -343.13939979  energy(sigma->0) =     -343.70853954


--------------------------------------------------------------------------------------------------------




--------------------------------------- Iteration      1(  15)  ---------------------------------------


    POTLOK:  cpu time    0.3155: real time    0.3156
    SETDIJ:  cpu time    0.0167: real time    0.0167
     EDDAV:  cpu time    9.4284: real time    9.4303
       DOS:  cpu time    0.0012: real time    0.0012
    CHARGE:  cpu time    0.2952: real time    0.2952
    MIXING:  cpu time    0.0136: real time    0.0137
    --------------------------------------------
      LOOP:  cpu time   10.0707: real time   10.0726

 eigenvalue-minimisations  :  1336
 total energy-change (2. order) : 0.2821802E+01  (-0.4353368E+00)
 number of electron     791.9997334 magnetization 
 augmentation part      312.9493059 magnetization 

 Broyden mixing:
  rms(total) = 0.18273E+01    rms(broyden)= 0.18267E+01
  rms(prec ) = 0.21763E+01
  weight for this iteration     100.00

 eigenvalues of (default mixing * dielectric matrix)
  average eigenvalue GAMMA=   0.5050
  2.1422  0.6899  0.6899  0.4211  0.4211  0.1879  0.1338  0.1338  0.1323  0.0979

 Free energy of the ion-electron system (eV)
  ---------------------------------------------------
  alpha Z        PSCENC =      1422.52235994
  Ewald energy   TEWEN  =    146137.77231067
  -Hartree energ DENC   =   -265718.45618926
  -exchange      EXHF   =         0.00000000
  -V(xc)+E(xc)   XCENC  =      3650.83180357
  PAW double counting   =    143124.09229025  -148147.22550573
  entropy T*S    EENTRO =        -1.15714569
  eigenvalues    EBANDS =    -16812.44085477
  atomic energy  EATOM  =    136002.60505376
  Solvation  Ediel_sol  =         0.00000000
  ---------------------------------------------------
  free energy    TOTEN  =      -341.45587726 eV

  energy without entropy =     -340.29873157  energy(sigma->0) =     -340.87730441


--------------------------------------------------------------------------------------------------------




--------------------------------------- Iteration      1(  16)  ---------------------------------------


    POTLOK:  cpu time    0.3155: real time    0.3157
    SETDIJ:  cpu time    0.0167: real time    0.0168
     EDDAV:  cpu time    9.1014: real time    9.1030
       DOS:  cpu time    0.0012: real time    0.0012
    CHARGE:  cpu time    0.5374: real time    0.5374
    MIXING:  cpu time    0.0142: real time    0.0142
    --------------------------------------------
      LOOP:  cpu time    9.9864: real time    9.9882

 eigenvalue-minimisations  :  1328
 total energy-change (2. order) : 0.6175222E+00  (-0.1947613E+00)
 number of electron     791.9997340 magnetization 
 augmentation part      312.6654275 magnetization 

 Broyden mixing:
  rms(total) = 0.15722E+01    rms(broyden)= 0.15719E+01
  rms(prec ) = 0.18602E+01
  weight for this iteration     100.00

 eigenvalues of (default mixing * dielectric matrix)
  average eigenvalue GAMMA=   0.5093
  2.1213  0.8630  0.8630  0.4211  0.4211  0.2308  0.1933  0.1333  0.1333  0.1234
  0.0986

 Free energy of the ion-electron system (eV)
  ---------------------------------------------------
  alpha Z        PSCENC =      1422.52235994
  Ewald energy   TEWEN  =    146137.77231067
  -Hartree energ DENC   =   -265732.66498200
  -exchange      EXHF   =         0.00000000
  -V(xc)+E(xc)   XCENC  =      3651.06992492
  PAW double counting   =    142784.56588637  -147804.08422371
  entropy T*S    EENTRO =        -1.16427221
  eigenvalues    EBANDS =    -16801.46041282
  atomic energy  EATOM  =    136002.60505376
  Solvation  Ediel_sol  =         0.00000000
  ---------------------------------------------------
  free energy    TOTEN  =      -340.83835507 eV

  energy without entropy =     -339.67408286  energy(sigma->0) =     -340.25621896


--------------------------------------------------------------------------------------------------------




--------------------------------------- Iteration      1(  17)  ---------------------------------------


    POTLOK:  cpu time    0.3168: real time    0.3169
    SETDIJ:  cpu time    0.0168: real time    0.0168
     EDDAV:  cpu time    8.8452: real time    8.8469
       DOS:  cpu time    0.0012: real time    0.0012
    CHARGE:  cpu time    0.2997: real time    0.2997
    MIXING:  cpu time    0.0147: real time    0.0147
    --------------------------------------------
      LOOP:  cpu time    9.4945: real time    9.4962

 eigenvalue-minimisations  :  1280
 total energy-change (2. order) : 0.5293805E+00  (-0.9870011E-01)
 number of electron     791.9997345 magnetization 
 augmentation part      312.5617461 magnetization 

 Broyden mixing:
  rms(total) = 0.13566E+01    rms(broyden)= 0.13563E+01
  rms(prec ) = 0.16884E+01
  weight for this iteration     100.00

 eigenvalues of (default mixing * dielectric matrix)
  average eigenvalue GAMMA=   0.5340
  2.1331  1.0664  1.0664  0.4237  0.4237  0.4230  0.2147  0.0982  0.1327  0.1327
  0.1286  0.1643

 Free energy of the ion-electron system (eV)
  ---------------------------------------------------
  alpha Z        PSCENC =      1422.52235994
  Ewald energy   TEWEN  =    146137.77231067
  -Hartree energ DENC   =   -265745.26875347
  -exchange      EXHF   =         0.00000000
  -V(xc)+E(xc)   XCENC  =      3651.22296720
  PAW double counting   =    142480.59922497  -147496.62062154
  entropy T*S    EENTRO =        -1.15053428
  eigenvalues    EBANDS =    -16791.99098181
  atomic energy  EATOM  =    136002.60505376
  Solvation  Ediel_sol  =         0.00000000
  ---------------------------------------------------
  free energy    TOTEN  =      -340.30897455 eV

  energy without entropy =     -339.15844027  energy(sigma->0) =     -339.73370741


--------------------------------------------------------------------------------------------------------




--------------------------------------- Iteration      1(  18)  ---------------------------------------


    POTLOK:  cpu time    0.3188: real time    0.3191
    SETDIJ:  cpu time    0.0168: real time    0.0168
     EDDAV:  cpu time    9.2092: real time    9.2111
       DOS:  cpu time    0.0012: real time    0.0012
    CHARGE:  cpu time    0.2991: real time    0.2991
    MIXING:  cpu time    0.0156: real time    0.0156
    --------------------------------------------
      LOOP:  cpu time    9.8608: real time    9.8629

 eigenvalue-minimisations  :  1304
 total energy-change (2. order) : 0.3505715E+00  (-0.7273875E-01)
 number of electron     791.9997347 magnetization 
 augmentation part      312.1414954 magnetization 

 Broyden mixing:
  rms(total) = 0.11587E+01    rms(broyden)= 0.11585E+01
  rms(prec ) = 0.13901E+01
  weight for this iteration     100.00

 eigenvalues of (default mixing * dielectric matrix)
  average eigenvalue GAMMA=   0.5530
  2.1383  1.2908  1.2908  0.4336  0.4336  0.4590  0.3152  0.1799  0.0982  0.1323
  0.1323  0.1257  0.1599

 Free energy of the ion-electron system (eV)
  ---------------------------------------------------
  alpha Z        PSCENC =      1422.52235994
  Ewald energy   TEWEN  =    146137.77231067
  -Hartree energ DENC   =   -265765.23288836
  -exchange      EXHF   =         0.00000000
  -V(xc)+E(xc)   XCENC  =      3651.24182399
  PAW double counting   =    142164.15455908  -147175.40929337
  entropy T*S    EENTRO =        -1.23473917
  eigenvalues    EBANDS =    -16776.37758960
  atomic energy  EATOM  =    136002.60505376
  Solvation  Ediel_sol  =         0.00000000
  ---------------------------------------------------
  free energy    TOTEN  =      -339.95840306 eV

  energy without entropy =     -338.72366389  energy(sigma->0) =     -339.34103348


--------------------------------------------------------------------------------------------------------




--------------------------------------- Iteration      1(  19)  ---------------------------------------


    POTLOK:  cpu time    0.3163: real time    0.3163
    SETDIJ:  cpu time    0.0167: real time    0.0167
     EDDAV:  cpu time    9.3529: real time    9.3547
       DOS:  cpu time    0.0012: real time    0.0012
    CHARGE:  cpu time    0.3040: real time    0.3040
    MIXING:  cpu time    0.0164: real time    0.0164
    --------------------------------------------
      LOOP:  cpu time   10.0076: real time   10.0094

 eigenvalue-minimisations  :  1320
 total energy-change (2. order) : 0.3719771E+00  (-0.5265563E-01)
 number of electron     791.9997345 magnetization 
 augmentation part      312.1041961 magnetization 

 Broyden mixing:
  rms(total) = 0.94508E+00    rms(broyden)= 0.94487E+00
  rms(prec ) = 0.11730E+01
  weight for this iteration     100.00

 eigenvalues of (default mixing * dielectric matrix)
  average eigenvalue GAMMA=   0.5614
  2.1353  1.4510  1.4510  0.4651  0.4651  0.4392  0.4392  0.1871  0.1871  0.0982
  0.1327  0.1327  0.1274  0.1484

 Free energy of the ion-electron system (eV)
  ---------------------------------------------------
  alpha Z        PSCENC =      1422.52235994
  Ewald energy   TEWEN  =    146137.77231067
  -Hartree energ DENC   =   -265781.55538826
  -exchange      EXHF   =         0.00000000
  -V(xc)+E(xc)   XCENC  =      3651.29364866
  PAW double counting   =    141779.92326128  -146785.95477326
  entropy T*S    EENTRO =        -1.28387870
  eigenvalues    EBANDS =    -16764.90902003
  atomic energy  EATOM  =    136002.60505376
  Solvation  Ediel_sol  =         0.00000000
  ---------------------------------------------------
  free energy    TOTEN  =      -339.58642594 eV

  energy without entropy =     -338.30254724  energy(sigma->0) =     -338.94448659


--------------------------------------------------------------------------------------------------------




--------------------------------------- Iteration      1(  20)  ---------------------------------------


    POTLOK:  cpu time    0.3170: real time    0.3170
    SETDIJ:  cpu time    0.0168: real time    0.0168
     EDDAV:  cpu time    9.3188: real time    9.3209
       DOS:  cpu time    0.0012: real time    0.0012
    CHARGE:  cpu time    0.2988: real time    0.2989
    MIXING:  cpu time    0.0177: real time    0.0177
    --------------------------------------------
      LOOP:  cpu time    9.9703: real time    9.9725

 eigenvalue-minimisations  :  1312
 total energy-change (2. order) : 0.2347241E+00  (-0.3876367E-01)
 number of electron     791.9997347 magnetization 
 augmentation part      312.2805175 magnetization 

 Broyden mixing:
  rms(total) = 0.73606E+00    rms(broyden)= 0.73583E+00
  rms(prec ) = 0.87119E+00
  weight for this iteration     100.00

 eigenvalues of (default mixing * dielectric matrix)
  average eigenvalue GAMMA=   0.5713
  2.1276  1.5849  1.5849  0.5811  0.5811  0.4219  0.4219  0.2792  0.1978  0.0982
  0.1324  0.1324  0.1260  0.1538  0.1468

 Free energy of the ion-electron system (eV)
  ---------------------------------------------------
  alpha Z        PSCENC =      1422.52235994
  Ewald energy   TEWEN  =    146137.77231067
  -Hartree energ DENC   =   -265790.23512331
  -exchange      EXHF   =         0.00000000
  -V(xc)+E(xc)   XCENC  =      3651.25212706
  PAW double counting   =    141490.62209056  -146492.66325182
  entropy T*S    EENTRO =        -1.29794249
  eigenvalues    EBANDS =    -16759.92932619
  atomic energy  EATOM  =    136002.60505376
  Solvation  Ediel_sol  =         0.00000000
  ---------------------------------------------------
  free energy    TOTEN  =      -339.35170182 eV

  energy without entropy =     -338.05375932  energy(sigma->0) =     -338.70273057


--------------------------------------------------------------------------------------------------------




--------------------------------------- Iteration      1(  21)  ---------------------------------------


    POTLOK:  cpu time    0.3218: real time    0.3221
    SETDIJ:  cpu time    0.0168: real time    0.0168
     EDDAV:  cpu time    8.9569: real time    8.9585
       DOS:  cpu time    0.0013: real time    0.0012
    CHARGE:  cpu time    0.4843: real time    0.4843
    MIXING:  cpu time    0.0183: real time    0.0183
    --------------------------------------------
      LOOP:  cpu time    9.7994: real time    9.8012

 eigenvalue-minimisations  :  1296
 total energy-change (2. order) : 0.1364636E+00  (-0.1889033E-01)
 number of electron     791.9997345 magnetization 
 augmentation part      312.1772758 magnetization 

 Broyden mixing:
  rms(total) = 0.57935E+00    rms(broyden)= 0.57922E+00
  rms(prec ) = 0.71169E+00
  weight for this iteration     100.00

 eigenvalues of (default mixing * dielectric matrix)
  average eigenvalue GAMMA=   0.5673
  2.1254  1.6613  1.6613  0.6581  0.6581  0.4231  0.4231  0.3193  0.2062  0.0982
  0.1603  0.1603  0.1325  0.1325  0.1282  0.1282

 Free energy of the ion-electron system (eV)
  ---------------------------------------------------
  alpha Z        PSCENC =      1422.52235994
  Ewald energy   TEWEN  =    146137.77231067
  -Hartree energ DENC   =   -265802.61329394
  -exchange      EXHF   =         0.00000000
  -V(xc)+E(xc)   XCENC  =      3651.34673281
  PAW double counting   =    141251.53448032  -146250.90534502
  entropy T*S    EENTRO =        -1.33245650
  eigenvalues    EBANDS =    -16750.14508026
  atomic energy  EATOM  =    136002.60505376
  Solvation  Ediel_sol  =         0.00000000
  ---------------------------------------------------
  free energy    TOTEN  =      -339.21523822 eV

  energy without entropy =     -337.88278172  energy(sigma->0) =     -338.54900997


--------------------------------------------------------------------------------------------------------




--------------------------------------- Iteration      1(  22)  ---------------------------------------


    POTLOK:  cpu time    0.3270: real time    0.3273
    SETDIJ:  cpu time    0.0167: real time    0.0167
     EDDAV:  cpu time    8.8911: real time    8.8929
       DOS:  cpu time    0.0012: real time    0.0012
    CHARGE:  cpu time    0.2981: real time    0.2983
    MIXING:  cpu time    0.0187: real time    0.0187
    --------------------------------------------
      LOOP:  cpu time    9.5528: real time    9.5551

 eigenvalue-minimisations  :  1288
 total energy-change (2. order) : 0.8976363E-01  (-0.1326094E-01)
 number of electron     791.9997343 magnetization 
 augmentation part      312.1256794 magnetization 

 Broyden mixing:
  rms(total) = 0.44969E+00    rms(broyden)= 0.44957E+00
  rms(prec ) = 0.52529E+00
  weight for this iteration     100.00

 eigenvalues of (default mixing * dielectric matrix)
  average eigenvalue GAMMA=   0.5854
  2.0943  1.7590  1.7590  0.7927  0.7927  0.4268  0.4268  0.4351  0.3217  0.1850
  0.1850  0.0982  0.1326  0.1326  0.1529  0.1272  0.1303

 Free energy of the ion-electron system (eV)
  ---------------------------------------------------
  alpha Z        PSCENC =      1422.52235994
  Ewald energy   TEWEN  =    146137.77231067
  -Hartree energ DENC   =   -265814.13144364
  -exchange      EXHF   =         0.00000000
  -V(xc)+E(xc)   XCENC  =      3651.39373908
  PAW double counting   =    141075.40039339  -146072.77128230
  entropy T*S    EENTRO =        -1.34558114
  eigenvalues    EBANDS =    -16740.57102435
  atomic energy  EATOM  =    136002.60505376
  Solvation  Ediel_sol  =         0.00000000
  ---------------------------------------------------
  free energy    TOTEN  =      -339.12547459 eV

  energy without entropy =     -337.77989346  energy(sigma->0) =     -338.45268403


--------------------------------------------------------------------------------------------------------




--------------------------------------- Iteration      1(  23)  ---------------------------------------


    POTLOK:  cpu time    0.3205: real time    0.3205
    SETDIJ:  cpu time    0.0168: real time    0.0168
     EDDAV:  cpu time    9.3079: real time    9.3094
       DOS:  cpu time    0.0014: real time    0.0014
    CHARGE:  cpu time    0.3030: real time    0.3030
    MIXING:  cpu time    0.0201: real time    0.0201
    --------------------------------------------
      LOOP:  cpu time    9.9697: real time    9.9712

 eigenvalue-minimisations  :  1320
 total energy-change (2. order) : 0.3467518E-01  (-0.9647959E-02)
 number of electron     791.9997345 magnetization 
 augmentation part      311.9976641 magnetization 

 Broyden mixing:
  rms(total) = 0.37666E+00    rms(broyden)= 0.37655E+00
  rms(prec ) = 0.44758E+00
  weight for this iteration     100.00

 eigenvalues of (default mixing * dielectric matrix)
  average eigenvalue GAMMA=   0.6106
  2.0558  1.8934  1.8934  1.0163  1.0163  0.5777  0.4295  0.4295  0.3596  0.1950
  0.1950  0.0982  0.1325  0.1325  0.1562  0.1562  0.1269  0.1269

 Free energy of the ion-electron system (eV)
  ---------------------------------------------------
  alpha Z        PSCENC =      1422.52235994
  Ewald energy   TEWEN  =    146137.77231067
  -Hartree energ DENC   =   -265825.69362136
  -exchange      EXHF   =         0.00000000
  -V(xc)+E(xc)   XCENC  =      3651.47901216
  PAW double counting   =    140889.78867065  -145885.44579599
  entropy T*S    EENTRO =        -1.37749844
  eigenvalues    EBANDS =    -16730.74129079
  atomic energy  EATOM  =    136002.60505376
  Solvation  Ediel_sol  =         0.00000000
  ---------------------------------------------------
  free energy    TOTEN  =      -339.09079941 eV

  energy without entropy =     -337.71330097  energy(sigma->0) =     -338.40205019


--------------------------------------------------------------------------------------------------------




--------------------------------------- Iteration      1(  24)  ---------------------------------------


    POTLOK:  cpu time    0.3196: real time    0.3199
    SETDIJ:  cpu time    0.0168: real time    0.0168
     EDDAV:  cpu time    9.1411: real time    9.1427
       DOS:  cpu time    0.0013: real time    0.0013
    CHARGE:  cpu time    0.2987: real time    0.2987
    MIXING:  cpu time    0.0199: real time    0.0199
    --------------------------------------------
      LOOP:  cpu time    9.7974: real time    9.7993

 eigenvalue-minimisations  :  1288
 total energy-change (2. order) : 0.5637791E-01  (-0.1012854E-01)
 number of electron     791.9997341 magnetization 
 augmentation part      312.1086993 magnetization 

 Broyden mixing:
  rms(total) = 0.20660E+00    rms(broyden)= 0.20632E+00
  rms(prec ) = 0.23880E+00
  weight for this iteration     100.00

 eigenvalues of (default mixing * dielectric matrix)
  average eigenvalue GAMMA=   0.6206
  2.0278  1.9517  1.9517  1.1538  1.1538  0.5341  0.5341  0.4291  0.4291  0.3283
  0.1883  0.1883  0.0982  0.1325  0.1325  0.1576  0.1469  0.1268  0.1268

 Free energy of the ion-electron system (eV)
  ---------------------------------------------------
  alpha Z        PSCENC =      1422.52235994
  Ewald energy   TEWEN  =    146137.77231067
  -Hartree energ DENC   =   -265839.09415151
  -exchange      EXHF   =         0.00000000
  -V(xc)+E(xc)   XCENC  =      3651.54117773
  PAW double counting   =    140674.56480495  -145668.18613295
  entropy T*S    EENTRO =        -1.37477800
  eigenvalues    EBANDS =    -16719.38506609
  atomic energy  EATOM  =    136002.60505376
  Solvation  Ediel_sol  =         0.00000000
  ---------------------------------------------------
  free energy    TOTEN  =      -339.03442150 eV

  energy without entropy =     -337.65964350  energy(sigma->0) =     -338.34703250


--------------------------------------------------------------------------------------------------------




--------------------------------------- Iteration      1(  25)  ---------------------------------------


    POTLOK:  cpu time    0.3221: real time    0.3221
    SETDIJ:  cpu time    0.0168: real time    0.0168
     EDDAV:  cpu time    9.2563: real time    9.2582
       DOS:  cpu time    0.0013: real time    0.0013
    CHARGE:  cpu time    0.3000: real time    0.3001
    MIXING:  cpu time    0.0219: real time    0.0219
    --------------------------------------------
      LOOP:  cpu time    9.9183: real time    9.9204

 eigenvalue-minimisations  :  1312
 total energy-change (2. order) :-0.3661578E-02  (-0.6966393E-02)
 number of electron     791.9997339 magnetization 
 augmentation part      312.0634853 magnetization 

 Broyden mixing:
  rms(total) = 0.21068E+00    rms(broyden)= 0.21049E+00
  rms(prec ) = 0.24258E+00
  weight for this iteration     100.00

 eigenvalues of (default mixing * dielectric matrix)
  average eigenvalue GAMMA=   0.6285
  1.9710  1.7966  1.7966  1.4791  1.4791  0.6942  0.6942  0.4281  0.4281  0.3392
  0.1913  0.1913  0.0982  0.1325  0.1325  0.1674  0.1540  0.1431  0.1262  0.1262

 Free energy of the ion-electron system (eV)
  ---------------------------------------------------
  alpha Z        PSCENC =      1422.52235994
  Ewald energy   TEWEN  =    146137.77231067
  -Hartree energ DENC   =   -265849.74212992
  -exchange      EXHF   =         0.00000000
  -V(xc)+E(xc)   XCENC  =      3651.58450289
  PAW double counting   =    140561.98664314  -145554.52638238
  entropy T*S    EENTRO =        -1.39823337
  eigenvalues    EBANDS =    -16709.84220782
  atomic energy  EATOM  =    136002.60505376
  Solvation  Ediel_sol  =         0.00000000
  ---------------------------------------------------
  free energy    TOTEN  =      -339.03808308 eV

[...]
    FORCOR:  cpu time    0.4229: real time    0.4231
    FORHAR:  cpu time    0.1867: real time    0.1867
    MIXING:  cpu time    0.0337: real time    0.0337
    OFIELD:  cpu time    0.0001: real time    0.0001

  FORCE on cell =-STRESS in cart. coord.  units (eV):
  Direction    XX          YY          ZZ          XY          YZ          ZX
  --------------------------------------------------------------------------------------
  Alpha Z  1422.52236  1422.52236  1422.52236
  Ewald  194771.82345195638.76672************    -0.00000    -0.00000   142.31508
  Hartree228912.93105230228.87342************    -0.00044    -0.00000   122.26628
  E(xc)   -5052.77264 -5053.95579 -5060.83122    -0.00001     0.00000    -0.02990
  Local  ************************424905.40666     0.00094     0.00002  -265.82010
  n-local  -578.42938  -598.39466  -595.81476    -0.00828    -0.00028    -4.75831
  augment  5776.84492  5802.50016  5793.59999    -0.00087    -0.00143    -0.71797
  Kinetic 11069.43518 11107.93925 11186.62020    -0.00061    -0.00086     3.41068
  Fock        0.00000     0.00000     0.00000     0.00000     0.00000     0.00000
  -------------------------------------------------------------------------------------
  Total     120.75380   116.04948   139.88530     0.00000     0.00000    -3.33423
  in kB      73.98425    71.10198    85.70586     0.00000     0.00000    -2.04284
  external pressure =       76.93 kB  Pullay stress =        0.00 kB


 VOLUME and BASIS-vectors are now :
 -----------------------------------------------------------------------------
  energy-cutoff  :      450.00
  volume of cell :     2615.00
      direct lattice vectors                 reciprocal lattice vectors
    16.884694054  0.000000000  0.000000000     0.059225237  0.000000000  0.000000000
     0.000000000  9.578410000  0.000000000     0.000000000  0.104401461  0.000000000
     0.000000000  0.000000000 16.169087120     0.000000000  0.000000000  0.061846411

  length of vectors
    16.884694054  9.578410000 16.169087120     0.059225237  0.104401461  0.061846411


 FORCES acting on ions
    electron-ion (+dipol)            ewald-force                    non-local-force                 convergence-correction
 -----------------------------------------------------------------------------------------------
   0.246E+03 -.940E-03 0.207E+04   -.249E+03 -.480E-07 -.208E+04   0.263E+01 0.000E+00 0.635E+01   0.519E-01 0.355E-05 -.891E-01
   0.268E+03 -.783E-03 -.280E+04   -.273E+03 -.348E-07 0.280E+04   0.511E+01 0.000E+00 0.798E+00   0.282E+00 0.391E-05 0.427E-01
   0.112E+03 -.724E-03 0.285E+04   -.111E+03 -.142E-07 -.286E+04   0.101E-02 0.000E+00 0.680E+01   -.379E-01 -.338E-06 -.104E+00
   0.508E+03 -.835E-03 -.113E+04   -.509E+03 0.616E-08 0.113E+04   0.138E+01 0.000E+00 -.301E+01   -.757E-01 0.191E-06 0.386E-01
   -.495E+02 -.692E-03 0.234E+04   0.487E+02 -.620E-08 -.234E+04   0.158E+01 0.000E+00 0.620E+01   -.776E-01 -.180E-06 -.266E+00
   0.970E+02 -.895E-03 -.174E+04   -.991E+02 0.275E-08 0.174E+04   0.187E+01 0.000E+00 -.537E+01   -.109E+00 0.382E-06 -.339E+00
   0.645E+03 -.722E-03 0.768E+03   -.650E+03 -.179E-07 -.766E+03   0.461E+01 0.000E+00 -.162E+01   -.700E-01 -.524E-05 -.804E-01
   0.560E+03 -.812E-03 0.855E+03   -.564E+03 -.123E-07 -.857E+03   0.402E+01 0.000E+00 0.306E+01   -.600E-01 0.290E-05 0.167E+00
   0.505E+02 -.876E-03 -.343E+04   -.515E+02 -.178E-07 0.343E+04   0.264E+01 0.000E+00 -.225E+01   -.196E+00 0.282E-05 -.108E-02
   0.387E+03 -.787E-03 -.170E+04   -.394E+03 -.125E-07 0.170E+04   0.567E+01 0.000E+00 -.173E+01   0.158E+00 -.625E-06 -.401E-01
   -.169E+03 -.179E+03 0.198E+04   0.171E+03 0.181E+03 -.199E+04   -.192E+01 -.748E+00 0.815E+01   0.525E-01 0.104E+00 0.931E-01
   0.147E+03 0.534E+03 -.238E+04   -.146E+03 -.535E+03 0.238E+04   -.175E+01 -.419E+00 -.545E+01   0.114E+00 0.234E+00 0.690E-01
   -.281E+03 0.528E+03 0.381E+04   0.280E+03 -.522E+03 -.381E+04   0.101E+01 -.652E+01 -.175E+01   0.731E-01 -.148E+00 -.238E+00
   -.567E+03 0.346E+03 0.158E+03   0.568E+03 -.349E+03 -.158E+03   -.979E+00 0.308E+01 0.301E+00   0.802E-02 -.143E+00 -.217E+00
   -.293E+03 0.824E+02 -.350E+04   0.296E+03 -.849E+02 0.349E+04   -.305E+01 0.289E+01 0.241E+01   -.561E-01 -.515E-02 0.102E+00
   -.324E+03 0.710E+03 0.343E+04   0.323E+03 -.705E+03 -.343E+04   0.987E+00 -.566E+01 -.126E+01   -.753E-03 0.145E+00 -.202E+00
   -.542E+03 0.593E+03 -.837E+03   0.546E+03 -.598E+03 0.840E+03   -.286E+01 0.505E+01 -.340E+01   0.160E+00 0.223E-01 -.348E+00
   0.122E+02 0.544E+03 0.193E+04   -.971E+01 -.549E+03 -.193E+04   -.161E+01 0.500E+01 0.248E+01   -.173E+00 -.160E+00 -.801E-01
   0.174E+03 -.150E+03 -.274E+04   -.171E+03 0.150E+03 0.274E+04   -.245E+01 0.166E+01 0.658E+00   -.115E+00 -.261E+00 0.545E-01
   0.121E+03 0.383E+03 0.130E+04   -.121E+03 -.387E+03 -.131E+04   0.819E+00 0.295E+01 0.442E+01   -.634E-01 0.248E+00 -.547E-01
   0.582E+02 0.165E+03 -.322E+04   -.574E+02 -.169E+03 0.322E+04   -.600E+00 0.426E+01 0.202E+01   -.229E+00 0.183E+00 -.151E-01
   0.521E+03 -.426E+03 0.252E+04   -.523E+03 0.429E+03 -.252E+04   0.199E+01 -.172E+01 0.650E+01   0.192E-01 0.206E-01 -.128E+00
   -.242E+03 0.231E+03 -.171E+04   0.247E+03 -.234E+03 0.171E+04   -.334E+01 0.234E+01 -.450E+01   0.102E-01 -.143E+00 -.116E+00
   -.169E+03 0.179E+03 0.198E+04   0.171E+03 -.181E+03 -.199E+04   -.192E+01 0.748E+00 0.815E+01   0.525E-01 -.104E+00 0.931E-01
   0.147E+03 -.534E+03 -.238E+04   -.146E+03 0.535E+03 0.238E+04   -.175E+01 0.419E+00 -.545E+01   0.114E+00 -.234E+00 0.690E-01
   -.281E+03 -.528E+03 0.381E+04   0.280E+03 0.522E+03 -.381E+04   0.101E+01 0.652E+01 -.175E+01   0.731E-01 0.148E+00 -.238E+00
   -.567E+03 -.346E+03 0.158E+03   0.568E+03 0.349E+03 -.158E+03   -.979E+00 -.308E+01 0.301E+00   0.802E-02 0.143E+00 -.217E+00
   -.293E+03 -.824E+02 -.350E+04   0.296E+03 0.849E+02 0.349E+04   -.305E+01 -.289E+01 0.241E+01   -.561E-01 0.515E-02 0.102E+00
   -.324E+03 -.710E+03 0.343E+04   0.323E+03 0.705E+03 -.343E+04   0.987E+00 0.566E+01 -.126E+01   -.753E-03 -.145E+00 -.202E+00
   -.542E+03 -.593E+03 -.837E+03   0.546E+03 0.598E+03 0.840E+03   -.286E+01 -.505E+01 -.340E+01   0.160E+00 -.223E-01 -.348E+00
   0.122E+02 -.544E+03 0.193E+04   -.971E+01 0.549E+03 -.193E+04   -.161E+01 -.500E+01 0.248E+01   -.173E+00 0.160E+00 -.801E-01
   0.174E+03 0.150E+03 -.274E+04   -.171E+03 -.150E+03 0.274E+04   -.245E+01 -.166E+01 0.658E+00   -.115E+00 0.261E+00 0.545E-01
   0.121E+03 -.383E+03 0.130E+04   -.121E+03 0.387E+03 -.131E+04   0.819E+00 -.295E+01 0.442E+01   -.634E-01 -.248E+00 -.547E-01
   0.582E+02 -.165E+03 -.322E+04   -.574E+02 0.169E+03 0.322E+04   -.600E+00 -.426E+01 0.202E+01   -.229E+00 -.183E+00 -.151E-01
   0.521E+03 0.426E+03 0.252E+04   -.523E+03 -.429E+03 -.252E+04   0.199E+01 0.172E+01 0.650E+01   0.192E-01 -.206E-01 -.128E+00
   -.242E+03 -.231E+03 -.171E+04   0.247E+03 0.234E+03 0.171E+04   -.334E+01 -.234E+01 -.450E+01   0.102E-01 0.143E+00 -.116E+00
   0.132E+03 -.886E-05 -.165E+04   -.132E+03 0.101E-07 0.165E+04   -.101E+01 0.000E+00 -.126E+01   0.266E-01 0.127E-05 -.860E-01
   -.752E+02 -.149E-04 0.487E+03   0.756E+02 -.289E-07 -.493E+03   0.913E+00 0.000E+00 0.283E+01   -.170E-01 0.175E-05 0.120E+00
   -.728E+03 -.180E-04 0.914E+03   0.735E+03 0.396E-07 -.916E+03   -.351E+01 0.000E+00 0.290E+00   0.578E-01 0.345E-06 -.110E+00
   -.334E+03 0.332E-05 -.636E+03   0.336E+03 -.173E-07 0.638E+03   0.113E+00 0.000E+00 -.157E+01   0.663E-01 -.570E-07 -.273E-01
   -.322E+03 0.327E-04 0.784E+03   0.325E+03 -.616E-07 -.786E+03   -.905E+00 0.000E+00 0.132E+01   -.125E+00 -.278E-07 -.129E+00
   -.111E+03 -.182E-05 -.110E+04   0.112E+03 -.769E-08 0.111E+04   -.289E-02 0.000E+00 -.253E+01   0.527E-01 0.477E-06 -.838E-02
   0.672E+02 0.112E-04 0.168E+04   -.662E+02 0.957E-08 -.169E+04   -.470E+00 0.000E+00 0.273E+01   -.784E-01 -.664E-06 -.913E-01
   -.702E+02 -.158E-05 -.423E+03   0.704E+02 0.814E-08 0.427E+03   0.612E+00 0.000E+00 -.252E+01   -.189E-01 -.585E-06 0.612E-02
   0.111E+03 0.418E-05 0.158E+04   -.112E+03 0.195E-08 -.159E+04   0.798E+00 0.000E+00 0.167E+01   -.216E-02 0.545E-07 0.166E-01
   -.963E+02 -.360E-04 -.581E+03   0.969E+02 0.401E-08 0.586E+03   0.766E+00 0.000E+00 -.429E+01   -.106E+00 0.134E-06 -.814E-01
   0.377E+02 0.749E-06 0.637E+03   -.364E+02 -.272E-07 -.640E+03   -.125E+01 0.000E+00 0.172E+01   0.640E-02 -.136E-05 -.591E-01
   -.368E+03 0.203E-04 -.136E+04   0.373E+03 0.154E-07 0.136E+04   -.215E+01 0.000E+00 -.283E+00   0.269E-01 -.127E-05 0.219E-01
   -.436E+02 0.172E+02 0.158E+04   0.445E+02 -.169E+02 -.159E+04   -.501E+00 -.345E+00 0.347E+01   0.312E-01 0.343E-01 -.579E-01
   0.733E+02 -.708E+02 -.345E+03   -.741E+02 0.705E+02 0.348E+03   -.137E+00 0.841E+00 -.185E+01   0.111E+00 -.160E-02 0.223E-01
   0.163E+03 -.225E+03 0.797E+03   -.164E+03 0.227E+03 -.801E+03   -.634E+00 -.143E+01 0.296E+01   -.416E-02 0.120E+00 -.424E-01
   0.195E+03 0.540E+02 -.115E+04   -.195E+03 -.530E+02 0.115E+04   -.224E+00 -.444E+00 -.208E+01   -.841E-01 0.413E-01 0.290E-01
   -.239E+02 -.215E+03 0.493E+03   0.224E+02 0.217E+03 -.495E+03   -.318E+00 -.515E+00 0.186E+01   0.535E-01 -.747E-01 -.173E+00
   -.184E+03 0.216E+02 -.138E+04   0.185E+03 -.207E+02 0.138E+04   -.499E+00 -.809E+00 -.210E+01   0.378E-01 -.946E-02 0.186E-01
   0.154E+03 0.815E+02 -.570E+03   -.154E+03 -.842E+02 0.574E+03   -.457E+00 0.161E+01 -.212E+01   -.721E-01 0.122E+00 0.424E-02
   0.113E+03 -.815E+02 0.154E+04   -.114E+03 0.824E+02 -.155E+04   0.811E+00 -.227E+00 0.370E+01   -.320E-01 0.299E-01 -.288E-01
   0.144E+03 0.524E+02 0.112E+04   -.145E+03 -.535E+02 -.112E+04   0.361E+00 0.957E+00 0.385E+01   0.333E-02 -.859E-01 0.102E-01
   0.696E+02 -.144E+03 -.888E+03   -.701E+02 0.146E+03 0.891E+03   0.204E-02 -.251E+01 -.168E+01   -.471E-01 -.146E+00 0.136E-01
   0.205E+03 0.110E+03 0.307E+03   -.208E+03 -.110E+03 -.310E+03   0.757E+00 0.454E+00 0.158E+01   0.252E-01 0.164E-01 -.713E-01
   -.118E+02 -.226E+03 -.149E+04   0.106E+02 0.230E+03 0.150E+04   0.848E+00 -.210E+01 -.139E+01   0.315E-01 0.225E-01 0.411E-01
   0.163E+03 0.225E+03 0.797E+03   -.164E+03 -.227E+03 -.801E+03   -.634E+00 0.143E+01 0.296E+01   -.416E-02 -.120E+00 -.424E-01
   0.195E+03 -.540E+02 -.115E+04   -.195E+03 0.530E+02 0.115E+04   -.224E+00 0.444E+00 -.208E+01   -.841E-01 -.413E-01 0.290E-01
   -.436E+02 -.172E+02 0.158E+04   0.445E+02 0.169E+02 -.159E+04   -.501E+00 0.345E+00 0.347E+01   0.312E-01 -.343E-01 -.579E-01
   0.733E+02 0.708E+02 -.345E+03   -.741E+02 -.705E+02 0.348E+03   -.137E+00 -.841E+00 -.185E+01   0.111E+00 0.161E-02 0.223E-01
   0.154E+03 -.815E+02 -.570E+03   -.154E+03 0.842E+02 0.574E+03   -.457E+00 -.161E+01 -.212E+01   -.721E-01 -.122E+00 0.424E-02
   0.113E+03 0.815E+02 0.154E+04   -.114E+03 -.824E+02 -.155E+04   0.811E+00 0.227E+00 0.370E+01   -.320E-01 -.299E-01 -.288E-01
   -.239E+02 0.215E+03 0.493E+03   0.224E+02 -.217E+03 -.495E+03   -.318E+00 0.515E+00 0.186E+01   0.535E-01 0.747E-01 -.173E+00
   -.184E+03 -.216E+02 -.138E+04   0.185E+03 0.207E+02 0.138E+04   -.499E+00 0.809E+00 -.210E+01   0.378E-01 0.946E-02 0.186E-01
   0.205E+03 -.110E+03 0.307E+03   -.208E+03 0.110E+03 -.310E+03   0.757E+00 -.454E+00 0.158E+01   0.252E-01 -.164E-01 -.713E-01
   -.118E+02 0.226E+03 -.149E+04   0.106E+02 -.230E+03 0.150E+04   0.848E+00 0.210E+01 -.139E+01   0.315E-01 -.225E-01 0.411E-01
   0.144E+03 -.524E+02 0.112E+04   -.145E+03 0.535E+02 -.112E+04   0.361E+00 -.957E+00 0.385E+01   0.333E-02 0.859E-01 0.102E-01
   0.696E+02 0.144E+03 -.888E+03   -.701E+02 -.146E+03 0.891E+03   0.204E-02 0.251E+01 -.168E+01   -.471E-01 0.146E+00 0.136E-01
 -----------------------------------------------------------------------------------------------
   0.447E+01 -.666E-02 -.372E+02   0.796E-12 -.279E-11 0.284E-11   -.409E+01 0.000E+00 0.409E+02   -.535E+00 -.270E-06 -.373E+01
 
 
 POSITION                                       TOTAL-FORCE (eV/Angst)
 -----------------------------------------------------------------------------------
     13.17084      1.39171      1.94975        -0.439355      0.000000      1.074343
     13.45777      1.39171      4.60244         0.099824      0.000000      0.488166
      3.78356      6.18092      1.52986         0.847553      0.000000     -0.049373
      5.02033      6.18092      3.49202         0.114767      0.000000      0.040644
      6.67829      1.39171      2.01848         0.735609      0.000000     -0.253656
      7.93172      1.39171      4.00611        -0.322494      0.000000     -0.798467
     16.08224      6.18092      2.46384        -0.885216      0.000000      0.274768
      2.10894      1.39171      2.97793        -0.548466      0.000000      0.242966
      1.71497      1.39171      5.26724         1.447724      0.000000      0.628556
     10.84312      6.18092      4.52020        -1.820197      0.000000     -2.616168
     15.56717      8.94956      2.12441         0.629617      1.457583      0.319858
     15.97326      0.15218      4.43538        -0.876887     -0.587274     -0.116091
      6.79409      4.96447      0.67421         0.040434     -0.570594     -1.324005
      7.17375      4.91558      3.08454         0.050912     -0.562111      0.008279
      7.83510      4.52376      5.42336         0.002273      0.321956      1.062717
      9.55160      0.18163      1.05691         0.092674     -0.488597     -1.247685
     10.08514      0.12638      3.59863         0.595198     -0.412876     -1.503546
      1.35096      4.91558      2.05636         0.703295     -0.099514      0.401556
      1.73490      4.66779      4.44501         0.336114      0.651180      0.886108
      4.26235      0.12638      2.57045         0.228455     -0.876998      1.386211
      4.91739      9.38303      5.00619         0.016908      0.034852      0.741133
     13.06495      4.13628      1.90864        -0.684262      0.809660     -0.003995
     12.99653      4.91558      4.11272         0.869680     -0.461024     -0.795622
     15.56717      3.41228      2.12441         0.629617     -1.457583      0.319858
     15.97326      2.63125      4.43538        -0.876887      0.587274     -0.116091
      6.79409      7.39737      0.67421         0.040434      0.570594     -1.324005
      7.17375      7.44626      3.08454         0.050912      0.562111      0.008279
      7.83510      7.83808      5.42336         0.002273     -0.321956      1.062717
      9.55160      2.60180      1.05691         0.092674      0.488597     -1.247685
     10.08514      2.65705      3.59863         0.595198      0.412876     -1.503546
      1.35096      7.44626      2.05636         0.703295      0.099514      0.401556
      1.73490      7.69405      4.44501         0.336114     -0.651180      0.886108
      4.26235      2.65705      2.57045         0.228455      0.876998      1.386211
      4.91739      2.97881      5.00619         0.016908     -0.034852      0.741133
     13.06495      8.22555      1.90864        -0.684262     -0.809660     -0.003995
     12.99653      7.44626      4.11272         0.869680      0.461024     -0.795622
     16.69231      1.39171      5.90598        -0.752323      0.000000      3.798815
     16.74052      1.39171      2.94940         1.301433      0.000000     -2.673124
      8.09713      6.18092      1.63134         3.350174      0.000000     -1.645997
      8.59001      6.18092      4.49167         1.971745      0.000000      0.411784
     10.91773      1.39171      1.92122         2.227665      0.000000     -1.204187
     11.40329      1.39171      4.64122         0.989251      0.000000      2.822756
      2.03257      6.18092      0.54638         0.411960      0.000000     -3.710131
      2.76722      6.18092      3.46349         0.781351      0.000000      1.728114
      4.88213      1.39171      1.06944         0.401236      0.000000     -3.962904
      5.67861      1.39171      3.97758         1.331845      0.000000      0.328308
     13.82913      6.18092      2.43531         0.066773      0.000000     -1.731070
     14.11499      6.18092      5.24333         2.568750      0.000000      2.961368
     14.08859      2.82133      0.76115         0.436910      0.007146     -3.754711
     13.99844      3.00295      3.46826        -0.879016      0.549807      1.839712
      5.26426      7.79215      1.92599        -1.405675      0.819734     -0.641214
      5.89937      7.60617      4.80454        -1.185660      0.639544      1.827900
      8.17565      3.00295      2.44008        -1.747231      1.221951     -0.052700
      8.85029      2.79579      5.25796         0.191554      0.124220      2.893045
     16.73507      7.89259      3.62386        -0.380421     -0.930669      2.420697
     16.47893      7.56763      0.92635        -0.308443      0.697402     -3.195270
      2.37141      3.08583      1.78096        -0.550580     -0.233347     -2.738802
      2.93654      3.00295      4.49645        -0.617164     -0.609767      1.142630
     11.25045      7.90230      3.05413        -2.163580      0.162874     -1.128299
     11.71698      7.55952      5.69637        -0.334912      1.516989      3.494341
      5.26426      4.56969      1.92599        -1.405675     -0.819734     -0.641214
      5.89937      4.75567      4.80454        -1.185660     -0.639544      1.827900
     14.08859      9.54051      0.76115         0.436910     -0.007146     -3.754711
     13.99844      9.35889      3.46826        -0.879016     -0.549807      1.839712
     16.73507      4.46924      3.62386        -0.380421      0.930669      2.420697
     16.47893      4.79421      0.92635        -0.308443     -0.697402     -3.195270
      8.17565      9.35889      2.44008        -1.747231     -1.221951     -0.052700
      8.85029      9.56605      5.25796         0.191554     -0.124220      2.893045
     11.25045      4.45954      3.05413        -2.163580     -0.162874     -1.128299
     11.71698      4.80231      5.69637        -0.334912     -1.516989      3.494341
      2.37141      9.27601      1.78096        -0.550580      0.233347     -2.738802
      2.93654      9.35889      4.49645        -0.617164      0.609767      1.142630
 -----------------------------------------------------------------------------------
    total drift:                               -0.151667     -0.006662     -0.000105


--------------------------------------------------------------------------------------------------------



  FREE ENERGIE OF THE ION-ELECTRON SYSTEM (eV)
  ---------------------------------------------------
  free  energy   TOTEN  =      -339.01940300 eV

  energy  without entropy=     -337.62662373  energy(sigma->0) =     -338.32301336
 


--------------------------------------------------------------------------------------------------------


    POTLOK:  cpu time    0.3377: real time    0.3380


--------------------------------------------------------------------------------------------------------


     LOOP+:  cpu time  318.2151: real time  318.2804
    4ORBIT:  cpu time    0.0000: real time    0.0000

 total amount of memory used by VASP MPI-rank0    77182. kBytes
=======================================================================

   base      :      30000. kBytes
   nonlr-proj:       2073. kBytes
   fftplans  :       9935. kBytes
   grid      :      16773. kBytes
   one-center:         93. kBytes
   wavefun   :      18308. kBytes
 
  
  
 General timing and accounting informations for this job:
 ========================================================
  
                  Total CPU time used (sec):      321.410
                            User time (sec):      321.066
                          System time (sec):        0.344
                         Elapsed time (sec):      321.713
  
                   Maximum memory used (kb):      210584.
                   Average memory used (kb):           0.
  
                          Minor page faults:       112403
                          Major page faults:            0
                 Voluntary context switches:          250
