       N       E                     dE             d eps       ncg     rms          rms(c)
DAV:   1     0.149156145815E+05    0.14916E+05   -0.74196E+05  1660   0.170E+03
DAV:   2     0.102392963896E+04   -0.13892E+05   -0.13433E+05  1428   0.550E+02
DAV:   3    -0.470146061394E+03   -0.14941E+04   -0.14078E+04  1568   0.196E+02
DAV:   4    -0.569810661446E+03   -0.99665E+02   -0.98142E+02  1560   0.448E+01
DAV:   5    -0.573938831907E+03   -0.41282E+01   -0.41217E+01  1792   0.981E+00    0.116E+02
DAV:   6    -0.681155463774E+03   -0.10722E+03   -0.13109E+03  1736   0.126E+02    0.193E+02
DAV:   7    -0.545155530470E+03    0.13600E+03   -0.29504E+02  1552   0.862E+01    0.929E+01
DAV:   8    -0.669308386923E+03   -0.12415E+03   -0.29261E+02  1928   0.109E+02    0.191E+02
DAV:   9    -0.620985332489E+03    0.48323E+02   -0.21641E+02  1864   0.890E+01    0.153E+02
DAV:  10    -0.616646129837E+03    0.43392E+01   -0.25769E+02  1944   0.830E+01    0.141E+02
DAV:  11    -0.597222020662E+03    0.19424E+02   -0.12149E+02  1880   0.544E+01    0.110E+02
DAV:  12    -0.553401772114E+03    0.43820E+02   -0.97804E+01  1896   0.559E+01    0.730E+01
DAV:  13    -0.558980327342E+03   -0.55786E+01   -0.10360E+02  1896   0.590E+01    0.990E+01
DAV:  14    -0.537413263982E+03    0.21567E+02   -0.75114E+01  1888   0.408E+01    0.726E+01
DAV:  15    -0.523757847711E+03    0.13655E+02   -0.41068E+01  1888   0.271E+01    0.451E+01
DAV:  16    -0.517773607266E+03    0.59842E+01   -0.14926E+01  1904   0.188E+01    0.328E+01
DAV:  17    -0.514311042403E+03    0.34626E+01   -0.42946E+00  1888   0.107E+01    0.288E+01
DAV:  18    -0.513198786285E+03    0.11123E+01   -0.20011E+00  1816   0.725E+00    0.272E+01
DAV:  19    -0.512028514765E+03    0.11703E+01   -0.63045E-01  1888   0.408E+00    0.260E+01
DAV:  20    -0.510879137270E+03    0.11494E+01   -0.49769E-01  1896   0.433E+00    0.241E+01
DAV:  21    -0.509541089737E+03    0.13380E+01   -0.54775E-01  1920   0.469E+00    0.218E+01
DAV:  22    -0.507765028210E+03    0.17761E+01   -0.73335E-01  1936   0.548E+00    0.177E+01
DAV:  23    -0.505950809431E+03    0.18142E+01   -0.11211E+00  1888   0.650E+00    0.114E+01
DAV:  24    -0.505501515659E+03    0.44929E+00   -0.80576E-01  1880   0.357E+00    0.809E+00
DAV:  25    -0.505491251145E+03    0.10265E-01   -0.30657E-01  1656   0.249E+00    0.789E+00
DAV:  26    -0.505426605018E+03    0.64646E-01   -0.37058E-01  1816   0.411E+00    0.741E+00
DAV:  27    -0.505157763841E+03    0.26884E+00   -0.54124E-01  2072   0.446E+00    0.335E+00
DAV:  28    -0.505181426251E+03   -0.23662E-01   -0.24503E-01  1840   0.252E+00    0.366E+00
DAV:  29    -0.505145265325E+03    0.36161E-01   -0.11523E-01  1536   0.177E+00    0.239E+00
DAV:  30    -0.505137360730E+03    0.79046E-02   -0.53689E-02  1568   0.136E+00    0.194E+00
DAV:  31    -0.505136867367E+03    0.49336E-03   -0.44462E-02  1896   0.117E+00    0.164E+00
DAV:  32    -0.505130528474E+03    0.63389E-02   -0.22540E-02  1792   0.866E-01    0.120E+00
DAV:  33    -0.505126068149E+03    0.44603E-02   -0.74666E-03  1784   0.479E-01    0.838E-01
DAV:  34    -0.505125218814E+03    0.84933E-03   -0.24353E-03  1840   0.284E-01    0.754E-01
DAV:  35    -0.505123618229E+03    0.16006E-02   -0.18265E-03  1752   0.235E-01    0.547E-01
DAV:  36    -0.505123555737E+03    0.62492E-04   -0.23769E-03  1728   0.297E-01    0.490E-01
DAV:  37    -0.505123521606E+03    0.34130E-04   -0.23622E-03  1840   0.280E-01    0.363E-01
DAV:  38    -0.505123469458E+03    0.52148E-04   -0.89460E-04  1536   0.150E-01
   1 F= -.50512347E+03 E0= -.50449399E+03  d E =-.125895E+01
