 vasp.6.1.0 28Jan20 (build Mar 31 2020 17:42:31) gamma-only                     
  
 executed on             LinuxIFC date 2020.04.12  09:38:23
 running on   48 total cores
 distrk:  each k-point on   48 cores,    1 groups
 distr:  one band on NCORE=   6 cores,    8 groups


--------------------------------------------------------------------------------------------------------


 INCAR:
 POTCAR:    PAW_PBE Ni_pv 06Sep2000               
 POTCAR:    PAW_PBE S 06Sep2000                   
 POTCAR:    PAW_PBE Ni_pv 06Sep2000               
   VRHFIN =Ni:                                                                                      
   LEXCH  = PE                                                                                      
   EATOM  =  3501.1230 eV,  257.3253 Ry                                                             
                                                                                                    
   TITEL  = PAW_PBE Ni_pv 06Sep2000                                                                 
   LULTRA =        F    use ultrasoft PP ?                                                          
   IUNSCR =        1    unscreen: 0-lin 1-nonlin 2-no                                               
   RPACOR =    1.500    partial core radius                                                         
   POMASS =   58.690; ZVAL   =   16.000    mass and valenz                                          
   RCORE  =    2.000    outmost cutoff radius                                                       
   RWIGS  =    2.000; RWIGS  =    1.058    wigner-seitz radius (au A)                               
   ENMAX  =  367.986; ENMIN  =  275.989 eV                                                          
   RCLOC  =    1.301    cutoff for local pot                                                        
   LCOR   =        T    correct aug charges                                                         
   LPAW   =        T    paw PP                                                                      
   EAUG   =  703.443                                                                                
   DEXC   =    0.000                                                                                
   RMAX   =    2.041    core radius for proj-oper                                                   
   RAUG   =    1.300    factor for augmentation sphere                                              
   RDEP   =    2.103    radius for radial grids                                                     
   RDEPT  =    1.618    core radius for aug-charge                                                  
                                                                                                    
   Atomic configuration                                                                             
    8 entries                                                                                       
     n  l   j            E        occ.                                                              
     1  0  0.50     -8206.4253   2.0000                                                             
     2  0  0.50      -976.1748   2.0000                                                             
     2  1  1.50      -839.0571   6.0000                                                             
     3  0  0.50      -105.9991   2.0000                                                             
     3  1  1.50       -66.4603   6.0000                                                             
     3  2  2.50        -4.6458   9.0000                                                             
     4  0  0.50        -4.4926   1.0000                                                             
     4  3  2.50        -1.3606   0.0000                                                             
   Description                                                                                      
     l       E           TYP  RCUT    TYP  RCUT                                                     
     1    -66.4602962     23  1.700                                                                 
     1     -1.3605826     23  1.700                                                                 
     2     -4.6457867     23  2.000                                                                 
     2     -6.0063693     23  2.000                                                                 
     0     -4.4925576     23  1.900                                                                 
     0     16.3626226     23  1.900                                                                 
  local pseudopotential read in
  partial core-charges read in
  partial kinetic energy density read in
  atomic valenz-charges read in
  non local Contribution for L=           1  read in
    real space projection operators read in
  non local Contribution for L=           1  read in
    real space projection operators read in
  non local Contribution for L=           2  read in
    real space projection operators read in
  non local Contribution for L=           2  read in
    real space projection operators read in
  non local Contribution for L=           0  read in
    real space projection operators read in
  non local Contribution for L=           0  read in
    real space projection operators read in
    PAW grid and wavefunctions read in
 
   number of l-projection  operators is LMAX  =           6
   number of lm-projection operators is LMMAX =          18
 
 POTCAR:    PAW_PBE S 06Sep2000                   
   VRHFIN =S : s2p4                                                                                 
   LEXCH  = PE                                                                                      
   EATOM  =   276.8230 eV,   20.3459 Ry                                                             
                                                                                                    
   TITEL  = PAW_PBE S 06Sep2000                                                                     
   LULTRA =        F    use ultrasoft PP ?                                                          
   IUNSCR =        1    unscreen: 0-lin 1-nonlin 2-no                                               
   RPACOR =    1.500    partial core radius                                                         
   POMASS =   32.066; ZVAL   =    6.000    mass and valenz                                          
   RCORE  =    1.900    outmost cutoff radius                                                       
   RWIGS  =    2.200; RWIGS  =    1.164    wigner-seitz radius (au A)                               
   ENMAX  =  258.689; ENMIN  =  194.016 eV                                                          
   ICORE  =        2    local potential                                                             
   LCOR   =        T    correct aug charges                                                         
   LPAW   =        T    paw PP                                                                      
   EAUG   =  335.092                                                                                
   DEXC   =    0.000                                                                                
   RMAX   =    1.942    core radius for proj-oper                                                   
   RAUG   =    1.300    factor for augmentation sphere                                              
   RDEP   =    1.954    radius for radial grids                                                     
   RDEPT  =    1.744    core radius for aug-charge                                                  
                                                                                                    
   Atomic configuration                                                                             
    6 entries                                                                                       
     n  l   j            E        occ.                                                              
     1  0  0.50     -2405.8406   2.0000                                                             
     2  0  0.50      -211.7007   2.0000                                                             
     2  1  1.50      -156.4958   6.0000                                                             
     3  0  0.50       -17.2562   2.0000                                                             
     3  1  0.50        -7.0085   4.0000                                                             
     3  2  1.50        -6.8029   0.0000                                                             
   Description                                                                                      
     l       E           TYP  RCUT    TYP  RCUT                                                     
     0    -17.2561641     23  1.900                                                                 
     0    -15.8743224     23  1.900                                                                 
     1     -7.0085400     23  1.900                                                                 
     1     -2.7779785     23  1.900                                                                 
     2     -6.8029130     23  1.900                                                                 
  local pseudopotential read in
  partial core-charges read in
  partial kinetic energy density read in
  atomic valenz-charges read in
  non local Contribution for L=           0  read in
    real space projection operators read in
  non local Contribution for L=           0  read in
    real space projection operators read in
  non local Contribution for L=           1  read in
    real space projection operators read in
  non local Contribution for L=           1  read in
    real space projection operators read in
    PAW grid and wavefunctions read in
 
   number of l-projection  operators is LMAX  =           4
   number of lm-projection operators is LMMAX =           8
 
 Optimization of the real space projectors (new method)

 maximal supplied QI-value         = 18.90
 optimisation between [QCUT,QGAM] = [ 10.77, 21.73] = [ 32.49,132.25] Ry 
 Optimized for a Real-space Cutoff    1.38 Angstroem

   l    n(q)    QCUT    max X(q) W(low)/X(q) W(high)/X(q)  e(spline) 
   1      8    10.771     2.836    0.40E-04    0.29E-04    0.12E-06
   1      8    10.771     4.023    0.10E-03    0.48E-04    0.29E-06
   2      8    10.771    73.368    0.42E-03    0.97E-04    0.44E-06
   2      8    10.771    69.010    0.42E-03    0.99E-04    0.45E-06
   0      9    10.771    54.797    0.10E-03    0.56E-04    0.74E-07
   0      9    10.771    24.266    0.89E-04    0.49E-04    0.67E-07
 Optimization of the real space projectors (new method)

 maximal supplied QI-value         = 19.84
 optimisation between [QCUT,QGAM] = [ 10.71, 21.63] = [ 32.15,130.99] Ry 
 Optimized for a Real-space Cutoff    1.19 Angstroem

   l    n(q)    QCUT    max X(q) W(low)/X(q) W(high)/X(q)  e(spline) 
   0      8    10.715   187.594    0.41E-03    0.53E-04    0.66E-07
   0      8    10.715   164.243    0.41E-03    0.53E-04    0.65E-07
   1      7    10.715    67.533    0.19E-03    0.59E-03    0.68E-07
   1      7    10.715    50.729    0.19E-03    0.58E-03    0.67E-07
  PAW_PBE Ni_pv 06Sep2000               :
 energy of atom  1       EATOM=-3501.1230
 kinetic energy error for atom=    0.0925 (will be added to EATOM!!)
  PAW_PBE S 06Sep2000                   :
 energy of atom  2       EATOM= -276.8230
 kinetic energy error for atom=    0.0033 (will be added to EATOM!!)
 
 
 POSCAR: Structure 33 made from -112-10.xsd file
  positions in direct lattice
  No initial velocities read in
 exchange correlation table for  LEXCH =        8
   RHO(1)=    0.500       N(1)  =     2000
   RHO(2)=  100.500       N(2)  =     4000
 


--------------------------------------------------------------------------------------------------------


 ion  position               nearest neighbor table
   1  0.780  0.145  0.121-  41 2.25  49 2.26  63 2.26  50 2.36  64 2.36  24 2.53  12 2.53
   2  0.815  0.145  0.311-  42 2.25  50 2.26  64 2.26  25 2.53  13 2.53
   3  0.263  0.645  0.025-  43 2.25  51 2.36  61 2.36  26 2.53  14 2.53
   4  0.297  0.645  0.216-  44 2.25  51 2.26  61 2.26  52 2.36  62 2.36  27 2.53  15 2.53
   5  0.435  0.145  0.057-  45 2.25  53 2.36  67 2.36  29 2.53  17 2.53
   6  0.470  0.145  0.248-  46 2.25  53 2.26  67 2.26  54 2.36  68 2.36  30 2.53  18 2.53
   7  0.952  0.645  0.152-  47 2.25  56 2.26  66 2.26  55 2.36  65 2.36  31 2.53  19 2.53
   8  0.987  0.645  0.343-  48 2.25  55 2.26  65 2.26  32 2.53  20 2.53
   9  0.125  0.145  0.184-  38 2.25  57 2.26  71 2.26  58 2.36  72 2.36  33 2.53  21 2.53
  10  0.159  0.145  0.375-  37 2.25  58 2.26  72 2.26  34 2.53  22 2.53
  11  0.642  0.645  0.280-  40 2.25  59 2.26  69 2.26  60 2.36  70 2.36  36 2.53  23 2.53
  12  0.908  0.013  0.095-  56 2.25  63 2.26  64 2.36  38 2.36   1 2.53  24 2.53
  13  0.942  0.013  0.286-  55 2.25  64 2.26  38 2.26  37 2.36   2 2.53  25 2.53
  14  0.390  0.513  0.000-  39 2.36  61 2.36   3 2.53  26 2.53
  15  0.425  0.513  0.191-  53 2.25  39 2.26  61 2.26  40 2.36  62 2.36  27 2.53   4 2.53
  16  0.459  0.513  0.382-  54 2.25  40 2.26  62 2.26  28 2.53
  17  0.563  0.013  0.032-  41 2.36  67 2.36   5 2.53  29 2.53
  18  0.597  0.013  0.223-  59 2.25  67 2.26  41 2.26  68 2.36  42 2.36   6 2.53  30 2.53
  19  0.080  0.513  0.127-  57 2.25  43 2.26  66 2.26  44 2.36  65 2.36   7 2.53  31 2.53
  20  0.115  0.513  0.318-  58 2.25  44 2.26  65 2.26   8 2.53  32 2.53
  21  0.252  0.013  0.159-  51 2.25  45 2.26  71 2.26  46 2.36  72 2.36   9 2.53  33 2.53
  22  0.287  0.013  0.350-  52 2.25  46 2.26  72 2.26  10 2.53  34 2.53
  23  0.770  0.513  0.254-  50 2.25  69 2.26  47 2.26  48 2.36  70 2.36  11 2.53  36 2.53
  24  0.908  0.277  0.095-  66 2.25  49 2.26  50 2.36  38 2.36   1 2.53  12 2.53
  25  0.942  0.277  0.286-  65 2.25  50 2.26  38 2.26  37 2.36   2 2.53  13 2.53
  26  0.390  0.777  0.000-  39 2.36  51 2.36   3 2.53  14 2.53
  27  0.425  0.777  0.191-  67 2.25  39 2.26  51 2.26  40 2.36  52 2.36  15 2.53   4 2.53
  28  0.459  0.777  0.382-  68 2.25  40 2.26  52 2.26  16 2.53
  29  0.563  0.277  0.032-  41 2.36  53 2.36   5 2.53  17 2.53
  30  0.597  0.277  0.223-  69 2.25  53 2.26  41 2.26  54 2.36  42 2.36   6 2.53  18 2.53
  31  0.080  0.777  0.127-  71 2.25  43 2.26  56 2.26  44 2.36  55 2.36   7 2.53  19 2.53
  32  0.115  0.777  0.318-  72 2.25  44 2.26  55 2.26   8 2.53  20 2.53
  33  0.252  0.277  0.159-  61 2.25  45 2.26  57 2.26  46 2.36  58 2.36   9 2.53  21 2.53
  34  0.287  0.277  0.350-  62 2.25  46 2.26  58 2.26  10 2.53  22 2.53
  35  0.735  0.777  0.064-  63 2.25  59 2.36  47 2.36
  36  0.770  0.777  0.254-  64 2.25  59 2.26  47 2.26  48 2.36  60 2.36  11 2.53  23 2.53
  37  0.026  0.145  0.373-  10 2.25  13 2.36  25 2.36
  38  0.991  0.145  0.182-   9 2.25  13 2.26  25 2.26  24 2.36  12 2.36
  39  0.474  0.645  0.087-  15 2.26  27 2.26  26 2.36  14 2.36
  40  0.509  0.645  0.278-  11 2.25  16 2.26  28 2.26  27 2.36  15 2.36
  41  0.647  0.145  0.119-   1 2.25  18 2.26  30 2.26  29 2.36  17 2.36
  42  0.681  0.145  0.310-   2 2.25  18 2.36  30 2.36
  43  0.129  0.645  0.023-   3 2.25  19 2.26  31 2.26
  44  0.164  0.645  0.214-   4 2.25  20 2.26  32 2.26  31 2.36  19 2.36
  45  0.302  0.145  0.055-   5 2.25  21 2.26  33 2.26
  46  0.336  0.145  0.246-   6 2.25  22 2.26  34 2.26  33 2.36  21 2.36
  47  0.819  0.645  0.151-   7 2.25  23 2.26  36 2.26  35 2.36
  48  0.854  0.645  0.341-   8 2.25  23 2.36  36 2.36
  49  0.794  0.314  0.024-   1 2.26  24 2.26
  50  0.829  0.314  0.214-  23 2.25  25 2.26   2 2.26  24 2.36   1 2.36
  51  0.312  0.814  0.119-  21 2.25   4 2.26  27 2.26  26 2.36   3 2.36
  52  0.346  0.814  0.310-  22 2.25  28 2.26   4 2.36  27 2.36
  53  0.484  0.314  0.151-  15 2.25  30 2.26   6 2.26  29 2.36   5 2.36
  54  0.519  0.314  0.342-  16 2.25  30 2.36   6 2.36
  55  0.001  0.814  0.246-  13 2.25   8 2.26  32 2.26   7 2.36  31 2.36
  56  0.967  0.814  0.056-  12 2.25   7 2.26  31 2.26
  57  0.139  0.314  0.087-  19 2.25  33 2.26   9 2.26
  58  0.174  0.314  0.278-  20 2.25  10 2.26  34 2.26   9 2.36  33 2.36
  59  0.657  0.814  0.183-  18 2.25  36 2.26  11 2.26  35 2.36
  60  0.691  0.814  0.373-  36 2.36  11 2.36
  61  0.312  0.477  0.119-  33 2.25   4 2.26  15 2.26  14 2.36   3 2.36
  62  0.346  0.477  0.310-  34 2.25  16 2.26   4 2.36  15 2.36
  63  0.794  0.977  0.024-  35 2.25   1 2.26  12 2.26
  64  0.829  0.977  0.214-  36 2.25  13 2.26   2 2.26  12 2.36   1 2.36
  65  0.001  0.477  0.246-  25 2.25   8 2.26  20 2.26   7 2.36  19 2.36
  66  0.967  0.477  0.056-  24 2.25   7 2.26  19 2.26
  67  0.484  0.977  0.151-  27 2.25  18 2.26   6 2.26  17 2.36   5 2.36
  68  0.519  0.977  0.342-  28 2.25  18 2.36   6 2.36
  69  0.657  0.477  0.183-  30 2.25  23 2.26  11 2.26
  70  0.691  0.477  0.373-  23 2.36  11 2.36
  71  0.139  0.977  0.087-  31 2.25  21 2.26   9 2.26
  72  0.174  0.977  0.278-  32 2.25  10 2.26  22 2.26   9 2.36  21 2.36
 
  LATTYP: Found a simple orthorhombic cell.
 ALAT       =     9.5784100000
 B/A-ratio  =     1.6880763216
 C/A-ratio  =     1.7627867312
  
  Lattice vectors:
  
 A1 = (   0.0000000000,   9.5784100000,   0.0000000000)
 A2 = (   0.0000000000,   0.0000000000, -16.1690871197)
 A3 = ( -16.8846940542,   0.0000000000,   0.0000000000)


Analysis of symmetry for initial positions (statically):
=====================================================================
 Subroutine PRICEL returns:
 Original cell was already a primitive cell.
 

 Routine SETGRP: Setting up the symmetry group for a 
 simple orthorhombic supercell.


 Subroutine GETGRP returns: Found  1 space group operations
 (whereof  1 operations were pure point group operations)
 out of a pool of  8 trial point group operations.


The static configuration has the point symmetry C_1 .


Analysis of symmetry for dynamics (positions and initial velocities):
=====================================================================
 Subroutine PRICEL returns:
 Original cell was already a primitive cell.
 

 Routine SETGRP: Setting up the symmetry group for a 
 simple orthorhombic supercell.


 Subroutine GETGRP returns: Found  1 space group operations
 (whereof  1 operations were pure point group operations)
 out of a pool of  8 trial point group operations.


The dynamic configuration has the point symmetry C_1 .


 Subroutine INISYM returns: Found  1 space group operations
 (whereof  1 operations are pure point group operations),
 and found     1 'primitive' translations


----------------------------------------------------------------------------------------

                                     Primitive cell                                     

  volume of cell :    2615.0026

  direct lattice vectors                    reciprocal lattice vectors
    16.884694054  0.000000000  0.000000000     0.059225237  0.000000000  0.000000000
     0.000000000  9.578410000  0.000000000     0.000000000  0.104401461  0.000000000
     0.000000000  0.000000000 16.169087120     0.000000000  0.000000000  0.061846411

  length of vectors
    16.884694054  9.578410000 16.169087120     0.059225237  0.104401461  0.061846411

  position of ions in fractional coordinates (direct lattice)
     0.780046307  0.145296954  0.120584992
     0.814614264  0.145296954  0.311352939
     0.262762328  0.645296954  0.025201018
     0.297330285  0.645296954  0.215968965
     0.435190321  0.145296954  0.056995676
     0.469758278  0.145296954  0.247763623
     0.952474300  0.645296954  0.152379650
     0.987042257  0.645296954  0.343147597
     0.124902293  0.145296954  0.184174308
     0.159470250  0.145296954  0.374942255
     0.642186271  0.645296954  0.279558281
     0.907582776  0.013193954  0.095383974
     0.942150733  0.013193954  0.286151921
     0.390298797  0.513193954  0.000000000
     0.424866755  0.513193954  0.190767947
     0.459434712  0.513193954  0.381535895
     0.562726790  0.013193954  0.031794658
     0.597294747  0.013193954  0.222562605
     0.080010769  0.513193954  0.127178632
     0.114578726  0.513193954  0.317946579
     0.252438762  0.013193954  0.158973289
     0.287006719  0.013193954  0.349741237
     0.769722740  0.513193954  0.254357263
     0.907582776  0.277399954  0.095383974
     0.942150733  0.277399954  0.286151921
     0.390298797  0.777399954  0.000000000
     0.424866755  0.777399954  0.190767947
     0.459434712  0.777399954  0.381535895
     0.562726790  0.277399954  0.031794658
     0.597294747  0.277399954  0.222562605
     0.080010769  0.777399954  0.127178632
     0.114578726  0.777399954  0.317946579
     0.252438762  0.277399954  0.158973289
     0.287006719  0.277399954  0.349741237
     0.735154783  0.777399954  0.063589316
     0.769722740  0.777399954  0.254357263
     0.026029163  0.145296954  0.373177651
     0.991461206  0.145296954  0.182409704
     0.474177227  0.645296954  0.087025730
     0.508745184  0.645296954  0.277793678
     0.646605220  0.145296954  0.118820388
     0.681173177  0.145296954  0.309588336
     0.129321241  0.645296954  0.023436415
     0.163889198  0.645296954  0.214204362
     0.301749234  0.145296954  0.055231073
     0.336317191  0.145296954  0.245999020
     0.819033213  0.645296954  0.150615046
     0.853601170  0.645296954  0.341382993
     0.794493097  0.313511954  0.023731787
     0.829061055  0.313511954  0.214499734
     0.311777076  0.813511954  0.119115761
     0.346345033  0.813511954  0.309883708
     0.484205069  0.313511954  0.150910419
     0.518773026  0.313511954  0.341678366
     0.001489047  0.813511954  0.246294392
     0.966921090  0.813511954  0.055526445
     0.139349083  0.313511954  0.087321103
     0.173917040  0.313511954  0.278089050
     0.656633062  0.813511954  0.182705076
     0.691201019  0.813511954  0.373473024
     0.311777076  0.477081954  0.119115761
     0.346345033  0.477081954  0.309883708
     0.794493097  0.977081954  0.023731787
     0.829061055  0.977081954  0.214499734
     0.001489047  0.477081954  0.246294392
     0.966921090  0.477081954  0.055526445
     0.484205069  0.977081954  0.150910419
     0.518773026  0.977081954  0.341678366
     0.656633062  0.477081954  0.182705076
     0.691201019  0.477081954  0.373473024
     0.139349083  0.977081954  0.087321103
     0.173917040  0.977081954  0.278089050

  ion indices of the primitive-cell ions
   primitive index   ion index
                 1           1
                 2           2
                 3           3
                 4           4
                 5           5
                 6           6
                 7           7
                 8           8
                 9           9
                10          10
                11          11
                12          12
                13          13
                14          14
                15          15
                16          16
                17          17
                18          18
                19          19
                20          20
                21          21
                22          22
                23          23
                24          24
                25          25
                26          26
                27          27
                28          28
                29          29
                30          30
                31          31
                32          32
                33          33
                34          34
                35          35
                36          36
                37          37
                38          38
                39          39
                40          40
                41          41
                42          42
                43          43
                44          44
                45          45
                46          46
                47          47
                48          48
                49          49
                50          50
                51          51
                52          52
                53          53
                54          54
                55          55
                56          56
                57          57
                58          58
                59          59
                60          60
                61          61
                62          62
                63          63
                64          64
                65          65
                66          66
                67          67
                68          68
                69          69
                70          70
                71          71
                72          72

----------------------------------------------------------------------------------------

 
 
 KPOINTS: gamma-point-only calculation. no periodi

Automatic generation of k-mesh.
Space group operators:
 irot       det(A)        alpha          n_x          n_y          n_z        tau_x        tau_y        tau_z
    1     1.000000     0.000000     1.000000     0.000000     0.000000     0.000000     0.000000     0.000000
 
 Subroutine IBZKPT returns following result:
 ===========================================
 
 Found      1 irreducible k-points:
 
 Following reciprocal coordinates:
            Coordinates               Weight
  0.000000  0.000000  0.000000      1.000000
 
 Following cartesian coordinates:
            Coordinates               Weight
  0.000000  0.000000  0.000000      1.000000
 


--------------------------------------------------------------------------------------------------------




 Dimension of arrays:
   k-points           NKPTS =      1   k-points in BZ     NKDIM =      1   number of bands    NBANDS=    480
   number of dos      NEDOS =    301   number of ions     NIONS =     72
   non local maximal  LDIM  =      6   non local SUM 2l+1 LMDIM =     18
   total plane-waves  NPLWV = 378000
   max r-space proj   IRMAX =   1644   max aug-charges    IRDMAX=   4753
   dimension x,y,z NGX =    90 NGY =   50 NGZ =   84
   dimension x,y,z NGXF=   180 NGYF=  100 NGZF=  168
   support grid    NGXF=   180 NGYF=  100 NGZF=  168
   ions per type =              36  36
   NGX,Y,Z   is equivalent  to a cutoff of   8.86,  8.68,  8.64 a.u.
   NGXF,Y,Z  is equivalent  to a cutoff of  17.72, 17.36, 17.27 a.u.

 SYSTEM =  "Millerite NiS"                         
 POSCAR =  Structure 33 made from -112-10.xsd file 

 Startparameter for this run:
   NWRITE =      2    write-flag & timer
   PREC   = normal    normal or accurate (medium, high low for compatibility)
   ISTART =      0    job   : 0-new  1-cont  2-samecut
   ICHARG =      2    charge: 1-file 2-atom 10-const
   ISPIN  =      1    spin polarized calculation?
   LNONCOLLINEAR =      F non collinear calculations
   LSORBIT =      F    spin-orbit coupling
   INIWAV =      1    electr: 0-lowe 1-rand  2-diag
   LASPH  =      F    aspherical Exc in radial PAW
   METAGGA=      F    non-selfconsistent MetaGGA calc.

 Electronic Relaxation 1
   ENCUT  =  450.0 eV  33.07 Ry    5.75 a.u.  29.20 16.57 27.97*2*pi/ulx,y,z
   ENINI  =  450.0     initial cutoff
   ENAUG  =  703.4 eV  augmentation charge cutoff
   NELM   =    100;   NELMIN=  2; NELMDL= -5     # of ELM steps 
   EDIFF  = 0.1E-03   stopping-criterion for ELM
   LREAL  =      T    real-space projection
   NLSPLINE    = F    spline interpolate recip. space projectors
   LCOMPAT=      F    compatible to vasp.4.4
   GGA_COMPAT  = T    GGA compatible to vasp.4.4-vasp.4.6
   LMAXPAW     = -100 max onsite density
   LMAXMIX     =    2 max onsite mixed and CHGCAR
   VOSKOWN=      0    Vosko Wilk Nusair interpolation
   ROPT   =   -0.00050  -0.00050
 Ionic relaxation
   EDIFFG = 0.1E-02   stopping-criterion for IOM
   NSW    =      0    number of steps for IOM
   NBLOCK =      1;   KBLOCK =      1    inner block; outer block 
   IBRION =     -1    ionic relax: 0-MD 1-quasi-New 2-CG
   NFREE  =      0    steps in history (QN), initial steepest desc. (CG)
   ISIF   =      2    stress and relaxation
   IWAVPR =     10    prediction:  0-non 1-charg 2-wave 3-comb
   ISYM   =      2    0-nonsym 1-usesym 2-fastsym
   LCORR  =      T    Harris-Foulkes like correction to forces

   POTIM  = 0.5000    time-step for ionic-motion
   TEIN   =    0.0    initial temperature
   TEBEG  =    0.0;   TEEND  =   0.0 temperature during run
   SMASS  =  -3.00    Nose mass-parameter (am)
   estimated Nose-frequenzy (Omega)   =  0.10E-29 period in steps = 0.13E+47 mass=  -0.652E-26a.u.
   SCALEE = 1.0000    scale energy and forces
   NPACO  =    256;   APACO  = 16.0  distance and # of slots for P.C.
   PSTRESS=    0.0 pullay stress

  Mass of Ions in am
   POMASS =  58.69 32.07
  Ionic Valenz
   ZVAL   =  16.00  6.00
  Atomic Wigner-Seitz radii
   RWIGS  =  -1.00 -1.00
  virtual crystal weights 
   VCA    =   1.00  1.00
   NELECT =     792.0000    total number of electrons
   NUPDOWN=      -1.0000    fix difference up-down

 DOS related values:
   EMIN   =  10.00;   EMAX   =-10.00  energy-range for DOS
   EFERMI =   0.00
   ISMEAR =     0;   SIGMA  =   0.20  broadening in eV -4-tet -1-fermi 0-gaus

 Electronic relaxation 2 (details)
   IALGO  =     38    algorithm
   LDIAG  =      T    sub-space diagonalisation (order eigenvalues)
   LSUBROT=      F    optimize rotation matrix (better conditioning)
   TURBO    =      0    0=normal 1=particle mesh
   IRESTART =      0    0=no restart 2=restart with 2 vectors
   NREBOOT  =      0    no. of reboots
   NMIN     =      0    reboot dimension
   EREF     =   0.00    reference energy to select bands
   IMIX   =      4    mixing-type and parameters
     AMIX     =   0.40;   BMIX     =  1.00
     AMIX_MAG =   1.60;   BMIX_MAG =  1.00
     AMIN     =   0.10
     WC   =   100.;   INIMIX=   1;  MIXPRE=   1;  MAXMIX= -45

 Intra band minimization:
   WEIMIN = 0.0000     energy-eigenvalue tresh-hold
   EBREAK =  0.52E-07  absolut break condition
   DEPER  =   0.30     relativ break condition  

   TIME   =   0.40     timestep for ELM

  volume/ion in A,a.u.               =      36.32       245.10
  Fermi-wavevector in a.u.,A,eV,Ry     =   1.099409  2.077581 16.445356  1.208700
  Thomas-Fermi vector in A             =   2.235803
 
 Write flags
   LWAVE        =      F    write WAVECAR
   LDOWNSAMPLE  =      F    k-point downsampling of WAVECAR
   LCHARG       =      F    write CHGCAR
   LVTOT        =      F    write LOCPOT, total local potential
   LVHAR        =      F    write LOCPOT, Hartree potential only
   LELF         =      F    write electronic localiz. function (ELF)
   LORBIT       =      0    0 simple, 1 ext, 2 COOP (PROOUT), +10 PAW based schemes


 Dipole corrections
   LMONO  =      F    monopole corrections only (constant potential shift)
   LDIPOL =      F    correct potential (dipole corrections)
   IDIPOL =      0    1-x, 2-y, 3-z, 4-all directions 
   EPSILON=  1.0000000 bulk dielectric constant

 Exchange correlation treatment:
   GGA     =    --    GGA type
   LEXCH   =     8    internal setting for exchange type
   VOSKOWN=      0    Vosko Wilk Nusair interpolation
   LHFCALC =     F    Hartree Fock is set to
   LHFONE  =     F    Hartree Fock one center treatment
   AEXX    =    0.0000 exact exchange contribution

 Linear response parameters
   LEPSILON=     F    determine dielectric tensor
   LRPA    =     F    only Hartree local field effects (RPA)
   LNABLA  =     F    use nabla operator in PAW spheres
   LVEL    =     F    velocity operator in full k-point grid
   LINTERFAST=   F  fast interpolation
   KINTER  =     0    interpolate to denser k-point grid
   CSHIFT  =0.1000    complex shift for real part using Kramers Kronig
   OMEGAMAX=  -1.0    maximum frequency
   DEG_THRESHOLD= 0.2000000E-02 threshold for treating states as degnerate
   RTIME   =   -0.100 relaxation time in fs
  (WPLASMAI=    0.000 imaginary part of plasma frequency in eV, 0.658/RTIME)
   DFIELD  = 0.0000000 0.0000000 0.0000000 field for delta impulse in time
 
 Orbital magnetization related:
   ORBITALMAG=     F  switch on orbital magnetization
   LCHIMAG   =     F  perturbation theory with respect to B field
   DQ        =  0.001000  dq finite difference perturbation B field
   LLRAUG    =     F  two centre corrections for induced B field



--------------------------------------------------------------------------------------------------------


 Static calculation
 charge density and potential will be updated during run
 non-spin polarized calculation
 Variant of blocked Davidson
 Davidson routine will perform the subspace rotation
 perform sub-space diagonalisation
    after iterative eigenvector-optimisation
 modified Broyden-mixing scheme, WC =      100.0
 initial mixing is a Kerker type mixing with AMIX =  0.4000 and BMIX =      1.0000
 Hartree-type preconditioning will be used
 using additional bands           84
 real space projection scheme for non local part
 use partial core corrections
 calculate Harris-corrections to forces 
   (improved forces if not selfconsistent)
 use gradient corrections 
 use of overlap-Matrix (Vanderbilt PP)
 Gauss-broadening in eV      SIGMA  =   0.20


--------------------------------------------------------------------------------------------------------


  energy-cutoff  :      450.00
  volume of cell :     2615.00
      direct lattice vectors                 reciprocal lattice vectors
    16.884694054  0.000000000  0.000000000     0.059225237  0.000000000  0.000000000
     0.000000000  9.578410000  0.000000000     0.000000000  0.104401461  0.000000000
     0.000000000  0.000000000 16.169087120     0.000000000  0.000000000  0.061846411

  length of vectors
    16.884694054  9.578410000 16.169087120     0.059225237  0.104401461  0.061846411


 
 k-points in units of 2pi/SCALE and weight: gamma-point-only calculation. no periodi
   0.00000000  0.00000000  0.00000000       1.000
 
 k-points in reciprocal lattice and weights: gamma-point-only calculation. no periodi
   0.00000000  0.00000000  0.00000000       1.000
 
 position of ions in fractional coordinates (direct lattice) 
   0.78004631  0.14529695  0.12058499
   0.81461426  0.14529695  0.31135294
   0.26276233  0.64529695  0.02520102
   0.29733029  0.64529695  0.21596897
   0.43519032  0.14529695  0.05699568
   0.46975828  0.14529695  0.24776362
   0.95247430  0.64529695  0.15237965
   0.98704226  0.64529695  0.34314760
   0.12490229  0.14529695  0.18417431
   0.15947025  0.14529695  0.37494226
   0.64218627  0.64529695  0.27955828
   0.90758278  0.01319395  0.09538397
   0.94215073  0.01319395  0.28615192
   0.39029880  0.51319395  0.00000000
   0.42486675  0.51319395  0.19076795
   0.45943471  0.51319395  0.38153589
   0.56272679  0.01319395  0.03179466
   0.59729475  0.01319395  0.22256261
   0.08001077  0.51319395  0.12717863
   0.11457873  0.51319395  0.31794658
   0.25243876  0.01319395  0.15897329
   0.28700672  0.01319395  0.34974124
   0.76972274  0.51319395  0.25435726
   0.90758278  0.27739995  0.09538397
   0.94215073  0.27739995  0.28615192
   0.39029880  0.77739995  0.00000000
   0.42486675  0.77739995  0.19076795
   0.45943471  0.77739995  0.38153589
   0.56272679  0.27739995  0.03179466
   0.59729475  0.27739995  0.22256261
   0.08001077  0.77739995  0.12717863
   0.11457873  0.77739995  0.31794658
   0.25243876  0.27739995  0.15897329
   0.28700672  0.27739995  0.34974124
   0.73515478  0.77739995  0.06358932
   0.76972274  0.77739995  0.25435726
   0.02602916  0.14529695  0.37317765
   0.99146121  0.14529695  0.18240970
   0.47417723  0.64529695  0.08702573
   0.50874518  0.64529695  0.27779368
   0.64660522  0.14529695  0.11882039
   0.68117318  0.14529695  0.30958834
   0.12932124  0.64529695  0.02343641
   0.16388920  0.64529695  0.21420436
   0.30174923  0.14529695  0.05523107
   0.33631719  0.14529695  0.24599902
   0.81903321  0.64529695  0.15061505
   0.85360117  0.64529695  0.34138299
   0.79449310  0.31351195  0.02373179
   0.82906105  0.31351195  0.21449973
   0.31177708  0.81351195  0.11911576
   0.34634503  0.81351195  0.30988371
   0.48420507  0.31351195  0.15091042
   0.51877303  0.31351195  0.34167837
   0.00148905  0.81351195  0.24629439
   0.96692109  0.81351195  0.05552644
   0.13934908  0.31351195  0.08732110
   0.17391704  0.31351195  0.27808905
   0.65663306  0.81351195  0.18270508
   0.69120102  0.81351195  0.37347302
   0.31177708  0.47708195  0.11911576
   0.34634503  0.47708195  0.30988371
   0.79449310  0.97708195  0.02373179
   0.82906105  0.97708195  0.21449973
   0.00148905  0.47708195  0.24629439
   0.96692109  0.47708195  0.05552644
   0.48420507  0.97708195  0.15091042
   0.51877303  0.97708195  0.34167837
   0.65663306  0.47708195  0.18270508
   0.69120102  0.47708195  0.37347302
   0.13934908  0.97708195  0.08732110
   0.17391704  0.97708195  0.27808905
 
 position of ions in cartesian coordinates  (Angst):
  13.17084324  1.39171380  1.94974924
  13.75451262  1.39171380  5.03429280
   4.43666152  6.18091880  0.40747746
   5.02033090  6.18091880  3.49202101
   7.34805543  1.39171380  0.92156805
   7.93172480  1.39171380  4.00611161
  16.08223715  6.18091880  2.46383984
  16.66590653  6.18091880  5.54838339
   2.10893700  1.39171380  2.97793043
   2.69260638  1.39171380  6.06247399
  10.84311871  6.18091880  4.52020220
  15.32425750  0.12637710  1.54227179
  15.90792688  0.12637710  4.62681534
   6.59007578  4.91558210  0.00000000
   7.17374517  4.91558210  3.08454355
   7.75741455  4.91558210  6.16908713
   9.50146969  0.12637710  0.51409060
  10.08513906  0.12637710  3.59863415
   1.35095736  4.91558210  2.05636238
   1.93462673  4.91558210  5.14090594
   4.26235126  0.12637710  2.57045296
   4.84602064  0.12637710  5.65499653
  12.99653297  4.91558210  4.11272474
  15.32425750  2.65705049  1.54227179
  15.90792688  2.65705049  4.62681534
   6.59007578  7.44625549  0.00000000
   7.17374517  7.44625549  3.08454355
   7.75741455  7.44625549  6.16908713
   9.50146969  2.65705049  0.51409060
  10.08513906  2.65705049  3.59863415
   1.35095736  7.44625549  2.05636238
   1.93462673  7.44625549  5.14090594
   4.26235126  2.65705049  2.57045296
   4.84602064  2.65705049  5.65499653
  12.41286359  7.44625549  1.02818119
  12.99653297  7.44625549  4.11272474
   0.43949445  1.39171380  6.03394195
  16.74051913  1.39171380  2.94939840
   8.00633741  6.18091880  1.40712661
   8.59000678  6.18091880  4.49167018
  10.91773131  1.39171380  1.92121721
  11.50140069  1.39171380  5.00576078
   2.18354959  6.18091880  0.37894544
   2.76721897  6.18091880  3.46348899
   5.09494350  1.39171380  0.89303603
   5.67861288  1.39171380  3.97757959
  13.82912522  6.18091880  2.43530780
  14.41279460  6.18091880  5.51985136
  13.41477287  3.00294604  0.38372133
  13.99844227  3.00294604  3.46826489
   5.26426054  7.79215104  1.92599312
   5.84792992  7.79215104  5.01053667
   8.17565445  3.00294604  2.44008371
   8.75932383  3.00294604  5.52462727
   0.02514210  7.79215104  3.98235548
  16.32616678  7.79215104  0.89781193
   2.35286663  3.00294604  1.41190252
   2.93653601  3.00294604  4.49644608
  11.08704836  7.79215104  2.95417429
  11.67071774  7.79215104  6.03871786
   5.26426054  4.56968656  1.92599312
   5.84792992  4.56968656  5.01053667
  13.41477287  9.35889156  0.38372133
  13.99844227  9.35889156  3.46826489
   0.02514210  4.56968656  3.98235548
  16.32616678  4.56968656  0.89781193
   8.17565445  9.35889156  2.44008371
   8.75932383  9.35889156  5.52462727
  11.08704836  4.56968656  2.95417429
  11.67071774  4.56968656  6.03871786
   2.35286663  9.35889156  1.41190252
   2.93653601  9.35889156  4.49644608
 


--------------------------------------------------------------------------------------------------------


 use parallel FFT for orbitals z direction half grid
 k-point   1 :   0.0000 0.0000 0.0000  plane waves:   28369

 maximum and minimum number of plane-waves per node :      4733     4722

 maximum number of plane-waves:     28369
 maximum index in each direction: 
   IXMAX=   29   IYMAX=   16   IZMAX=   27
   IXMIN=  -29   IYMIN=  -16   IZMIN=    0


 real space projection operators:
  total allocation   :      10061.23 KBytes
  max/ min on nodes  :       1682.53       1674.14


 parallel 3D FFT for wavefunctions:
    minimum data exchange during FFTs selected (reduces bandwidth)
 parallel 3D FFT for charge:
    minimum data exchange during FFTs selected (reduces bandwidth)


 total amount of memory used by VASP MPI-rank0    46725. kBytes
=======================================================================

   base      :      30000. kBytes
   nonlr-proj:       2059. kBytes
   fftplans  :       3623. kBytes
   grid      :       6327. kBytes
   one-center:         93. kBytes
   wavefun   :       4623. kBytes
 
     INWAV:  cpu time    0.0000: real time    0.0000
 Broyden mixing: mesh for mixing (old mesh)
   NGX = 59   NGY = 33   NGZ = 55
  (NGX  =180   NGY  =100   NGZ  =168)
  gives a total of 107085 points

 initial charge density was supplied:
 charge density of overlapping atoms calculated
 number of electron     792.0000000 magnetization 
 keeping initial charge density in first step


--------------------------------------------------------------------------------------------------------


 Maximum index for non-local projection operator          266
 Maximum index for augmentation-charges          321 (set IRDMAX)


--------------------------------------------------------------------------------------------------------


 First call to EWALD:  gamma=   0.129
 Maximum number of real-space cells 2x 4x 2
 Maximum number of reciprocal cells 3x 2x 3

    FEWALD:  cpu time    0.0039: real time    0.0039


--------------------------------------- Iteration      1(   1)  ---------------------------------------


    POTLOK:  cpu time    0.0516: real time    0.0520
    SETDIJ:  cpu time    0.0051: real time    0.0067
     EDDAV:  cpu time    2.4549: real time    2.4625
       DOS:  cpu time    0.0030: real time    0.0031
    --------------------------------------------
      LOOP:  cpu time    2.5146: real time    2.5243

 eigenvalue-minimisations  :  1168
 total energy-change (2. order) : 0.8616821E+04  (-0.4995404E+05)
 number of electron     792.0000000 magnetization 
 augmentation part      792.0000000 magnetization 

 Free energy of the ion-electron system (eV)
  ---------------------------------------------------
  alpha Z        PSCENC =      1422.52235994
  Ewald energy   TEWEN  =    101912.84359843
  -Hartree energ DENC   =   -222774.80827304
  -exchange      EXHF   =         0.00000000
  -V(xc)+E(xc)   XCENC  =      3639.05800240
  PAW double counting   =    112729.53333415  -117641.51188735
  entropy T*S    EENTRO =        -0.45372527
  eigenvalues    EBANDS =     -6672.96788877
  atomic energy  EATOM  =    136002.60505376
  Solvation  Ediel_sol  =         0.00000000
  ---------------------------------------------------
  free energy    TOTEN  =      8616.82057425 eV

  energy without entropy =     8617.27429953  energy(sigma->0) =     8617.04743689


--------------------------------------------------------------------------------------------------------




--------------------------------------- Iteration      1(   2)  ---------------------------------------


     EDDAV:  cpu time    2.1570: real time    2.1651
       DOS:  cpu time    0.0030: real time    0.0030
    --------------------------------------------
      LOOP:  cpu time    2.1600: real time    2.1681

 eigenvalue-minimisations  :  1016
 total energy-change (2. order) :-0.8130221E+04  (-0.7847313E+04)
 number of electron     792.0000000 magnetization 
 augmentation part      792.0000000 magnetization 

 Free energy of the ion-electron system (eV)
  ---------------------------------------------------
  alpha Z        PSCENC =      1422.52235994
  Ewald energy   TEWEN  =    101912.84359843
  -Hartree energ DENC   =   -222774.80827304
  -exchange      EXHF   =         0.00000000
  -V(xc)+E(xc)   XCENC  =      3639.05800240
  PAW double counting   =    112729.53333415  -117641.51188735
  entropy T*S    EENTRO =        -0.78512666
  eigenvalues    EBANDS =    -14802.85704867
  atomic energy  EATOM  =    136002.60505376
  Solvation  Ediel_sol  =         0.00000000
  ---------------------------------------------------
  free energy    TOTEN  =       486.60001297 eV

  energy without entropy =      487.38513963  energy(sigma->0) =      486.99257630


--------------------------------------------------------------------------------------------------------




--------------------------------------- Iteration      1(   3)  ---------------------------------------


     EDDAV:  cpu time    2.3669: real time    2.3738
       DOS:  cpu time    0.0031: real time    0.0031
    --------------------------------------------
      LOOP:  cpu time    2.3700: real time    2.3769

 eigenvalue-minimisations  :  1120
 total energy-change (2. order) :-0.8315447E+03  (-0.7817994E+03)
 number of electron     792.0000000 magnetization 
 augmentation part      792.0000000 magnetization 

 Free energy of the ion-electron system (eV)
  ---------------------------------------------------
  alpha Z        PSCENC =      1422.52235994
  Ewald energy   TEWEN  =    101912.84359843
  -Hartree energ DENC   =   -222774.80827304
  -exchange      EXHF   =         0.00000000
  -V(xc)+E(xc)   XCENC  =      3639.05800240
  PAW double counting   =    112729.53333415  -117641.51188735
  entropy T*S    EENTRO =        -1.42084773
  eigenvalues    EBANDS =    -15633.76599913
  atomic energy  EATOM  =    136002.60505376
  Solvation  Ediel_sol  =         0.00000000
  ---------------------------------------------------
  free energy    TOTEN  =      -344.94465856 eV

  energy without entropy =     -343.52381083  energy(sigma->0) =     -344.23423470


--------------------------------------------------------------------------------------------------------




--------------------------------------- Iteration      1(   4)  ---------------------------------------


     EDDAV:  cpu time    2.3082: real time    2.3160
       DOS:  cpu time    0.0030: real time    0.0030
    --------------------------------------------
      LOOP:  cpu time    2.3113: real time    2.3191

 eigenvalue-minimisations  :  1112
 total energy-change (2. order) :-0.5077441E+02  (-0.5012622E+02)
 number of electron     792.0000000 magnetization 
 augmentation part      792.0000000 magnetization 

 Free energy of the ion-electron system (eV)
  ---------------------------------------------------
  alpha Z        PSCENC =      1422.52235994
  Ewald energy   TEWEN  =    101912.84359843
  -Hartree energ DENC   =   -222774.80827304
  -exchange      EXHF   =         0.00000000
  -V(xc)+E(xc)   XCENC  =      3639.05800240
  PAW double counting   =    112729.53333415  -117641.51188735
  entropy T*S    EENTRO =        -1.50975308
  eigenvalues    EBANDS =    -15684.45150470
  atomic energy  EATOM  =    136002.60505376
  Solvation  Ediel_sol  =         0.00000000
  ---------------------------------------------------
  free energy    TOTEN  =      -395.71906949 eV

  energy without entropy =     -394.20931641  energy(sigma->0) =     -394.96419295


--------------------------------------------------------------------------------------------------------




--------------------------------------- Iteration      1(   5)  ---------------------------------------


     EDDAV:  cpu time    2.4883: real time    2.4943
       DOS:  cpu time    0.0031: real time    0.0031
    CHARGE:  cpu time    0.0495: real time    0.0496
    MIXING:  cpu time    0.0027: real time    0.0031
    --------------------------------------------
      LOOP:  cpu time    2.5436: real time    2.5501

 eigenvalue-minimisations  :  1224
 total energy-change (2. order) :-0.1849483E+01  (-0.1846679E+01)
 number of electron     791.9997340 magnetization 
 augmentation part      285.0769531 magnetization 

 Broyden mixing:
  rms(total) = 0.82161E+01    rms(broyden)= 0.82005E+01
  rms(prec ) = 0.89258E+01
  weight for this iteration     100.00

 Free energy of the ion-electron system (eV)
  ---------------------------------------------------
  alpha Z        PSCENC =      1422.52235994
  Ewald energy   TEWEN  =    101912.84359843
  -Hartree energ DENC   =   -222774.80827304
  -exchange      EXHF   =         0.00000000
  -V(xc)+E(xc)   XCENC  =      3639.05800240
  PAW double counting   =    112729.53333415  -117641.51188735
  entropy T*S    EENTRO =        -1.50052345
  eigenvalues    EBANDS =    -15686.31021687
  atomic energy  EATOM  =    136002.60505376
  Solvation  Ediel_sol  =         0.00000000
  ---------------------------------------------------
  free energy    TOTEN  =      -397.56855202 eV

  energy without entropy =     -396.06802857  energy(sigma->0) =     -396.81829029


--------------------------------------------------------------------------------------------------------




--------------------------------------- Iteration      1(   6)  ---------------------------------------


    POTLOK:  cpu time    0.0504: real time    0.0505
    SETDIJ:  cpu time    0.0043: real time    0.0062
     EDDAV:  cpu time    2.3673: real time    2.3729
       DOS:  cpu time    0.0055: real time    0.0055
    CHARGE:  cpu time    0.0485: real time    0.0486
    MIXING:  cpu time    0.0025: real time    0.0026
    --------------------------------------------
      LOOP:  cpu time    2.4783: real time    2.4862

 eigenvalue-minimisations  :  1152
 total energy-change (2. order) :-0.1127353E+03  (-0.1055298E+03)
 number of electron     791.9996723 magnetization 
 augmentation part      355.5773574 magnetization 

 Broyden mixing:
  rms(total) = 0.17795E+02    rms(broyden)= 0.17791E+02
  rms(prec ) = 0.18763E+02
  weight for this iteration     100.00

 eigenvalues of (default mixing * dielectric matrix)
  average eigenvalue GAMMA=   0.1987
  0.1987

 Free energy of the ion-electron system (eV)
  ---------------------------------------------------
  alpha Z        PSCENC =      1422.52235994
  Ewald energy   TEWEN  =    101912.84359843
  -Hartree energ DENC   =   -219935.10472046
  -exchange      EXHF   =         0.00000000
  -V(xc)+E(xc)   XCENC  =      3560.17954396
  PAW double counting   =    113752.89715565  -118417.70122249
  entropy T*S    EENTRO =        -1.00604589
  eigenvalues    EBANDS =    -18807.53953083
  atomic energy  EATOM  =    136002.60505376
  Solvation  Ediel_sol  =         0.00000000
  ---------------------------------------------------
  free energy    TOTEN  =      -510.30380793 eV

  energy without entropy =     -509.29776204  energy(sigma->0) =     -509.80078499


--------------------------------------------------------------------------------------------------------




--------------------------------------- Iteration      1(   7)  ---------------------------------------


    POTLOK:  cpu time    0.0517: real time    0.0518
    SETDIJ:  cpu time    0.0047: real time    0.0047
     EDDAV:  cpu time    2.4724: real time    2.4800
       DOS:  cpu time    0.0055: real time    0.0055
    CHARGE:  cpu time    0.0512: real time    0.0513
    MIXING:  cpu time    0.0024: real time    0.0024
    --------------------------------------------
      LOOP:  cpu time    2.5879: real time    2.5959

 eigenvalue-minimisations  :  1128
 total energy-change (2. order) : 0.1327881E+03  (-0.1953385E+02)
 number of electron     791.9996888 magnetization 
 augmentation part      335.7811674 magnetization 

 Broyden mixing:
  rms(total) = 0.76567E+01    rms(broyden)= 0.76557E+01
  rms(prec ) = 0.82720E+01
  weight for this iteration     100.00

 eigenvalues of (default mixing * dielectric matrix)
  average eigenvalue GAMMA=   0.4877
  0.4877  0.4877

 Free energy of the ion-electron system (eV)
  ---------------------------------------------------
  alpha Z        PSCENC =      1422.52235994
  Ewald energy   TEWEN  =    101912.84359843
  -Hartree energ DENC   =   -221078.60225692
  -exchange      EXHF   =         0.00000000
  -V(xc)+E(xc)   XCENC  =      3589.01136900
  PAW double counting   =    117734.17306738  -122541.41632420
  entropy T*S    EENTRO =        -1.28969521
  eigenvalues    EBANDS =    -17417.36286277
  atomic energy  EATOM  =    136002.60505376
  Solvation  Ediel_sol  =         0.00000000
  ---------------------------------------------------
  free energy    TOTEN  =      -377.51569058 eV

  energy without entropy =     -376.22599537  energy(sigma->0) =     -376.87084298


--------------------------------------------------------------------------------------------------------




--------------------------------------- Iteration      1(   8)  ---------------------------------------


    POTLOK:  cpu time    0.0521: real time    0.0538
    SETDIJ:  cpu time    0.0043: real time    0.0060
     EDDAV:  cpu time    2.7309: real time    2.7375
       DOS:  cpu time    0.0053: real time    0.0053
    CHARGE:  cpu time    0.0490: real time    0.0491
    MIXING:  cpu time    0.0023: real time    0.0023
    --------------------------------------------
      LOOP:  cpu time    2.8439: real time    2.8541

 eigenvalue-minimisations  :  1304
 total energy-change (2. order) :-0.3792465E+02  (-0.1928371E+02)
 number of electron     791.9997202 magnetization 
 augmentation part      308.4609711 magnetization 

 Broyden mixing:
  rms(total) = 0.11709E+02    rms(broyden)= 0.11706E+02
  rms(prec ) = 0.14862E+02
  weight for this iteration     100.00

 eigenvalues of (default mixing * dielectric matrix)
  average eigenvalue GAMMA=   0.3874
  0.5199  0.5199  0.1224

 Free energy of the ion-electron system (eV)
  ---------------------------------------------------
  alpha Z        PSCENC =      1422.52235994
  Ewald energy   TEWEN  =    101912.84359843
  -Hartree energ DENC   =   -221925.97074065
  -exchange      EXHF   =         0.00000000
  -V(xc)+E(xc)   XCENC  =      3611.16198310
  PAW double counting   =    122645.08035677  -127557.64251855
  entropy T*S    EENTRO =        -1.47802330
  eigenvalues    EBANDS =    -16524.56240988
  atomic energy  EATOM  =    136002.60505376
  Solvation  Ediel_sol  =         0.00000000
  ---------------------------------------------------
  free energy    TOTEN  =      -415.44034037 eV

  energy without entropy =     -413.96231707  energy(sigma->0) =     -414.70132872


--------------------------------------------------------------------------------------------------------




--------------------------------------- Iteration      1(   9)  ---------------------------------------


    POTLOK:  cpu time    0.0511: real time    0.0513
    SETDIJ:  cpu time    0.0048: real time    0.0048
     EDDAV:  cpu time    2.6482: real time    2.6546
       DOS:  cpu time    0.0055: real time    0.0055
    CHARGE:  cpu time    0.0499: real time    0.0501
    MIXING:  cpu time    0.0025: real time    0.0026
    --------------------------------------------
      LOOP:  cpu time    2.7621: real time    2.7688

 eigenvalue-minimisations  :  1256
 total energy-change (2. order) : 0.5425556E+02  (-0.1255881E+02)
 number of electron     791.9997223 magnetization 
 augmentation part      307.3569940 magnetization 

 Broyden mixing:
  rms(total) = 0.62474E+01    rms(broyden)= 0.62419E+01
  rms(prec ) = 0.72757E+01
  weight for this iteration     100.00

 eigenvalues of (default mixing * dielectric matrix)
  average eigenvalue GAMMA=   0.3808
  0.8071  0.3007  0.3007  0.1148

 Free energy of the ion-electron system (eV)
  ---------------------------------------------------
  alpha Z        PSCENC =      1422.52235994
  Ewald energy   TEWEN  =    101912.84359843
  -Hartree energ DENC   =   -222017.83253345
  -exchange      EXHF   =         0.00000000
  -V(xc)+E(xc)   XCENC  =      3613.62061561
  PAW double counting   =    124296.33265619  -129232.17931251
  entropy T*S    EENTRO =        -1.35244774
  eigenvalues    EBANDS =    -16357.74477091
  atomic energy  EATOM  =    136002.60505376
  Solvation  Ediel_sol  =         0.00000000
  ---------------------------------------------------
  free energy    TOTEN  =      -361.18478069 eV

  energy without entropy =     -359.83233295  energy(sigma->0) =     -360.50855682


--------------------------------------------------------------------------------------------------------




--------------------------------------- Iteration      1(  10)  ---------------------------------------


    POTLOK:  cpu time    0.0511: real time    0.0512
    SETDIJ:  cpu time    0.0048: real time    0.0048
     EDDAV:  cpu time    2.7875: real time    2.7941
       DOS:  cpu time    0.0055: real time    0.0055
    CHARGE:  cpu time    0.0504: real time    0.0505
    MIXING:  cpu time    0.0031: real time    0.0031
    --------------------------------------------
      LOOP:  cpu time    2.9024: real time    2.9094

 eigenvalue-minimisations  :  1336
 total energy-change (2. order) : 0.6135372E+01  (-0.5345706E+01)
 number of electron     791.9997105 magnetization 
 augmentation part      304.7959344 magnetization 

 Broyden mixing:
  rms(total) = 0.62932E+01    rms(broyden)= 0.62863E+01
  rms(prec ) = 0.76216E+01
  weight for this iteration     100.00

 eigenvalues of (default mixing * dielectric matrix)
  average eigenvalue GAMMA=   0.4844
  1.4167  0.3914  0.3914  0.1112  0.1112

 Free energy of the ion-electron system (eV)
  ---------------------------------------------------
  alpha Z        PSCENC =      1422.52235994
  Ewald energy   TEWEN  =    101912.84359843
  -Hartree energ DENC   =   -222023.70555606
  -exchange      EXHF   =         0.00000000
  -V(xc)+E(xc)   XCENC  =      3614.55497919
  PAW double counting   =    125638.29272669  -130590.67522816
  entropy T*S    EENTRO =        -1.64774171
  eigenvalues    EBANDS =    -16329.83960087
  atomic energy  EATOM  =    136002.60505376
  Solvation  Ediel_sol  =         0.00000000
  ---------------------------------------------------
  free energy    TOTEN  =      -355.04940879 eV

  energy without entropy =     -353.40166708  energy(sigma->0) =     -354.22553793


--------------------------------------------------------------------------------------------------------




--------------------------------------- Iteration      1(  11)  ---------------------------------------


    POTLOK:  cpu time    0.0507: real time    0.0508
    SETDIJ:  cpu time    0.0047: real time    0.0047
     EDDAV:  cpu time    2.8043: real time    2.8110
       DOS:  cpu time    0.0006: real time    0.0006
    CHARGE:  cpu time    0.0534: real time    0.0543
    MIXING:  cpu time    0.0045: real time    0.0045
    --------------------------------------------
      LOOP:  cpu time    2.9182: real time    2.9260

 eigenvalue-minimisations  :  1360
 total energy-change (2. order) :-0.1414798E+02  (-0.6327386E+01)
 number of electron     791.9997147 magnetization 
 augmentation part      306.3093787 magnetization 

 Broyden mixing:
  rms(total) = 0.84220E+01    rms(broyden)= 0.84192E+01
  rms(prec ) = 0.10367E+02
  weight for this iteration     100.00

 eigenvalues of (default mixing * dielectric matrix)
  average eigenvalue GAMMA=   0.5075
  1.8989  0.4111  0.4111  0.1151  0.1151  0.0941

 Free energy of the ion-electron system (eV)
  ---------------------------------------------------
  alpha Z        PSCENC =      1422.52235994
  Ewald energy   TEWEN  =    101912.84359843
  -Hartree energ DENC   =   -221953.32370415
  -exchange      EXHF   =         0.00000000
  -V(xc)+E(xc)   XCENC  =      3611.10955455
  PAW double counting   =    127737.95807839  -132701.50709886
  entropy T*S    EENTRO =        -1.49687254
  eigenvalues    EBANDS =    -16399.90836115
  atomic energy  EATOM  =    136002.60505376
  Solvation  Ediel_sol  =         0.00000000
  ---------------------------------------------------
  free energy    TOTEN  =      -369.19739163 eV

  energy without entropy =     -367.70051909  energy(sigma->0) =     -368.44895536


--------------------------------------------------------------------------------------------------------




--------------------------------------- Iteration      1(  12)  ---------------------------------------


    POTLOK:  cpu time    0.0547: real time    0.0590
    SETDIJ:  cpu time    0.0049: real time    0.0066
     EDDAV:  cpu time    2.8247: real time    2.8325
       DOS:  cpu time    0.0006: real time    0.0006
    CHARGE:  cpu time    0.0510: real time    0.0511
    MIXING:  cpu time    0.0030: real time    0.0030
    --------------------------------------------
      LOOP:  cpu time    2.9390: real time    2.9529

 eigenvalue-minimisations  :  1368
 total energy-change (2. order) : 0.1519422E+02  (-0.4687503E+01)
 number of electron     791.9997116 magnetization 
 augmentation part      313.3628361 magnetization 

 Broyden mixing:
  rms(total) = 0.42874E+01    rms(broyden)= 0.42846E+01
  rms(prec ) = 0.50070E+01
  weight for this iteration     100.00

 eigenvalues of (default mixing * dielectric matrix)
  average eigenvalue GAMMA=   0.4702
  1.9737  0.4137  0.4137  0.1809  0.1041  0.1028  0.1028

 Free energy of the ion-electron system (eV)
  ---------------------------------------------------
  alpha Z        PSCENC =      1422.52235994
  Ewald energy   TEWEN  =    101912.84359843
  -Hartree energ DENC   =   -221865.79332278
  -exchange      EXHF   =         0.00000000
  -V(xc)+E(xc)   XCENC  =      3608.45543988
  PAW double counting   =    129811.58315932  -134789.19533838
  entropy T*S    EENTRO =        -1.16651852
  eigenvalues    EBANDS =    -16455.85760301
  atomic energy  EATOM  =    136002.60505376
  Solvation  Ediel_sol  =         0.00000000
  ---------------------------------------------------
  free energy    TOTEN  =      -354.00317137 eV

  energy without entropy =     -352.83665285  energy(sigma->0) =     -353.41991211


--------------------------------------------------------------------------------------------------------




--------------------------------------- Iteration      1(  13)  ---------------------------------------


    POTLOK:  cpu time    0.0488: real time    0.0506
    SETDIJ:  cpu time    0.0048: real time    0.0048
     EDDAV:  cpu time    2.7281: real time    2.7346
       DOS:  cpu time    0.0006: real time    0.0006
    CHARGE:  cpu time    0.0496: real time    0.0497
    MIXING:  cpu time    0.0027: real time    0.0028
    --------------------------------------------
      LOOP:  cpu time    2.8347: real time    2.8431

 eigenvalue-minimisations  :  1320
 total energy-change (2. order) : 0.5136241E+01  (-0.2534943E+01)
 number of electron     791.9997099 magnetization 
 augmentation part      314.7837498 magnetization 

 Broyden mixing:
  rms(total) = 0.28700E+01    rms(broyden)= 0.28672E+01
  rms(prec ) = 0.33943E+01
  weight for this iteration     100.00

 eigenvalues of (default mixing * dielectric matrix)
  average eigenvalue GAMMA=   0.4553
  1.8429  0.5429  0.4043  0.4043  0.1189  0.1189  0.1049  0.1049

 Free energy of the ion-electron system (eV)
  ---------------------------------------------------
  alpha Z        PSCENC =      1422.52235994
  Ewald energy   TEWEN  =    101912.84359843
  -Hartree energ DENC   =   -221879.57324272
  -exchange      EXHF   =         0.00000000
  -V(xc)+E(xc)   XCENC  =      3608.47250052
  PAW double counting   =    130084.74931193  -135065.95761376
  entropy T*S    EENTRO =        -1.06945461
  eigenvalues    EBANDS =    -16433.45944376
  atomic energy  EATOM  =    136002.60505376
  Solvation  Ediel_sol  =         0.00000000
  ---------------------------------------------------
  free energy    TOTEN  =      -348.86693027 eV

  energy without entropy =     -347.79747566  energy(sigma->0) =     -348.33220296


--------------------------------------------------------------------------------------------------------




--------------------------------------- Iteration      1(  14)  ---------------------------------------


    POTLOK:  cpu time    0.0491: real time    0.0492
    SETDIJ:  cpu time    0.0046: real time    0.0046
     EDDAV:  cpu time    2.6385: real time    2.6447
       DOS:  cpu time    0.0006: real time    0.0006
    CHARGE:  cpu time    0.0501: real time    0.0502
    MIXING:  cpu time    0.0028: real time    0.0028
    --------------------------------------------
      LOOP:  cpu time    2.7457: real time    2.7523

 eigenvalue-minimisations  :  1264
 total energy-change (2. order) : 0.2405343E+01  (-0.9388767E+00)
 number of electron     791.9997119 magnetization 
 augmentation part      312.9719303 magnetization 

 Broyden mixing:
  rms(total) = 0.27188E+01    rms(broyden)= 0.27172E+01
  rms(prec ) = 0.32373E+01
  weight for this iteration     100.00

 eigenvalues of (default mixing * dielectric matrix)
  average eigenvalue GAMMA=   0.4268
  1.8426  0.5227  0.4113  0.4113  0.1840  0.1174  0.1174  0.1296  0.1053

 Free energy of the ion-electron system (eV)
  ---------------------------------------------------
  alpha Z        PSCENC =      1422.52235994
  Ewald energy   TEWEN  =    101912.84359843
  -Hartree energ DENC   =   -221958.82506228
  -exchange      EXHF   =         0.00000000
  -V(xc)+E(xc)   XCENC  =      3610.11149491
  PAW double counting   =    129653.41090424  -134635.23698181
  entropy T*S    EENTRO =        -1.20249759
  eigenvalues    EBANDS =    -16352.69045696
  atomic energy  EATOM  =    136002.60505376
  Solvation  Ediel_sol  =         0.00000000
  ---------------------------------------------------
  free energy    TOTEN  =      -346.46158736 eV

  energy without entropy =     -345.25908977  energy(sigma->0) =     -345.86033856


--------------------------------------------------------------------------------------------------------




--------------------------------------- Iteration      1(  15)  ---------------------------------------


    POTLOK:  cpu time    0.0500: real time    0.0501
    SETDIJ:  cpu time    0.0047: real time    0.0047
     EDDAV:  cpu time    2.6254: real time    2.6317
       DOS:  cpu time    0.0006: real time    0.0006
    CHARGE:  cpu time    0.0501: real time    0.0502
    MIXING:  cpu time    0.0029: real time    0.0029
    --------------------------------------------
      LOOP:  cpu time    2.7337: real time    2.7403

 eigenvalue-minimisations  :  1256
 total energy-change (2. order) : 0.7753227E+00  (-0.7592756E+00)
 number of electron     791.9997123 magnetization 
 augmentation part      312.8540252 magnetization 

 Broyden mixing:
  rms(total) = 0.20844E+01    rms(broyden)= 0.20816E+01
  rms(prec ) = 0.25219E+01
  weight for this iteration     100.00

 eigenvalues of (default mixing * dielectric matrix)
  average eigenvalue GAMMA=   0.4301
  1.8585  0.5462  0.5462  0.3913  0.3913  0.1167  0.1167  0.1303  0.1017  0.1017

 Free energy of the ion-electron system (eV)
  ---------------------------------------------------
  alpha Z        PSCENC =      1422.52235994
  Ewald energy   TEWEN  =    101912.84359843
  -Hartree energ DENC   =   -221975.51603993
  -exchange      EXHF   =         0.00000000
  -V(xc)+E(xc)   XCENC  =      3610.30826057
  PAW double counting   =    129582.90290939  -134564.16386914
  entropy T*S    EENTRO =        -1.08744756
  eigenvalues    EBANDS =    -16336.10109013
  atomic energy  EATOM  =    136002.60505376
  Solvation  Ediel_sol  =         0.00000000
  ---------------------------------------------------
  free energy    TOTEN  =      -345.68626466 eV

  energy without entropy =     -344.59881711  energy(sigma->0) =     -345.14254088


--------------------------------------------------------------------------------------------------------




--------------------------------------- Iteration      1(  16)  ---------------------------------------


    POTLOK:  cpu time    0.0493: real time    0.0494
    SETDIJ:  cpu time    0.0048: real time    0.0048
     EDDAV:  cpu time    2.6409: real time    2.6472
       DOS:  cpu time    0.0006: real time    0.0006
    CHARGE:  cpu time    0.0482: real time    0.0483
    MIXING:  cpu time    0.0030: real time    0.0030
    --------------------------------------------
      LOOP:  cpu time    2.7468: real time    2.7533

 eigenvalue-minimisations  :  1280
 total energy-change (2. order) : 0.1221424E+01  (-0.2625518E+00)
 number of electron     791.9997100 magnetization 
 augmentation part      312.8086777 magnetization 

 Broyden mixing:
  rms(total) = 0.15037E+01    rms(broyden)= 0.15022E+01
  rms(prec ) = 0.18456E+01
  weight for this iteration     100.00

 eigenvalues of (default mixing * dielectric matrix)
  average eigenvalue GAMMA=   0.4506
  1.9185  0.7558  0.7558  0.4008  0.4008  0.1188  0.1188  0.1415  0.1415  0.1020
  0.1020

 Free energy of the ion-electron system (eV)
  ---------------------------------------------------
  alpha Z        PSCENC =      1422.52235994
  Ewald energy   TEWEN  =    101912.84359843
  -Hartree energ DENC   =   -221987.59942597
  -exchange      EXHF   =         0.00000000
  -V(xc)+E(xc)   XCENC  =      3610.70707140
  PAW double counting   =    129500.05714038  -134480.79138401
  entropy T*S    EENTRO =        -1.14842690
  eigenvalues    EBANDS =    -16323.66082721
  atomic energy  EATOM  =    136002.60505376
  Solvation  Ediel_sol  =         0.00000000
  ---------------------------------------------------
  free energy    TOTEN  =      -344.46484018 eV

  energy without entropy =     -343.31641328  energy(sigma->0) =     -343.89062673


--------------------------------------------------------------------------------------------------------




--------------------------------------- Iteration      1(  17)  ---------------------------------------


    POTLOK:  cpu time    0.0496: real time    0.0497
    SETDIJ:  cpu time    0.0046: real time    0.0046
     EDDAV:  cpu time    2.6762: real time    2.6825
       DOS:  cpu time    0.0006: real time    0.0006
    CHARGE:  cpu time    0.0482: real time    0.0483
    MIXING:  cpu time    0.0031: real time    0.0031
    --------------------------------------------
      LOOP:  cpu time    2.7823: real time    2.7889

 eigenvalue-minimisations  :  1304
 total energy-change (2. order) : 0.5625949E+00  (-0.2193956E+00)
 number of electron     791.9997116 magnetization 
 augmentation part      312.4850063 magnetization 

 Broyden mixing:
  rms(total) = 0.11455E+01    rms(broyden)= 0.11432E+01
  rms(prec ) = 0.13410E+01
  weight for this iteration     100.00

 eigenvalues of (default mixing * dielectric matrix)
  average eigenvalue GAMMA=   0.4704
  1.9712  0.9260  0.9260  0.3997  0.3997  0.3272  0.1181  0.1181  0.1370  0.1181
  0.1019  0.1019

 Free energy of the ion-electron system (eV)
  ---------------------------------------------------
  alpha Z        PSCENC =      1422.52235994
  Ewald energy   TEWEN  =    101912.84359843
  -Hartree energ DENC   =   -222000.76117424
  -exchange      EXHF   =         0.00000000
  -V(xc)+E(xc)   XCENC  =      3610.89120122
  PAW double counting   =    129477.11502596  -134456.36219919
  entropy T*S    EENTRO =        -1.20822134
  eigenvalues    EBANDS =    -16311.54788981
  atomic energy  EATOM  =    136002.60505376
  Solvation  Ediel_sol  =         0.00000000
  ---------------------------------------------------
  free energy    TOTEN  =      -343.90224528 eV

  energy without entropy =     -342.69402393  energy(sigma->0) =     -343.29813460


--------------------------------------------------------------------------------------------------------




--------------------------------------- Iteration      1(  18)  ---------------------------------------


    POTLOK:  cpu time    0.0508: real time    0.0509
    SETDIJ:  cpu time    0.0047: real time    0.0047
     EDDAV:  cpu time    2.6138: real time    2.6201
       DOS:  cpu time    0.0006: real time    0.0006
    CHARGE:  cpu time    0.0486: real time    0.0487
    MIXING:  cpu time    0.0033: real time    0.0033
    --------------------------------------------
      LOOP:  cpu time    2.7218: real time    2.7283

 eigenvalue-minimisations  :  1264
 total energy-change (2. order) : 0.7942927E-01  (-0.1424486E+00)
 number of electron     791.9997115 magnetization 
 augmentation part      312.2339132 magnetization 

 Broyden mixing:
  rms(total) = 0.95806E+00    rms(broyden)= 0.95646E+00
  rms(prec ) = 0.11226E+01
  weight for this iteration     100.00

 eigenvalues of (default mixing * dielectric matrix)
  average eigenvalue GAMMA=   0.4742
  2.0064  1.0489  1.0489  0.4241  0.4005  0.4005  0.1188  0.1188  0.1518  0.1220
  0.1220  0.1007  0.1007

 Free energy of the ion-electron system (eV)
  ---------------------------------------------------
  alpha Z        PSCENC =      1422.52235994
  Ewald energy   TEWEN  =    101912.84359843
  -Hartree energ DENC   =   -222012.30058955
  -exchange      EXHF   =         0.00000000
  -V(xc)+E(xc)   XCENC  =      3610.77775941
  PAW double counting   =    129428.84042068  -134405.22136902
  entropy T*S    EENTRO =        -1.22073595
  eigenvalues    EBANDS =    -16302.66931369
  atomic energy  EATOM  =    136002.60505376
  Solvation  Ediel_sol  =         0.00000000
  ---------------------------------------------------
  free energy    TOTEN  =      -343.82281601 eV

  energy without entropy =     -342.60208005  energy(sigma->0) =     -343.21244803


--------------------------------------------------------------------------------------------------------




--------------------------------------- Iteration      1(  19)  ---------------------------------------


    POTLOK:  cpu time    0.0499: real time    0.0500
    SETDIJ:  cpu time    0.0052: real time    0.0053
     EDDAV:  cpu time    2.7209: real time    2.7295
       DOS:  cpu time    0.0007: real time    0.0007
    CHARGE:  cpu time    0.0487: real time    0.0488
    MIXING:  cpu time    0.0035: real time    0.0036
    --------------------------------------------
      LOOP:  cpu time    2.8290: real time    2.8378

 eigenvalue-minimisations  :  1304
 total energy-change (2. order) : 0.2950223E+00  (-0.8144678E-01)
 number of electron     791.9997114 magnetization 
 augmentation part      311.7666652 magnetization 

 Broyden mixing:
  rms(total) = 0.61767E+00    rms(broyden)= 0.61631E+00
  rms(prec ) = 0.72975E+00
  weight for this iteration     100.00

 eigenvalues of (default mixing * dielectric matrix)
  average eigenvalue GAMMA=   0.4718
  2.0153  1.1168  1.1168  0.4123  0.4123  0.3521  0.3521  0.1180  0.1180  0.1376
  0.1376  0.1011  0.1011  0.1144

 Free energy of the ion-electron system (eV)
  ---------------------------------------------------
  alpha Z        PSCENC =      1422.52235994
  Ewald energy   TEWEN  =    101912.84359843
  -Hartree energ DENC   =   -222027.87799700
  -exchange      EXHF   =         0.00000000
  -V(xc)+E(xc)   XCENC  =      3611.00698041
  PAW double counting   =    129365.46328420  -134340.49482602
  entropy T*S    EENTRO =        -1.33789566
  eigenvalues    EBANDS =    -16288.25835180
  atomic energy  EATOM  =    136002.60505376
  Solvation  Ediel_sol  =         0.00000000
  ---------------------------------------------------
  free energy    TOTEN  =      -343.52779374 eV

  energy without entropy =     -342.18989808  energy(sigma->0) =     -342.85884591


--------------------------------------------------------------------------------------------------------




--------------------------------------- Iteration      1(  20)  ---------------------------------------


    POTLOK:  cpu time    0.0505: real time    0.0528
    SETDIJ:  cpu time    0.0043: real time    0.0061
     EDDAV:  cpu time    2.6368: real time    2.6431
       DOS:  cpu time    0.0006: real time    0.0006
    CHARGE:  cpu time    0.0481: real time    0.0482
    MIXING:  cpu time    0.0035: real time    0.0035
    --------------------------------------------
      LOOP:  cpu time    2.7438: real time    2.7544

 eigenvalue-minimisations  :  1280
 total energy-change (2. order) :-0.6476559E-01  (-0.5167250E-01)
 number of electron     791.9997109 magnetization 
 augmentation part      312.0097646 magnetization 

 Broyden mixing:
  rms(total) = 0.71856E+00    rms(broyden)= 0.71787E+00
  rms(prec ) = 0.82303E+00
  weight for this iteration     100.00

 eigenvalues of (default mixing * dielectric matrix)
  average eigenvalue GAMMA=   0.4779
  2.0211  1.1846  1.1846  0.5148  0.5148  0.3913  0.3913  0.1182  0.1182  0.1455
  0.1455  0.1011  0.1011  0.1183  0.1183

 Free energy of the ion-electron system (eV)
  ---------------------------------------------------
  alpha Z        PSCENC =      1422.52235994
  Ewald energy   TEWEN  =    101912.84359843
  -Hartree energ DENC   =   -222032.71943525
  -exchange      EXHF   =         0.00000000
  -V(xc)+E(xc)   XCENC  =      3610.95015962
  PAW double counting   =    129296.55714212  -134270.07266573
  entropy T*S    EENTRO =        -1.28103486
  eigenvalues    EBANDS =    -16284.99773736
  atomic energy  EATOM  =    136002.60505376
  Solvation  Ediel_sol  =         0.00000000
  ---------------------------------------------------
  free energy    TOTEN  =      -343.59255934 eV

  energy without entropy =     -342.31152448  energy(sigma->0) =     -342.95204191


--------------------------------------------------------------------------------------------------------




--------------------------------------- Iteration      1(  21)  ---------------------------------------


    POTLOK:  cpu time    0.0498: real time    0.0499
    SETDIJ:  cpu time    0.0047: real time    0.0047
     EDDAV:  cpu time    2.5569: real time    2.5630
       DOS:  cpu time    0.0006: real time    0.0006
    CHARGE:  cpu time    0.0483: real time    0.0484
    MIXING:  cpu time    0.0036: real time    0.0036
    --------------------------------------------
      LOOP:  cpu time    2.6638: real time    2.6702

 eigenvalue-minimisations  :  1248
 total energy-change (2. order) : 0.5909642E-01  (-0.3589870E-01)
 number of electron     791.9997108 magnetization 
 augmentation part      312.1653169 magnetization 

 Broyden mixing:
  rms(total) = 0.60123E+00    rms(broyden)= 0.60038E+00
  rms(prec ) = 0.72078E+00
  weight for this iteration     100.00

 eigenvalues of (default mixing * dielectric matrix)
  average eigenvalue GAMMA=   0.4806
  2.0223  1.2283  1.2283  0.6220  0.6220  0.3952  0.3952  0.2499  0.1183  0.1183
  0.1418  0.1257  0.1257  0.1007  0.1007  0.0958

 Free energy of the ion-electron system (eV)
  ---------------------------------------------------
  alpha Z        PSCENC =      1422.52235994
  Ewald energy   TEWEN  =    101912.84359843
  -Hartree energ DENC   =   -222038.33112542
  -exchange      EXHF   =         0.00000000
  -V(xc)+E(xc)   XCENC  =      3610.92229606
  PAW double counting   =    129209.85819160  -134181.97843914
  entropy T*S    EENTRO =        -1.33756244
  eigenvalues    EBANDS =    -16280.63783570
  atomic energy  EATOM  =    136002.60505376
  Solvation  Ediel_sol  =         0.00000000
  ---------------------------------------------------
  free energy    TOTEN  =      -343.53346292 eV

  energy without entropy =     -342.19590048  energy(sigma->0) =     -342.86468170


--------------------------------------------------------------------------------------------------------




--------------------------------------- Iteration      1(  22)  ---------------------------------------


    POTLOK:  cpu time    0.0502: real time    0.0503
    SETDIJ:  cpu time    0.0047: real time    0.0047
     EDDAV:  cpu time    2.5981: real time    2.6043
       DOS:  cpu time    0.0007: real time    0.0007
    CHARGE:  cpu time    0.0483: real time    0.0484
    MIXING:  cpu time    0.0038: real time    0.0038
    --------------------------------------------
      LOOP:  cpu time    2.7058: real time    2.7123

[...]
    FORCOR:  cpu time    0.0661: real time    0.0663
    FORHAR:  cpu time    0.0280: real time    0.0282
    MIXING:  cpu time    0.0076: real time    0.0076
    OFIELD:  cpu time    0.0001: real time    0.0001

  FORCE on cell =-STRESS in cart. coord.  units (eV):
  Direction    XX          YY          ZZ          XY          YZ          ZX
  --------------------------------------------------------------------------------------
  Alpha Z  1422.52236  1422.52236  1422.52236
  Ewald  146651.02558149861.19524************  -129.93811  -238.03323  -847.39879
  Hartree182491.04266185752.87703************  -128.56169  -163.67584  -815.77197
  E(xc)   -5017.35833 -5018.02991 -5024.09323     0.02691    -0.27950     0.33050
  Local  ************************328184.83112   259.23289   395.61745  1669.80380
  n-local  -692.25883  -700.16318  -701.62710    -0.16902    -0.19207     3.52238
  augment  5778.33794  5795.22008  5801.43601     0.24892     1.72491    -5.75600
  Kinetic 10929.63164 10942.91696 10969.88318    -0.73329     5.87964   -15.38792
  Fock        0.00000     0.00000     0.00000     0.00000     0.00000     0.00000
  -------------------------------------------------------------------------------------
  Total     -41.64469   -40.23333   -60.40669     0.10660     1.04137   -10.65800
  in kB     -25.51515   -24.65043   -37.01038     0.06532     0.63803    -6.53002
  external pressure =      -29.06 kB  Pullay stress =        0.00 kB


 VOLUME and BASIS-vectors are now :
 -----------------------------------------------------------------------------
  energy-cutoff  :      450.00
  volume of cell :     2615.00
      direct lattice vectors                 reciprocal lattice vectors
    16.884694054  0.000000000  0.000000000     0.059225237  0.000000000  0.000000000
     0.000000000  9.578410000  0.000000000     0.000000000  0.104401461  0.000000000
     0.000000000  0.000000000 16.169087120     0.000000000  0.000000000  0.061846411

  length of vectors
    16.884694054  9.578410000 16.169087120     0.059225237  0.104401461  0.061846411


 FORCES acting on ions
    electron-ion (+dipol)            ewald-force                    non-local-force                 convergence-correction
 -----------------------------------------------------------------------------------------------
   0.479E+03 -.165E+03 0.154E+04   -.479E+03 0.166E+03 -.155E+04   0.128E+01 -.922E+00 0.527E+01   0.189E-01 0.573E-02 -.326E-01
   0.551E+03 -.302E+02 -.266E+04   -.552E+03 0.300E+02 0.265E+04   0.495E+00 0.191E+00 0.645E+01   0.137E-01 0.522E-03 -.142E-01
   0.741E+03 0.323E+01 0.299E+04   -.744E+03 -.321E+01 -.299E+04   0.227E+01 -.113E-03 -.203E+01   0.243E-01 -.840E-03 -.127E-01
   0.500E+03 0.309E+01 -.701E+03   -.502E+03 -.306E+01 0.702E+03   0.104E+01 -.575E-02 -.110E+01   -.218E-01 -.181E-01 -.591E-02
   0.390E+03 -.168E+02 0.263E+04   -.393E+03 0.168E+02 -.263E+04   0.229E+01 -.163E-02 -.116E+01   0.297E-01 0.410E-02 -.154E-01
   0.125E+03 -.135E+02 -.135E+04   -.126E+03 0.135E+02 0.136E+04   0.671E+00 -.130E-01 -.350E+01   0.224E-01 0.205E-01 0.292E-02
   0.793E+03 0.487E+02 0.113E+04   -.796E+03 -.486E+02 -.113E+04   0.275E+01 -.134E-01 0.368E+01   0.381E-02 -.526E-02 -.855E-02
   0.667E+03 0.809E+01 -.302E+04   -.667E+03 -.808E+01 0.301E+04   -.773E+00 0.570E-02 0.607E+01   0.602E-02 -.187E-01 -.155E-01
   0.699E+03 -.503E+01 0.637E+03   -.701E+03 0.503E+01 -.642E+03   0.200E+01 -.297E-02 0.412E+01   -.288E-01 0.124E-01 0.112E-02
   0.589E+03 -.157E+01 -.328E+04   -.589E+03 0.155E+01 0.327E+04   -.699E+00 -.126E-01 0.553E+01   -.321E-01 0.323E-01 0.137E-01
   0.186E+03 0.526E+02 -.149E+04   -.187E+03 -.536E+02 0.149E+04   0.271E+00 0.745E+00 -.222E+01   -.538E-04 -.225E-02 -.262E-02
   -.283E+03 0.324E+03 0.234E+04   0.283E+03 -.328E+03 -.235E+04   0.626E-01 0.350E+01 0.163E+01   0.417E-02 0.793E-02 -.120E-01
   0.653E+02 0.442E+03 -.195E+04   -.635E+02 -.439E+03 0.195E+04   -.129E+01 -.239E+01 -.211E+00   0.186E-01 0.245E-02 -.124E-01
   -.398E+03 0.590E+03 0.325E+04   0.395E+03 -.579E+03 -.324E+04   0.293E+01 -.103E+02 -.677E+01   0.107E-01 0.159E-01 -.199E-01
   -.580E+03 0.397E+03 0.134E+03   0.580E+03 -.398E+03 -.135E+03   -.487E-01 0.123E+01 0.679E+00   -.998E-02 -.123E-01 -.960E-02
   -.270E+03 0.325E+03 -.319E+04   0.268E+03 -.325E+03 0.318E+04   0.233E+01 -.454E+00 0.863E+01   -.261E-03 -.268E-01 0.173E-01
   -.587E+03 0.668E+03 0.301E+04   0.581E+03 -.658E+03 -.300E+04   0.514E+01 -.971E+01 -.599E+01   0.899E-02 0.955E-02 -.139E-01
   -.550E+03 0.461E+03 -.720E+03   0.551E+03 -.464E+03 0.722E+03   -.141E+01 0.210E+01 -.217E+01   -.349E-02 0.225E-01 -.139E-01
   0.447E+02 0.518E+03 0.173E+04   -.436E+02 -.522E+03 -.173E+04   -.872E+00 0.307E+01 0.448E+01   -.196E-01 0.554E-03 0.492E-02
   -.136E+03 0.307E+03 -.253E+04   0.134E+03 -.303E+03 0.253E+04   0.245E+01 -.411E+01 0.469E+01   -.104E-01 -.167E-01 -.555E-02
   -.339E+02 0.355E+03 0.111E+04   0.334E+02 -.356E+03 -.112E+04   0.600E+00 0.645E+00 0.436E+01   -.108E-01 -.718E-02 -.230E-01
   -.351E+03 0.483E+03 -.291E+04   0.349E+03 -.480E+03 0.290E+04   0.257E+01 -.286E+01 0.467E+01   -.219E-01 0.252E-01 0.740E-02
   -.143E+03 0.409E+03 -.975E+03   0.141E+03 -.411E+03 0.976E+03   0.119E+01 0.120E+01 -.151E+01   0.236E-01 -.331E-03 -.157E-01
   -.173E+03 -.448E+03 0.236E+04   0.172E+03 0.452E+03 -.237E+04   0.120E+01 -.314E+01 0.306E+01   0.271E-02 -.190E-02 -.143E-01
   0.851E+02 -.467E+03 -.193E+04   -.832E+02 0.464E+03 0.193E+04   -.133E+01 0.243E+01 -.352E+00   0.297E-01 0.105E-01 -.114E-01
   -.382E+03 -.577E+03 0.325E+04   0.379E+03 0.566E+03 -.325E+04   0.298E+01 0.103E+02 -.681E+01   0.864E-02 -.168E-01 -.214E-01
   -.561E+03 -.381E+03 0.127E+03   0.561E+03 0.382E+03 -.127E+03   -.562E-01 -.123E+01 0.660E+00   -.730E-02 -.344E-02 -.307E-01
   -.265E+03 -.318E+03 -.319E+04   0.263E+03 0.318E+03 0.318E+04   0.223E+01 0.509E+00 0.873E+01   0.990E-02 -.243E-01 0.170E-01
   -.699E+03 -.793E+03 0.299E+04   0.693E+03 0.782E+03 -.298E+04   0.597E+01 0.105E+02 -.633E+01   0.963E-02 -.382E-02 -.936E-02
   -.604E+03 -.543E+03 -.659E+03   0.606E+03 0.546E+03 0.661E+03   -.216E+01 -.337E+01 -.196E+01   -.136E-01 -.846E-02 -.773E-02
   0.287E+02 -.505E+03 0.173E+04   -.276E+02 0.509E+03 -.173E+04   -.790E+00 -.308E+01 0.445E+01   -.208E-01 -.943E-02 -.884E-02
   -.140E+03 -.303E+03 -.254E+04   0.137E+03 0.299E+03 0.253E+04   0.251E+01 0.405E+01 0.472E+01   -.199E-01 -.272E-01 -.105E-01
   -.348E+02 -.359E+03 0.112E+04   0.343E+02 0.360E+03 -.112E+04   0.603E+00 -.661E+00 0.434E+01   -.116E-01 0.198E-01 -.118E-02
   -.352E+03 -.485E+03 -.291E+04   0.350E+03 0.482E+03 0.290E+04   0.255E+01 0.285E+01 0.467E+01   -.189E-01 0.335E-01 0.113E-01
   0.124E+03 0.466E+03 0.267E+04   -.118E+03 -.458E+03 -.266E+04   -.519E+01 -.772E+01 -.591E+01   0.135E-01 0.993E-02 -.367E-02
   -.177E+03 -.309E+03 -.116E+04   0.176E+03 0.310E+03 0.116E+04   0.352E+00 -.844E+00 -.206E+01   0.259E-01 0.834E-02 -.136E-01
   0.134E+03 -.164E+01 -.125E+04   -.135E+03 0.164E+01 0.126E+04   -.608E+00 0.161E-01 -.366E+01   0.626E-02 0.535E-02 -.326E-02
   -.104E+03 -.805E+01 0.300E+03   0.106E+03 0.791E+01 -.301E+03   -.283E+01 0.126E+00 -.259E+00   -.704E-02 0.369E-02 -.459E-02
   -.559E+03 0.121E+02 0.828E+03   0.566E+03 -.121E+02 -.829E+03   -.768E+01 0.201E-02 -.119E+01   -.660E-02 -.945E-03 -.225E-01
   -.291E+03 0.668E+01 -.445E+03   0.292E+03 -.671E+01 0.445E+03   -.147E+01 0.695E-01 0.142E+01   -.162E-02 -.107E-01 0.604E-02
   -.261E+03 -.501E+02 0.641E+03   0.263E+03 0.500E+02 -.642E+03   -.241E+01 0.136E+00 -.485E+00   -.502E-02 0.325E-02 -.983E-02
   -.569E+02 -.123E+02 -.101E+04   0.562E+02 0.124E+02 0.101E+04   0.905E+00 -.560E-01 -.468E+01   -.956E-02 0.209E-02 -.251E-02
   0.150E+03 0.221E+01 0.135E+04   -.151E+03 -.224E+01 -.136E+04   0.223E+01 0.285E-01 0.514E+01   -.663E-02 -.710E-03 -.180E-03
   -.102E+03 0.122E+01 -.618E+02   0.103E+03 -.124E+01 0.615E+02   -.181E+01 0.172E-01 0.143E+01   -.299E-02 -.991E-02 0.991E-03
   0.124E+03 -.150E+01 0.124E+04   -.126E+03 0.152E+01 -.124E+04   0.256E+01 -.136E-01 0.476E+01   -.141E-02 0.495E-03 -.837E-02
   -.191E+03 -.140E+01 -.275E+03   0.193E+03 0.137E+01 0.275E+03   -.188E+01 0.211E-01 0.138E+01   0.964E-02 0.124E-01 -.405E-02
   0.318E+02 0.122E+03 0.614E+03   -.322E+02 -.124E+03 -.616E+03   -.245E-01 0.182E+01 0.221E+01   0.116E-01 0.130E-02 -.473E-02
   0.557E+02 0.811E+01 -.113E+04   -.559E+02 -.814E+01 0.113E+04   0.131E-01 -.159E-01 -.457E+01   0.903E-02 0.198E-02 -.262E-02
   0.139E+03 -.271E+03 0.124E+04   -.140E+03 0.273E+03 -.125E+04   0.237E+01 -.283E+01 0.372E+01   0.609E-02 -.204E-02 0.539E-03
   0.160E+03 -.204E+03 -.740E+02   -.162E+03 0.204E+03 0.750E+02   0.174E+01 -.982E+00 0.569E-01   0.116E-01 0.126E-02 -.141E-01
   0.128E+03 -.189E+03 0.602E+03   -.129E+03 0.191E+03 -.602E+03   0.115E+01 -.186E+01 -.947E+00   0.883E-03 -.769E-02 -.119E-01
   0.950E+02 0.827E+00 -.883E+03   -.966E+02 -.212E+00 0.884E+03   0.209E+01 -.482E+00 -.160E+00   -.282E-02 -.153E-01 -.556E-02
   -.493E+02 -.189E+03 0.363E+03   0.480E+02 0.191E+03 -.363E+03   0.133E+01 -.207E+01 -.161E+01   0.996E-02 -.493E-02 -.274E-02
   -.182E+03 0.571E+02 -.113E+04   0.183E+03 -.578E+02 0.113E+04   -.104E+01 0.525E+00 -.361E+01   -.388E-02 0.142E-02 0.343E-03
   0.180E+03 -.144E+03 -.321E+03   -.181E+03 0.146E+03 0.320E+03   0.154E+01 -.246E+01 0.134E+01   -.560E-02 -.442E-02 -.624E-02
   0.119E+03 -.245E+02 0.125E+04   -.120E+03 0.238E+02 -.126E+04   0.106E+01 0.130E+01 0.571E+01   -.273E-02 0.469E-03 0.300E-02
   0.158E+03 0.403E+02 0.112E+04   -.159E+03 -.414E+02 -.113E+04   0.680E+00 0.115E+01 0.585E+01   -.822E-02 0.476E-02 -.225E-02
   0.143E+03 -.172E+03 -.518E+03   -.145E+03 0.175E+03 0.517E+03   0.225E+01 -.258E+01 0.200E+01   -.960E-02 0.850E-02 0.105E-01
   0.686E+02 0.562E+02 0.295E+03   -.709E+02 -.565E+02 -.297E+03   0.279E+01 -.310E-02 0.129E+01   0.401E-02 0.639E-02 -.741E-02
   -.390E+02 -.150E+03 -.127E+04   0.384E+02 0.152E+03 0.127E+04   0.825E+00 -.294E+01 -.465E+01   0.402E-02 0.297E-02 0.364E-02
   0.125E+03 0.191E+03 0.602E+03   -.127E+03 -.192E+03 -.602E+03   0.120E+01 0.182E+01 -.894E+00   0.252E-05 0.597E-02 -.697E-02
   0.935E+02 0.206E+00 -.882E+03   -.951E+02 -.854E+00 0.883E+03   0.205E+01 0.538E+00 -.125E+00   -.155E-02 -.165E-02 0.602E-02
   0.394E+02 0.722E+02 0.131E+04   -.398E+02 -.722E+02 -.131E+04   0.388E+00 -.900E+00 0.583E+01   0.679E-02 0.597E-02 0.461E-03
   0.129E+03 0.160E+03 -.122E+03   -.131E+03 -.161E+03 0.123E+03   0.196E+01 0.150E+01 0.597E+00   0.694E-02 -.570E-02 -.118E-01
   0.189E+03 0.149E+03 -.314E+03   -.190E+03 -.151E+03 0.314E+03   0.145E+01 0.254E+01 0.137E+01   0.400E-02 0.129E-03 0.136E-03
   0.156E+03 0.378E+02 0.125E+04   -.157E+03 -.369E+02 -.125E+04   0.943E+00 -.150E+01 0.569E+01   -.339E-02 -.235E-02 0.354E-02
   -.310E+02 0.178E+03 0.357E+03   0.298E+02 -.180E+03 -.357E+03   0.129E+01 0.205E+01 -.157E+01   0.816E-02 0.687E-02 -.704E-02
   -.177E+03 -.611E+02 -.113E+04   0.178E+03 0.619E+02 0.114E+04   -.103E+01 -.607E+00 -.369E+01   0.461E-02 0.127E-01 -.218E-02
   -.304E+02 -.325E+02 0.438E+03   0.297E+02 0.335E+02 -.443E+03   0.835E+00 -.715E+00 0.502E+01   -.203E-02 -.982E-02 -.112E-01
   -.410E+02 0.156E+03 -.125E+04   0.405E+02 -.158E+03 0.126E+04   0.838E+00 0.305E+01 -.456E+01   -.269E-02 -.479E-02 0.746E-02
   0.155E+03 -.424E+02 0.112E+04   -.156E+03 0.434E+02 -.113E+04   0.724E+00 -.113E+01 0.581E+01   -.763E-02 -.323E-02 -.508E-02
   0.142E+03 0.172E+03 -.519E+03   -.144E+03 -.174E+03 0.518E+03   0.224E+01 0.254E+01 0.201E+01   -.157E-01 0.518E-02 -.908E-03
 -----------------------------------------------------------------------------------------------
   -.509E+02 0.924E+01 -.664E+02   0.142E-11 -.568E-13 0.227E-12   0.508E+02 -.940E+01 0.668E+02   0.305E-01 0.470E-01 -.406E+00
 
 
 POSITION                                       TOTAL-FORCE (eV/Angst)
 -----------------------------------------------------------------------------------
     13.17084      1.39171      1.94975         0.425708      0.114049     -0.666553
     13.75451      1.39171      5.03429        -1.033243     -0.012505     -1.524657
      4.43666      6.18092      0.40748        -0.251732      0.015073      1.074880
      5.02033      6.18092      3.49202        -0.280460      0.003103      0.218336
      7.34806      1.39171      0.92157        -0.363849      0.028606      0.845117
      7.93172      1.39171      4.00611        -0.183859     -0.023814      0.164880
     16.08224      6.18092      2.46384        -0.302304      0.056258      0.017243
     16.66591      6.18092      5.54838        -0.833593     -0.005885     -1.686590
      2.10894      1.39171      2.97793        -0.157059      0.008558     -0.240316
      2.69261      1.39171      6.06247        -0.604954     -0.006164     -1.548723
     10.84312      6.18092      4.52020         0.012898     -0.235855      0.509250
     15.32426      0.12638      1.54227        -0.268621     -0.721781      0.333487
     15.90793      0.12638      4.62682         0.546182      0.304350     -0.440088
      6.59008      4.91558      0.00000         0.035812      0.757242      1.838758
      7.17375      4.91558      3.08454        -0.065183     -0.135697     -0.072310
      7.75741      4.91558      6.16909        -0.168173     -0.432336     -2.043008
      9.50147      0.12638      0.51409        -0.283638      0.632184      1.600706
     10.08514      0.12638      3.59863         0.219218     -0.044717      0.184573
      1.35096      4.91558      2.05636         0.225684     -0.462468     -0.276480
      1.93463      4.91558      5.14091        -0.099822     -0.144404     -1.381816
      4.26235      0.12638      2.57045         0.096255     -0.194603     -0.210405
      4.84602      0.12638      5.65500        -0.176932     -0.224967     -1.503545
     12.99653      4.91558      4.11272         0.016918     -0.169205      0.284384
     15.32426      2.65705      1.54227        -0.544855      0.841628      0.193621
     15.90793      2.65705      4.62682         0.573711     -0.335063     -0.469142
      6.59008      7.44626      0.00000         0.044777     -0.774297      1.841099
      7.17375      7.44626      3.08454        -0.074649      0.132724     -0.062972
      7.75741      7.44626      6.16909        -0.197136      0.425878     -2.035043
      9.50147      2.65705      0.51409        -0.378074     -0.725396      1.640104
     10.08514      2.65705      3.59863         0.284913      0.221280      0.228040
      1.35096      7.44626      2.05636         0.261043      0.452816     -0.303147
      1.93463      7.44626      5.14091        -0.116913      0.143763     -1.380801
      4.26235      2.65705      2.57045         0.105377      0.191128     -0.200694
      4.84602      2.65705      5.65500        -0.177439      0.227038     -1.506406
     12.41286      7.44626      1.02818         0.534309      0.913458      1.325172
     12.99653      7.44626      4.11272         0.245722      0.053349      0.456806
      0.43949      1.39171      6.03394        -1.102112      0.019033      0.002571
     16.74052      1.39171      2.94940        -0.234567     -0.011656     -1.007756
      8.00634      6.18092      1.40713        -0.634811      0.012282     -1.634908
      8.59001      6.18092      4.49167        -0.004730      0.030417      1.152543
     10.91773      1.39171      1.92122        -0.492020      0.030452     -0.933422
     11.50140      1.39171      5.00576         0.210544      0.006633      0.440840
      2.18355      6.18092      0.37895         1.260486      0.002431      0.195672
      2.76722      6.18092      3.46349         0.103673     -0.007826      1.113586
      5.09494      1.39171      0.89304         1.330310      0.006936     -0.008088
      5.67861      1.39171      3.97758         0.079130      0.006210      0.996250
     13.82913      6.18092      2.43531        -0.413925      0.460545     -0.260904
     14.41279      6.18092      5.51985        -0.198187     -0.044461      0.132704
     13.41477      3.00295      0.38372         0.916912     -0.608895      0.796113
     13.99844      3.00295      3.46826         0.065887     -0.359451      1.056443
      5.26426      7.79215      1.92599        -0.174247     -0.130598     -1.083347
      5.84793      7.79215      5.01054         0.455733      0.118980      0.808615
      8.17565      3.00295      2.44008         0.068625     -0.243091     -0.912010
      8.75932      3.00295      5.52463        -0.033067     -0.193215      0.096870
      0.02514      7.79215      3.98236         0.118769     -0.199587      0.945710
     16.32617      7.79215      0.89781        -0.041316      0.572852      0.487956
      2.35287      3.00295      1.41190        -0.095252      0.073411      0.490944
      2.93654      3.00295      4.49645         0.046119      0.044449      1.008650
     11.08705      7.79215      2.95417         0.524968     -0.325740     -0.330351
     11.67072      7.79215      6.03872         0.235554     -0.947330     -1.387648
      5.26426      4.56969      1.92599        -0.186593      0.160826     -1.078883
      5.84793      4.56969      5.01054         0.441288     -0.110395      0.825654
     13.41477      9.35889      0.38372        -0.040850     -0.811779      0.371869
     13.99844      9.35889      3.46826         0.212530      0.487108      1.211838
      0.02514      4.56969      3.98236         0.106620      0.234374      0.968808
     16.32617      4.56969      0.89781        -0.055711     -0.585119      0.437476
      8.17565      9.35889      2.44008         0.038007      0.243918     -0.925386
      8.75932      9.35889      5.52463        -0.007422      0.191823      0.070410
     11.08705      4.56969      2.95417         0.130195      0.221248      0.503295
     11.67072      4.56969      6.03872         0.338859      0.917517     -1.285993
      2.35287      9.35889      1.41190        -0.090122     -0.081058      0.512299
      2.93654      9.35889      4.49645         0.054682     -0.054569      1.017820
 -----------------------------------------------------------------------------------
    total drift:                               -0.049766     -0.112141      0.014170


--------------------------------------------------------------------------------------------------------



  FREE ENERGIE OF THE ION-ELECTRON SYSTEM (eV)
  ---------------------------------------------------
  free  energy   TOTEN  =      -343.43172052 eV

  energy  without entropy=     -342.14639752  energy(sigma->0) =     -342.78905902
 


--------------------------------------------------------------------------------------------------------


    POTLOK:  cpu time    0.0554: real time    0.0559


--------------------------------------------------------------------------------------------------------


     LOOP+:  cpu time  116.0691: real time  116.4432
    4ORBIT:  cpu time    0.0000: real time    0.0000

 total amount of memory used by VASP MPI-rank0    46725. kBytes
=======================================================================

   base      :      30000. kBytes
   nonlr-proj:       2059. kBytes
   fftplans  :       3623. kBytes
   grid      :       6327. kBytes
   one-center:         93. kBytes
   wavefun   :       4623. kBytes
 
  
  
 General timing and accounting informations for this job:
 ========================================================
  
                  Total CPU time used (sec):      118.493
                            User time (sec):      117.836
                          System time (sec):        0.657
                         Elapsed time (sec):      119.385
  
                   Maximum memory used (kb):      262976.
                   Average memory used (kb):           0.
  
                          Minor page faults:        83635
                          Major page faults:            0
                 Voluntary context switches:          948
