 vasp.5.4.4.18Apr17-6-g9f103f2a35 (build Aug 13 2019 17:33:20) gamma-only       
  
 executed on             LinuxIFC date 2020.05.12  22:36:32
 running on   12 total cores
 distrk:  each k-point on   12 cores,    1 groups
 distr:  one band on NCORES_PER_BAND=   6 cores,    2 groups


--------------------------------------------------------------------------------------------------------


 INCAR:
 POTCAR:    PAW_PBE Ni_pv 06Sep2000               
 POTCAR:    PAW_PBE S 06Sep2000                   
 POTCAR:    PAW_PBE Ni_pv 06Sep2000               
   VRHFIN =Ni:                                                                  
   LEXCH  = PE                                                                  
   EATOM  =  3501.1230 eV,  257.3253 Ry                                         
                                                                                
   TITEL  = PAW_PBE Ni_pv 06Sep2000                                             
   LULTRA =        F    use ultrasoft PP ?                                      
   IUNSCR =        1    unscreen: 0-lin 1-nonlin 2-no                           
   RPACOR =    1.500    partial core radius                                     
   POMASS =   58.690; ZVAL   =   16.000    mass and valenz                      
   RCORE  =    2.000    outmost cutoff radius                                   
   RWIGS  =    2.000; RWIGS  =    1.058    wigner-seitz radius (au A)           
   ENMAX  =  367.986; ENMIN  =  275.989 eV                                      
   RCLOC  =    1.301    cutoff for local pot                                    
   LCOR   =        T    correct aug charges                                     
   LPAW   =        T    paw PP                                                  
   EAUG   =  703.443                                                            
   DEXC   =    0.000                                                            
   RMAX   =    2.041    core radius for proj-oper                               
   RAUG   =    1.300    factor for augmentation sphere                          
   RDEP   =    2.103    radius for radial grids                                 
   RDEPT  =    1.618    core radius for aug-charge                              
                                                                                
   Atomic configuration                                                         
    8 entries                                                                   
     n  l   j            E        occ.                                          
     1  0  0.50     -8206.4253   2.0000                                         
     2  0  0.50      -976.1748   2.0000                                         
     2  1  1.50      -839.0571   6.0000                                         
     3  0  0.50      -105.9991   2.0000                                         
     3  1  1.50       -66.4603   6.0000                                         
     3  2  2.50        -4.6458   9.0000                                         
     4  0  0.50        -4.4926   1.0000                                         
     4  3  2.50        -1.3606   0.0000                                         
   Description                                                                  
     l       E           TYP  RCUT    TYP  RCUT                                 
     1    -66.4602962     23  1.700                                             
     1     -1.3605826     23  1.700                                             
     2     -4.6457867     23  2.000                                             
     2     -6.0063693     23  2.000                                             
     0     -4.4925576     23  1.900                                             
     0     16.3626226     23  1.900                                             
  local pseudopotential read in
  partial core-charges read in
  partial kinetic energy density read in
  atomic valenz-charges read in
  non local Contribution for L=           1  read in
    real space projection operators read in
  non local Contribution for L=           1  read in
    real space projection operators read in
  non local Contribution for L=           2  read in
    real space projection operators read in
  non local Contribution for L=           2  read in
    real space projection operators read in
  non local Contribution for L=           0  read in
    real space projection operators read in
  non local Contribution for L=           0  read in
    real space projection operators read in
    PAW grid and wavefunctions read in
 
   number of l-projection  operators is LMAX  =           6
   number of lm-projection operators is LMMAX =          18
 
 POTCAR:    PAW_PBE S 06Sep2000                   
   VRHFIN =S : s2p4                                                             
   LEXCH  = PE                                                                  
   EATOM  =   276.8230 eV,   20.3459 Ry                                         
                                                                                
   TITEL  = PAW_PBE S 06Sep2000                                                 
   LULTRA =        F    use ultrasoft PP ?                                      
   IUNSCR =        1    unscreen: 0-lin 1-nonlin 2-no                           
   RPACOR =    1.500    partial core radius                                     
   POMASS =   32.066; ZVAL   =    6.000    mass and valenz                      
   RCORE  =    1.900    outmost cutoff radius                                   
   RWIGS  =    2.200; RWIGS  =    1.164    wigner-seitz radius (au A)           
   ENMAX  =  258.689; ENMIN  =  194.016 eV                                      
   ICORE  =        2    local potential                                         
   LCOR   =        T    correct aug charges                                     
   LPAW   =        T    paw PP                                                  
   EAUG   =  335.092                                                            
   DEXC   =    0.000                                                            
   RMAX   =    1.942    core radius for proj-oper                               
   RAUG   =    1.300    factor for augmentation sphere                          
   RDEP   =    1.954    radius for radial grids                                 
   RDEPT  =    1.744    core radius for aug-charge                              
                                                                                
   Atomic configuration                                                         
    6 entries                                                                   
     n  l   j            E        occ.                                          
     1  0  0.50     -2405.8406   2.0000                                         
     2  0  0.50      -211.7007   2.0000                                         
     2  1  1.50      -156.4958   6.0000                                         
     3  0  0.50       -17.2562   2.0000                                         
     3  1  0.50        -7.0085   4.0000                                         
     3  2  1.50        -6.8029   0.0000                                         
   Description                                                                  
     l       E           TYP  RCUT    TYP  RCUT                                 
     0    -17.2561641     23  1.900                                             
     0    -15.8743224     23  1.900                                             
     1     -7.0085400     23  1.900                                             
     1     -2.7779785     23  1.900                                             
     2     -6.8029130     23  1.900                                             
  local pseudopotential read in
  partial core-charges read in
  partial kinetic energy density read in
  atomic valenz-charges read in
  non local Contribution for L=           0  read in
    real space projection operators read in
  non local Contribution for L=           0  read in
    real space projection operators read in
  non local Contribution for L=           1  read in
    real space projection operators read in
  non local Contribution for L=           1  read in
    real space projection operators read in
    PAW grid and wavefunctions read in
 
   number of l-projection  operators is LMAX  =           4
   number of lm-projection operators is LMMAX =           8
 
 Optimization of the real space projectors (new method)

 maximal supplied QI-value         = 18.90
 optimisation between [QCUT,QGAM] = [ 10.77, 21.73] = [ 32.49,132.25] Ry 
 Optimized for a Real-space Cutoff    1.38 Angstroem

   l    n(q)    QCUT    max X(q) W(low)/X(q) W(high)/X(q)  e(spline) 
   1      8    10.771     2.836    0.40E-04    0.29E-04    0.12E-06
   1      8    10.771     4.023    0.10E-03    0.48E-04    0.29E-06
   2      8    10.771    73.368    0.42E-03    0.97E-04    0.44E-06
   2      8    10.771    69.010    0.42E-03    0.99E-04    0.45E-06
   0      9    10.771    54.797    0.10E-03    0.56E-04    0.74E-07
   0      9    10.771    24.266    0.89E-04    0.49E-04    0.67E-07
 Optimization of the real space projectors (new method)

 maximal supplied QI-value         = 19.84
 optimisation between [QCUT,QGAM] = [ 10.71, 21.63] = [ 32.15,130.99] Ry 
 Optimized for a Real-space Cutoff    1.19 Angstroem

   l    n(q)    QCUT    max X(q) W(low)/X(q) W(high)/X(q)  e(spline) 
   0      8    10.715   187.594    0.41E-03    0.53E-04    0.66E-07
   0      8    10.715   164.243    0.41E-03    0.53E-04    0.65E-07
   1      7    10.715    67.533    0.19E-03    0.59E-03    0.68E-07
   1      7    10.715    50.729    0.19E-03    0.58E-03    0.67E-07
  PAW_PBE Ni_pv 06Sep2000               :
 energy of atom  1       EATOM=-3501.1230
 kinetic energy error for atom=    0.0925 (will be added to EATOM!!)
  PAW_PBE S 06Sep2000                   :
 energy of atom  2       EATOM= -276.8230
 kinetic energy error for atom=    0.0033 (will be added to EATOM!!)
 
 
 POSCAR: Type_036 Type_136                       
  positions in cartesian coordinates
  No initial velocities read in
 exchange correlation table for  LEXCH =        8
   RHO(1)=    0.500       N(1)  =     2000
   RHO(2)=  100.500       N(2)  =     4000
 


--------------------------------------------------------------------------------------------------------


 ion  position               nearest neighbor table
   1  0.407  0.789  0.138-  49 2.02  62 2.11  61 2.16  42 2.23  50 2.29
   2  0.547  0.645  0.245-  50 2.06  43 2.25  62 2.26  63 2.36  51 2.36  27 2.53  14 2.53
   3  0.698  0.494  0.372-  44 2.25  51 2.26  63 2.26  52 2.36  64 2.36  15 2.53  28 2.53
   4  0.838  0.342  0.480-  52 2.00  64 2.00  26 2.47  16 2.49
   5  0.114  0.412  0.160-  53 2.11  45 2.25  68 2.26  54 2.36  65 2.36   8 2.38  29 2.53  17 2.53

   6  0.264  0.261  0.287-  46 2.25  65 2.26  54 2.26  55 2.36  66 2.36  18 2.53  30 2.53
   7  0.414  0.111  0.414-  56 2.10  67 2.18  55 2.26  66 2.26  47 2.31  31 2.53  19 2.53
   8  0.970  0.606  0.097-  48 2.08  45 2.11  68 2.25  53 2.26   5 2.38  21 2.53
   9  0.101  0.778  0.443-  58 2.04  72 2.09  59 2.12  37 2.13
  10  0.527  0.238  0.127-  69 2.08  70 2.09  38 2.12  54 2.14  29 2.45  14 2.49
  11  0.831  0.028  0.203-  60 2.06  39 2.25  70 2.26  57 2.36  71 2.36  24 2.53  33 2.53
  12  0.981  0.878  0.330-  40 2.25  57 2.26  71 2.26  58 2.36  72 2.36  34 2.53  25 2.53
  13  0.359  0.545  0.107-  62 2.03  38 2.12  53 2.12  61 2.15
  14  0.508  0.420  0.212-  38 2.07  54 2.25  62 2.26  39 2.36  63 2.36  10 2.49  27 2.53   2 2.53

  15  0.658  0.270  0.338-  55 2.25  63 2.26  39 2.26  64 2.36  40 2.36   3 2.53  28 2.53
  16  0.791  0.122  0.450-  40 2.04  37 2.11  56 2.13  64 2.16   4 2.49
  17  0.074  0.187  0.127-  41 2.05  60 2.10  68 2.26  42 2.36  65 2.36  29 2.53   5 2.53
  18  0.224  0.037  0.254-  57 2.25  42 2.26  65 2.26  66 2.36  43 2.36   6 2.53  30 2.53
  19  0.375  0.886  0.381-  67 2.00  58 2.25  66 2.26  43 2.26  20 2.34  44 2.36  31 2.53   7 2.53

  20  0.432  0.704  0.458-  59 2.05  44 2.11  67 2.24  19 2.34
  21  0.069  0.369  0.040-  41 2.02  68 2.04  53 2.06  29 2.51   8 2.53
  22  0.083  0.511  0.410-  46 2.03  72 2.14  52 2.22  47 2.31  35 2.51
  23  0.633  0.932  0.065-  49 2.00  70 2.02  69 2.10  48 2.14
  24  0.791  0.804  0.169-  48 2.07  50 2.22  70 2.26  71 2.36  45 2.36  11 2.53  33 2.53
  25  0.941  0.653  0.296-  51 2.25  71 2.26  45 2.26  46 2.36  72 2.36  34 2.53  12 2.53
  26  0.026  0.164  0.417-  40 2.04  37 2.12  66 2.12  52 2.15   4 2.47
  27  0.732  0.460  0.178-  38 2.12  50 2.15  68 2.25  51 2.36  39 2.36  14 2.53   2 2.53
  28  0.882  0.310  0.305-  65 2.25  39 2.26  51 2.26  40 2.36  52 2.36   3 2.53  15 2.53
  29  0.299  0.227  0.093-  69 2.07  41 2.07  53 2.31  54 2.36  42 2.36  10 2.45  21 2.51   5 2.53
                            17 2.53
  30  0.449  0.076  0.220-  70 2.25  42 2.26  54 2.26  43 2.36  55 2.36  18 2.53   6 2.53
  31  0.599  0.926  0.347-  56 2.16  71 2.25  43 2.26  55 2.26  44 2.36  32 2.43   7 2.53  19 2.53

  32  0.734  0.818  0.443-  56 2.04  44 2.05  72 2.06  31 2.43
  33  0.015  0.843  0.136-  60 2.07  48 2.13  61 2.15  45 2.36  57 2.36  24 2.53  11 2.53
  34  0.166  0.693  0.263-  62 2.25  57 2.26  45 2.26  46 2.36  58 2.36  12 2.53  25 2.53
  35  0.316  0.543  0.390-  59 2.13  47 2.14  63 2.25  58 2.26  46 2.26  36 2.34  22 2.51
  36  0.445  0.431  0.481-  64 2.06  59 2.07  47 2.08  35 2.34
  37  0.004  0.995  0.471-  16 2.11  26 2.12   9 2.13  40 2.60
  38  0.578  0.423  0.118-  14 2.07  10 2.12  13 2.12  27 2.12
  39  0.736  0.256  0.235-  11 2.25  28 2.26  15 2.26  14 2.36  27 2.36
  40  0.886  0.105  0.362-  16 2.04  26 2.04  12 2.25  15 2.36  28 2.36  37 2.60
  41  0.167  0.157  0.037-  21 2.02  17 2.05  29 2.07
  42  0.303  0.023  0.151-   1 2.23  30 2.26  18 2.26  17 2.36  29 2.36
  43  0.453  0.872  0.278-   2 2.25  31 2.26  19 2.26  30 2.36  18 2.36
  44  0.603  0.722  0.405-  32 2.05  20 2.11   3 2.25  31 2.36  19 2.36  67 2.72
  45  0.019  0.639  0.193-   8 2.11   5 2.25  25 2.26  34 2.26  24 2.36  33 2.36
  46  0.170  0.489  0.320-  22 2.03   6 2.25  35 2.26  34 2.36  25 2.36
  47  0.308  0.352  0.432-  36 2.08  35 2.14  22 2.31   7 2.31
  48  0.855  0.817  0.075-  24 2.07   8 2.08  33 2.13  23 2.14
  49  0.494  0.832  0.057-  23 2.00   1 2.02  50 2.77
  50  0.643  0.686  0.163-   2 2.06  27 2.15  24 2.22   1 2.29  49 2.77
  51  0.787  0.542  0.278-  25 2.25   3 2.26  28 2.26  27 2.36   2 2.36
  52  0.937  0.391  0.405-   4 2.00  26 2.15  22 2.22   3 2.36  28 2.36
  53  0.198  0.469  0.076-  21 2.06   5 2.11  13 2.12   8 2.26  29 2.31
  54  0.353  0.308  0.193-  10 2.14  14 2.25   6 2.26  30 2.26  29 2.36   5 2.36
  55  0.503  0.158  0.320-  15 2.25   7 2.26  31 2.26   6 2.36  30 2.36  56 2.76
  56  0.633  0.031  0.433-  32 2.04   7 2.10  16 2.13  31 2.16  55 2.76
  57  0.070  0.925  0.236-  18 2.25  34 2.26  12 2.26  11 2.36  33 2.36  60 2.71
  58  0.220  0.775  0.363-   9 2.04  19 2.25  35 2.26  34 2.36  12 2.36
  59  0.280  0.624  0.486-  20 2.05  36 2.07   9 2.12  35 2.13
  60  0.946  0.062  0.126-  11 2.06  33 2.07  17 2.10  57 2.71
  61  0.224  0.763  0.094-  13 2.15  33 2.15   1 2.16  62 2.50
  62  0.350  0.641  0.194-  13 2.03   1 2.11  34 2.25  14 2.26   2 2.26  61 2.50
  63  0.501  0.491  0.321-  35 2.25   3 2.26  15 2.26   2 2.36  14 2.36
  64  0.651  0.341  0.448-   4 2.00  36 2.06  16 2.16  15 2.36   3 2.36
  65  0.067  0.258  0.236-  28 2.25   6 2.26  18 2.26   5 2.36  17 2.36
  66  0.218  0.108  0.363-  26 2.12  19 2.26   7 2.26  18 2.36   6 2.36
  67  0.407  0.932  0.472-  19 2.00   7 2.18  20 2.24  44 2.72
  68  0.917  0.408  0.109-  21 2.04   8 2.25  27 2.25  17 2.26   5 2.26
  69  0.490  0.137  0.045-  29 2.07  10 2.08  23 2.10  70 2.66
  70  0.634  0.025  0.152-  23 2.02  10 2.09  30 2.25  11 2.26  24 2.26  69 2.66
  71  0.784  0.874  0.279-  31 2.25  25 2.26  12 2.26  24 2.36  11 2.36
  72  0.934  0.724  0.405-  32 2.06   9 2.09  22 2.14  12 2.36  25 2.36
 
  LATTYP: Found a base centered orthorhombic cell.
 ALAT       =    11.4527836704
 B/A-ratio  =     1.4485816945
 C/A-ratio  =     1.8059804630
  
  Lattice vectors:
  
 A1 = (  10.0797329849,   0.0000000000,   0.0000000000)
 A2 = (  -3.5732980427,  -9.4251025535,   0.0000000000)
 A3 = (   0.0000000000,   0.0000000000, -20.6835035552)


Analysis of symmetry for initial positions (statically):
=====================================================================
 Subroutine PRICEL returns:
 Original cell was already a primitive cell.
 

 Routine SETGRP: Setting up the symmetry group for a 
 base centered orthorhombic supercell.


 Subroutine GETGRP returns: Found  1 space group operations
 (whereof  1 operations were pure point group operations)
 out of a pool of  8 trial point group operations.


The static configuration has the point symmetry C_1 .


Analysis of symmetry for dynamics (positions and initial velocities):
=====================================================================
 Subroutine PRICEL returns:
 Original cell was already a primitive cell.
 

 Routine SETGRP: Setting up the symmetry group for a 
 base centered orthorhombic supercell.


 Subroutine GETGRP returns: Found  1 space group operations
 (whereof  1 operations were pure point group operations)
 out of a pool of  8 trial point group operations.


The dynamic configuration has the point symmetry C_1 .


 Subroutine INISYM returns: Found  1 space group operations
 (whereof  1 operations are pure point group operations),
 and found     1 'primitive' translations

 
 
 KPOINTS: gamma-point-only calculation. no periodi

Automatic generation of k-mesh.
Space group operators:
 irot       det(A)        alpha          n_x          n_y          n_z        tau_x        tau_y        tau_z
    1     1.000000     0.000000     1.000000     0.000000     0.000000     0.000000     0.000000     0.000000
 
 Subroutine IBZKPT returns following result:
 ===========================================
 
 Found      1 irreducible k-points:
 
 Following reciprocal coordinates:
            Coordinates               Weight
  0.000000  0.000000  0.000000      1.000000
 
 Following cartesian coordinates:
            Coordinates               Weight
  0.000000  0.000000  0.000000      1.000000
 


--------------------------------------------------------------------------------------------------------




 Dimension of arrays:
   k-points           NKPTS =      1   k-points in BZ     NKDIM =      1   number of bands    NBANDS=    476
   number of dos      NEDOS =    301   number of ions     NIONS =     72
   non local maximal  LDIM  =      6   non local SUM 2l+1 LMDIM =     18
   total plane-waves  NPLWV = 314928
   max r-space proj   IRMAX =   1817   max aug-charges    IRDMAX=   5248
   dimension x,y,z NGX =    54 NGY =   54 NGZ =  108
   dimension x,y,z NGXF=   108 NGYF=  108 NGZF=  216
   support grid    NGXF=   108 NGYF=  108 NGZF=  216
   ions per type =              36  36
   NGX,Y,Z   is equivalent  to a cutoff of   8.91,  8.91,  8.68 a.u.
   NGXF,Y,Z  is equivalent  to a cutoff of  17.81, 17.81, 17.36 a.u.

 SYSTEM =  "Millerite NiS"                         
 POSCAR =  Type_036 Type_136                       

 Startparameter for this run:
   NWRITE =      2    write-flag & timer
   PREC   = normal    normal or accurate (medium, high low for compatibility)
   ISTART =      0    job   : 0-new  1-cont  2-samecut
   ICHARG =      2    charge: 1-file 2-atom 10-const
   ISPIN  =      1    spin polarized calculation?
   LNONCOLLINEAR =      F non collinear calculations
   LSORBIT =      F    spin-orbit coupling
   INIWAV =      1    electr: 0-lowe 1-rand  2-diag
   LASPH  =      F    aspherical Exc in radial PAW
   METAGGA=      F    non-selfconsistent MetaGGA calc.

 Electronic Relaxation 1
   ENCUT  =  450.0 eV  33.07 Ry    5.75 a.u.  17.43 17.43 35.78*2*pi/ulx,y,z
   ENINI  =  450.0     initial cutoff
   ENAUG  =  703.4 eV  augmentation charge cutoff
   NELM   =    100;   NELMIN=  2; NELMDL= -5     # of ELM steps 
   EDIFF  = 0.1E-03   stopping-criterion for ELM
   LREAL  =      T    real-space projection
   NLSPLINE    = F    spline interpolate recip. space projectors
   LCOMPAT=      F    compatible to vasp.4.4
   GGA_COMPAT  = T    GGA compatible to vasp.4.4-vasp.4.6
   LMAXPAW     = -100 max onsite density
   LMAXMIX     =    2 max onsite mixed and CHGCAR
   VOSKOWN=      0    Vosko Wilk Nusair interpolation
   ROPT   =   -0.00050  -0.00050
 Ionic relaxation
   EDIFFG = 0.1E-02   stopping-criterion for IOM
   NSW    =      0    number of steps for IOM
   NBLOCK =      1;   KBLOCK =      1    inner block; outer block 
   IBRION =     -1    ionic relax: 0-MD 1-quasi-New 2-CG
   NFREE  =      0    steps in history (QN), initial steepest desc. (CG)
   ISIF   =      2    stress and relaxation
   IWAVPR =     10    prediction:  0-non 1-charg 2-wave 3-comb
   ISYM   =      2    0-nonsym 1-usesym 2-fastsym
   LCORR  =      T    Harris-Foulkes like correction to forces

   POTIM  = 0.5000    time-step for ionic-motion
   TEIN   =    0.0    initial temperature
   TEBEG  =    0.0;   TEEND  =   0.0 temperature during run
   SMASS  =  -3.00    Nose mass-parameter (am)
   estimated Nose-frequenzy (Omega)   =  0.10E-29 period in steps =****** mass=  -0.232E-26a.u.
   SCALEE = 1.0000    scale energy and forces
   NPACO  =    256;   APACO  = 16.0  distance and # of slots for P.C.
   PSTRESS=    0.0 pullay stress

  Mass of Ions in am
   POMASS =  58.69 32.07
  Ionic Valenz
   ZVAL   =  16.00  6.00
  Atomic Wigner-Seitz radii
   RWIGS  =  -1.00 -1.00
  virtual crystal weights 
   VCA    =   1.00  1.00
   NELECT =     792.0000    total number of electrons
   NUPDOWN=      -1.0000    fix difference up-down

 DOS related values:
   EMIN   =  10.00;   EMAX   =-10.00  energy-range for DOS
   EFERMI =   0.00
   ISMEAR =     0;   SIGMA  =   0.20  broadening in eV -4-tet -1-fermi 0-gaus

 Electronic relaxation 2 (details)
   IALGO  =     38    algorithm
   LDIAG  =      T    sub-space diagonalisation (order eigenvalues)
   LSUBROT=      F    optimize rotation matrix (better conditioning)
   TURBO    =      0    0=normal 1=particle mesh
   IRESTART =      0    0=no restart 2=restart with 2 vectors
   NREBOOT  =      0    no. of reboots
   NMIN     =      0    reboot dimension
   EREF     =   0.00    reference energy to select bands
   IMIX   =      4    mixing-type and parameters
     AMIX     =   0.40;   BMIX     =  1.00
     AMIX_MAG =   1.60;   BMIX_MAG =  1.00
     AMIN     =   0.10
     WC   =   100.;   INIMIX=   1;  MIXPRE=   1;  MAXMIX= -45

 Intra band minimization:
   WEIMIN = 0.0000     energy-eigenvalue tresh-hold
   EBREAK =  0.53E-07  absolut break condition
   DEPER  =   0.30     relativ break condition  

   TIME   =   0.40     timestep for ELM

  volume/ion in A,a.u.               =      27.29       184.17
  Fermi-wavevector in a.u.,A,eV,Ry     =   1.209289  2.285225 19.896891  1.462380
  Thomas-Fermi vector in A             =   2.344871
 
 Write flags
   LWAVE        =      F    write WAVECAR
   LDOWNSAMPLE  =      F    k-point downsampling of WAVECAR
   LCHARG       =      F    write CHGCAR
   LVTOT        =      F    write LOCPOT, total local potential
   LVHAR        =      F    write LOCPOT, Hartree potential only
   LELF         =      F    write electronic localiz. function (ELF)
   LORBIT       =      0    0 simple, 1 ext, 2 COOP (PROOUT), +10 PAW based schemes


 Dipole corrections
   LMONO  =      F    monopole corrections only (constant potential shift)
   LDIPOL =      F    correct potential (dipole corrections)
   IDIPOL =      0    1-x, 2-y, 3-z, 4-all directions 
   EPSILON=  1.0000000 bulk dielectric constant

 Exchange correlation treatment:
   GGA     =    --    GGA type
   LEXCH   =     8    internal setting for exchange type
   VOSKOWN=      0    Vosko Wilk Nusair interpolation
   LHFCALC =     F    Hartree Fock is set to
   LHFONE  =     F    Hartree Fock one center treatment
   AEXX    =    0.0000 exact exchange contribution

 Linear response parameters
   LEPSILON=     F    determine dielectric tensor
   LRPA    =     F    only Hartree local field effects (RPA)
   LNABLA  =     F    use nabla operator in PAW spheres
   LVEL    =     F    velocity operator in full k-point grid
   LINTERFAST=   F  fast interpolation
   KINTER  =     0    interpolate to denser k-point grid
   CSHIFT  =0.1000    complex shift for real part using Kramers Kronig
   OMEGAMAX=  -1.0    maximum frequency
   DEG_THRESHOLD= 0.2000000E-02 threshold for treating states as degnerate
   RTIME   =   -0.100 relaxation time in fs
  (WPLASMAI=    0.000 imaginary part of plasma frequency in eV, 0.658/RTIME)
   DFIELD  = 0.0000000 0.0000000 0.0000000 field for delta impulse in time
 
 Orbital magnetization related:
   ORBITALMAG=     F  switch on orbital magnetization
   LCHIMAG   =     F  perturbation theory with respect to B field
   DQ        =  0.001000  dq finite difference perturbation B field
   LLRAUG    =     F  two centre corrections for induced B field



--------------------------------------------------------------------------------------------------------


 Static calculation
 charge density and potential will be updated during run
 non-spin polarized calculation
 Variant of blocked Davidson
 Davidson routine will perform the subspace rotation
 perform sub-space diagonalisation
    after iterative eigenvector-optimisation
 modified Broyden-mixing scheme, WC =      100.0
 initial mixing is a Kerker type mixing with AMIX =  0.4000 and BMIX =      1.0000
 Hartree-type preconditioning will be used
 using additional bands           80
 real space projection scheme for non local part
 use partial core corrections
 calculate Harris-corrections to forces 
   (improved forces if not selfconsistent)
 use gradient corrections 
 use of overlap-Matrix (Vanderbilt PP)
 Gauss-broadening in eV      SIGMA  =   0.20


--------------------------------------------------------------------------------------------------------


  energy-cutoff  :      450.00
  volume of cell :     1964.98
      direct lattice vectors                 reciprocal lattice vectors
    10.079732985  0.000000000  0.000000000     0.099208977 -0.037612667  0.000000000
     3.573298043  9.425102554  0.000000000     0.000000000  0.106099641  0.000000000
     0.000000000  0.000000000 20.683503555     0.000000000  0.000000000  0.048347708

  length of vectors
    10.079732985 10.079732985 20.683503555     0.106099641  0.106099641  0.048347708


 
 k-points in units of 2pi/SCALE and weight: gamma-point-only calculation. no periodi
   0.00000000  0.00000000  0.00000000       1.000
 
 k-points in reciprocal lattice and weights: gamma-point-only calculation. no periodi
   0.00000000  0.00000000  0.00000000       1.000
 
 position of ions in fractional coordinates (direct lattice) 
   0.40711969  0.78877780  0.13834493
   0.54732740  0.64468328  0.24509923
   0.69759592  0.49441477  0.37203626
   0.83771671  0.34166554  0.47963418
   0.11381506  0.41152895  0.16047455
   0.26408357  0.26126044  0.28741157
   0.41435209  0.11099193  0.41434860
   0.97015059  0.60555611  0.09682165
   0.10066287  0.77838296  0.44290712
   0.52716230  0.23771855  0.12719483
   0.83057123  0.02810612  0.20278689
   0.98083974  0.87783760  0.32972391
   0.35917916  0.54527446  0.10689697
   0.50762556  0.42017912  0.21156171
   0.65789407  0.26991061  0.33849873
   0.79137006  0.12209349  0.45040510
   0.07411322  0.18702480  0.12693702
   0.22438173  0.03675628  0.25387405
   0.37465024  0.88648777  0.38081107
   0.43160329  0.70438726  0.45761633
   0.06868020  0.36901625  0.03956322
   0.08333749  0.51147372  0.40982339
   0.63253462  0.93246405  0.06471426
   0.79086939  0.80360196  0.16924937
   0.94113790  0.65333345  0.29618639
   0.02570440  0.16435018  0.41656148
   0.73212972  0.45988096  0.17802418
   0.88239823  0.30961245  0.30496121
   0.29861738  0.22672664  0.09339950
   0.44888589  0.07645813  0.22033653
   0.59915440  0.92618961  0.34727355
   0.73384084  0.81779021  0.44300679
   0.01537355  0.84330380  0.13571184
   0.16564206  0.69303529  0.26264887
   0.31591057  0.54276678  0.38958589
   0.44549931  0.43062379  0.48076638
   0.00377382  0.99482483  0.47090496
   0.57782872  0.42329486  0.11791416
   0.73606780  0.25573088  0.23540877
   0.88633632  0.10546237  0.36234580
   0.16675578  0.15653609  0.03702813
   0.30255546  0.02257655  0.15078409
   0.45282397  0.87230804  0.27772112
   0.60309249  0.72203953  0.40465814
   0.01931163  0.63915371  0.19309643
   0.16958015  0.48888520  0.32003346
   0.30793323  0.35232969  0.43220652
   0.85541811  0.81718447  0.07520426
   0.49398747  0.83208522  0.05679642
   0.64293832  0.68569146  0.16307741
   0.78662264  0.54160604  0.27811420
   0.93689115  0.39133753  0.40505122
   0.19842843  0.46867716  0.07628958
   0.35311030  0.30845172  0.19348951
   0.50337881  0.15818320  0.32042654
   0.63337653  0.03107732  0.43307494
   0.06986647  0.92502888  0.23580185
   0.22013498  0.77476037  0.36273888
   0.28017521  0.62362772  0.48551907
   0.94625382  0.06223343  0.12640887
   0.22446018  0.76255371  0.09402413
   0.35047896  0.64131972  0.19388260
   0.50074747  0.49105121  0.32081962
   0.65101599  0.34078269  0.44775664
   0.06723513  0.25789688  0.23619494
   0.21750365  0.10762837  0.36313196
   0.40677877  0.93232908  0.47202124
   0.91696662  0.40816539  0.10925791
   0.48973659  0.13723866  0.04512672
   0.63372279  0.02474256  0.15157025
   0.78399130  0.87447404  0.27850728
   0.93425982  0.72420553  0.40544430
 
 position of ions in cartesian coordinates  (Angst):
   6.92219598  7.43431169  2.86145784
   7.82055957  6.07620602  5.06951082
   8.79827187  4.65990987  7.69501320
   9.66483355  3.22023276  9.92051520
   2.61774103  3.87870260  3.31917588
   3.59545332  2.46240645  5.94467827
   4.57316563  1.04611031  8.57018066
  11.94269141  5.70742847  2.00261097
   3.79604912  7.33633920  9.16087107
   6.16309450  2.24052175  2.63083473
   8.47236777  0.26490303  4.19434334
  13.02337811  8.27370944  6.81984575
   5.56885824  5.13926773  2.21100377
   6.61815533  3.96023131  4.37583732
   7.59586763  2.54393517  7.00133973
   8.41307533  1.15074364  9.31595550
   1.41533679  1.76272788  2.62550239
   2.39304909  0.34643175  5.25100480
   6.94405943  8.35523815  7.87650718
   6.86743159  6.63892220  9.46510903
   2.01088317  3.47801604  0.81830605
   2.66766771  4.82069225  8.47658347
   9.70775208  8.78856933  1.33851758
  10.84326157  7.57403088  3.50066986
  11.82097387  6.15773473  6.12617225
   0.84636568  1.54901732  8.61595091
   9.02296381  4.33442525  3.68216384
  10.00067611  2.91812910  6.30766623
   3.82014527  2.13692182  1.93182891
   4.79785756  0.72062568  4.55733130
   9.34886790  8.72943210  7.18283371
  10.31912783  7.70775655  9.16293251
   3.16833706  7.94822481  2.80699637
   4.14604937  6.53192867  5.43249877
   5.12376166  5.11563253  8.05800116
   6.02926118  4.05867337  9.94393310
   3.59284469  9.37632601  9.73996442
   7.33691792  3.98959742  2.43887799
   8.33316957  2.41028974  4.86907821
   9.31088186  0.99399361  7.49458060
   2.24020386  1.47536868  0.76587139
   3.13035102  0.21278632  3.11874328
   7.68136137  8.22159274  5.74424567
   8.65907366  6.80529659  8.36974806
   2.47854282  6.02408930  3.99391074
   3.45625513  4.60779317  6.61941313
   4.36286369  3.32074347  8.93954508
  11.54242977  7.70204744  1.55548767
   7.95255031  7.84248856  1.17474892
   8.93082651  6.46271233  3.37301216
   9.86426598  5.10469248  5.75237598
  10.84197827  3.68839634  8.37787837
   3.67482872  4.41733028  1.57793578
   4.66144743  2.90718906  4.00204105
   5.63915973  1.49089292  6.62754344
   6.49531483  0.29290691  8.95750712
   4.00963923  8.71849205  4.87720851
   4.98735153  7.30219590  7.50271091
   5.05249904  5.87775525 10.04223542
   9.76036438  0.58655643  2.61457837
   4.98733039  7.18714689  1.94474839
   5.82436086  6.04450411  4.01017134
   6.80207315  4.62820798  6.63567375
   7.77978546  3.21191183  9.26117614
   1.59925462  2.43070455  4.88533882
   2.57696691  1.01440841  7.51084121
   7.43171109  8.78729723  9.76305305
  10.70127530  3.84700069  2.25983643
   5.42680865  1.29348840  0.93337859
   6.47616906  0.23320113  3.13500389
  11.02717939  8.24200754  5.76050627
  12.00489170  6.82571140  8.38600868
 


--------------------------------------------------------------------------------------------------------


 use parallel FFT for orbitals z direction half grid
 k-point  1 :   0.0000 0.0000 0.0000  plane waves:   21301

 maximum and minimum number of plane-waves per node :      3554     3548

 maximum number of plane-waves:     21301
 maximum index in each direction: 
   IXMAX=   17   IYMAX=   17   IZMAX=   35
   IXMIN=  -17   IYMIN=  -17   IZMIN=    0


 real space projection operators:
  total allocation   :      11163.67 KBytes
  max/ min on nodes  :       1866.97       1846.86


 parallel 3D FFT for wavefunctions:
    minimum data exchange during FFTs selected (reduces bandwidth)
 parallel 3D FFT for charge:
    minimum data exchange during FFTs selected (reduces bandwidth)


 total amount of memory used by VASP MPI-rank0    68405. kBytes
=======================================================================

   base      :      30000. kBytes
   nonlr-proj:       2290. kBytes
   fftplans  :       8265. kBytes
   grid      :      13942. kBytes
   one-center:         93. kBytes
   wavefun   :      13815. kBytes
 
     INWAV:  cpu time    0.0000: real time    0.0000
 Broyden mixing: mesh for mixing (old mesh)
   NGX = 35   NGY = 35   NGZ = 71
  (NGX  =108   NGY  =108   NGZ  =216)
  gives a total of  86975 points

 initial charge density was supplied:
 charge density of overlapping atoms calculated
 number of electron     792.0000000 magnetization 
 keeping initial charge density in first step


--------------------------------------------------------------------------------------------------------


 Maximum index for non-local projection operator          302
 Maximum index for augmentation-charges          472 (set IRDMAX)


--------------------------------------------------------------------------------------------------------


 First call to EWALD:  gamma=   0.142
 Maximum number of real-space cells 3x 3x 2
 Maximum number of reciprocal cells 2x 2x 4

    FEWALD:  cpu time    0.0065: real time    0.0065


--------------------------------------- Iteration      1(   1)  ---------------------------------------


    POTLOK:  cpu time    0.2558: real time    0.2566
    SETDIJ:  cpu time    0.0178: real time    0.0178
     EDDAV:  cpu time    6.8311: real time    6.8334
       DOS:  cpu time    0.0015: real time    0.0015
    --------------------------------------------
      LOOP:  cpu time    7.1061: real time    7.1092

 eigenvalue-minimisations  :  1160
 total energy-change (2. order) : 0.9905176E+04  (-0.5129944E+05)
 number of electron     792.0000000 magnetization 
 augmentation part      792.0000000 magnetization 

 Free energy of the ion-electron system (eV)
  ---------------------------------------------------
  alpha Z        PSCENC =      1893.09323658
  Ewald energy   TEWEN  =    218049.99179406
  -Hartree energ DENC   =   -340270.29616470
  -exchange      EXHF   =         0.00000000
  -V(xc)+E(xc)   XCENC  =      3679.12295160
  PAW double counting   =    112729.53333415  -117641.51188735
  entropy T*S    EENTRO =        -0.35735189
  eigenvalues    EBANDS =     -4537.00473431
  atomic energy  EATOM  =    136002.60505376
  Solvation  Ediel_sol  =         0.00000000
  ---------------------------------------------------
  free energy    TOTEN  =      9905.17623192 eV

  energy without entropy =     9905.53358380  energy(sigma->0) =     9905.35490786


--------------------------------------------------------------------------------------------------------




--------------------------------------- Iteration      1(   2)  ---------------------------------------


     EDDAV:  cpu time    6.2037: real time    6.2047
       DOS:  cpu time    0.0011: real time    0.0011
    --------------------------------------------
      LOOP:  cpu time    6.2048: real time    6.2058

 eigenvalue-minimisations  :  1004
 total energy-change (2. order) :-0.9291205E+04  (-0.8978868E+04)
 number of electron     792.0000000 magnetization 
 augmentation part      792.0000000 magnetization 

 Free energy of the ion-electron system (eV)
  ---------------------------------------------------
  alpha Z        PSCENC =      1893.09323658
  Ewald energy   TEWEN  =    218049.99179406
  -Hartree energ DENC   =   -340270.29616470
  -exchange      EXHF   =         0.00000000
  -V(xc)+E(xc)   XCENC  =      3679.12295160
  PAW double counting   =    112729.53333415  -117641.51188735
  entropy T*S    EENTRO =        -0.67455342
  eigenvalues    EBANDS =    -13827.89286509
  atomic energy  EATOM  =    136002.60505376
  Solvation  Ediel_sol  =         0.00000000
  ---------------------------------------------------
  free energy    TOTEN  =       613.97089959 eV

  energy without entropy =      614.64545302  energy(sigma->0) =      614.30817631


--------------------------------------------------------------------------------------------------------




--------------------------------------- Iteration      1(   3)  ---------------------------------------


     EDDAV:  cpu time    6.6453: real time    6.6466
       DOS:  cpu time    0.0012: real time    0.0012
    --------------------------------------------
      LOOP:  cpu time    6.6465: real time    6.6478

 eigenvalue-minimisations  :  1096
 total energy-change (2. order) :-0.9553435E+03  (-0.9092075E+03)
 number of electron     792.0000000 magnetization 
 augmentation part      792.0000000 magnetization 

 Free energy of the ion-electron system (eV)
  ---------------------------------------------------
  alpha Z        PSCENC =      1893.09323658
  Ewald energy   TEWEN  =    218049.99179406
  -Hartree energ DENC   =   -340270.29616470
  -exchange      EXHF   =         0.00000000
  -V(xc)+E(xc)   XCENC  =      3679.12295160
  PAW double counting   =    112729.53333415  -117641.51188735
  entropy T*S    EENTRO =        -1.10175168
  eigenvalues    EBANDS =    -14782.80916038
  atomic energy  EATOM  =    136002.60505376
  Solvation  Ediel_sol  =         0.00000000
  ---------------------------------------------------
  free energy    TOTEN  =      -341.37259395 eV

  energy without entropy =     -340.27084227  energy(sigma->0) =     -340.82171811


--------------------------------------------------------------------------------------------------------




--------------------------------------- Iteration      1(   4)  ---------------------------------------


     EDDAV:  cpu time    6.5901: real time    6.5914
       DOS:  cpu time    0.0011: real time    0.0011
    --------------------------------------------
      LOOP:  cpu time    6.5913: real time    6.5925

 eigenvalue-minimisations  :  1096
 total energy-change (2. order) :-0.5811078E+02  (-0.5740969E+02)
 number of electron     792.0000000 magnetization 
 augmentation part      792.0000000 magnetization 

 Free energy of the ion-electron system (eV)
  ---------------------------------------------------
  alpha Z        PSCENC =      1893.09323658
  Ewald energy   TEWEN  =    218049.99179406
  -Hartree energ DENC   =   -340270.29616470
  -exchange      EXHF   =         0.00000000
  -V(xc)+E(xc)   XCENC  =      3679.12295160
  PAW double counting   =    112729.53333415  -117641.51188735
  entropy T*S    EENTRO =        -1.12092914
  eigenvalues    EBANDS =    -14840.90076515
  atomic energy  EATOM  =    136002.60505376
  Solvation  Ediel_sol  =         0.00000000
  ---------------------------------------------------
  free energy    TOTEN  =      -399.48337618 eV

  energy without entropy =     -398.36244704  energy(sigma->0) =     -398.92291161


--------------------------------------------------------------------------------------------------------




--------------------------------------- Iteration      1(   5)  ---------------------------------------


     EDDAV:  cpu time    7.2021: real time    7.2039
       DOS:  cpu time    0.0012: real time    0.0012
    CHARGE:  cpu time    0.2146: real time    0.2146
    MIXING:  cpu time    0.0085: real time    0.0086
    --------------------------------------------
      LOOP:  cpu time    7.4265: real time    7.4283

 eigenvalue-minimisations  :  1240
 total energy-change (2. order) :-0.2368761E+01  (-0.2364420E+01)
 number of electron     791.9999791 magnetization 
 augmentation part      286.5435690 magnetization 

 Broyden mixing:
  rms(total) = 0.94797E+01    rms(broyden)= 0.94706E+01
  rms(prec ) = 0.98304E+01
  weight for this iteration     100.00

 Free energy of the ion-electron system (eV)
  ---------------------------------------------------
  alpha Z        PSCENC =      1893.09323658
  Ewald energy   TEWEN  =    218049.99179406
  -Hartree energ DENC   =   -340270.29616470
  -exchange      EXHF   =         0.00000000
  -V(xc)+E(xc)   XCENC  =      3679.12295160
  PAW double counting   =    112729.53333415  -117641.51188735
  entropy T*S    EENTRO =        -1.12383228
  eigenvalues    EBANDS =    -14843.26662323
  atomic energy  EATOM  =    136002.60505376
  Solvation  Ediel_sol  =         0.00000000
  ---------------------------------------------------
  free energy    TOTEN  =      -401.85213740 eV

  energy without entropy =     -400.72830512  energy(sigma->0) =     -401.29022126


--------------------------------------------------------------------------------------------------------




--------------------------------------- Iteration      1(   6)  ---------------------------------------


    POTLOK:  cpu time    0.2465: real time    0.2465
    SETDIJ:  cpu time    0.0173: real time    0.0173
     EDDAV:  cpu time    7.1408: real time    7.1422
       DOS:  cpu time    0.0013: real time    0.0013
    CHARGE:  cpu time    0.2167: real time    0.2168
    MIXING:  cpu time    0.0088: real time    0.0088
    --------------------------------------------
      LOOP:  cpu time    7.6315: real time    7.6330

 eigenvalue-minimisations  :  1176
 total energy-change (2. order) :-0.6887604E+02  (-0.9400772E+02)
 number of electron     791.9999751 magnetization 
 augmentation part      344.9740826 magnetization 

 Broyden mixing:
  rms(total) = 0.15682E+02    rms(broyden)= 0.15679E+02
  rms(prec ) = 0.16309E+02
  weight for this iteration     100.00

 eigenvalues of (default mixing * dielectric matrix)
  average eigenvalue GAMMA=   0.2432
  0.2432

 Free energy of the ion-electron system (eV)
  ---------------------------------------------------
  alpha Z        PSCENC =      1893.09323658
  Ewald energy   TEWEN  =    218049.99179406
  -Hartree energ DENC   =   -337563.02099650
  -exchange      EXHF   =         0.00000000
  -V(xc)+E(xc)   XCENC  =      3604.64063084
  PAW double counting   =    117231.32021715  -121910.81745103
  entropy T*S    EENTRO =        -0.89645870
  eigenvalues    EBANDS =    -17777.64420151
  atomic energy  EATOM  =    136002.60505376
  Solvation  Ediel_sol  =         0.00000000
  ---------------------------------------------------
  free energy    TOTEN  =      -470.72817536 eV

  energy without entropy =     -469.83171666  energy(sigma->0) =     -470.27994601


--------------------------------------------------------------------------------------------------------




--------------------------------------- Iteration      1(   7)  ---------------------------------------


    POTLOK:  cpu time    0.2461: real time    0.2462
    SETDIJ:  cpu time    0.0188: real time    0.0188
     EDDAV:  cpu time    6.4798: real time    6.4808
       DOS:  cpu time    0.0012: real time    0.0012
    CHARGE:  cpu time    0.2093: real time    0.2093
    MIXING:  cpu time    0.0086: real time    0.0086
    --------------------------------------------
      LOOP:  cpu time    6.9637: real time    6.9649

 eigenvalue-minimisations  :  1080
 total energy-change (2. order) : 0.9631901E+02  (-0.2035815E+02)
 number of electron     791.9999763 magnetization 
 augmentation part      331.5144238 magnetization 

 Broyden mixing:
  rms(total) = 0.71091E+01    rms(broyden)= 0.71077E+01
  rms(prec ) = 0.73658E+01
  weight for this iteration     100.00

 eigenvalues of (default mixing * dielectric matrix)
  average eigenvalue GAMMA=   0.4647
  0.4647  0.4647

 Free energy of the ion-electron system (eV)
  ---------------------------------------------------
  alpha Z        PSCENC =      1893.09323658
  Ewald energy   TEWEN  =    218049.99179406
  -Hartree energ DENC   =   -338693.87014265
  -exchange      EXHF   =         0.00000000
  -V(xc)+E(xc)   XCENC  =      3629.76075241
  PAW double counting   =    121558.44909399  -126373.29036502
  entropy T*S    EENTRO =        -0.79981621
  eigenvalues    EBANDS =    -16440.34877004
  atomic energy  EATOM  =    136002.60505376
  Solvation  Ediel_sol  =         0.00000000
  ---------------------------------------------------
  free energy    TOTEN  =      -374.40916313 eV

  energy without entropy =     -373.60934692  energy(sigma->0) =     -374.00925503


--------------------------------------------------------------------------------------------------------




--------------------------------------- Iteration      1(   8)  ---------------------------------------


    POTLOK:  cpu time    0.2492: real time    0.2492
    SETDIJ:  cpu time    0.0173: real time    0.0173
     EDDAV:  cpu time    7.3627: real time    7.3640
       DOS:  cpu time    0.0012: real time    0.0011
    CHARGE:  cpu time    0.2060: real time    0.2060
    MIXING:  cpu time    0.0090: real time    0.0090
    --------------------------------------------
      LOOP:  cpu time    7.8454: real time    7.8467

 eigenvalue-minimisations  :  1272
 total energy-change (2. order) :-0.5163151E+02  (-0.2159887E+02)
 number of electron     791.9999758 magnetization 
 augmentation part      306.3353189 magnetization 

 Broyden mixing:
  rms(total) = 0.13949E+02    rms(broyden)= 0.13948E+02
  rms(prec ) = 0.15808E+02
  weight for this iteration     100.00

 eigenvalues of (default mixing * dielectric matrix)
  average eigenvalue GAMMA=   0.4648
  0.7391  0.4851  0.1703

 Free energy of the ion-electron system (eV)
  ---------------------------------------------------
  alpha Z        PSCENC =      1893.09323658
  Ewald energy   TEWEN  =    218049.99179406
  -Hartree energ DENC   =   -339400.29658725
  -exchange      EXHF   =         0.00000000
  -V(xc)+E(xc)   XCENC  =      3655.03237392
  PAW double counting   =    127817.15178194  -132766.15190907
  entropy T*S    EENTRO =        -0.92721345
  eigenvalues    EBANDS =    -15676.53919904
  atomic energy  EATOM  =    136002.60505376
  Solvation  Ediel_sol  =         0.00000000
  ---------------------------------------------------
  free energy    TOTEN  =      -426.04066854 eV

  energy without entropy =     -425.11345509  energy(sigma->0) =     -425.57706182


--------------------------------------------------------------------------------------------------------




--------------------------------------- Iteration      1(   9)  ---------------------------------------


    POTLOK:  cpu time    0.3193: real time    0.3193
    SETDIJ:  cpu time    0.0370: real time    0.0370
     EDDAV:  cpu time    7.3415: real time    7.3431
       DOS:  cpu time    0.0011: real time    0.0011
    CHARGE:  cpu time    0.2121: real time    0.2121
    MIXING:  cpu time    0.0092: real time    0.0092
    --------------------------------------------
      LOOP:  cpu time    7.9202: real time    7.9218

 eigenvalue-minimisations  :  1264
 total energy-change (2. order) : 0.4546206E+02  (-0.1548721E+02)
 number of electron     791.9999780 magnetization 
 augmentation part      306.8368387 magnetization 

 Broyden mixing:
  rms(total) = 0.59841E+01    rms(broyden)= 0.59783E+01
  rms(prec ) = 0.64709E+01
  weight for this iteration     100.00

 eigenvalues of (default mixing * dielectric matrix)
  average eigenvalue GAMMA=   0.5875
  1.4236  0.3947  0.3947  0.1370

 Free energy of the ion-electron system (eV)
  ---------------------------------------------------
  alpha Z        PSCENC =      1893.09323658
  Ewald energy   TEWEN  =    218049.99179406
  -Hartree energ DENC   =   -339577.71593889
  -exchange      EXHF   =         0.00000000
  -V(xc)+E(xc)   XCENC  =      3653.93500034
  PAW double counting   =    131256.59338941  -136226.38656371
  entropy T*S    EENTRO =        -0.87385254
  eigenvalues    EBANDS =    -15431.82073220
  atomic energy  EATOM  =    136002.60505376
  Solvation  Ediel_sol  =         0.00000000
  ---------------------------------------------------
  free energy    TOTEN  =      -380.57861319 eV

  energy without entropy =     -379.70476065  energy(sigma->0) =     -380.14168692


--------------------------------------------------------------------------------------------------------




--------------------------------------- Iteration      1(  10)  ---------------------------------------


    POTLOK:  cpu time    0.2396: real time    0.2396
    SETDIJ:  cpu time    0.0172: real time    0.0172
     EDDAV:  cpu time    7.7107: real time    7.7120
       DOS:  cpu time    0.0012: real time    0.0012
    CHARGE:  cpu time    0.2097: real time    0.2098
    MIXING:  cpu time    0.0100: real time    0.0100
    --------------------------------------------
      LOOP:  cpu time    8.1884: real time    8.1898

 eigenvalue-minimisations  :  1352
 total energy-change (2. order) :-0.1224880E+02  (-0.8319461E+01)
 number of electron     791.9999766 magnetization 
 augmentation part      304.2309685 magnetization 

 Broyden mixing:
  rms(total) = 0.84424E+01    rms(broyden)= 0.84395E+01
  rms(prec ) = 0.98975E+01
  weight for this iteration     100.00

 eigenvalues of (default mixing * dielectric matrix)
  average eigenvalue GAMMA=   0.5962
  1.8531  0.4001  0.4001  0.1638  0.1638

 Free energy of the ion-electron system (eV)
  ---------------------------------------------------
  alpha Z        PSCENC =      1893.09323658
  Ewald energy   TEWEN  =    218049.99179406
  -Hartree energ DENC   =   -339614.59936568
  -exchange      EXHF   =         0.00000000
  -V(xc)+E(xc)   XCENC  =      3651.82739743
  PAW double counting   =    136302.37140742  -141303.91736650
  entropy T*S    EENTRO =        -1.07003562
  eigenvalues    EBANDS =    -15373.12953842
  atomic energy  EATOM  =    136002.60505376
  Solvation  Ediel_sol  =         0.00000000
  ---------------------------------------------------
  free energy    TOTEN  =      -392.82741698 eV

  energy without entropy =     -391.75738136  energy(sigma->0) =     -392.29239917


--------------------------------------------------------------------------------------------------------




--------------------------------------- Iteration      1(  11)  ---------------------------------------


    POTLOK:  cpu time    0.2432: real time    0.2435
    SETDIJ:  cpu time    0.0171: real time    0.0171
     EDDAV:  cpu time    7.6317: real time    7.6329
       DOS:  cpu time    0.0012: real time    0.0012
    CHARGE:  cpu time    0.2117: real time    0.2118
    MIXING:  cpu time    0.0109: real time    0.0108
    --------------------------------------------
      LOOP:  cpu time    8.1157: real time    8.1173

 eigenvalue-minimisations  :  1296
 total energy-change (2. order) : 0.1267316E+01  (-0.7885646E+01)
 number of electron     791.9999756 magnetization 
 augmentation part      308.1359864 magnetization 

 Broyden mixing:
  rms(total) = 0.65548E+01    rms(broyden)= 0.65496E+01
  rms(prec ) = 0.79048E+01
  weight for this iteration     100.00

 eigenvalues of (default mixing * dielectric matrix)
  average eigenvalue GAMMA=   0.6306
  2.3191  0.4373  0.4373  0.3302  0.1480  0.1116

 Free energy of the ion-electron system (eV)
  ---------------------------------------------------
  alpha Z        PSCENC =      1893.09323658
  Ewald energy   TEWEN  =    218049.99179406
  -Hartree energ DENC   =   -339503.33557933
  -exchange      EXHF   =         0.00000000
  -V(xc)+E(xc)   XCENC  =      3649.05342255
  PAW double counting   =    139208.88729841  -144222.91139692
  entropy T*S    EENTRO =        -0.88025625
  eigenvalues    EBANDS =    -15468.06367408
  atomic energy  EATOM  =    136002.60505376
  Solvation  Ediel_sol  =         0.00000000
  ---------------------------------------------------
  free energy    TOTEN  =      -391.56010122 eV

  energy without entropy =     -390.67984497  energy(sigma->0) =     -391.11997309


--------------------------------------------------------------------------------------------------------




--------------------------------------- Iteration      1(  12)  ---------------------------------------


    POTLOK:  cpu time    0.2439: real time    0.2441
    SETDIJ:  cpu time    0.0175: real time    0.0174
     EDDAV:  cpu time    7.2923: real time    7.2981
       DOS:  cpu time    0.0014: real time    0.0014
    CHARGE:  cpu time    0.2140: real time    0.2141
    MIXING:  cpu time    0.0109: real time    0.0109
    --------------------------------------------
      LOOP:  cpu time    7.7800: real time    7.7861

 eigenvalue-minimisations  :  1264
 total energy-change (2. order) : 0.6788560E+01  (-0.4537911E+01)
 number of electron     791.9999835 magnetization 
 augmentation part      311.0317756 magnetization 

 Broyden mixing:
  rms(total) = 0.77326E+01    rms(broyden)= 0.77305E+01
  rms(prec ) = 0.87469E+01
  weight for this iteration     100.00

 eigenvalues of (default mixing * dielectric matrix)
  average eigenvalue GAMMA=   0.5961
  2.4937  0.4497  0.4497  0.3920  0.1562  0.1155  0.1155

 Free energy of the ion-electron system (eV)
  ---------------------------------------------------
  alpha Z        PSCENC =      1893.09323658
  Ewald energy   TEWEN  =    218049.99179406
  -Hartree energ DENC   =   -339369.73394313
  -exchange      EXHF   =         0.00000000
  -V(xc)+E(xc)   XCENC  =      3646.42381291
  PAW double counting   =    142107.64655932  -147136.06297145
  entropy T*S    EENTRO =        -0.87738950
  eigenvalues    EBANDS =    -15577.85769385
  atomic energy  EATOM  =    136002.60505376
  Solvation  Ediel_sol  =         0.00000000
  ---------------------------------------------------
  free energy    TOTEN  =      -384.77154130 eV

  energy without entropy =     -383.89415180  energy(sigma->0) =     -384.33284655


--------------------------------------------------------------------------------------------------------




--------------------------------------- Iteration      1(  13)  ---------------------------------------


    POTLOK:  cpu time    0.2400: real time    0.2400
    SETDIJ:  cpu time    0.0171: real time    0.0171
     EDDAV:  cpu time    7.5369: real time    7.5385
       DOS:  cpu time    0.0012: real time    0.0012
    CHARGE:  cpu time    0.2160: real time    0.2160
    MIXING:  cpu time    0.0117: real time    0.0117
    --------------------------------------------
      LOOP:  cpu time    8.0229: real time    8.0244

 eigenvalue-minimisations  :  1264
 total energy-change (2. order) : 0.1371785E+02  (-0.2367397E+01)
 number of electron     791.9999792 magnetization 
 augmentation part      314.7217705 magnetization 

 Broyden mixing:
  rms(total) = 0.39271E+01    rms(broyden)= 0.39260E+01
  rms(prec ) = 0.46165E+01
  weight for this iteration     100.00

 eigenvalues of (default mixing * dielectric matrix)
  average eigenvalue GAMMA=   0.5477
  2.3948  0.4417  0.4417  0.3656  0.3656  0.1384  0.1384  0.0956

 Free energy of the ion-electron system (eV)
  ---------------------------------------------------
  alpha Z        PSCENC =      1893.09323658
  Ewald energy   TEWEN  =    218049.99179406
  -Hartree energ DENC   =   -339344.00864261
  -exchange      EXHF   =         0.00000000
  -V(xc)+E(xc)   XCENC  =      3644.73705416
  PAW double counting   =    143063.15656396  -148093.58435462
  entropy T*S    EENTRO =        -0.80990783
  eigenvalues    EBANDS =    -15586.23449261
  atomic energy  EATOM  =    136002.60505376
  Solvation  Ediel_sol  =         0.00000000
  ---------------------------------------------------
  free energy    TOTEN  =      -371.05369515 eV

  energy without entropy =     -370.24378733  energy(sigma->0) =     -370.64874124


--------------------------------------------------------------------------------------------------------




--------------------------------------- Iteration      1(  14)  ---------------------------------------


    POTLOK:  cpu time    0.2454: real time    0.2454
    SETDIJ:  cpu time    0.0172: real time    0.0172
     EDDAV:  cpu time    7.4510: real time    7.4527
       DOS:  cpu time    0.0012: real time    0.0012
    CHARGE:  cpu time    0.2161: real time    0.2162
    MIXING:  cpu time    0.0119: real time    0.0119
    --------------------------------------------
      LOOP:  cpu time    7.9427: real time    7.9445

 eigenvalue-minimisations  :  1304
 total energy-change (2. order) : 0.6318229E+01  (-0.1488856E+01)
 number of electron     791.9999761 magnetization 
 augmentation part      314.2129083 magnetization 

 Broyden mixing:
  rms(total) = 0.34322E+01    rms(broyden)= 0.34309E+01
  rms(prec ) = 0.40190E+01
  weight for this iteration     100.00

 eigenvalues of (default mixing * dielectric matrix)
  average eigenvalue GAMMA=   0.5221
  2.1706  0.5120  0.5120  0.4769  0.4769  0.1591  0.1591  0.1161  0.1161

 Free energy of the ion-electron system (eV)
  ---------------------------------------------------
  alpha Z        PSCENC =      1893.09323658
  Ewald energy   TEWEN  =    218049.99179406
  -Hartree energ DENC   =   -339386.49612605
  -exchange      EXHF   =         0.00000000
  -V(xc)+E(xc)   XCENC  =      3645.88047082
  PAW double counting   =    142493.24035013  -147522.84431595
  entropy T*S    EENTRO =        -0.79455026
  eigenvalues    EBANDS =    -15539.41137928
  atomic energy  EATOM  =    136002.60505376
  Solvation  Ediel_sol  =         0.00000000
  ---------------------------------------------------
  free energy    TOTEN  =      -364.73546618 eV

  energy without entropy =     -363.94091592  energy(sigma->0) =     -364.33819105


--------------------------------------------------------------------------------------------------------




--------------------------------------- Iteration      1(  15)  ---------------------------------------


    POTLOK:  cpu time    0.2461: real time    0.2461
    SETDIJ:  cpu time    0.0172: real time    0.0172
     EDDAV:  cpu time    7.7828: real time    7.7842
       DOS:  cpu time    0.0013: real time    0.0013
    CHARGE:  cpu time    0.2148: real time    0.2148
    MIXING:  cpu time    0.0125: real time    0.0126
    --------------------------------------------
      LOOP:  cpu time    8.2747: real time    8.2761

 eigenvalue-minimisations  :  1320
 total energy-change (2. order) : 0.5179976E+01  (-0.9526087E+00)
 number of electron     791.9999762 magnetization 
 augmentation part      313.2321868 magnetization 

 Broyden mixing:
  rms(total) = 0.26187E+01    rms(broyden)= 0.26178E+01
  rms(prec ) = 0.31227E+01
  weight for this iteration     100.00

 eigenvalues of (default mixing * dielectric matrix)
  average eigenvalue GAMMA=   0.4893
  2.1648  0.5426  0.5426  0.4113  0.4113  0.2923  0.1626  0.1311  0.1311  0.1030

 Free energy of the ion-electron system (eV)
  ---------------------------------------------------
  alpha Z        PSCENC =      1893.09323658
  Ewald energy   TEWEN  =    218049.99179406
  -Hartree energ DENC   =   -339429.83186737
  -exchange      EXHF   =         0.00000000
  -V(xc)+E(xc)   XCENC  =      3647.57505059
  PAW double counting   =    141435.14887014  -146460.35911036
  entropy T*S    EENTRO =        -0.84618589
  eigenvalues    EBANDS =    -15496.93233177
  atomic energy  EATOM  =    136002.60505376
  Solvation  Ediel_sol  =         0.00000000
  ---------------------------------------------------
  free energy    TOTEN  =      -359.55549026 eV

  energy without entropy =     -358.70930437  energy(sigma->0) =     -359.13239731


--------------------------------------------------------------------------------------------------------




--------------------------------------- Iteration      1(  16)  ---------------------------------------


    POTLOK:  cpu time    0.2458: real time    0.2458
    SETDIJ:  cpu time    0.0172: real time    0.0172
     EDDAV:  cpu time    7.5891: real time    7.5904
       DOS:  cpu time    0.0013: real time    0.0013
    CHARGE:  cpu time    0.2137: real time    0.2137
    MIXING:  cpu time    0.0121: real time    0.0121
    --------------------------------------------
      LOOP:  cpu time    8.0791: real time    8.0805

 eigenvalue-minimisations  :  1320
 total energy-change (2. order) : 0.1686278E+01  (-0.3767676E+00)
 number of electron     791.9999782 magnetization 
 augmentation part      312.9557658 magnetization 

 Broyden mixing:
  rms(total) = 0.21759E+01    rms(broyden)= 0.21754E+01
  rms(prec ) = 0.25363E+01
  weight for this iteration     100.00

 eigenvalues of (default mixing * dielectric matrix)
  average eigenvalue GAMMA=   0.5166
  2.1493  0.7746  0.7746  0.4479  0.4479  0.3869  0.1797  0.1433  0.1433  0.1295
  0.1062

 Free energy of the ion-electron system (eV)
  ---------------------------------------------------
  alpha Z        PSCENC =      1893.09323658
  Ewald energy   TEWEN  =    218049.99179406
  -Hartree energ DENC   =   -339436.49843192
  -exchange      EXHF   =         0.00000000
  -V(xc)+E(xc)   XCENC  =      3647.73084945
  PAW double counting   =    141296.01232391  -146319.70447056
  entropy T*S    EENTRO =        -0.86481887
  eigenvalues    EBANDS =    -15490.23474863
  atomic energy  EATOM  =    136002.60505376
  Solvation  Ediel_sol  =         0.00000000
  ---------------------------------------------------
  free energy    TOTEN  =      -357.86921222 eV

  energy without entropy =     -357.00439335  energy(sigma->0) =     -357.43680279


--------------------------------------------------------------------------------------------------------




--------------------------------------- Iteration      1(  17)  ---------------------------------------


    POTLOK:  cpu time    0.2449: real time    0.2449
    SETDIJ:  cpu time    0.0173: real time    0.0173
     EDDAV:  cpu time    7.7565: real time    7.7579
       DOS:  cpu time    0.0012: real time    0.0012
    CHARGE:  cpu time    0.2117: real time    0.2117
    MIXING:  cpu time    0.0123: real time    0.0123
    --------------------------------------------
      LOOP:  cpu time    8.2439: real time    8.2453

 eigenvalue-minimisations  :  1320
 total energy-change (2. order) : 0.1351588E+01  (-0.1062898E+00)
 number of electron     791.9999778 magnetization 
 augmentation part      312.6893374 magnetization 

 Broyden mixing:
  rms(total) = 0.19590E+01    rms(broyden)= 0.19589E+01
  rms(prec ) = 0.22655E+01
  weight for this iteration     100.00

 eigenvalues of (default mixing * dielectric matrix)
  average eigenvalue GAMMA=   0.4968
  2.1404  0.8433  0.8433  0.4477  0.4477  0.3824  0.1618  0.1618  0.1732  0.1046
  0.1279  0.1279

 Free energy of the ion-electron system (eV)
  ---------------------------------------------------
  alpha Z        PSCENC =      1893.09323658
  Ewald energy   TEWEN  =    218049.99179406
  -Hartree energ DENC   =   -339447.01753819
  -exchange      EXHF   =         0.00000000
  -V(xc)+E(xc)   XCENC  =      3648.02314981
  PAW double counting   =    140918.37635419  -145937.75879706
  entropy T*S    EENTRO =        -0.87987865
  eigenvalues    EBANDS =    -15482.95099851
  atomic energy  EATOM  =    136002.60505376
  Solvation  Ediel_sol  =         0.00000000
  ---------------------------------------------------
  free energy    TOTEN  =      -356.51762400 eV

  energy without entropy =     -355.63774535  energy(sigma->0) =     -356.07768467


--------------------------------------------------------------------------------------------------------




--------------------------------------- Iteration      1(  18)  ---------------------------------------


    POTLOK:  cpu time    0.2440: real time    0.2440
    SETDIJ:  cpu time    0.0172: real time    0.0172
     EDDAV:  cpu time    7.4663: real time    7.4674
       DOS:  cpu time    0.0012: real time    0.0012
    CHARGE:  cpu time    0.2118: real time    0.2118
    MIXING:  cpu time    0.0129: real time    0.0129
    --------------------------------------------
      LOOP:  cpu time    7.9534: real time    7.9545

 eigenvalue-minimisations  :  1312
 total energy-change (2. order) : 0.6169295E+00  (-0.4644489E-01)
 number of electron     791.9999778 magnetization 
 augmentation part      312.5500066 magnetization 

 Broyden mixing:
  rms(total) = 0.17825E+01    rms(broyden)= 0.17825E+01
  rms(prec ) = 0.20629E+01
  weight for this iteration     100.00

 eigenvalues of (default mixing * dielectric matrix)
  average eigenvalue GAMMA=   0.5328
  2.1225  1.0815  1.0815  0.4694  0.4694  0.4057  0.4057  0.2097  0.1056  0.1653
  0.1385  0.1385  0.1333

 Free energy of the ion-electron system (eV)
  ---------------------------------------------------
  alpha Z        PSCENC =      1893.09323658
  Ewald energy   TEWEN  =    218049.99179406
  -Hartree energ DENC   =   -339451.59662720
  -exchange      EXHF   =         0.00000000
  -V(xc)+E(xc)   XCENC  =      3648.16271771
  PAW double counting   =    140742.51303840  -145760.00191538
  entropy T*S    EENTRO =        -0.89131741
  eigenvalues    EBANDS =    -15479.77667499
  atomic energy  EATOM  =    136002.60505376
  Solvation  Ediel_sol  =         0.00000000
  ---------------------------------------------------
  free energy    TOTEN  =      -355.90069447 eV

  energy without entropy =     -355.00937706  energy(sigma->0) =     -355.45503577


--------------------------------------------------------------------------------------------------------




--------------------------------------- Iteration      1(  19)  ---------------------------------------


    POTLOK:  cpu time    0.2522: real time    0.2524
    SETDIJ:  cpu time    0.0171: real time    0.0171
     EDDAV:  cpu time    8.1348: real time    8.1360
       DOS:  cpu time    0.0011: real time    0.0011
    CHARGE:  cpu time    0.2284: real time    0.2284
    MIXING:  cpu time    0.0132: real time    0.0132
    --------------------------------------------
      LOOP:  cpu time    8.6468: real time    8.6482

 eigenvalue-minimisations  :  1408
 total energy-change (2. order) : 0.9790245E+00  (-0.2730014E-01)
 number of electron     791.9999777 magnetization 
 augmentation part      312.4374664 magnetization 

 Broyden mixing:
  rms(total) = 0.15776E+01    rms(broyden)= 0.15776E+01
  rms(prec ) = 0.18293E+01
  weight for this iteration     100.00

 eigenvalues of (default mixing * dielectric matrix)
  average eigenvalue GAMMA=   0.5307
  2.1109  1.2156  1.2156  0.4820  0.4820  0.4031  0.4031  0.2730  0.1751  0.1053
  0.1509  0.1509  0.1315  0.1315

 Free energy of the ion-electron system (eV)
  ---------------------------------------------------
  alpha Z        PSCENC =      1893.09323658
  Ewald energy   TEWEN  =    218049.99179406
  -Hartree energ DENC   =   -339461.89084391
  -exchange      EXHF   =         0.00000000
  -V(xc)+E(xc)   XCENC  =      3648.41471965
  PAW double counting   =    140277.64149031  -145289.89103339
  entropy T*S    EENTRO =        -0.91007485
  eigenvalues    EBANDS =    -15473.97601219
  atomic energy  EATOM  =    136002.60505376
  Solvation  Ediel_sol  =         0.00000000
  ---------------------------------------------------
  free energy    TOTEN  =      -354.92166998 eV

  energy without entropy =     -354.01159513  energy(sigma->0) =     -354.46663256


--------------------------------------------------------------------------------------------------------




--------------------------------------- Iteration      1(  20)  ---------------------------------------


    POTLOK:  cpu time    0.2464: real time    0.2464
    SETDIJ:  cpu time    0.0175: real time    0.0175
     EDDAV:  cpu time    7.4744: real time    7.4758
       DOS:  cpu time    0.0012: real time    0.0012
    CHARGE:  cpu time    0.2131: real time    0.2131
    MIXING:  cpu time    0.0139: real time    0.0139
    --------------------------------------------
      LOOP:  cpu time    7.9664: real time    7.9678

 eigenvalue-minimisations  :  1312
 total energy-change (2. order) : 0.6149974E+00  (-0.2602058E-01)
 number of electron     791.9999777 magnetization 
 augmentation part      312.3084873 magnetization 

 Broyden mixing:
  rms(total) = 0.13939E+01    rms(broyden)= 0.13938E+01
  rms(prec ) = 0.16107E+01
  weight for this iteration     100.00

 eigenvalues of (default mixing * dielectric matrix)
  average eigenvalue GAMMA=   0.5636
  2.0884  1.4667  1.4667  0.5598  0.5598  0.4475  0.4475  0.3888  0.1770  0.1770
  0.1055  0.1617  0.1365  0.1365  0.1354

 Free energy of the ion-electron system (eV)
  ---------------------------------------------------
  alpha Z        PSCENC =      1893.09323658
  Ewald energy   TEWEN  =    218049.99179406
  -Hartree energ DENC   =   -339468.75946438
  -exchange      EXHF   =         0.00000000
  -V(xc)+E(xc)   XCENC  =      3648.59495581
  PAW double counting   =    139993.12171780  -145002.14107877
  entropy T*S    EENTRO =        -0.92970637
  eigenvalues    EBANDS =    -15469.88318110
  atomic energy  EATOM  =    136002.60505376
  Solvation  Ediel_sol  =         0.00000000
  ---------------------------------------------------
  free energy    TOTEN  =      -354.30667260 eV

  energy without entropy =     -353.37696623  energy(sigma->0) =     -353.84181941


--------------------------------------------------------------------------------------------------------




--------------------------------------- Iteration      1(  21)  ---------------------------------------


    POTLOK:  cpu time    0.2472: real time    0.2472
    SETDIJ:  cpu time    0.0171: real time    0.0171
     EDDAV:  cpu time    8.2144: real time    8.2155
       DOS:  cpu time    0.0012: real time    0.0012
    CHARGE:  cpu time    0.2155: real time    0.2155
    MIXING:  cpu time    0.0144: real time    0.0144
    --------------------------------------------
      LOOP:  cpu time    8.7097: real time    8.7110

 eigenvalue-minimisations  :  1424
 total energy-change (2. order) : 0.9431003E+00  (-0.3128320E-01)
 number of electron     791.9999777 magnetization 
 augmentation part      312.1033223 magnetization 

 Broyden mixing:
  rms(total) = 0.10509E+01    rms(broyden)= 0.10508E+01
  rms(prec ) = 0.11976E+01
  weight for this iteration     100.00

 eigenvalues of (default mixing * dielectric matrix)
  average eigenvalue GAMMA=   0.5878
  2.0806  1.6692  1.6692  0.6605  0.6605  0.4522  0.4522  0.3632  0.3632  0.2006
  0.1054  0.1667  0.1368  0.1368  0.1436  0.1436

 Free energy of the ion-electron system (eV)
  ---------------------------------------------------
  alpha Z        PSCENC =      1893.09323658
  Ewald energy   TEWEN  =    218049.99179406
  -Hartree energ DENC   =   -339486.65430999
  -exchange      EXHF   =         0.00000000
  -V(xc)+E(xc)   XCENC  =      3648.93181217
  PAW double counting   =    139480.54743994  -144483.54384462
  entropy T*S    EENTRO =        -0.98775938
  eigenvalues    EBANDS =    -15457.34699486
  atomic energy  EATOM  =    136002.60505376
  Solvation  Ediel_sol  =         0.00000000
  ---------------------------------------------------
  free energy    TOTEN  =      -353.36357233 eV

  energy without entropy =     -352.37581296  energy(sigma->0) =     -352.86969265


--------------------------------------------------------------------------------------------------------




--------------------------------------- Iteration      1(  22)  ---------------------------------------


    POTLOK:  cpu time    0.2500: real time    0.2500
    SETDIJ:  cpu time    0.0173: real time    0.0173
     EDDAV:  cpu time    7.4531: real time    7.4542
       DOS:  cpu time    0.0013: real time    0.0013
    CHARGE:  cpu time    0.2134: real time    0.2134
    MIXING:  cpu time    0.0155: real time    0.0155
    --------------------------------------------
      LOOP:  cpu time    7.9506: real time    7.9518

 eigenvalue-minimisations  :  1312
 total energy-change (2. order) : 0.4926828E+00  (-0.4620418E-01)
 number of electron     791.9999778 magnetization 
 augmentation part      311.8953313 magnetization 

 Broyden mixing:
  rms(total) = 0.76241E+00    rms(broyden)= 0.76222E+00
  rms(prec ) = 0.85311E+00
  weight for this iteration     100.00

 eigenvalues of (default mixing * dielectric matrix)
  average eigenvalue GAMMA=   0.6147
  2.1138  1.7923  1.7923  0.8544  0.8544  0.4683  0.4683  0.4500  0.4500  0.2058
  0.1054  0.1364  0.1364  0.1673  0.1673  0.1471  0.1411

 Free energy of the ion-electron system (eV)
  ---------------------------------------------------
  alpha Z        PSCENC =      1893.09323658
  Ewald energy   TEWEN  =    218049.99179406
  -Hartree energ DENC   =   -339503.23711095
  -exchange      EXHF   =         0.00000000
  -V(xc)+E(xc)   XCENC  =      3649.17530306
  PAW double counting   =    139084.59142831  -144082.38349692
  entropy T*S    EENTRO =        -1.01671633
  eigenvalues    EBANDS =    -15445.69038107
  atomic energy  EATOM  =    136002.60505376
  Solvation  Ediel_sol  =         0.00000000
  ---------------------------------------------------
  free energy    TOTEN  =      -352.87088952 eV

  energy without entropy =     -351.85417319  energy(sigma->0) =     -352.36253136


--------------------------------------------------------------------------------------------------------




--------------------------------------- Iteration      1(  23)  ---------------------------------------


    POTLOK:  cpu time    0.2473: real time    0.2474
    SETDIJ:  cpu time    0.0175: real time    0.0175
     EDDAV:  cpu time    7.5719: real time    7.5730
       DOS:  cpu time    0.0012: real time    0.0012
    CHARGE:  cpu time    0.2194: real time    0.2194
    MIXING:  cpu time    0.0156: real time    0.0156
    --------------------------------------------
      LOOP:  cpu time    8.0729: real time    8.0741

 eigenvalue-minimisations  :  1280
 total energy-change (2. order) : 0.1133775E+00  (-0.2506957E-01)
 number of electron     791.9999776 magnetization 
 augmentation part      311.9315844 magnetization 

 Broyden mixing:
  rms(total) = 0.65760E+00    rms(broyden)= 0.65749E+00
  rms(prec ) = 0.74317E+00
  weight for this iteration     100.00

 eigenvalues of (default mixing * dielectric matrix)
  average eigenvalue GAMMA=   0.6394
  2.1012  1.9414  1.9414  1.0560  1.0560  0.5908  0.4727  0.4727  0.4072  0.2818
  0.1831  0.1831  0.1054  0.1592  0.1370  0.1370  0.1411  0.1411

 Free energy of the ion-electron system (eV)
  ---------------------------------------------------
  alpha Z        PSCENC =      1893.09323658
  Ewald energy   TEWEN  =    218049.99179406
  -Hartree energ DENC   =   -339508.50977438
  -exchange      EXHF   =         0.00000000
  -V(xc)+E(xc)   XCENC  =      3649.15519239
  PAW double counting   =    138984.79900116  -143980.30724761
  entropy T*S    EENTRO =        -1.02961643
  eigenvalues    EBANDS =    -15442.55515156
  atomic energy  EATOM  =    136002.60505376
  Solvation  Ediel_sol  =         0.00000000
  ---------------------------------------------------
  free energy    TOTEN  =      -352.75751203 eV

  energy without entropy =     -351.72789561  energy(sigma->0) =     -352.24270382


--------------------------------------------------------------------------------------------------------




--------------------------------------- Iteration      1(  24)  ---------------------------------------


    POTLOK:  cpu time    0.2509: real time    0.2511
    SETDIJ:  cpu time    0.0172: real time    0.0172
     EDDAV:  cpu time    7.5194: real time    7.5206
       DOS:  cpu time    0.0013: real time    0.0013
    CHARGE:  cpu time    0.2108: real time    0.2108
    MIXING:  cpu time    0.0171: real time    0.0171
    --------------------------------------------
      LOOP:  cpu time    8.0167: real time    8.0180

 eigenvalue-minimisations  :  1320
 total energy-change (2. order) : 0.1496094E+00  (-0.2126882E-01)
 number of electron     791.9999778 magnetization 
 augmentation part      311.9592906 magnetization 

 Broyden mixing:
  rms(total) = 0.48461E+00    rms(broyden)= 0.48445E+00
  rms(prec ) = 0.54002E+00
  weight for this iteration     100.00

 eigenvalues of (default mixing * dielectric matrix)
  average eigenvalue GAMMA=   0.6537
  1.9792  1.9792  2.0294  1.2879  1.2879  0.5982  0.4723  0.4723  0.4987  0.4175
  0.2036  0.2001  0.1054  0.1741  0.1368  0.1368  0.1576  0.1419  0.1419

 Free energy of the ion-electron system (eV)
  ---------------------------------------------------
  alpha Z        PSCENC =      1893.09323658
  Ewald energy   TEWEN  =    218049.99179406
  -Hartree energ DENC   =   -339517.17518013
  -exchange      EXHF   =         0.00000000
  -V(xc)+E(xc)   XCENC  =      3649.14773901
  PAW double counting   =    138762.43101494  -143754.44829176
  entropy T*S    EENTRO =        -1.04434232
  eigenvalues    EBANDS =    -15437.20892677
  atomic energy  EATOM  =    136002.60505376
  Solvation  Ediel_sol  =         0.00000000
  ---------------------------------------------------
  free energy    TOTEN  =      -352.60790263 eV

  energy without entropy =     -351.56356032  energy(sigma->0) =     -352.08573148


--------------------------------------------------------------------------------------------------------




--------------------------------------- Iteration      1(  25)  ---------------------------------------


    POTLOK:  cpu time    0.2501: real time    0.2501
    SETDIJ:  cpu time    0.0172: real time    0.0172
     EDDAV:  cpu time    7.5796: real time    7.5808
       DOS:  cpu time    0.0011: real time    0.0011
    CHARGE:  cpu time    0.2137: real time    0.2137
    MIXING:  cpu time    0.0179: real time    0.0179
    --------------------------------------------
      LOOP:  cpu time    8.0797: real time    8.0808

 eigenvalue-minimisations  :  1280
 total energy-change (2. order) : 0.8803647E-01  (-0.2332864E-01)
 number of electron     791.9999776 magnetization 
 augmentation part      311.9764372 magnetization 

 Broyden mixing:
  rms(total) = 0.29513E+00    rms(broyden)= 0.29471E+00
  rms(prec ) = 0.32219E+00
  weight for this iteration     100.00

 eigenvalues of (default mixing * dielectric matrix)
  average eigenvalue GAMMA=   0.6587
  1.7986  1.7986  1.8418  1.6159  1.6159  0.7564  0.7564  0.4700  0.4700  0.3994
  0.2756  0.1054  0.1985  0.1798  0.1798  0.1367  0.1367  0.1543  0.1422  0.1422

 Free energy of the ion-electron system (eV)
  ---------------------------------------------------
  alpha Z        PSCENC =      1893.09323658
  Ewald energy   TEWEN  =    218049.99179406
  -Hartree energ DENC   =   -339528.44054897
  -exchange      EXHF   =         0.00000000
  -V(xc)+E(xc)   XCENC  =      3649.16422337
  PAW double counting   =    138473.07912142  -143461.02649700
  entropy T*S    EENTRO =        -1.08554204
  eigenvalues    EBANDS =    -15429.90070734
  atomic energy  EATOM  =    136002.60505376
  Solvation  Ediel_sol  =         0.00000000
  ---------------------------------------------------
  free energy    TOTEN  =      -352.51986616 eV

  energy without entropy =     -351.43432412  energy(sigma->0) =     -351.97709514


[...]
    FORCOR:  cpu time    0.3363: real time    0.3363
    FORHAR:  cpu time    0.1540: real time    0.1541
    MIXING:  cpu time    0.0258: real time    0.0258
    OFIELD:  cpu time    0.0001: real time    0.0001

  FORCE on cell =-STRESS in cart. coord.  units (eV):
  Direction    XX          YY          ZZ          XY          YZ          ZX
  --------------------------------------------------------------------------------------
  Alpha Z  1893.09324  1893.09324  1893.09324
  Ewald  267223.00592270248.62257************ -1530.70881  -318.07194  1845.97797
  Hartree303167.68488305892.32920************ -1322.78510  -253.46028  1591.83020
  E(xc)   -5049.11862 -5048.93812 -5055.26274    -0.58291    -0.39437     0.33241
  Local  ************************575822.43396  2841.66375   562.90304 -3429.75119
  n-local  -608.37825  -618.29223  -626.04253     2.18992     4.35821   -11.15727
  augment  5781.50625  5788.28987  5816.65144     1.49921    -1.91861     4.82832
  Kinetic 11057.08295 11061.41904 11149.88412     8.95626     7.02946    -6.88928
  Fock        0.00000     0.00000     0.00000     0.00000     0.00000     0.00000
  -------------------------------------------------------------------------------------
  Total      80.11161    71.15816    99.87975     0.23232     0.44550    -4.82885
  in kB      65.32009    58.01978    81.43832     0.18943     0.36325    -3.93727
  external pressure =       68.26 kB  Pullay stress =        0.00 kB


 VOLUME and BASIS-vectors are now :
 -----------------------------------------------------------------------------
  energy-cutoff  :      450.00
  volume of cell :     1964.98
      direct lattice vectors                 reciprocal lattice vectors
    10.079732985  0.000000000  0.000000000     0.099208977 -0.037612667  0.000000000
     3.573298043  9.425102554  0.000000000     0.000000000  0.106099641  0.000000000
     0.000000000  0.000000000 20.683503555     0.000000000  0.000000000  0.048347708

  length of vectors
    10.079732985 10.079732985 20.683503555     0.106099641  0.106099641  0.048347708


 FORCES acting on ions
    electron-ion (+dipol)            ewald-force                    non-local-force                 convergence-correction
 -----------------------------------------------------------------------------------------------
   -.347E+01 -.170E+03 0.361E+04   0.375E+01 0.173E+03 -.362E+04   -.399E+00 -.320E+01 0.237E+01   -.116E+00 0.385E-01 0.980E-02
   -.766E+02 -.365E+03 0.373E+03   0.763E+02 0.366E+03 -.370E+03   0.198E+00 -.138E+01 -.179E+01   -.225E+00 -.438E-01 -.613E-01
   -.188E+03 -.506E+03 -.277E+04   0.188E+03 0.508E+03 0.277E+04   -.242E-01 -.179E+01 0.125E+01   -.218E+00 -.534E-01 -.290E+00
   -.406E+03 -.449E+03 -.554E+04   0.406E+03 0.447E+03 0.554E+04   0.702E+00 0.230E+01 0.562E+01   -.102E+00 -.108E+00 0.118E+00
   0.913E+02 -.197E+03 0.201E+04   -.919E+02 0.197E+03 -.201E+04   0.451E+00 0.364E+00 -.273E+01   0.185E+00 -.282E+00 0.199E+00
   0.583E+02 -.379E+03 -.838E+03   -.595E+02 0.380E+03 0.839E+03   0.119E+01 -.126E+01 -.251E+00   -.281E-01 0.177E-01 -.652E-01
   0.176E+03 -.517E+03 -.419E+04   -.178E+03 0.520E+03 0.419E+04   0.110E+01 -.168E+01 -.260E+01   0.464E-01 0.142E+00 0.158E+00
   0.361E+03 -.354E+03 0.470E+04   -.364E+03 0.355E+03 -.471E+04   0.256E+01 -.142E+01 0.492E+01   0.149E+00 0.147E+00 0.527E-01
   0.184E+03 -.259E+03 -.482E+04   -.186E+03 0.263E+03 0.482E+04   0.160E+01 -.399E+01 -.168E+01   0.140E+00 -.103E+00 0.222E+00
   -.785E+03 0.708E+02 0.395E+04   0.790E+03 -.686E+02 -.396E+04   -.403E+01 -.176E+01 0.491E+01   -.551E-01 0.783E-01 0.219E-01
   -.647E+02 -.528E+03 0.166E+04   0.629E+02 0.530E+03 -.166E+04   0.134E+01 -.276E+01 0.586E+00   0.124E+00 0.158E+00 -.115E+00
   0.132E+02 -.464E+03 -.159E+04   -.139E+02 0.464E+03 0.158E+04   0.706E+00 -.145E+01 0.166E+01   0.887E-01 0.180E+00 0.489E-01
   -.205E+03 -.200E+03 0.468E+04   0.204E+03 0.199E+03 -.469E+04   0.105E+01 0.116E+01 0.391E+01   0.741E-01 -.256E-01 0.901E-01
   0.106E+03 0.145E+03 0.122E+04   -.106E+03 -.145E+03 -.121E+04   -.981E-01 0.169E+00 -.295E+01   -.102E+00 -.657E-01 -.978E-02
   0.400E+03 0.298E+03 -.159E+04   -.401E+03 -.297E+03 0.159E+04   0.137E+01 -.385E+00 0.207E+01   -.617E-01 -.903E-01 -.156E+00
   0.342E+03 0.399E+03 -.480E+04   -.344E+03 -.401E+03 0.480E+04   0.167E+01 0.220E+01 -.314E+01   -.281E+00 -.242E+00 -.322E-01
   0.865E+03 0.576E+03 0.349E+04   -.869E+03 -.578E+03 -.348E+04   0.373E+01 0.246E+01 -.343E+00   0.399E-01 -.233E+00 0.153E+00
   0.468E+03 0.302E+03 0.370E+03   -.469E+03 -.302E+03 -.371E+03   0.111E+01 -.593E-01 0.958E+00   -.788E-01 0.105E+00 -.125E+00
   0.361E+03 -.585E+02 -.265E+04   -.364E+03 0.588E+02 0.265E+04   0.244E+01 0.884E-01 0.777E+00   -.499E-01 -.101E+00 0.194E+00
   -.323E+03 -.599E+02 -.498E+04   0.322E+03 0.597E+02 0.498E+04   0.209E+01 0.169E+00 -.272E+01   -.162E+00 -.119E+00 0.231E+00
   0.580E+03 -.147E+03 0.586E+04   -.582E+03 0.145E+03 -.587E+04   0.102E+01 0.298E+01 0.666E+01   0.109E+00 -.269E+00 0.277E-01
   0.462E+03 0.373E+03 -.404E+04   -.465E+03 -.375E+03 0.404E+04   0.223E+01 0.146E+01 0.667E+00   0.262E+00 -.667E-01 0.101E+00
   -.115E+03 0.139E+03 0.519E+04   0.112E+03 -.142E+03 -.520E+04   0.421E+01 0.267E+01 0.254E+01   -.984E-01 0.191E+00 -.370E-01
   0.468E+03 0.123E+03 0.240E+04   -.471E+03 -.125E+03 -.240E+04   0.222E+01 0.110E+01 -.214E+01   0.162E-01 0.161E+00 -.550E-01
   0.468E+03 0.308E+03 -.697E+03   -.469E+03 -.307E+03 0.697E+03   0.153E+01 -.240E+00 0.476E+00   0.134E-01 -.142E+00 -.940E-02
   -.748E+03 0.134E+03 -.386E+04   0.753E+03 -.134E+03 0.386E+04   -.432E+01 0.116E+01 -.142E+01   0.153E+00 -.231E+00 -.293E+00
   -.379E+03 0.243E+03 0.287E+04   0.381E+03 -.243E+03 -.287E+04   -.858E+00 0.194E-01 0.154E+01   -.244E+00 -.135E+00 0.145E+00
   -.449E+03 0.141E+03 -.535E+03   0.449E+03 -.141E+03 0.533E+03   -.523E-01 -.471E+00 0.248E+01   0.664E-01 -.257E+00 -.227E+00
   -.293E+03 0.388E+03 0.455E+04   0.295E+03 -.390E+03 -.455E+04   -.122E+01 0.181E+01 0.345E+01   0.153E+00 -.142E+00 0.102E+00
   -.345E+03 0.346E+03 0.124E+04   0.345E+03 -.349E+03 -.124E+04   0.383E+00 0.174E+01 0.121E+00   -.836E-01 0.148E+00 -.120E+00
   -.308E+03 0.132E+03 -.160E+04   0.310E+03 -.133E+03 0.159E+04   -.222E+01 0.122E+01 0.273E+01   -.860E-02 0.854E-01 0.106E+00
   -.191E+03 0.324E+03 -.489E+04   0.192E+03 -.326E+03 0.489E+04   -.152E+00 0.106E+01 0.199E+01   -.260E-01 0.110E+00 0.231E+00
   -.534E+03 -.264E+03 0.385E+04   0.539E+03 0.264E+03 -.386E+04   -.414E+01 -.372E+00 0.374E+01   0.228E+00 0.163E+00 -.656E-01
   -.428E+03 0.101E+03 0.382E+03   0.428E+03 -.100E+03 -.382E+03   -.711E+00 -.606E+00 -.804E-01   0.237E+00 -.665E-01 -.148E+00
   -.650E+02 0.186E+03 -.258E+04   0.684E+02 -.187E+03 0.258E+04   -.386E+01 0.156E+01 0.230E+01   0.134E+00 -.142E+00 0.335E+00
   0.633E+00 0.480E+03 -.538E+04   0.390E+00 -.484E+03 0.538E+04   -.177E+00 0.309E+01 0.265E+01   -.148E+00 0.646E-01 0.135E+00
   -.120E+03 0.939E+02 -.204E+04   0.121E+03 -.949E+02 0.204E+04   -.511E+00 0.833E+00 -.222E+01   -.498E-02 -.333E-01 0.401E-01
   -.313E+03 0.158E+02 0.189E+04   0.315E+03 -.161E+02 -.190E+04   -.101E+01 -.170E+00 0.211E+01   -.118E+00 -.494E-01 0.284E-01
   -.524E+02 0.138E+03 0.494E+03   0.511E+02 -.140E+03 -.496E+03   0.138E+01 0.159E+01 0.184E+01   0.665E-02 0.212E-01 0.641E-01
   0.126E+01 0.146E+03 -.656E+03   -.239E+01 -.148E+03 0.651E+03   0.503E+00 0.172E+01 0.153E+01   -.676E-03 0.921E-01 -.475E-01
   0.179E+03 0.463E+03 0.221E+04   -.180E+03 -.466E+03 -.222E+04   0.715E+00 0.157E+01 0.103E+01   0.243E-01 -.103E+00 0.400E-01
   0.101E+03 0.204E+03 0.128E+04   -.102E+03 -.205E+03 -.128E+04   0.519E+00 0.147E+01 0.208E+01   -.419E-01 0.232E-01 -.127E-01
   0.888E+01 0.113E+03 0.348E+02   -.916E+01 -.116E+03 -.357E+02   0.264E+00 0.247E+01 0.967E+00   -.576E-01 -.198E-01 -.575E-01
   -.117E+03 0.146E+03 -.128E+04   0.119E+03 -.149E+03 0.128E+04   -.120E+01 0.900E+00 -.166E+01   -.832E-01 0.924E-01 0.121E+00
   -.155E+02 0.538E+02 0.643E+03   0.164E+02 -.546E+02 -.641E+03   -.880E+00 0.895E+00 -.831E+00   0.889E-01 0.101E-01 -.909E-02
   0.112E+02 0.154E+03 -.338E+03   -.111E+02 -.155E+03 0.336E+03   0.280E+00 0.159E+01 -.384E+00   0.540E-01 -.847E-01 0.202E-01
   0.221E+03 0.261E+03 -.162E+04   -.223E+03 -.262E+03 0.163E+04   0.133E+01 0.247E+00 -.577E+00   0.108E+00 0.470E-01 0.868E-01
   -.522E+02 -.128E+03 0.214E+04   0.528E+02 0.128E+03 -.215E+04   -.669E+00 -.869E-01 0.163E+01   0.664E-01 0.112E+00 -.223E-01
   0.126E+03 0.169E+03 0.206E+04   -.127E+03 -.170E+03 -.207E+04   0.116E+01 -.179E-01 0.205E+01   -.504E-01 0.195E-01 -.985E-02
   -.707E+02 -.380E+02 0.125E+04   0.727E+02 0.386E+02 -.125E+04   -.136E+01 0.207E+00 0.105E+01   -.101E+00 0.420E-01 0.186E-01
   -.117E+03 -.977E+02 -.354E+02   0.120E+03 0.993E+02 0.364E+02   -.194E+01 -.177E+01 -.601E+00   -.219E-01 -.107E+00 -.476E-01
   -.245E+03 -.171E+03 -.130E+04   0.247E+03 0.173E+03 0.130E+04   -.340E+00 -.315E+00 -.135E+01   0.183E+00 -.509E-01 -.213E+00
   -.277E+03 -.243E+03 0.197E+04   0.279E+03 0.246E+03 -.197E+04   -.128E+01 -.150E+01 0.598E+00   0.157E+00 -.306E-01 0.375E-01
   -.642E+01 -.135E+03 0.570E+03   0.614E+01 0.138E+03 -.570E+03   -.713E+00 -.286E+01 0.586E+00   0.579E-01 0.849E-02 -.265E-01
   -.982E+02 -.102E+03 -.453E+03   0.100E+03 0.104E+03 0.452E+03   -.204E+01 -.192E+01 -.412E+00   0.254E-01 0.924E-01 0.111E-02
   -.330E+02 -.115E+03 -.174E+04   0.339E+02 0.114E+03 0.174E+04   0.112E+00 0.463E+00 -.877E+00   0.216E-01 0.228E-01 0.730E-01
   -.117E+03 -.141E+03 0.388E+03   0.119E+03 0.142E+03 -.387E+03   -.172E+01 -.131E+01 0.777E+00   0.689E-01 0.599E-01 -.103E+00
   -.123E+03 -.125E+03 -.739E+03   0.125E+03 0.127E+03 0.738E+03   -.853E+00 -.155E+01 -.707E+00   0.672E-01 -.368E-01 0.492E-01
   0.202E+03 -.571E+02 -.222E+04   -.203E+03 0.580E+02 0.223E+04   0.313E+00 -.223E+00 -.251E+01   0.124E+00 -.921E-01 0.480E-01
   0.477E+02 -.179E+03 0.164E+04   -.502E+02 0.181E+03 -.164E+04   0.221E+01 -.108E+01 0.243E+01   0.606E-01 -.361E-01 -.561E-02
   0.114E+02 -.178E+03 0.189E+04   -.132E+02 0.179E+03 -.190E+04   0.119E+01 -.865E+00 0.451E+01   -.468E-02 0.387E-01 0.243E-01
   0.112E+03 -.122E+03 0.631E+03   -.114E+03 0.122E+03 -.628E+03   0.123E+01 -.538E+00 0.280E-01   0.413E-01 -.380E-01 -.214E-01
   0.127E+03 -.563E+02 -.465E+03   -.129E+03 0.575E+02 0.466E+03   0.206E+01 -.106E+01 -.166E+01   -.838E-01 -.435E-01 -.717E-01
   0.146E+03 -.291E+02 -.173E+04   -.148E+03 0.304E+02 0.173E+04   0.689E+00 -.798E+00 -.253E+01   -.376E+00 -.328E-01 0.163E-01
   0.193E+03 -.453E+02 0.259E+03   -.195E+03 0.464E+02 -.259E+03   0.262E+01 -.104E+01 -.276E+00   -.478E-01 -.428E-01 0.353E-01
   0.102E+03 -.865E+02 -.982E+03   -.105E+03 0.878E+02 0.983E+03   0.316E+01 -.135E+01 -.889E+00   -.242E-01 0.381E-01 -.306E-01
   0.222E+02 -.160E+03 -.221E+04   -.225E+02 0.162E+03 0.221E+04   -.429E+00 -.112E+01 -.194E+01   -.215E-02 -.580E-01 0.833E-01
   0.526E+03 -.460E+01 0.154E+04   -.530E+03 0.527E+01 -.155E+04   0.224E+01 0.857E-01 0.269E+01   -.338E-01 -.117E+00 0.548E-01
   -.152E+03 0.497E+01 0.221E+04   0.152E+03 -.279E+01 -.221E+04   0.493E+00 -.189E+01 0.357E+01   -.362E-02 0.426E-01 0.213E-01
   -.758E+02 -.816E+01 0.109E+04   0.765E+02 0.829E+01 -.108E+04   0.167E-01 -.328E+00 0.503E+00   -.276E-01 0.977E-01 -.408E-01
   0.142E+03 -.756E+02 -.956E+02   -.145E+03 0.764E+02 0.964E+02   0.275E+01 -.731E+00 -.111E+01   -.283E-01 0.633E-01 -.234E-01
   0.181E+03 0.496E+02 -.143E+04   -.184E+03 -.488E+02 0.143E+04   0.165E+01 -.941E+00 -.226E+01   -.559E-02 0.920E-02 0.110E+00
 -----------------------------------------------------------------------------------------------
   -.246E+02 0.475E+01 -.468E+02   0.966E-12 -.213E-11 0.978E-11   0.246E+02 -.349E+01 0.457E+02   0.172E+00 -.117E+01 0.110E+01
 
 
 POSITION                                       TOTAL-FORCE (eV/Angst)
 -----------------------------------------------------------------------------------
      6.92220      7.43431      2.86146        -0.227748     -0.064780      0.470290
      7.82056      6.07621      5.06951        -0.383734     -0.266678      1.397085
      8.79827      4.65991      7.69501         0.095420     -0.009792      0.121786
      9.66483      3.22023      9.92052         0.332997      0.022152      1.318712
      2.61774      3.87870      3.31918        -0.036832     -0.754801      2.046370
      3.59545      2.46241      5.94468         0.018110     -0.164494      0.142168
      4.57317      1.04611      8.57018        -0.821328      0.899302     -0.733174
     11.94269      5.70743      2.00261        -0.260692     -0.380317     -1.098972
      3.79605      7.33634      9.16087        -0.477157     -0.000542      0.899942
      6.16309      2.24052      2.63083         0.331432      0.512668     -0.286460
      8.47237      0.26490      4.19434        -0.294737     -0.112640      1.263683
     13.02338      8.27371      6.81985         0.009760     -0.329767     -0.382496
      5.56886      5.13927      2.21100         0.222990      0.212115     -1.242348
      6.61816      3.96023      4.37584        -0.177499      0.138969      1.759686
      7.59587      2.54394      7.00134         0.306701      0.048730      0.050721
      8.41308      1.15074      9.31596        -0.710848      0.288606      0.918775
      1.41534      1.76273      2.62550        -0.258285     -0.367037      2.116908
      2.39305      0.34643      5.25100         0.125564      0.052057      0.015774
      6.94406      8.35524      7.87651        -0.729891      0.265369     -2.846964
      6.86743      6.63892      9.46511         0.599657     -0.114077      0.636713
      2.01088      3.47802      0.81831        -0.336300      0.781927     -1.675235
      2.66767      4.82069      8.47658        -0.834929     -0.709820      1.360637
      9.70775      8.78857      1.33852         1.063522      0.053714     -1.158195
     10.84326      7.57403      3.50067        -0.447032     -0.367958      1.665040
     11.82097      6.15773      6.12617        -0.012802     -0.064197     -0.000000
      0.84637      1.54902      8.61595         0.782154      0.254332      0.687766
      9.02296      4.33443      3.68216         0.556285     -0.126421      0.626969
     10.00068      2.91813      6.30767        -0.005677     -0.060958     -0.186545
      3.82015      2.13692      1.93183         0.257947     -0.193387      0.802753
      4.79786      0.72063      4.55733        -0.179023     -0.190064      0.158861
      9.34887      8.72943      7.18283        -0.441062      0.321140     -1.489833
     10.31913      7.70776      9.16293         0.407830     -0.669324      1.178933
      3.16834      7.94822      2.80700         0.813753     -0.582033      0.860597
      4.14605      6.53193      5.43250         0.146877      0.068079     -0.018416
      5.12376      5.11563      8.05800        -0.296939      0.981135     -2.340464
      6.02926      4.05867      9.94393         0.696160     -0.222109      0.919457
      3.59284      9.37633      9.73996         0.643983     -0.232011      1.970524
      7.33692      3.98960      2.43888         0.706821     -0.536570     -3.225466
      8.33317      2.41029      4.86908         0.134476     -0.199478      0.243691
      9.31088      0.99399      7.49458        -0.623708     -0.440163     -3.297234
      2.24020      1.47537      0.76587        -0.436066     -1.919710     -3.339119
      3.13035      0.21279      3.11874         0.010105      0.452541      1.363395
      7.68136      8.22159      5.74425        -0.070429      0.093048      0.041271
      8.65907      6.80530      8.36975         0.319699     -1.713487     -0.392529
      2.47854      6.02409      3.99391         0.120463      0.009796      1.325787
      3.45626      4.60779      6.61941         0.424450      0.065794     -2.564714
      4.36286      3.32074      8.93955        -0.778222     -1.630244      1.607943
     11.54243      7.70205      1.55549         0.068003     -0.198466     -3.282749
      7.95255      7.84249      1.17475        -0.366803     -0.708627     -2.779025
      8.93083      6.46271      3.37301         0.580992      0.778195     -0.955627
      9.86427      5.10469      5.75238         0.339880     -0.303900      0.397277
     10.84198      3.68840      8.37788         1.403571      1.131516     -0.577970
      3.67483      4.41733      1.57794         1.074700      0.755487     -1.886404
      4.66145      2.90719      4.00204        -0.929853      0.230750      1.221445
      5.63916      1.49089      6.62754        -0.142128      0.236251     -0.848950
      6.49531      0.29291      8.95751         1.004962      0.065140      1.931594
      4.00964      8.71849      4.87721         0.338499     -0.259316      1.003419
      4.98735      7.30220      7.50271         1.020253      0.263428     -1.972669
      5.05250      5.87776     10.04224        -0.377468      0.593618      3.357354
      9.76036      0.58656      2.61458        -0.229683      1.518354     -2.095461
      4.98733      7.18715      1.94475        -0.611258      0.629982     -1.754436
      5.82436      6.04450      4.01017        -0.592842      0.112585      3.248221
      6.80207      4.62821      6.63567         0.069410      0.145656     -0.465203
      7.77979      3.21191      9.26118        -1.176475      0.450997      0.059551
      1.59925      2.43070      4.88534         0.172202      0.058284     -0.059364
      2.57697      1.01441      7.51084         0.330132     -0.044307     -0.551705
      7.43171      8.78730      9.76305        -0.692075      0.615288      3.698292
     10.70128      3.84700      2.25984        -2.010486      0.637348      0.571961
      5.42681      1.29349      0.93338         0.696707      0.330681     -2.521460
      6.47617      0.23320      3.13500         0.635032     -0.096406      3.149479
     11.02718      8.24201      5.76051         0.009537      0.107969     -0.251967
     12.00489      6.82571      8.38601        -0.901027     -0.149123     -0.329678
 -----------------------------------------------------------------------------------
    total drift:                                0.158930      0.086218      0.013554


--------------------------------------------------------------------------------------------------------



  FREE ENERGIE OF THE ION-ELECTRON SYSTEM (eV)
  ---------------------------------------------------
  free  energy   TOTEN  =      -352.48054002 eV

  energy  without entropy=     -351.40323170  energy(sigma->0) =     -351.94188586
 


--------------------------------------------------------------------------------------------------------


    POTLOK:  cpu time    0.2673: real time    0.2675


--------------------------------------------------------------------------------------------------------


     LOOP+:  cpu time  276.7886: real time  276.8434
    4ORBIT:  cpu time    0.0000: real time    0.0000

 total amount of memory used by VASP MPI-rank0    68405. kBytes
=======================================================================

   base      :      30000. kBytes
   nonlr-proj:       2290. kBytes
   fftplans  :       8265. kBytes
   grid      :      13942. kBytes
   one-center:         93. kBytes
   wavefun   :      13815. kBytes
 
  
  
 General timing and accounting informations for this job:
 ========================================================
  
                  Total CPU time used (sec):      279.426
                            User time (sec):      279.045
                          System time (sec):        0.381
                         Elapsed time (sec):      279.719
  
                   Maximum memory used (kb):      187016.
                   Average memory used (kb):           0.
  
                          Minor page faults:       116744
                          Major page faults:            0
                 Voluntary context switches:          156
