<?xml version="1.0" encoding="ISO-8859-1"?>
<modeling>
 <generator>
  <i name="program" type="string">vasp </i>
  <i name="version" type="string">5.4.4.18Apr17-6-g9f103f2a35  </i>
  <i name="subversion" type="string">(build Aug 13 2019 17:33:20) gamma-only         parallel </i>
  <i name="platform" type="string">LinuxIFC </i>
  <i name="date" type="string">2020 05 10 </i>
  <i name="time" type="string">20:28:39 </i>
 </generator>
 <incar>
  <i type="string" name="SYSTEM">"Millerite NiS"</i>
  <i type="string" name="PREC">normal</i>
  <i type="int" name="NSIM">     4</i>
  <i type="int" name="NELM">   100</i>
  <i name="ENCUT">    450.00000000</i>
  <i type="string" name="LREAL">A</i>
  <i type="int" name="ISMEAR">     0</i>
  <i type="int" name="NWRITE">     2</i>
  <i type="logical" name="LWAVE"> F  </i>
  <i type="logical" name="LCHARG"> F  </i>
  <v type="int" name="KPOINT_BSE">    -1     0     0     0</v>
  <i type="int" name="NELM">   100</i>
 </incar>
 <structure name="primitive_cell" >
  <crystal>
   <varray name="basis" >
    <v>      11.25646304       0.00000000       0.00000000 </v>
    <v>       5.04456212      10.06282034       0.00000000 </v>
    <v>       0.00000000       0.00000000      21.74423184 </v>
   </varray>
   <i name="volume">   2463.00752351 </i>
   <varray name="rec_basis" >
    <v>       0.08883785      -0.04453504       0.00000000 </v>
    <v>       0.00000000       0.09937572       0.00000000 </v>
    <v>       0.00000000       0.00000000       0.04598921 </v>
   </varray>
  </crystal>
  <varray name="positions" >
   <v>       0.26092070       0.47878036       0.25332799 </v>
   <v>       0.07287764      -0.33317657       0.27005396 </v>
   <v>       0.17409868       0.39738738       0.18045411 </v>
   <v>       0.34231368      -0.43439761       0.18045411 </v>
   <v>       0.43627354       0.47164251       0.31548109 </v>
   <v>       0.26805855       0.30342751       0.31548109 </v>
   <v>       0.36819893       0.23939913       0.21765305 </v>
   <v>      -0.49969806       0.37150212       0.21765305 </v>
   <v>       0.35488056       0.38482049       0.38835497 </v>
   <v>       0.16696083      -0.42725976       0.11830101 </v>
   <v>       0.16683750      -0.42713643       0.40508094 </v>
   <v>       0.47891775       0.26078330       0.13502698 </v>
   <v>       0.28484372       0.33144741       0.09935239 </v>
   <v>      -0.42712237       0.16682343       0.27005396 </v>
   <v>       0.00030194       0.37150212       0.21765305 </v>
   <v>       0.09426181      -0.22245774       0.35268003 </v>
   <v>      -0.03784120      -0.35456074       0.35268003 </v>
   <v>       0.36819893      -0.26060087       0.21765305 </v>
   <v>       0.26805855      -0.19657249       0.31548109 </v>
   <v>      -0.06372646       0.47164251       0.31548109 </v>
   <v>       0.40634206       0.46546199       0.08262607 </v>
   <v>       0.46215880       0.14543926       0.35268003 </v>
   <v>      -0.40573819       0.27754226       0.35268003 </v>
   <v>       0.09426181       0.27754226       0.35268003 </v>
   <v>       0.46215880      -0.35456074       0.35268003 </v>
   <v>       0.00030194      -0.12849788       0.21765305 </v>
   <v>      -0.13180107      -0.26060087       0.21765305 </v>
   <v>      -0.02108225      -0.23921670       0.13502698 </v>
   <v>      -0.01700319       0.44351134       0.11356023 </v>
   <v>       0.34231368       0.06560239       0.18045411 </v>
   <v>      -0.32590132       0.39738738       0.18045411 </v>
   <v>       0.25908246      -0.34844492       0.06046149 </v>
   <v>       0.11314720       0.46945221       0.05582489 </v>
   <v>      -0.15768632      -0.43439761       0.18045411 </v>
   <v>       0.17409868      -0.10261262       0.18045411 </v>
   <v>       0.07287763       0.16682343       0.27005396 </v>
   <v>      -0.42712236      -0.33317657       0.27005396 </v>
   <v>       0.29105314      -0.20388948       0.10630943 </v>
   <v>       0.36201842       0.20946765       0.45050807 </v>
   <v>      -0.46976657       0.37768264       0.45050807 </v>
   <v>       0.18555260      -0.30943626       0.47245685 </v>
   <v>       0.04945346      -0.44520670       0.47257270 </v>
   <v>       0.37230905       0.35191910       0.02145185 </v>
   <v>      -0.06372646      -0.02835749       0.31548109 </v>
   <v>      -0.23194145      -0.19657249       0.31548109 </v>
   <v>      -0.23194145       0.30342751       0.31548109 </v>
   <v>       0.43627354      -0.02835749       0.31548109 </v>
   <v>       0.03023343       0.37768264       0.45050807 </v>
   <v>       0.36201842      -0.29053236       0.45050807 </v>
   <v>      -0.41749959       0.48019074       0.06845855 </v>
   <v>       0.47891775      -0.23921670       0.13502698 </v>
   <v>      -0.02108225       0.26078330       0.13502698 </v>
   <v>       0.37402200       0.36610408       0.49727065 </v>
   <v>       0.16093289       0.07873709       0.14935617 </v>
   <v>      -0.33303917       0.07274024       0.11830101 </v>
   <v>      -0.14511944      -0.11517951       0.38835497 </v>
   <v>       0.26092070      -0.02121964       0.25332799 </v>
   <v>      -0.23907930       0.47878036       0.25332799 </v>
   <v>      -0.33316250       0.07286357       0.40508094 </v>
   <v>      -0.31591002      -0.44870897       0.13074748 </v>
   <v>      -0.45878564      -0.44581654       0.46614478 </v>
   <v>       0.03023342      -0.12231736       0.45050807 </v>
   <v>      -0.13798158      -0.29053236       0.45050807 </v>
   <v>       0.35488056      -0.11517951       0.38835497 </v>
   <v>      -0.14511944       0.38482049       0.38835497 </v>
   <v>      -0.23907930      -0.02121964       0.25332799 </v>
   <v>       0.21049834      -0.47044238      -0.47308047 </v>
   <v>       0.18918343       0.18872511       0.47267991 </v>
   <v>      -0.21953498      -0.16887085       0.10026029 </v>
   <v>      -0.09127126      -0.03963874       0.10031257 </v>
   <v>       0.16683750       0.07286357       0.40508094 </v>
   <v>      -0.33316250      -0.42713643       0.40508094 </v>
   <v>      -0.13180107       0.23939913       0.21765305 </v>
   <v>      -0.49969806      -0.12849788       0.21765305 </v>
   <v>       0.43103925      -0.05019406       0.10463479 </v>
   <v>      -0.15768632       0.06560239       0.18045411 </v>
   <v>      -0.32590132      -0.10261262       0.18045411 </v>
   <v>      -0.22576094       0.33335899       0.08262607 </v>
   <v>      -0.03784120       0.14543926       0.35268003 </v>
   <v>      -0.40573819      -0.22245774       0.35268003 </v>
   <v>      -0.31508988       0.19025034       0.47256892 </v>
   <v>      -0.45086285       0.05414984       0.47245657 </v>
   <v>      -0.18060522       0.48404879       0.05856999 </v>
   <v>      -0.22892312       0.15240611       0.06755272 </v>
   <v>      -0.40840667      -0.03178851       0.06641722 </v>
   <v>       0.25036627      -0.02018712       0.06947063 </v>
   <v>      -0.15385086      -0.10538218       0.02709618 </v>
   <v>      -0.12640159      -0.13432218       0.49727119 </v>
   <v>      -0.04587924       0.28558028      -0.49492519 </v>
   <v>       0.36863286      -0.12893161       0.49659109 </v>
   <v>      -0.13798158       0.20946765       0.45050807 </v>
   <v>      -0.46976658      -0.12231736       0.45050807 </v>
   <v>      -0.31448440      -0.30151400       0.46614672 </v>
   <v>       0.05097355       0.05051842       0.47267822 </v>
   <v>      -0.28985460       0.02920573      -0.47308243 </v>
   <v>       0.20651092       0.03318745      -0.47057724 </v>
  </varray>
 </structure>
 <varray name="primitive_index" >
  <v type="int" >        1 </v>
  <v type="int" >       73 </v>
  <v type="int" >       58 </v>
  <v type="int" >       81 </v>
  <v type="int" >       55 </v>
  <v type="int" >       59 </v>
  <v type="int" >        7 </v>
  <v type="int" >       21 </v>
  <v type="int" >        2 </v>
  <v type="int" >       28 </v>
  <v type="int" >       74 </v>
  <v type="int" >       52 </v>
  <v type="int" >        6 </v>
  <v type="int" >       61 </v>
  <v type="int" >        9 </v>
  <v type="int" >       34 </v>
  <v type="int" >       44 </v>
  <v type="int" >       31 </v>
  <v type="int" >       83 </v>
  <v type="int" >       66 </v>
  <v type="int" >       12 </v>
  <v type="int" >        8 </v>
  <v type="int" >       22 </v>
  <v type="int" >       10 </v>
  <v type="int" >       32 </v>
  <v type="int" >       33 </v>
  <v type="int" >       43 </v>
  <v type="int" >       88 </v>
  <v type="int" >       24 </v>
  <v type="int" >       56 </v>
  <v type="int" >       70 </v>
  <v type="int" >       80 </v>
  <v type="int" >       57 </v>
  <v type="int" >       92 </v>
  <v type="int" >       82 </v>
  <v type="int" >       49 </v>
  <v type="int" >       85 </v>
  <v type="int" >       30 </v>
  <v type="int" >       60 </v>
  <v type="int" >       65 </v>
  <v type="int" >       35 </v>
  <v type="int" >       29 </v>
  <v type="int" >       51 </v>
  <v type="int" >       91 </v>
  <v type="int" >       95 </v>
  <v type="int" >       71 </v>
  <v type="int" >       79 </v>
  <v type="int" >       54 </v>
  <v type="int" >       84 </v>
  <v type="int" >       69 </v>
  <v type="int" >       76 </v>
  <v type="int" >       64 </v>
  <v type="int" >        3 </v>
  <v type="int" >        4 </v>
  <v type="int" >       16 </v>
  <v type="int" >       38 </v>
  <v type="int" >       25 </v>
  <v type="int" >       13 </v>
  <v type="int" >       62 </v>
  <v type="int" >       40 </v>
  <v type="int" >       41 </v>
  <v type="int" >       78 </v>
  <v type="int" >       96 </v>
  <v type="int" >       26 </v>
  <v type="int" >       14 </v>
  <v type="int" >       37 </v>
  <v type="int" >       53 </v>
  <v type="int" >       11 </v>
  <v type="int" >       42 </v>
  <v type="int" >       48 </v>
  <v type="int" >       50 </v>
  <v type="int" >       86 </v>
  <v type="int" >       19 </v>
  <v type="int" >       45 </v>
  <v type="int" >       36 </v>
  <v type="int" >       68 </v>
  <v type="int" >       94 </v>
  <v type="int" >       18 </v>
  <v type="int" >       20 </v>
  <v type="int" >       46 </v>
  <v type="int" >       23 </v>
  <v type="int" >       17 </v>
  <v type="int" >       63 </v>
  <v type="int" >       67 </v>
  <v type="int" >       93 </v>
  <v type="int" >       75 </v>
  <v type="int" >       87 </v>
  <v type="int" >       39 </v>
  <v type="int" >       15 </v>
  <v type="int" >       27 </v>
  <v type="int" >       72 </v>
  <v type="int" >       90 </v>
  <v type="int" >       47 </v>
  <v type="int" >        5 </v>
  <v type="int" >       89 </v>
  <v type="int" >       77 </v>
 </varray>
 <kpoints>
  <generation param="Gamma">
   <v type="int" name="divisions">       1        1        1 </v>
   <v name="usershift">      0.00000000       0.00000000       0.00000000 </v>
   <v name="genvec1">      1.00000000       0.00000000       0.00000000 </v>
   <v name="genvec2">      0.00000000       1.00000000       0.00000000 </v>
   <v name="genvec3">      0.00000000       0.00000000       1.00000000 </v>
   <v name="shift">      0.00000000       0.00000000       0.00000000 </v>
  </generation>
  <varray name="kpointlist" >
   <v>       0.00000000       0.00000000       0.00000000 </v>
  </varray>
  <varray name="weights" >
   <v>       1.00000000 </v>
  </varray>
 </kpoints>
 <parameters>
  <separator name="general" >
   <i type="string" name="SYSTEM">"Millerite NiS"</i>
   <i type="logical" name="LCOMPAT"> F  </i>
  </separator>
  <separator name="electronic" >
   <i type="string" name="PREC">normal</i>
   <i name="ENMAX">    450.00000000</i>
   <i name="ENAUG">    703.44300000</i>
   <i name="EDIFF">      0.00010000</i>
   <i type="int" name="IALGO">    38</i>
   <i type="int" name="IWAVPR">    10</i>
   <i type="int" name="NBANDS">   634</i>
   <i name="NELECT">   1056.00000000</i>
   <i type="int" name="TURBO">     0</i>
   <i type="int" name="IRESTART">     0</i>
   <i type="int" name="NREBOOT">     0</i>
   <i type="int" name="NMIN">     0</i>
   <i name="EREF">      0.00000000</i>
   <separator name="electronic smearing" >
    <i type="int" name="ISMEAR">     0</i>
    <i name="SIGMA">      0.20000000</i>
    <i name="KSPACING">      0.50000000</i>
    <i type="logical" name="KGAMMA"> T  </i>
   </separator>
   <separator name="electronic projectors" >
    <i type="logical" name="LREAL"> T  </i>
    <v name="ROPT">     -0.00050000     -0.00050000</v>
    <i type="int" name="LMAXPAW">  -100</i>
    <i type="int" name="LMAXMIX">     2</i>
    <i type="logical" name="NLSPLINE"> F  </i>
   </separator>
   <separator name="electronic startup" >
    <i type="int" name="ISTART">     0</i>
    <i type="int" name="ICHARG">     2</i>
    <i type="int" name="INIWAV">     1</i>
   </separator>
   <separator name="electronic spin" >
    <i type="int" name="ISPIN">     1</i>
    <i type="logical" name="LNONCOLLINEAR"> F  </i>
    <v name="MAGMOM">      1.00000000      1.00000000      1.00000000      1.00000000      1.00000000      1.00000000      1.00000000      1.00000000      1.00000000      1.00000000      1.00000000      1.00000000      1.00000000      1.00000000      1.00000000      1.00000000      1.00000000      1.00000000      1.00000000      1.00000000
      1.00000000      1.00000000      1.00000000      1.00000000      1.00000000      1.00000000      1.00000000      1.00000000      1.00000000      1.00000000      1.00000000      1.00000000      1.00000000      1.00000000      1.00000000      1.00000000      1.00000000      1.00000000      1.00000000      1.00000000
      1.00000000      1.00000000      1.00000000      1.00000000      1.00000000      1.00000000      1.00000000      1.00000000      1.00000000      1.00000000      1.00000000      1.00000000      1.00000000      1.00000000      1.00000000      1.00000000      1.00000000      1.00000000      1.00000000      1.00000000
      1.00000000      1.00000000      1.00000000      1.00000000      1.00000000      1.00000000      1.00000000      1.00000000      1.00000000      1.00000000      1.00000000      1.00000000      1.00000000      1.00000000      1.00000000      1.00000000      1.00000000      1.00000000      1.00000000      1.00000000
      1.00000000      1.00000000      1.00000000      1.00000000      1.00000000      1.00000000      1.00000000      1.00000000      1.00000000      1.00000000      1.00000000      1.00000000      1.00000000      1.00000000      1.00000000      1.00000000</v>
    <i name="NUPDOWN">     -1.00000000</i>
    <i type="logical" name="LSORBIT"> F  </i>
    <v name="SAXIS">      0.00000000      0.00000000      1.00000000</v>
    <i type="logical" name="LSPIRAL"> F  </i>
    <v name="QSPIRAL">      0.00000000      0.00000000      0.00000000</v>
    <i type="logical" name="LZEROZ"> F  </i>
   </separator>
   <separator name="electronic exchange-correlation" >
    <i type="logical" name="LASPH"> F  </i>
    <i type="logical" name="LMETAGGA"> F  </i>
   </separator>
   <separator name="electronic convergence" >
    <i type="int" name="NELM">   100</i>
    <i type="int" name="NELMDL">    -5</i>
    <i type="int" name="NELMIN">     2</i>
    <i name="ENINI">    450.00000000</i>
    <separator name="electronic convergence detail" >
     <i type="logical" name="LDIAG"> T  </i>
     <i type="logical" name="LSUBROT"> F  </i>
     <i name="WEIMIN">      0.00000000</i>
     <i name="EBREAK">      0.00000004</i>
     <i name="DEPER">      0.30000000</i>
     <i type="int" name="NRMM">     4</i>
     <i name="TIME">      0.40000000</i>
    </separator>
   </separator>
   <separator name="electronic mixer" >
    <i name="AMIX">      0.40000000</i>
    <i name="BMIX">      1.00000000</i>
    <i name="AMIN">      0.10000000</i>
    <i name="AMIX_MAG">      1.60000000</i>
    <i name="BMIX_MAG">      1.00000000</i>
    <separator name="electronic mixer details" >
     <i type="int" name="IMIX">     4</i>
     <i type="logical" name="MIXFIRST"> F  </i>
     <i type="int" name="MAXMIX">   -45</i>
     <i name="WC">    100.00000000</i>
     <i type="int" name="INIMIX">     1</i>
     <i type="int" name="MIXPRE">     1</i>
     <i type="int" name="MREMOVE">     5</i>
    </separator>
   </separator>
   <separator name="electronic dipolcorrection" >
    <i type="logical" name="LDIPOL"> F  </i>
    <i type="logical" name="LMONO"> F  </i>
    <i type="int" name="IDIPOL">     0</i>
    <i name="EPSILON">      1.00000000</i>
    <v name="DIPOL">   -100.00000000   -100.00000000   -100.00000000</v>
    <i name="EFIELD">      0.00000000</i>
   </separator>
  </separator>
  <separator name="grids" >
   <i type="int" name="NGX">    60</i>
   <i type="int" name="NGY">    60</i>
   <i type="int" name="NGZ">   120</i>
   <i type="int" name="NGXF">   120</i>
   <i type="int" name="NGYF">   120</i>
   <i type="int" name="NGZF">   240</i>
   <i type="logical" name="ADDGRID"> F  </i>
  </separator>
  <separator name="ionic" >
   <i type="int" name="NSW">     0</i>
   <i type="int" name="IBRION">    -1</i>
   <i type="int" name="MDALGO">     0</i>
   <i type="int" name="ISIF">     2</i>
   <i name="PSTRESS">      0.00000000</i>
   <i name="EDIFFG">      0.00100000</i>
   <i type="int" name="NFREE">     0</i>
   <i name="POTIM">      0.50000000</i>
   <i name="SMASS">     -3.00000000</i>
   <i name="SCALEE">      1.00000000</i>
  </separator>
  <separator name="ionic md" >
   <i name="TEBEG">      0.00010000</i>
   <i name="TEEND">      0.00010000</i>
   <i type="int" name="NBLOCK">     1</i>
   <i type="int" name="KBLOCK">     1</i>
   <i type="int" name="NPACO">   256</i>
   <i name="APACO">     16.00000000</i>
  </separator>
  <separator name="symmetry" >
   <i type="int" name="ISYM">     2</i>
   <i name="SYMPREC">      0.00001000</i>
  </separator>
  <separator name="dos" >
   <i type="int" name="LORBIT">     0</i>
   <v name="RWIGS">     -1.00000000     -1.00000000</v>
   <i type="int" name="NEDOS">   301</i>
   <i name="EMIN">     10.00000000</i>
   <i name="EMAX">    -10.00000000</i>
   <i name="EFERMI">      0.00000000</i>
  </separator>
  <separator name="writing" >
   <i type="int" name="NWRITE">     2</i>
   <i type="logical" name="LWAVE"> F  </i>
   <i type="logical" name="LDOWNSAMPLE"> F  </i>
   <i type="logical" name="LCHARG"> F  </i>
   <i type="logical" name="LPARD"> F  </i>
   <i type="logical" name="LVTOT"> F  </i>
   <i type="logical" name="LVHAR"> F  </i>
   <i type="logical" name="LELF"> F  </i>
   <i type="logical" name="LOPTICS"> F  </i>
   <v name="STM">      0.00000000      0.00000000      0.00000000      0.00000000      0.00000000      0.00000000      0.00000000</v>
  </separator>
  <separator name="performance" >
   <i type="int" name="NPAR">     2</i>
   <i type="int" name="NSIM">     4</i>
   <i type="int" name="NBLK">    -1</i>
   <i type="logical" name="LPLANE"> T  </i>
   <i type="logical" name="LSCALAPACK"> T  </i>
   <i type="logical" name="LSCAAWARE"> F  </i>
   <i type="logical" name="LSCALU"> F  </i>
   <i type="logical" name="LASYNC"> F  </i>
   <i type="logical" name="LORBITALREAL"> F  </i>
  </separator>
  <separator name="miscellaneous" >
   <i type="int" name="IDIOT">     3</i>
   <i type="int" name="ISPECIAL">     0</i>
   <i type="logical" name="LMUSIC"> F  </i>
   <v name="POMASS">     58.69000000     32.06600000</v>
   <v name="DARWINR">      0.00000000      0.00000000</v>
   <v name="DARWINV">      1.00000000      1.00000000</v>
   <i type="logical" name="LCORR"> T  </i>
  </separator>
  <i type="logical" name="GGA_COMPAT"> T  </i>
  <i type="logical" name="LBERRY"> F  </i>
  <i type="int" name="ICORELEVEL">     0</i>
  <i type="logical" name="LDAU"> F  </i>
  <i type="int" name="I_CONSTRAINED_M">     0</i>
  <separator name="electronic exchange-correlation" >
   <i type="string" name="GGA">--</i>
   <i type="int" name="VOSKOWN">     0</i>
   <i type="logical" name="LHFCALC"> F  </i>
   <i type="string" name="PRECFOCK"></i>
   <i type="logical" name="LSYMGRAD"> F  </i>
   <i type="logical" name="LHFONE"> F  </i>
   <i type="logical" name="LRHFCALC"> F  </i>
   <i type="logical" name="LTHOMAS"> F  </i>
   <i type="logical" name="LMODELHF"> F  </i>
   <i name="ENCUT4O">     -1.00000000</i>
   <i type="int" name="EXXOEP">     0</i>
   <i type="int" name="FOURORBIT">     0</i>
   <i name="AEXX">      0.00000000</i>
   <i name="HFALPHA">      0.00000000</i>
   <i name="MCALPHA">      0.00000000</i>
   <i name="ALDAX">      1.00000000</i>
   <i name="AGGAX">      1.00000000</i>
   <i name="ALDAC">      1.00000000</i>
   <i name="AGGAC">      1.00000000</i>
   <i type="int" name="NKREDX">     1</i>
   <i type="int" name="NKREDY">     1</i>
   <i type="int" name="NKREDZ">     1</i>
   <i type="logical" name="SHIFTRED"> F  </i>
   <i type="logical" name="ODDONLY"> F  </i>
   <i type="logical" name="EVENONLY"> F  </i>
   <i type="int" name="LMAXFOCK">     0</i>
   <i type="int" name="NMAXFOCKAE">     0</i>
   <i type="logical" name="LFOCKAEDFT"> F  </i>
   <i name="HFSCREEN">      0.00000000</i>
   <i name="HFSCREENC">      0.00000000</i>
   <i type="int" name="NBANDSGWLOW">     0</i>
  </separator>
  <separator name="vdW DFT" >
   <i type="logical" name="LUSE_VDW"> F  </i>
   <i name="Zab_VDW">     -0.84910000</i>
   <i name="PARAM1">      0.12340000</i>
   <i name="PARAM2">      1.00000000</i>
   <i name="PARAM3">      0.00000000</i>
  </separator>
  <separator name="model GW" >
   <i type="int" name="MODEL_GW">     0</i>
   <i name="MODEL_EPS0">     15.39379702</i>
   <i name="MODEL_ALPHA">      1.00000000</i>
  </separator>
  <separator name="linear response parameters" >
   <i type="logical" name="LEPSILON"> F  </i>
   <i type="logical" name="LRPA"> F  </i>
   <i type="logical" name="LNABLA"> F  </i>
   <i type="logical" name="LVEL"> F  </i>
   <i type="int" name="KINTER">     0</i>
   <i name="CSHIFT">      0.10000000</i>
   <i name="OMEGAMAX">     -1.00000000</i>
   <i name="DEG_THRESHOLD">      0.00200000</i>
   <i name="RTIME">     -0.10000000</i>
   <i name="WPLASMAI">      0.00000000</i>
   <v name="DFIELD">      0.00000000      0.00000000      0.00000000</v>
   <v name="WPLASMA">      0.00000000      0.00000000      0.00000000      0.00000000      0.00000000      0.00000000      0.00000000      0.00000000      0.00000000</v>
  </separator>
  <separator name="orbital magnetization" >
   <i type="logical" name="NUCIND"> F  </i>
   <v name="MAGPOS">      0.00000000      0.00000000      0.00000000</v>
   <i type="logical" name="LNICSALL"> T  </i>
   <i type="logical" name="ORBITALMAG"> F  </i>
   <i type="logical" name="LMAGBLOCH"> F  </i>
   <i type="logical" name="LCHIMAG"> F  </i>
   <i type="logical" name="LGAUGE"> T  </i>
   <i type="int" name="MAGATOM">     0</i>
   <v name="MAGDIPOL">      0.00000000      0.00000000      0.00000000</v>
   <v name="AVECCONST">      0.00000000      0.00000000      0.00000000</v>
  </separator>
  <separator name="response functions" >
   <i type="logical" name="LADDER"> F  </i>
   <i type="logical" name="LRPAFORCE"> F  </i>
   <i type="logical" name="LFXC"> F  </i>
   <i type="logical" name="LHARTREE"> T  </i>
   <i type="int" name="IBSE">     0</i>
   <v type="int" name="KPOINT">    -1     0     0     0</v>
   <i type="logical" name="LTCTE"> F  </i>
   <i type="logical" name="LTETE"> F  </i>
   <i type="logical" name="LTRIPLET"> F  </i>
   <i type="logical" name="LFXCEPS"> F  </i>
   <i type="logical" name="LFXHEG"> F  </i>
   <i type="int" name="NATURALO">     2</i>
   <i type="logical" name="L2ORDER"> F  </i>
   <i type="logical" name="LMP2LT"> F  </i>
   <i type="logical" name="LUSEW"> F  </i>
   <i name="ENCUTGW">     -2.00000000</i>
   <i name="ENCUTGWSOFT">     -2.00000000</i>
   <i name="ENCUTLF">     -1.00000000</i>
   <i type="int" name="LMAXMP2">    -1</i>
   <i name="SCISSOR">      0.00000000</i>
   <i type="int" name="NOMEGA">     0</i>
   <i type="int" name="NOMEGAR">     0</i>
   <i type="int" name="NBANDSGW">    -1</i>
   <i type="int" name="NBANDSO">    -1</i>
   <i type="int" name="NBANDSV">    -1</i>
   <i type="int" name="NELM">   100</i>
   <i type="int" name="NELMHF">     1</i>
   <i type="int" name="DIM">     3</i>
   <i type="int" name="ANTIRES">     0</i>
   <i name="OMEGAMAX">    -30.00000000</i>
   <i name="OMEGAMIN">    -30.00000000</i>
   <i name="OMEGATL">   -200.00000000</i>
   <i type="int" name="OMEGAGRID">   140</i>
   <i name="CSHIFT">     -0.10000000</i>
   <i type="logical" name="SELFENERGY"> F  </i>
   <i type="logical" name="LSPECTRAL"> F  </i>
   <i type="logical" name="LSPECTRALGW"> F  </i>
   <i type="logical" name="LSINGLES"> F  </i>
   <i type="logical" name="LFERMIGW"> F  </i>
   <i type="logical" name="ODDONLYGW"> F  </i>
   <i type="logical" name="EVENONLYGW"> F  </i>
   <i type="int" name="NKREDLFX">     1</i>
   <i type="int" name="NKREDLFY">     1</i>
   <i type="int" name="NKREDLFZ">     1</i>
   <i type="int" name="MAXMEM">  2800</i>
   <i type="int" name="TELESCOPE">     0</i>
   <i type="int" name="TAUPAR">     1</i>
   <i type="int" name="OMEGAPAR">    -1</i>
   <i name="LAMBDA">      1.00000000</i>
  </separator>
  <separator name="External order field" >
   <i name="OFIELD_KAPPA">      0.00000000</i>
   <v name="OFIELD_K">      0.00000000      0.00000000      0.00000000</v>
   <i name="OFIELD_Q6_NEAR">      0.00000000</i>
   <i name="OFIELD_Q6_FAR">      0.00000000</i>
   <i name="OFIELD_A">      0.00000000</i>
  </separator>
 </parameters>
 <atominfo>
  <atoms>      96 </atoms>
  <types>       2 </types>
  <array name="atoms" >
   <dimension dim="1">ion</dimension>
   <field type="string">element</field>
   <field type="int">atomtype</field>
   <set>
    <rc><c>Ni</c><c>   1</c></rc>
    <rc><c>Ni</c><c>   1</c></rc>
    <rc><c>Ni</c><c>   1</c></rc>
    <rc><c>Ni</c><c>   1</c></rc>
    <rc><c>Ni</c><c>   1</c></rc>
    <rc><c>Ni</c><c>   1</c></rc>
    <rc><c>Ni</c><c>   1</c></rc>
    <rc><c>Ni</c><c>   1</c></rc>
    <rc><c>Ni</c><c>   1</c></rc>
    <rc><c>Ni</c><c>   1</c></rc>
    <rc><c>Ni</c><c>   1</c></rc>
    <rc><c>Ni</c><c>   1</c></rc>
    <rc><c>Ni</c><c>   1</c></rc>
    <rc><c>Ni</c><c>   1</c></rc>
    <rc><c>Ni</c><c>   1</c></rc>
    <rc><c>Ni</c><c>   1</c></rc>
    <rc><c>Ni</c><c>   1</c></rc>
    <rc><c>Ni</c><c>   1</c></rc>
    <rc><c>Ni</c><c>   1</c></rc>
    <rc><c>Ni</c><c>   1</c></rc>
    <rc><c>Ni</c><c>   1</c></rc>
    <rc><c>Ni</c><c>   1</c></rc>
    <rc><c>Ni</c><c>   1</c></rc>
    <rc><c>Ni</c><c>   1</c></rc>
    <rc><c>Ni</c><c>   1</c></rc>
    <rc><c>Ni</c><c>   1</c></rc>
    <rc><c>Ni</c><c>   1</c></rc>
    <rc><c>Ni</c><c>   1</c></rc>
    <rc><c>Ni</c><c>   1</c></rc>
    <rc><c>Ni</c><c>   1</c></rc>
    <rc><c>Ni</c><c>   1</c></rc>
    <rc><c>Ni</c><c>   1</c></rc>
    <rc><c>Ni</c><c>   1</c></rc>
    <rc><c>Ni</c><c>   1</c></rc>
    <rc><c>Ni</c><c>   1</c></rc>
    <rc><c>Ni</c><c>   1</c></rc>
    <rc><c>Ni</c><c>   1</c></rc>
    <rc><c>Ni</c><c>   1</c></rc>
    <rc><c>Ni</c><c>   1</c></rc>
    <rc><c>Ni</c><c>   1</c></rc>
    <rc><c>Ni</c><c>   1</c></rc>
    <rc><c>Ni</c><c>   1</c></rc>
    <rc><c>Ni</c><c>   1</c></rc>
    <rc><c>Ni</c><c>   1</c></rc>
    <rc><c>Ni</c><c>   1</c></rc>
    <rc><c>Ni</c><c>   1</c></rc>
    <rc><c>Ni</c><c>   1</c></rc>
    <rc><c>Ni</c><c>   1</c></rc>
    <rc><c>S </c><c>   2</c></rc>
    <rc><c>S </c><c>   2</c></rc>
    <rc><c>S </c><c>   2</c></rc>
    <rc><c>S </c><c>   2</c></rc>
    <rc><c>S </c><c>   2</c></rc>
    <rc><c>S </c><c>   2</c></rc>
    <rc><c>S </c><c>   2</c></rc>
    <rc><c>S </c><c>   2</c></rc>
    <rc><c>S </c><c>   2</c></rc>
    <rc><c>S </c><c>   2</c></rc>
    <rc><c>S </c><c>   2</c></rc>
    <rc><c>S </c><c>   2</c></rc>
    <rc><c>S </c><c>   2</c></rc>
    <rc><c>S </c><c>   2</c></rc>
    <rc><c>S </c><c>   2</c></rc>
    <rc><c>S </c><c>   2</c></rc>
    <rc><c>S </c><c>   2</c></rc>
    <rc><c>S </c><c>   2</c></rc>
    <rc><c>S </c><c>   2</c></rc>
    <rc><c>S </c><c>   2</c></rc>
    <rc><c>S </c><c>   2</c></rc>
    <rc><c>S </c><c>   2</c></rc>
    <rc><c>S </c><c>   2</c></rc>
    <rc><c>S </c><c>   2</c></rc>
    <rc><c>S </c><c>   2</c></rc>
    <rc><c>S </c><c>   2</c></rc>
    <rc><c>S </c><c>   2</c></rc>
    <rc><c>S </c><c>   2</c></rc>
    <rc><c>S </c><c>   2</c></rc>
    <rc><c>S </c><c>   2</c></rc>
    <rc><c>S </c><c>   2</c></rc>
    <rc><c>S </c><c>   2</c></rc>
    <rc><c>S </c><c>   2</c></rc>
    <rc><c>S </c><c>   2</c></rc>
    <rc><c>S </c><c>   2</c></rc>
    <rc><c>S </c><c>   2</c></rc>
    <rc><c>S </c><c>   2</c></rc>
    <rc><c>S </c><c>   2</c></rc>
    <rc><c>S </c><c>   2</c></rc>
    <rc><c>S </c><c>   2</c></rc>
    <rc><c>S </c><c>   2</c></rc>
    <rc><c>S </c><c>   2</c></rc>
    <rc><c>S </c><c>   2</c></rc>
    <rc><c>S </c><c>   2</c></rc>
    <rc><c>S </c><c>   2</c></rc>
    <rc><c>S </c><c>   2</c></rc>
    <rc><c>S </c><c>   2</c></rc>
    <rc><c>S </c><c>   2</c></rc>
   </set>
  </array>
  <array name="atomtypes" >
   <dimension dim="1">type</dimension>
   <field type="int">atomspertype</field>
   <field type="string">element</field>
   <field>mass</field>
   <field>valence</field>
   <field type="string">pseudopotential</field>
   <set>
    <rc><c>  48</c><c>Ni</c><c>     58.69000000</c><c>     16.00000000</c><c>  PAW_PBE Ni_pv 06Sep2000               </c></rc>
    <rc><c>  48</c><c>S </c><c>     32.06600000</c><c>      6.00000000</c><c>  PAW_PBE S 06Sep2000                   </c></rc>
   </set>
  </array>
 </atominfo>
 <structure name="initialpos" >
  <crystal>
   <varray name="basis" >
    <v>      11.25646304       0.00000000       0.00000000 </v>
    <v>       5.04456212      10.06282034       0.00000000 </v>
    <v>       0.00000000       0.00000000      21.74423184 </v>
   </varray>
   <i name="volume">   2463.00752351 </i>
   <varray name="rec_basis" >
    <v>       0.08883785      -0.04453504       0.00000000 </v>
    <v>       0.00000000       0.09937572       0.00000000 </v>
    <v>       0.00000000       0.00000000       0.04598921 </v>
   </varray>
  </crystal>
  <varray name="positions" >
   <v>       0.26092070       0.47878036       0.25332799 </v>
   <v>       0.35488056       0.38482049       0.38835497 </v>
   <v>       0.37402200       0.36610408       0.49727065 </v>
   <v>       0.16093289       0.07873709       0.14935617 </v>
   <v>       0.05097355       0.05051842       0.47267822 </v>
   <v>       0.28484372       0.33144741       0.09935239 </v>
   <v>       0.36819893       0.23939913       0.21765305 </v>
   <v>       0.46215880       0.14543926       0.35268003 </v>
   <v>       0.00030194       0.37150212       0.21765305 </v>
   <v>       0.09426181       0.27754226       0.35268003 </v>
   <v>       0.18918343       0.18872511       0.47267991 </v>
   <v>       0.40634206       0.46546199       0.08262607 </v>
   <v>       0.76092070       0.47878036       0.25332799 </v>
   <v>       0.85488056       0.38482049       0.38835497 </v>
   <v>       0.95412076       0.28558028       0.50507481 </v>
   <v>       0.66696083       0.07274024       0.11830101 </v>
   <v>       0.54913715       0.05414984       0.47245657 </v>
   <v>       0.77423906       0.33335899       0.08262607 </v>
   <v>       0.86819893       0.23939913       0.21765305 </v>
   <v>       0.96215880       0.14543926       0.35268003 </v>
   <v>       0.50030194       0.37150212       0.21765305 </v>
   <v>       0.59426181       0.27754226       0.35268003 </v>
   <v>       0.68491012       0.19025034       0.47256892 </v>
   <v>       0.98299681       0.44351134       0.11356023 </v>
   <v>       0.26092070       0.97878036       0.25332799 </v>
   <v>       0.35488056       0.88482049       0.38835497 </v>
   <v>       0.36863286       0.87106839       0.49659109 </v>
   <v>       0.16696083       0.57274024       0.11830101 </v>
   <v>       0.04945346       0.55479330       0.47257270 </v>
   <v>       0.29105314       0.79611052       0.10630943 </v>
   <v>       0.36819893       0.73939913       0.21765305 </v>
   <v>       0.46215880       0.64543926       0.35268003 </v>
   <v>       0.00030194       0.87150212       0.21765305 </v>
   <v>       0.09426181       0.77754226       0.35268003 </v>
   <v>       0.18555260       0.69056374       0.47245685 </v>
   <v>       0.43103925       0.94980594       0.10463479 </v>
   <v>       0.76092070       0.97878036       0.25332799 </v>
   <v>       0.85488056       0.88482049       0.38835497 </v>
   <v>       0.87359841       0.86567782       0.49727119 </v>
   <v>       0.68408998       0.55129103       0.13074748 </v>
   <v>       0.54121436       0.55418346       0.46614478 </v>
   <v>       0.78046502       0.83112915       0.10026029 </v>
   <v>       0.86819893       0.73939913       0.21765305 </v>
   <v>       0.96215880       0.64543926       0.35268003 </v>
   <v>       0.50030194       0.87150212       0.21765305 </v>
   <v>       0.59426181       0.77754226       0.35268003 </v>
   <v>       0.68551560       0.69848600       0.46614672 </v>
   <v>       0.90872874       0.96036126       0.10031257 </v>
   <v>       0.07287763       0.16682343       0.27005396 </v>
   <v>       0.16683750       0.07286357       0.40508094 </v>
   <v>       0.37230905       0.35191910       0.02145185 </v>
   <v>       0.47891775       0.26078330       0.13502698 </v>
   <v>       0.21049834       0.52955762       0.52691953 </v>
   <v>       0.03023343       0.37768264       0.45050807 </v>
   <v>       0.43627354       0.47164251       0.31548109 </v>
   <v>       0.34231368       0.06560239       0.18045411 </v>
   <v>       0.11314720       0.46945221       0.05582489 </v>
   <v>       0.17409868       0.39738738       0.18045411 </v>
   <v>       0.26805855       0.30342751       0.31548109 </v>
   <v>       0.36201842       0.20946765       0.45050807 </v>
   <v>       0.57287763       0.16682343       0.27005396 </v>
   <v>       0.66683750       0.07286357       0.40508094 </v>
   <v>       0.81939478       0.48404879       0.05856999 </v>
   <v>       0.97891775       0.26078330       0.13502698 </v>
   <v>       0.53023343       0.37768264       0.45050807 </v>
   <v>       0.93627354       0.47164251       0.31548109 </v>
   <v>       0.77107688       0.15240611       0.06755272 </v>
   <v>       0.84231368       0.06560239       0.18045411 </v>
   <v>       0.58250041       0.48019074       0.06845855 </v>
   <v>       0.67409868       0.39738738       0.18045411 </v>
   <v>       0.76805855       0.30342751       0.31548109 </v>
   <v>       0.86201842       0.20946765       0.45050807 </v>
   <v>       0.07287764       0.66682343       0.27005396 </v>
   <v>       0.16683750       0.57286357       0.40508094 </v>
   <v>       0.25036627       0.97981288       0.06947063 </v>
   <v>       0.47891775       0.76078330       0.13502698 </v>
   <v>       0.20651092       0.03318745       0.52942276 </v>
   <v>       0.03023342       0.87768264       0.45050807 </v>
   <v>       0.43627354       0.97164251       0.31548109 </v>
   <v>       0.25908246       0.65155508       0.06046149 </v>
   <v>       0.34231368       0.56560239       0.18045411 </v>
   <v>       0.17409868       0.89738738       0.18045411 </v>
   <v>       0.26805855       0.80342751       0.31548109 </v>
   <v>       0.36201842       0.70946764       0.45050807 </v>
   <v>       0.57287764       0.66682343       0.27005396 </v>
   <v>       0.66683750       0.57286357       0.40508094 </v>
   <v>       0.84614914       0.89461782       0.02709618 </v>
   <v>       0.97891775       0.76078330       0.13502698 </v>
   <v>       0.71014540       0.02920573       0.52691757 </v>
   <v>       0.53023342       0.87768264       0.45050807 </v>
   <v>       0.93627354       0.97164251       0.31548109 </v>
   <v>       0.84231368       0.56560239       0.18045411 </v>
   <v>       0.59159333       0.96821149       0.06641722 </v>
   <v>       0.67409868       0.89738738       0.18045411 </v>
   <v>       0.76805855       0.80342751       0.31548109 </v>
   <v>       0.86201842       0.70946764       0.45050807 </v>
  </varray>
 </structure>
 <calculation>
  <scstep>
   <time name="dav">   13.71   13.72</time>
   <time name="total">   14.11   14.12</time>
   <energy>
    <i name="alphaZ">   2684.99175279 </i>
    <i name="ewald"> 298260.44844986 </i>
    <i name="hartreedc">-461869.71466117 </i>
    <i name="XCdc">   4903.64293936 </i>
    <i name="pawpsdc"> 150306.04444553 </i>
    <i name="pawaedc">-156855.34918313 </i>
    <i name="eentropy">     -0.44361441 </i>
    <i name="bandstr">  -5207.11820619 </i>
    <i name="atom"> 181336.80673834 </i>
    <i name="e_fr_energy">  13559.30866100 </i>
    <i name="e_wo_entrp">  13559.75227541 </i>
    <i name="e_0_energy">  13559.53046820 </i>
   </energy>
  </scstep>
  <scstep>
   <time name="dav">   12.08   12.08</time>
   <time name="total">   12.08   12.08</time>
   <energy>
    <i name="e_fr_energy">    901.58769496 </i>
    <i name="e_wo_entrp">    902.52224817 </i>
    <i name="e_0_energy">    902.05497156 </i>
   </energy>
  </scstep>
  <scstep>
   <time name="dav">   12.90   12.91</time>
   <time name="total">   12.90   12.91</time>
   <energy>
    <i name="e_fr_energy">   -449.35461580 </i>
    <i name="e_wo_entrp">   -448.11691281 </i>
    <i name="e_0_energy">   -448.73576430 </i>
   </energy>
  </scstep>
  <scstep>
   <time name="dav">   13.29   13.29</time>
   <time name="total">   13.29   13.30</time>
   <energy>
    <i name="e_fr_energy">   -537.39755874 </i>
    <i name="e_wo_entrp">   -536.04057152 </i>
    <i name="e_0_energy">   -536.71906513 </i>
   </energy>
  </scstep>
  <scstep>
   <time name="dav">   14.24   14.24</time>
   <time name="total">   14.66   14.66</time>
   <energy>
    <i name="e_fr_energy">   -540.54692630 </i>
    <i name="e_wo_entrp">   -539.18529228 </i>
    <i name="e_0_energy">   -539.86610929 </i>
   </energy>
  </scstep>
  <scstep>
   <time name="dav">   13.89   13.89</time>
   <time name="total">   14.68   14.69</time>
   <energy>
    <i name="e_fr_energy">   -633.52315772 </i>
    <i name="e_wo_entrp">   -632.42017651 </i>
    <i name="e_0_energy">   -632.97166712 </i>
   </energy>
  </scstep>
  <scstep>
   <time name="dav">   12.93   12.93</time>
   <time name="total">   13.89   13.90</time>
   <energy>
    <i name="e_fr_energy">   -494.51607248 </i>
    <i name="e_wo_entrp">   -493.49509267 </i>
    <i name="e_0_energy">   -494.00558258 </i>
   </energy>
  </scstep>
  <scstep>
   <time name="dav">   14.38   14.38</time>
   <time name="total">   15.17   15.18</time>
   <energy>
    <i name="e_fr_energy">   -577.18250637 </i>
    <i name="e_wo_entrp">   -576.21705724 </i>
    <i name="e_0_energy">   -576.69978181 </i>
   </energy>
  </scstep>
  <scstep>
   <time name="dav">   14.43   14.44</time>
   <time name="total">   15.31   15.32</time>
   <energy>
    <i name="e_fr_energy">   -515.38632769 </i>
    <i name="e_wo_entrp">   -514.11704574 </i>
    <i name="e_0_energy">   -514.75168671 </i>
   </energy>
  </scstep>
  <scstep>
   <time name="dav">   15.52   15.52</time>
   <time name="total">   16.30   16.31</time>
   <energy>
    <i name="e_fr_energy">   -527.48588665 </i>
    <i name="e_wo_entrp">   -526.10035611 </i>
    <i name="e_0_energy">   -526.79312138 </i>
   </energy>
  </scstep>
  <scstep>
   <time name="dav">   14.98   14.99</time>
   <time name="total">   15.77   15.77</time>
   <energy>
    <i name="e_fr_energy">   -515.96650885 </i>
    <i name="e_wo_entrp">   -514.88377876 </i>
    <i name="e_0_energy">   -515.42514381 </i>
   </energy>
  </scstep>
  <scstep>
   <time name="dav">   14.53   14.54</time>
   <time name="total">   15.32   15.33</time>
   <energy>
    <i name="e_fr_energy">   -492.31678512 </i>
    <i name="e_wo_entrp">   -491.25082929 </i>
    <i name="e_0_energy">   -491.78380720 </i>
   </energy>
  </scstep>
  <scstep>
   <time name="dav">   14.78   14.78</time>
   <time name="total">   15.57   15.57</time>
   <energy>
    <i name="e_fr_energy">   -483.64032225 </i>
    <i name="e_wo_entrp">   -482.51922771 </i>
    <i name="e_0_energy">   -483.07977498 </i>
   </energy>
  </scstep>
  <scstep>
   <time name="dav">   14.92   14.93</time>
   <time name="total">   15.71   15.71</time>
   <energy>
    <i name="e_fr_energy">   -479.70935018 </i>
    <i name="e_wo_entrp">   -478.70860897 </i>
    <i name="e_0_energy">   -479.20897958 </i>
   </energy>
  </scstep>
  <scstep>
   <time name="dav">   14.74   14.74</time>
   <time name="total">   15.79   15.79</time>
   <energy>
    <i name="e_fr_energy">   -477.92799440 </i>
    <i name="e_wo_entrp">   -476.93216868 </i>
    <i name="e_0_energy">   -477.43008154 </i>
   </energy>
  </scstep>
  <scstep>
   <time name="dav">   14.06   14.06</time>
   <time name="total">   14.85   14.86</time>
   <energy>
    <i name="e_fr_energy">   -477.15106972 </i>
    <i name="e_wo_entrp">   -476.13701656 </i>
    <i name="e_0_energy">   -476.64404314 </i>
   </energy>
  </scstep>
  <scstep>
   <time name="dav">   14.87   14.88</time>
   <time name="total">   15.67   15.67</time>
   <energy>
    <i name="e_fr_energy">   -476.61171074 </i>
    <i name="e_wo_entrp">   -475.59391624 </i>
    <i name="e_0_energy">   -476.10281349 </i>
   </energy>
  </scstep>
  <scstep>
   <time name="dav">   13.87   13.88</time>
   <time name="total">   14.67   14.67</time>
   <energy>
    <i name="e_fr_energy">   -476.34943162 </i>
    <i name="e_wo_entrp">   -475.29531811 </i>
    <i name="e_0_energy">   -475.82237487 </i>
   </energy>
  </scstep>
  <scstep>
   <time name="dav">   15.00   15.01</time>
   <time name="total">   15.81   15.81</time>
   <energy>
    <i name="e_fr_energy">   -475.56859306 </i>
    <i name="e_wo_entrp">   -474.52017848 </i>
    <i name="e_0_energy">   -475.04438577 </i>
   </energy>
  </scstep>
  <scstep>
   <time name="dav">   15.67   15.67</time>
   <time name="total">   16.47   16.48</time>
   <energy>
    <i name="e_fr_energy">   -474.78974715 </i>
    <i name="e_wo_entrp">   -473.71587776 </i>
    <i name="e_0_energy">   -474.25281245 </i>
   </energy>
  </scstep>
  <scstep>
   <time name="dav">   14.74   14.74</time>
   <time name="total">   15.60   15.60</time>
   <energy>
    <i name="e_fr_energy">   -474.34905223 </i>
    <i name="e_wo_entrp">   -473.25003523 </i>
    <i name="e_0_energy">   -473.79954373 </i>
   </energy>
  </scstep>
  <scstep>
   <time name="dav">   14.20   14.20</time>
   <time name="total">   15.01   15.01</time>
   <energy>
    <i name="e_fr_energy">   -474.30476034 </i>
    <i name="e_wo_entrp">   -473.20087764 </i>
    <i name="e_0_energy">   -473.75281899 </i>
   </energy>
  </scstep>
  <scstep>
   <time name="dav">   14.95   14.95</time>
   <time name="total">   15.83   15.83</time>
   <energy>
    <i name="e_fr_energy">   -474.27551845 </i>
    <i name="e_wo_entrp">   -473.14758657 </i>
    <i name="e_0_energy">   -473.71155251 </i>
   </energy>
  </scstep>
  <scstep>
   <time name="dav">   14.11   14.11</time>
   <time name="total">   14.92   14.92</time>
   <energy>
    <i name="e_fr_energy">   -474.30156616 </i>
    <i name="e_wo_entrp">   -473.19139362 </i>
    <i name="e_0_energy">   -473.74647989 </i>
   </energy>
  </scstep>
  <scstep>
   <time name="dav">   13.83   13.83</time>
   <time name="total">   14.64   14.64</time>
   <energy>
    <i name="e_fr_energy">   -474.25810263 </i>
    <i name="e_wo_entrp">   -473.14143778 </i>
    <i name="e_0_energy">   -473.69977020 </i>
   </energy>
  </scstep>
  <scstep>
   <time name="dav">   14.72   14.72</time>
   <time name="total">   15.77   15.78</time>
   <energy>
    <i name="e_fr_energy">   -474.27050369 </i>
    <i name="e_wo_entrp">   -473.15016996 </i>
    <i name="e_0_energy">   -473.71033682 </i>
   </energy>
  </scstep>
  <scstep>
   <time name="dav">   13.26   13.26</time>
   <time name="total">   14.13   14.13</time>
   <energy>
    <i name="e_fr_energy">   -474.24485321 </i>
    <i name="e_wo_entrp">   -473.13208665 </i>
    <i name="e_0_energy">   -473.68846993 </i>
   </energy>
  </scstep>
  <scstep>
   <time name="dav">   14.94   14.94</time>
   <time name="total">   15.76   15.76</time>
   <energy>
    <i name="e_fr_energy">   -474.24515479 </i>
    <i name="e_wo_entrp">   -473.13105636 </i>
    <i name="e_0_energy">   -473.68810558 </i>
   </energy>
  </scstep>
  <scstep>
   <time name="dav">   14.69   14.70</time>
   <time name="total">   15.52   15.52</time>
   <energy>
    <i name="e_fr_energy">   -474.24419655 </i>
    <i name="e_wo_entrp">   -473.13005392 </i>
    <i name="e_0_energy">   -473.68712524 </i>
   </energy>
  </scstep>
  <scstep>
   <time name="dav">   14.21   14.21</time>
   <time name="total">   15.24   15.25</time>
   <energy>
    <i name="e_fr_energy">   -474.24344222 </i>
    <i name="e_wo_entrp">   -473.13110088 </i>
    <i name="e_0_energy">   -473.68727155 </i>
   </energy>
  </scstep>
  <scstep>
   <time name="dav">   14.51   14.52</time>
   <time name="total">   15.60   15.61</time>
   <energy>
    <i name="e_fr_energy">   -474.24325699 </i>
    <i name="e_wo_entrp">   -473.13001016 </i>
    <i name="e_0_energy">   -473.68663358 </i>
   </energy>
  </scstep>
  <scstep>
   <time name="dav">   13.90   13.91</time>
   <time name="total">   14.74   14.74</time>
   <energy>
    <i name="e_fr_energy">   -474.24300346 </i>
    <i name="e_wo_entrp">   -473.13154165 </i>
    <i name="e_0_energy">   -473.68727256 </i>
   </energy>
  </scstep>
  <scstep>
   <time name="dav">   11.38   11.39</time>
   <time name="total">   12.46   12.46</time>
   <energy>
    <i name="e_fr_energy">   -474.24341088 </i>
    <i name="e_wo_entrp">   -473.13224973 </i>
    <i name="e_0_energy">   -473.68783030 </i>
   </energy>
  </scstep>
  <scstep>
   <time name="dav">    9.20    9.20</time>
   <time name="total">   10.07   10.07</time>
   <energy>
    <i name="e_fr_energy">   -474.24355084 </i>
    <i name="e_wo_entrp">   -473.13211926 </i>
    <i name="e_0_energy">   -473.68783505 </i>
   </energy>
  </scstep>
  <scstep>
   <time name="dav">    8.12    8.12</time>
   <time name="total">    9.05    9.05</time>
   <energy>
    <i name="e_fr_energy">   -474.24382155 </i>
    <i name="e_wo_entrp">   -473.13254005 </i>
    <i name="e_0_energy">   -473.68818080 </i>
   </energy>
  </scstep>
  <scstep>
   <time name="dav">    8.57    8.57</time>
   <time name="total">    9.40    9.40</time>
   <energy>
    <i name="e_fr_energy">   -474.24416214 </i>
    <i name="e_wo_entrp">   -473.13285580 </i>
    <i name="e_0_energy">   -473.68850897 </i>
   </energy>
  </scstep>
  <scstep>
   <time name="dav">    8.39    8.39</time>
   <time name="total">    9.47    9.47</time>
   <energy>
    <i name="e_fr_energy">   -474.24460117 </i>
    <i name="e_wo_entrp">   -473.13346009 </i>
    <i name="e_0_energy">   -473.68903063 </i>
   </energy>
  </scstep>
  <scstep>
   <time name="dav">    8.76    8.76</time>
   <time name="total">    9.61    9.61</time>
   <energy>
    <i name="e_fr_energy">   -474.24509306 </i>
    <i name="e_wo_entrp">   -473.13400623 </i>
    <i name="e_0_energy">   -473.68954965 </i>
   </energy>
  </scstep>
  <scstep>
   <time name="dav">    8.35    8.35</time>
   <time name="total">    9.20    9.20</time>
   <energy>
    <i name="e_fr_energy">   -474.24549496 </i>
    <i name="e_wo_entrp">   -473.13440320 </i>
    <i name="e_0_energy">   -473.68994908 </i>
   </energy>
  </scstep>
  <scstep>
   <time name="dav">    8.67    8.68</time>
   <time name="total">    9.53    9.54</time>
   <energy>
    <i name="e_fr_energy">   -474.24584506 </i>
    <i name="e_wo_entrp">   -473.13468466 </i>
    <i name="e_0_energy">   -473.69026486 </i>
   </energy>
  </scstep>
  <scstep>
   <time name="dav">    8.16    8.16</time>
   <time name="total">    9.02    9.03</time>
   <energy>
    <i name="e_fr_energy">   -474.24611166 </i>
    <i name="e_wo_entrp">   -473.13487718 </i>
    <i name="e_0_energy">   -473.69049442 </i>
   </energy>
  </scstep>
  <scstep>
   <time name="dav">    8.20    8.20</time>
   <time name="total">    9.19    9.20</time>
   <energy>
    <i name="e_fr_energy">   -474.24634831 </i>
    <i name="e_wo_entrp">   -473.13504689 </i>
    <i name="e_0_energy">   -473.69069760 </i>
   </energy>
  </scstep>
  <scstep>
   <time name="dav">    8.34    8.34</time>
   <time name="total">    9.22    9.22</time>
   <energy>
    <i name="e_fr_energy">   -474.24652025 </i>
    <i name="e_wo_entrp">   -473.13527639 </i>
    <i name="e_0_energy">   -473.69089832 </i>
   </energy>
  </scstep>
  <scstep>
   <time name="dav">    8.30    8.31</time>
   <time name="total">    9.45    9.45</time>
   <energy>
    <i name="e_fr_energy">   -474.24672078 </i>
    <i name="e_wo_entrp">   -473.13549778 </i>
    <i name="e_0_energy">   -473.69110928 </i>
   </energy>
  </scstep>
  <scstep>
   <time name="dav">    8.10    8.10</time>
   <time name="total">    8.98    8.99</time>
   <energy>
    <i name="e_fr_energy">   -474.24683421 </i>
    <i name="e_wo_entrp">   -473.13565859 </i>
    <i name="e_0_energy">   -473.69124640 </i>
   </energy>
  </scstep>
  <scstep>
   <time name="dav">    8.32    8.33</time>
   <time name="total">    8.72    8.72</time>
   <energy>
    <i name="alphaZ">   2684.99175279 </i>
    <i name="ewald"> 298260.44844986 </i>
    <i name="hartreedc">-460816.23740711 </i>
    <i name="XCdc">   4862.61922825 </i>
    <i name="pawpsdc"> 183951.10698084 </i>
    <i name="pawaedc">-190602.85831227 </i>
    <i name="eentropy">     -1.11118031 </i>
    <i name="bandstr"> -20150.01318005 </i>
    <i name="atom"> 181336.80673834 </i>
    <i name="e_fr_energy">   -474.24692966 </i>
    <i name="e_wo_entrp">   -473.13574935 </i>
    <i name="e_0_energy">   -473.69133950 </i>
   </energy>
  </scstep>
  <structure>
   <crystal>
    <varray name="basis" >
     <v>      11.25646304       0.00000000       0.00000000 </v>
     <v>       5.04456212      10.06282034       0.00000000 </v>
     <v>       0.00000000       0.00000000      21.74423184 </v>
    </varray>
    <i name="volume">   2463.00752351 </i>
    <varray name="rec_basis" >
     <v>       0.08883785      -0.04453504       0.00000000 </v>
     <v>       0.00000000       0.09937572       0.00000000 </v>
     <v>       0.00000000       0.00000000       0.04598921 </v>
    </varray>
   </crystal>
   <varray name="positions" >
    <v>       0.26092070       0.47878036       0.25332799 </v>
    <v>       0.35488056       0.38482049       0.38835497 </v>
    <v>       0.37402200       0.36610408       0.49727065 </v>
    <v>       0.16093289       0.07873709       0.14935617 </v>
    <v>       0.05097355       0.05051842       0.47267822 </v>
    <v>       0.28484372       0.33144741       0.09935239 </v>
    <v>       0.36819893       0.23939913       0.21765305 </v>
    <v>       0.46215880       0.14543926       0.35268003 </v>
    <v>       0.00030194       0.37150212       0.21765305 </v>
    <v>       0.09426181       0.27754226       0.35268003 </v>
    <v>       0.18918343       0.18872511       0.47267991 </v>
    <v>       0.40634206       0.46546199       0.08262607 </v>
    <v>       0.76092070       0.47878036       0.25332799 </v>
    <v>       0.85488056       0.38482049       0.38835497 </v>
    <v>       0.95412076       0.28558028       0.50507481 </v>
    <v>       0.66696083       0.07274024       0.11830101 </v>
    <v>       0.54913715       0.05414984       0.47245657 </v>
    <v>       0.77423906       0.33335899       0.08262607 </v>
    <v>       0.86819893       0.23939913       0.21765305 </v>
    <v>       0.96215880       0.14543926       0.35268003 </v>
    <v>       0.50030194       0.37150212       0.21765305 </v>
    <v>       0.59426181       0.27754226       0.35268003 </v>
    <v>       0.68491012       0.19025034       0.47256892 </v>
    <v>       0.98299681       0.44351134       0.11356023 </v>
    <v>       0.26092070       0.97878036       0.25332799 </v>
    <v>       0.35488056       0.88482049       0.38835497 </v>
    <v>       0.36863286       0.87106839       0.49659109 </v>
    <v>       0.16696083       0.57274024       0.11830101 </v>
    <v>       0.04945346       0.55479330       0.47257270 </v>
    <v>       0.29105314       0.79611052       0.10630943 </v>
    <v>       0.36819893       0.73939913       0.21765305 </v>
    <v>       0.46215880       0.64543926       0.35268003 </v>
    <v>       0.00030194       0.87150212       0.21765305 </v>
    <v>       0.09426181       0.77754226       0.35268003 </v>
    <v>       0.18555260       0.69056374       0.47245685 </v>
    <v>       0.43103925       0.94980594       0.10463479 </v>
    <v>       0.76092070       0.97878036       0.25332799 </v>
    <v>       0.85488056       0.88482049       0.38835497 </v>
    <v>       0.87359841       0.86567782       0.49727119 </v>
    <v>       0.68408998       0.55129103       0.13074748 </v>
    <v>       0.54121436       0.55418346       0.46614478 </v>
    <v>       0.78046502       0.83112915       0.10026029 </v>
    <v>       0.86819893       0.73939913       0.21765305 </v>
    <v>       0.96215880       0.64543926       0.35268003 </v>
    <v>       0.50030194       0.87150212       0.21765305 </v>
    <v>       0.59426181       0.77754226       0.35268003 </v>
    <v>       0.68551560       0.69848600       0.46614672 </v>
    <v>       0.90872874       0.96036126       0.10031257 </v>
    <v>       0.07287763       0.16682343       0.27005396 </v>
    <v>       0.16683750       0.07286357       0.40508094 </v>
    <v>       0.37230905       0.35191910       0.02145185 </v>
    <v>       0.47891775       0.26078330       0.13502698 </v>
    <v>       0.21049834       0.52955762       0.52691953 </v>
    <v>       0.03023343       0.37768264       0.45050807 </v>
    <v>       0.43627354       0.47164251       0.31548109 </v>
    <v>       0.34231368       0.06560239       0.18045411 </v>
    <v>       0.11314720       0.46945221       0.05582489 </v>
    <v>       0.17409868       0.39738738       0.18045411 </v>
    <v>       0.26805855       0.30342751       0.31548109 </v>
    <v>       0.36201842       0.20946765       0.45050807 </v>
    <v>       0.57287763       0.16682343       0.27005396 </v>
    <v>       0.66683750       0.07286357       0.40508094 </v>
    <v>       0.81939478       0.48404879       0.05856999 </v>
    <v>       0.97891775       0.26078330       0.13502698 </v>
    <v>       0.53023343       0.37768264       0.45050807 </v>
    <v>       0.93627354       0.47164251       0.31548109 </v>
    <v>       0.77107688       0.15240611       0.06755272 </v>
    <v>       0.84231368       0.06560239       0.18045411 </v>
    <v>       0.58250041       0.48019074       0.06845855 </v>
    <v>       0.67409868       0.39738738       0.18045411 </v>
    <v>       0.76805855       0.30342751       0.31548109 </v>
    <v>       0.86201842       0.20946765       0.45050807 </v>
    <v>       0.07287764       0.66682343       0.27005396 </v>
    <v>       0.16683750       0.57286357       0.40508094 </v>
    <v>       0.25036627       0.97981288       0.06947063 </v>
    <v>       0.47891775       0.76078330       0.13502698 </v>
    <v>       0.20651092       0.03318745       0.52942276 </v>
    <v>       0.03023342       0.87768264       0.45050807 </v>
    <v>       0.43627354       0.97164251       0.31548109 </v>
    <v>       0.25908246       0.65155508       0.06046149 </v>
    <v>       0.34231368       0.56560239       0.18045411 </v>
    <v>       0.17409868       0.89738738       0.18045411 </v>
    <v>       0.26805855       0.80342751       0.31548109 </v>
    <v>       0.36201842       0.70946764       0.45050807 </v>
    <v>       0.57287764       0.66682343       0.27005396 </v>
    <v>       0.66683750       0.57286357       0.40508094 </v>
    <v>       0.84614914       0.89461782       0.02709618 </v>
    <v>       0.97891775       0.76078330       0.13502698 </v>
    <v>       0.71014540       0.02920573       0.52691757 </v>
    <v>       0.53023342       0.87768264       0.45050807 </v>
    <v>       0.93627354       0.97164251       0.31548109 </v>
    <v>       0.84231368       0.56560239       0.18045411 </v>
    <v>       0.59159333       0.96821149       0.06641722 </v>
    <v>       0.67409868       0.89738738       0.18045411 </v>
    <v>       0.76805855       0.80342751       0.31548109 </v>
    <v>       0.86201842       0.70946764       0.45050807 </v>
   </varray>
  </structure>
  <varray name="forces" >
   <v>       0.14900308       0.02983207       0.00881503 </v>
   <v>      -0.15760963       0.08258915      -0.97700616 </v>
   <v>       0.45702712      -0.84761844       0.74926207 </v>
   <v>      -0.79763351       1.33943912      -0.08994959 </v>
   <v>      -0.85894972       0.12247518       0.44119706 </v>
   <v>      -0.62916393      -1.34849724       0.31997961 </v>
   <v>       0.02883335      -0.28102464       0.09807813 </v>
   <v>       0.05938937      -0.00795347      -0.02801853 </v>
   <v>      -0.22457214      -0.27630956       1.08617800 </v>
   <v>       0.13968624      -0.12124539       0.04602074 </v>
   <v>       0.29979149       0.82983904       0.44289047 </v>
   <v>       1.58473112      -0.03245320       2.40042116 </v>
   <v>      -0.10417123       0.09327026      -0.01893505 </v>
   <v>       0.01968988      -0.07550717      -0.01583329 </v>
   <v>       0.03161657      -0.09003353       1.34467499 </v>
   <v>      -0.33981961       1.05993606       2.07487362 </v>
   <v>      -0.62722015       0.07310235       0.51897919 </v>
   <v>       0.17600496      -2.11397606       1.13875410 </v>
   <v>       0.03813057       0.11196949       0.16558480 </v>
   <v>       0.02422003      -0.16991759      -0.03790080 </v>
   <v>      -0.11420276       0.01034537       0.29081802 </v>
   <v>      -0.11384464      -0.12172774      -0.00722331 </v>
   <v>       0.38759956       0.78694926       0.55569114 </v>
   <v>       0.80117659      -0.22041452       0.53940833 </v>
   <v>       0.06056324      -0.07575242       0.41940618 </v>
   <v>      -0.09264668       0.20129257      -1.15828888 </v>
   <v>       0.51105466      -0.86744881       0.88937961 </v>
   <v>       0.12319135       0.84564925       2.06458691 </v>
   <v>      -0.85410508      -0.01549983       0.55176509 </v>
   <v>      -0.38476174      -0.58883356      -0.90470859 </v>
   <v>       0.03191826      -0.15230963       0.44956845 </v>
   <v>      -0.05207944       0.06214459      -0.32342235 </v>
   <v>       0.01655133      -0.06861591       0.17100238 </v>
   <v>       0.01716702      -0.11965313      -0.03768955 </v>
   <v>       0.20645330       0.64532308       0.50768333 </v>
   <v>       0.62193474       0.40843417      -1.11834386 </v>
   <v>       0.13176533      -0.28171199      -0.05315674 </v>
   <v>      -0.01731784       0.18243213      -0.94541007 </v>
   <v>       0.56880831      -0.80144548       0.77471603 </v>
   <v>      -0.90316371       2.24786751       0.41837227 </v>
   <v>       0.42717337      -0.42755652       0.99362020 </v>
   <v>      -0.83849799      -1.43148364      -0.11543193 </v>
   <v>      -0.10998573       0.11986851       0.24770018 </v>
   <v>       0.18115431      -0.02083590      -0.07636322 </v>
   <v>      -0.04043673      -0.04532331       0.41371292 </v>
   <v>      -0.08230600       0.05430115      -0.32562401 </v>
   <v>       0.19097021      -0.55239670       0.99021129 </v>
   <v>       1.63948850       0.20546147       0.03647535 </v>
   <v>      -0.03694121       0.07498479       0.20112871 </v>
   <v>       0.52292174      -0.84992164      -3.02694459 </v>
   <v>      -0.58985241      -1.10938714      -3.97448045 </v>
   <v>       1.12484608      -0.56522717       0.86480656 </v>
   <v>       0.28057397      -0.33036301       2.80416020 </v>
   <v>       0.48396425       1.72804235      -0.65467823 </v>
   <v>       0.03203561      -0.02358197      -0.14543183 </v>
   <v>       1.34880851       1.27181545       2.24022705 </v>
   <v>      -0.82202815       0.01895048      -3.69817146 </v>
   <v>      -0.87398881       0.41118899       1.75578314 </v>
   <v>      -0.05978265       0.03446505       0.08271566 </v>
   <v>      -0.59001987       0.33095794      -0.18382148 </v>
   <v>       0.10972803      -0.02412216       0.06892825 </v>
   <v>       0.44622958      -0.75051434      -3.05759444 </v>
   <v>       1.19185914       1.58706976      -3.23711515 </v>
   <v>      -0.41735847      -1.69893756      -0.19267219 </v>
   <v>       0.18125696       0.71065241      -0.22047868 </v>
   <v>       0.05778906      -0.04913559       0.01998780 </v>
   <v>       0.54614513       0.53874564      -2.43279310 </v>
   <v>       0.11398670       1.06830096       2.43736950 </v>
   <v>      -0.88036534       0.91091591      -1.81344897 </v>
   <v>      -0.51631121      -1.20606612       1.79025848 </v>
   <v>      -0.09711831       0.03442142       0.02139123 </v>
   <v>      -1.73699540       0.38387326      -0.64078443 </v>
   <v>       0.04305839      -0.03632361       0.15163089 </v>
   <v>       0.43801848      -0.67737054      -3.07533047 </v>
   <v>      -0.89666549       1.12864244      -3.54909299 </v>
   <v>       1.81946209      -2.64034895       0.91477713 </v>
   <v>       0.28152810      -0.40069956       2.54362089 </v>
   <v>      -0.03565837       0.66556761      -0.25367477 </v>
   <v>      -0.03996332      -0.04264528      -0.03681417 </v>
   <v>      -0.06792319       1.67021758      -2.59400073 </v>
   <v>       0.16667322      -0.33099261       0.84687138 </v>
   <v>      -1.72611664      -0.57330142       2.12241040 </v>
   <v>       0.02197032       0.00659994      -0.10559867 </v>
   <v>      -0.97134212       0.90398125       0.09950528 </v>
   <v>       0.00096989       0.04995494       0.03676479 </v>
   <v>       0.84704193      -1.34099458      -1.43364658 </v>
   <v>       0.45029742      -0.80966670      -4.03284765 </v>
   <v>       0.75444246      -1.07736883       0.57952580 </v>
   <v>       0.14744171      -0.39847714       2.75380020 </v>
   <v>      -0.37810935       1.27885847       0.10658792 </v>
   <v>      -0.06301192       0.05137615       0.02153039 </v>
   <v>       0.46425858       1.24200052       1.35840237 </v>
   <v>      -1.30630233      -0.03477409      -2.53130132 </v>
   <v>      -0.60974891       0.25711672       2.45145511 </v>
   <v>      -0.01477154       0.09525846      -0.06959229 </v>
   <v>      -0.72753790       0.15928512      -0.22984524 </v>
  </varray>
  <varray name="stress" >
   <v>      65.87340441       0.87870571      -1.29372929 </v>
   <v>       0.87870616      65.23128946       1.68047355 </v>
   <v>      -1.29372956       1.68047350      66.40051224 </v>
  </varray>
  <energy>
   <i name="e_fr_energy">   -474.24692966 </i>
   <i name="e_wo_entrp">   -473.69133950 </i>
   <i name="e_0_energy">     -1.11118031 </i>
  </energy>
  <time name="totalsc">  625.87  626.03</time>
  <eigenvalues>
   <array>
    <dimension dim="1">band</dimension>
    <dimension dim="2">kpoint</dimension>
    <dimension dim="3">spin</dimension>
    <field>eigene</field>
    <field>occ</field>
    <set>
     <set comment="spin 1">
      <set comment="kpoint 1">
       <r>  -62.9775    1.0000 </r>
       <r>  -62.9746    1.0000 </r>
       <r>  -62.8920    1.0000 </r>
       <r>  -62.8842    1.0000 </r>
       <r>  -62.8801    1.0000 </r>
       <r>  -62.8677    1.0000 </r>
       <r>  -62.8428    1.0000 </r>
       <r>  -62.8387    1.0000 </r>
       <r>  -62.8205    1.0000 </r>
       <r>  -62.8197    1.0000 </r>
       <r>  -62.8113    1.0000 </r>
       <r>  -62.7865    1.0000 </r>
       <r>  -62.7780    1.0000 </r>
       <r>  -62.7741    1.0000 </r>
       <r>  -62.7734    1.0000 </r>
       <r>  -62.7709    1.0000 </r>
       <r>  -62.7633    1.0000 </r>
       <r>  -62.7539    1.0000 </r>
       <r>  -62.7467    1.0000 </r>
       <r>  -62.7049    1.0000 </r>
       <r>  -62.7014    1.0000 </r>
       <r>  -62.7004    1.0000 </r>
       <r>  -62.6818    1.0000 </r>
       <r>  -62.6802    1.0000 </r>
       <r>  -62.6660    1.0000 </r>
       <r>  -62.6653    1.0000 </r>
       <r>  -62.6511    1.0000 </r>
       <r>  -62.6073    1.0000 </r>
       <r>  -62.5978    1.0000 </r>
       <r>  -62.5874    1.0000 </r>
       <r>  -62.5699    1.0000 </r>
       <r>  -62.5438    1.0000 </r>
       <r>  -62.5406    1.0000 </r>
       <r>  -62.5311    1.0000 </r>
       <r>  -62.5263    1.0000 </r>
       <r>  -62.5247    1.0000 </r>
       <r>  -62.4961    1.0000 </r>
       <r>  -62.4898    1.0000 </r>
       <r>  -62.4895    1.0000 </r>
       <r>  -62.4740    1.0000 </r>
       <r>  -62.4688    1.0000 </r>
       <r>  -62.4395    1.0000 </r>
       <r>  -62.4322    1.0000 </r>
       <r>  -62.4259    1.0000 </r>
       <r>  -62.4201    1.0000 </r>
       <r>  -62.4012    1.0000 </r>
       <r>  -62.3985    1.0000 </r>
       <r>  -62.3715    1.0000 </r>
       <r>  -62.3681    1.0000 </r>
       <r>  -62.3623    1.0000 </r>
       <r>  -62.3607    1.0000 </r>
       <r>  -62.3472    1.0000 </r>
       <r>  -62.3465    1.0000 </r>
       <r>  -62.3419    1.0000 </r>
       <r>  -62.3417    1.0000 </r>
       <r>  -62.3373    1.0000 </r>
       <r>  -62.3332    1.0000 </r>
       <r>  -62.3301    1.0000 </r>
       <r>  -62.3297    1.0000 </r>
       <r>  -62.3254    1.0000 </r>
       <r>  -62.3186    1.0000 </r>
       <r>  -62.3182    1.0000 </r>
       <r>  -62.3137    1.0000 </r>
       <r>  -62.3130    1.0000 </r>
       <r>  -62.3086    1.0000 </r>
       <r>  -62.3072    1.0000 </r>
       <r>  -62.3051    1.0000 </r>
       <r>  -62.3030    1.0000 </r>
       <r>  -62.3029    1.0000 </r>
       <r>  -62.3014    1.0000 </r>
       <r>  -62.2983    1.0000 </r>
       <r>  -62.2977    1.0000 </r>
       <r>  -62.2967    1.0000 </r>
       <r>  -62.2962    1.0000 </r>
       <r>  -62.2899    1.0000 </r>
       <r>  -62.2896    1.0000 </r>
       <r>  -62.2863    1.0000 </r>
       <r>  -62.2849    1.0000 </r>
       <r>  -62.2847    1.0000 </r>
       <r>  -62.2838    1.0000 </r>
       <r>  -62.2826    1.0000 </r>
       <r>  -62.2762    1.0000 </r>
       <r>  -62.2723    1.0000 </r>
       <r>  -62.2720    1.0000 </r>
       <r>  -62.2701    1.0000 </r>
       <r>  -62.2693    1.0000 </r>
       <r>  -62.2680    1.0000 </r>
       <r>  -62.2557    1.0000 </r>
       <r>  -62.2550    1.0000 </r>
       <r>  -62.2505    1.0000 </r>
       <r>  -62.2465    1.0000 </r>
       <r>  -62.2460    1.0000 </r>
       <r>  -62.2401    1.0000 </r>
       <r>  -62.2339    1.0000 </r>
       <r>  -62.2278    1.0000 </r>
       <r>  -62.2231    1.0000 </r>
       <r>  -62.2213    1.0000 </r>
       <r>  -62.2111    1.0000 </r>
       <r>  -62.1963    1.0000 </r>
       <r>  -62.1910    1.0000 </r>
       <r>  -62.1892    1.0000 </r>
       <r>  -62.1844    1.0000 </r>
       <r>  -62.1785    1.0000 </r>
       <r>  -62.1715    1.0000 </r>
       <r>  -62.1713    1.0000 </r>
       <r>  -62.1626    1.0000 </r>
       <r>  -62.1335    1.0000 </r>
       <r>  -62.1300    1.0000 </r>
       <r>  -62.1284    1.0000 </r>
       <r>  -62.1214    1.0000 </r>
       <r>  -62.1062    1.0000 </r>
       <r>  -62.1036    1.0000 </r>
       <r>  -62.0961    1.0000 </r>
       <r>  -62.0959    1.0000 </r>
       <r>  -62.0948    1.0000 </r>
       <r>  -62.0933    1.0000 </r>
       <r>  -62.0924    1.0000 </r>
       <r>  -62.0732    1.0000 </r>
       <r>  -62.0595    1.0000 </r>
       <r>  -62.0494    1.0000 </r>
       <r>  -62.0458    1.0000 </r>
       <r>  -62.0421    1.0000 </r>
       <r>  -62.0413    1.0000 </r>
       <r>  -62.0409    1.0000 </r>
       <r>  -62.0403    1.0000 </r>
       <r>  -62.0391    1.0000 </r>
       <r>  -62.0378    1.0000 </r>
       <r>  -62.0350    1.0000 </r>
       <r>  -62.0323    1.0000 </r>
       <r>  -62.0227    1.0000 </r>
       <r>  -62.0214    1.0000 </r>
       <r>  -62.0176    1.0000 </r>
       <r>  -62.0146    1.0000 </r>
       <r>  -62.0116    1.0000 </r>
       <r>  -62.0042    1.0000 </r>
       <r>  -62.0032    1.0000 </r>
       <r>  -61.9983    1.0000 </r>
       <r>  -61.8211    1.0000 </r>
       <r>  -61.8165    1.0000 </r>
       <r>  -61.7202    1.0000 </r>
       <r>  -61.5358    1.0000 </r>
       <r>  -61.5318    1.0000 </r>
       <r>  -61.5229    1.0000 </r>
       <r>  -61.4859    1.0000 </r>
       <r>  -14.3486    1.0000 </r>
       <r>  -14.0063    1.0000 </r>
       <r>  -13.8271    1.0000 </r>
       <r>  -13.7164    1.0000 </r>
       <r>  -13.5818    1.0000 </r>
       <r>  -13.5196    1.0000 </r>
       <r>  -13.5020    1.0000 </r>
       <r>  -13.2459    1.0000 </r>
       <r>  -13.2332    1.0000 </r>
       <r>  -13.1697    1.0000 </r>
       <r>  -13.0740    1.0000 </r>
       <r>  -13.0056    1.0000 </r>
       <r>  -12.9814    1.0000 </r>
       <r>  -12.8936    1.0000 </r>
       <r>  -12.7982    1.0000 </r>
       <r>  -12.5946    1.0000 </r>
       <r>  -12.5472    1.0000 </r>
       <r>  -12.5193    1.0000 </r>
       <r>  -12.5095    1.0000 </r>
       <r>  -12.4427    1.0000 </r>
       <r>  -12.4187    1.0000 </r>
       <r>  -12.3938    1.0000 </r>
       <r>  -12.3737    1.0000 </r>
       <r>  -12.3500    1.0000 </r>
       <r>  -12.3457    1.0000 </r>
       <r>  -12.2992    1.0000 </r>
       <r>  -12.2442    1.0000 </r>
       <r>  -12.2209    1.0000 </r>
       <r>  -12.1883    1.0000 </r>
       <r>  -12.0747    1.0000 </r>
       <r>  -12.0489    1.0000 </r>
       <r>  -12.0305    1.0000 </r>
       <r>  -11.9193    1.0000 </r>
       <r>  -11.8669    1.0000 </r>
       <r>  -11.8446    1.0000 </r>
       <r>  -11.7360    1.0000 </r>
       <r>  -11.6686    1.0000 </r>
       <r>  -11.6427    1.0000 </r>
       <r>  -11.6394    1.0000 </r>
       <r>  -11.5595    1.0000 </r>
       <r>  -11.5323    1.0000 </r>
       <r>  -11.5033    1.0000 </r>
       <r>  -11.4554    1.0000 </r>
       <r>  -11.4302    1.0000 </r>
       <r>  -11.3624    1.0000 </r>
       <r>  -11.2071    1.0000 </r>
       <r>  -10.9630    1.0000 </r>
       <r>  -10.8665    1.0000 </r>
       <r>   -6.0901    1.0000 </r>
       <r>   -5.9845    1.0000 </r>
       <r>   -5.9540    1.0000 </r>
       <r>   -5.8757    1.0000 </r>
       <r>   -5.8449    1.0000 </r>
       <r>   -5.7366    1.0000 </r>
       <r>   -5.7114    1.0000 </r>
       <r>   -5.6725    1.0000 </r>
       <r>   -5.6063    1.0000 </r>
       <r>   -5.4778    1.0000 </r>
       <r>   -5.4262    1.0000 </r>
       <r>   -5.2830    1.0000 </r>
       <r>   -5.2468    1.0000 </r>
       <r>   -5.2350    1.0000 </r>
       <r>   -5.1969    1.0000 </r>
       <r>   -5.1902    1.0000 </r>
       <r>   -5.1197    1.0000 </r>
       <r>   -5.0750    1.0000 </r>
       <r>   -5.0617    1.0000 </r>
       <r>   -5.0230    1.0000 </r>
       <r>   -5.0012    1.0000 </r>
       <r>   -4.9747    1.0000 </r>
       <r>   -4.9594    1.0000 </r>
       <r>   -4.9283    1.0000 </r>
       <r>   -4.8899    1.0000 </r>
       <r>   -4.8745    1.0000 </r>
       <r>   -4.8475    1.0000 </r>
       <r>   -4.8049    1.0000 </r>
       <r>   -4.7650    1.0000 </r>
       <r>   -4.7420    1.0000 </r>
       <r>   -4.7073    1.0000 </r>
       <r>   -4.6911    1.0000 </r>
       <r>   -4.6637    1.0000 </r>
       <r>   -4.6233    1.0000 </r>
       <r>   -4.5677    1.0000 </r>
       <r>   -4.5238    1.0000 </r>
       <r>   -4.5038    1.0000 </r>
       <r>   -4.4428    1.0000 </r>
       <r>   -4.4338    1.0000 </r>
       <r>   -4.3348    1.0000 </r>
       <r>   -4.3181    1.0000 </r>
       <r>   -4.2992    1.0000 </r>
       <r>   -4.2555    1.0000 </r>
       <r>   -4.2355    1.0000 </r>
       <r>   -4.2032    1.0000 </r>
       <r>   -4.1975    1.0000 </r>
       <r>   -4.1656    1.0000 </r>
       <r>   -4.1394    1.0000 </r>
       <r>   -4.1210    1.0000 </r>
       <r>   -4.0976    1.0000 </r>
       <r>   -4.0914    1.0000 </r>
       <r>   -3.9866    1.0000 </r>
       <r>   -3.9781    1.0000 </r>
       <r>   -3.9567    1.0000 </r>
       <r>   -3.9412    1.0000 </r>
       <r>   -3.8896    1.0000 </r>
       <r>   -3.8559    1.0000 </r>
       <r>   -3.8439    1.0000 </r>
       <r>   -3.7826    1.0000 </r>
       <r>   -3.7191    1.0000 </r>
       <r>   -3.7073    1.0000 </r>
       <r>   -3.6504    1.0000 </r>
       <r>   -3.6294    1.0000 </r>
       <r>   -3.6115    1.0000 </r>
       <r>   -3.5998    1.0000 </r>
       <r>   -3.5606    1.0000 </r>
       <r>   -3.5388    1.0000 </r>
       <r>   -3.4887    1.0000 </r>
       <r>   -3.4800    1.0000 </r>
       <r>   -3.4455    1.0000 </r>
       <r>   -3.4281    1.0000 </r>
       <r>   -3.3945    1.0000 </r>
       <r>   -3.3811    1.0000 </r>
       <r>   -3.3514    1.0000 </r>
       <r>   -3.3454    1.0000 </r>
       <r>   -3.3070    1.0000 </r>
       <r>   -3.2913    1.0000 </r>
       <r>   -3.2752    1.0000 </r>
       <r>   -3.2635    1.0000 </r>
       <r>   -3.2481    1.0000 </r>
       <r>   -3.2200    1.0000 </r>
       <r>   -3.1924    1.0000 </r>
       <r>   -3.1795    1.0000 </r>
       <r>   -3.1751    1.0000 </r>
       <r>   -3.1560    1.0000 </r>
       <r>   -3.1405    1.0000 </r>
       <r>   -3.1084    1.0000 </r>
       <r>   -3.0921    1.0000 </r>
       <r>   -3.0738    1.0000 </r>
       <r>   -3.0410    1.0000 </r>
       <r>   -3.0169    1.0000 </r>
       <r>   -3.0015    1.0000 </r>
       <r>   -2.9851    1.0000 </r>
       <r>   -2.9681    1.0000 </r>
       <r>   -2.9284    1.0000 </r>
       <r>   -2.8875    1.0000 </r>
       <r>   -2.8753    1.0000 </r>
       <r>   -2.8542    1.0000 </r>
       <r>   -2.8254    1.0000 </r>
       <r>   -2.8115    1.0000 </r>
       <r>   -2.8013    1.0000 </r>
       <r>   -2.7824    1.0000 </r>
       <r>   -2.7638    1.0000 </r>
       <r>   -2.7421    1.0000 </r>
       <r>   -2.7188    1.0000 </r>
       <r>   -2.6617    1.0000 </r>
       <r>   -2.6459    1.0000 </r>
       <r>   -2.6151    1.0000 </r>
       <r>   -2.5838    1.0000 </r>
       <r>   -2.5760    1.0000 </r>
       <r>   -2.5686    1.0000 </r>
       <r>   -2.5610    1.0000 </r>
       <r>   -2.5094    1.0000 </r>
       <r>   -2.4952    1.0000 </r>
       <r>   -2.4760    1.0000 </r>
       <r>   -2.4641    1.0000 </r>
       <r>   -2.4505    1.0000 </r>
       <r>   -2.4274    1.0000 </r>
       <r>   -2.4124    1.0000 </r>
       <r>   -2.3785    1.0000 </r>
       <r>   -2.3469    1.0000 </r>
       <r>   -2.3090    1.0000 </r>
       <r>   -2.2702    1.0000 </r>
       <r>   -2.2473    1.0000 </r>
       <r>   -2.2422    1.0000 </r>
       <r>   -2.2116    1.0000 </r>
       <r>   -2.1691    1.0000 </r>
       <r>   -2.1109    1.0000 </r>
       <r>   -2.0973    1.0000 </r>
       <r>   -2.0698    1.0000 </r>
       <r>   -2.0074    1.0000 </r>
       <r>   -1.9199    1.0000 </r>
       <r>   -1.8882    1.0000 </r>
       <r>   -1.8540    1.0000 </r>
       <r>   -1.8189    1.0000 </r>
       <r>   -1.7486    1.0000 </r>
       <r>   -1.6836    1.0000 </r>
       <r>   -1.6478    1.0000 </r>
       <r>   -1.6235    1.0000 </r>
       <r>   -1.5839    1.0000 </r>
       <r>   -1.5429    1.0000 </r>
       <r>   -1.5269    1.0000 </r>
       <r>   -1.4892    1.0000 </r>
       <r>   -1.4551    1.0000 </r>
       <r>   -1.4130    1.0000 </r>
       <r>   -1.3837    1.0000 </r>
       <r>   -1.3412    1.0000 </r>
       <r>   -1.3294    1.0000 </r>
       <r>   -1.2744    1.0000 </r>
       <r>   -1.2615    1.0000 </r>
       <r>   -1.2535    1.0000 </r>
       <r>   -1.2255    1.0000 </r>
       <r>   -1.1948    1.0000 </r>
       <r>   -1.1720    1.0000 </r>
       <r>   -1.1563    1.0000 </r>
       <r>   -1.1371    1.0000 </r>
       <r>   -1.0947    1.0000 </r>
       <r>   -1.0717    1.0000 </r>
       <r>   -1.0687    1.0000 </r>
       <r>   -1.0449    1.0000 </r>
       <r>   -1.0236    1.0000 </r>
       <r>   -1.0052    1.0000 </r>
       <r>   -0.9890    1.0000 </r>
       <r>   -0.9756    1.0000 </r>
       <r>   -0.9485    1.0000 </r>
       <r>   -0.9404    1.0000 </r>
       <r>   -0.9345    1.0000 </r>
       <r>   -0.9105    1.0000 </r>
       <r>   -0.8955    1.0000 </r>
       <r>   -0.8852    1.0000 </r>
       <r>   -0.8617    1.0000 </r>
       <r>   -0.8401    1.0000 </r>
       <r>   -0.8369    1.0000 </r>
       <r>   -0.8315    1.0000 </r>
       <r>   -0.8103    1.0000 </r>
       <r>   -0.7771    1.0000 </r>
       <r>   -0.7665    1.0000 </r>
       <r>   -0.7616    1.0000 </r>
       <r>   -0.7518    1.0000 </r>
       <r>   -0.7300    1.0000 </r>
       <r>   -0.7172    1.0000 </r>
       <r>   -0.7145    1.0000 </r>
       <r>   -0.6857    1.0000 </r>
       <r>   -0.6736    1.0000 </r>
       <r>   -0.6709    1.0000 </r>
       <r>   -0.6683    1.0000 </r>
       <r>   -0.6500    1.0000 </r>
       <r>   -0.6275    1.0000 </r>
       <r>   -0.6066    1.0000 </r>
       <r>   -0.6009    1.0000 </r>
       <r>   -0.5856    1.0000 </r>
       <r>   -0.5714    1.0000 </r>
       <r>   -0.5595    1.0000 </r>
       <r>   -0.5506    1.0000 </r>
       <r>   -0.5424    1.0000 </r>
       <r>   -0.5371    1.0000 </r>
       <r>   -0.5092    1.0000 </r>
       <r>   -0.4954    1.0000 </r>
       <r>   -0.4868    1.0000 </r>
       <r>   -0.4803    1.0000 </r>
       <r>   -0.4706    1.0000 </r>
       <r>   -0.4511    1.0000 </r>
       <r>   -0.4263    1.0000 </r>
       <r>   -0.4243    1.0000 </r>
       <r>   -0.4071    1.0000 </r>
       <r>   -0.3896    1.0000 </r>
       <r>   -0.3867    1.0000 </r>
       <r>   -0.3751    1.0000 </r>
       <r>   -0.3705    1.0000 </r>
       <r>   -0.3665    1.0000 </r>
       <r>   -0.3564    1.0000 </r>
       <r>   -0.3326    1.0000 </r>
       <r>   -0.3198    1.0000 </r>
       <r>   -0.3016    1.0000 </r>
       <r>   -0.2788    1.0000 </r>
       <r>   -0.2778    1.0000 </r>
       <r>   -0.2752    1.0000 </r>
       <r>   -0.2543    1.0000 </r>
       <r>   -0.2327    1.0000 </r>
       <r>   -0.2314    1.0000 </r>
       <r>   -0.2139    1.0000 </r>
       <r>   -0.1985    1.0000 </r>
       <r>   -0.1892    1.0000 </r>
       <r>   -0.1839    1.0000 </r>
       <r>   -0.1709    1.0000 </r>
       <r>   -0.1619    1.0000 </r>
       <r>   -0.1536    1.0000 </r>
       <r>   -0.1433    1.0000 </r>
       <r>   -0.1234    1.0000 </r>
       <r>   -0.1133    1.0000 </r>
       <r>   -0.1013    1.0000 </r>
       <r>   -0.0899    1.0000 </r>
       <r>   -0.0852    1.0000 </r>
       <r>   -0.0792    1.0000 </r>
       <r>   -0.0645    1.0000 </r>
       <r>   -0.0535    1.0000 </r>
       <r>   -0.0455    1.0000 </r>
       <r>   -0.0338    1.0000 </r>
       <r>   -0.0264    1.0000 </r>
       <r>   -0.0195    1.0000 </r>
       <r>   -0.0051    1.0000 </r>
       <r>   -0.0042    1.0000 </r>
       <r>    0.0082    1.0000 </r>
       <r>    0.0232    1.0000 </r>
       <r>    0.0387    1.0000 </r>
       <r>    0.0440    1.0000 </r>
       <r>    0.0501    1.0000 </r>
       <r>    0.0682    1.0000 </r>
       <r>    0.0818    1.0000 </r>
       <r>    0.0875    1.0000 </r>
       <r>    0.0939    1.0000 </r>
       <r>    0.1183    1.0000 </r>
       <r>    0.1288    1.0000 </r>
       <r>    0.1335    1.0000 </r>
       <r>    0.1461    1.0000 </r>
       <r>    0.1495    1.0000 </r>
       <r>    0.1660    1.0000 </r>
       <r>    0.1760    1.0000 </r>
       <r>    0.1833    1.0000 </r>
       <r>    0.2001    1.0000 </r>
       <r>    0.2219    1.0000 </r>
       <r>    0.2239    1.0000 </r>
       <r>    0.2377    1.0000 </r>
       <r>    0.2530    1.0000 </r>
       <r>    0.2588    1.0000 </r>
[...]
       <r>   -58.4560     0.0000   288.0000 </r>
       <r>   -58.1956     0.0000   288.0000 </r>
       <r>   -57.9352     0.0000   288.0000 </r>
       <r>   -57.6748     0.0000   288.0000 </r>
       <r>   -57.4143     0.0000   288.0000 </r>
       <r>   -57.1539     0.0000   288.0000 </r>
       <r>   -56.8935     0.0000   288.0000 </r>
       <r>   -56.6331     0.0000   288.0000 </r>
       <r>   -56.3727     0.0000   288.0000 </r>
       <r>   -56.1123     0.0000   288.0000 </r>
       <r>   -55.8519     0.0000   288.0000 </r>
       <r>   -55.5915     0.0000   288.0000 </r>
       <r>   -55.3311     0.0000   288.0000 </r>
       <r>   -55.0707     0.0000   288.0000 </r>
       <r>   -54.8103     0.0000   288.0000 </r>
       <r>   -54.5499     0.0000   288.0000 </r>
       <r>   -54.2895     0.0000   288.0000 </r>
       <r>   -54.0291     0.0000   288.0000 </r>
       <r>   -53.7687     0.0000   288.0000 </r>
       <r>   -53.5083     0.0000   288.0000 </r>
       <r>   -53.2479     0.0000   288.0000 </r>
       <r>   -52.9875     0.0000   288.0000 </r>
       <r>   -52.7271     0.0000   288.0000 </r>
       <r>   -52.4667     0.0000   288.0000 </r>
       <r>   -52.2063     0.0000   288.0000 </r>
       <r>   -51.9459     0.0000   288.0000 </r>
       <r>   -51.6855     0.0000   288.0000 </r>
       <r>   -51.4251     0.0000   288.0000 </r>
       <r>   -51.1647     0.0000   288.0000 </r>
       <r>   -50.9043     0.0000   288.0000 </r>
       <r>   -50.6439     0.0000   288.0000 </r>
       <r>   -50.3835     0.0000   288.0000 </r>
       <r>   -50.1231     0.0000   288.0000 </r>
       <r>   -49.8627     0.0000   288.0000 </r>
       <r>   -49.6023     0.0000   288.0000 </r>
       <r>   -49.3419     0.0000   288.0000 </r>
       <r>   -49.0815     0.0000   288.0000 </r>
       <r>   -48.8211     0.0000   288.0000 </r>
       <r>   -48.5607     0.0000   288.0000 </r>
       <r>   -48.3003     0.0000   288.0000 </r>
       <r>   -48.0399     0.0000   288.0000 </r>
       <r>   -47.7795     0.0000   288.0000 </r>
       <r>   -47.5191     0.0000   288.0000 </r>
       <r>   -47.2587     0.0000   288.0000 </r>
       <r>   -46.9983     0.0000   288.0000 </r>
       <r>   -46.7379     0.0000   288.0000 </r>
       <r>   -46.4775     0.0000   288.0000 </r>
       <r>   -46.2171     0.0000   288.0000 </r>
       <r>   -45.9567     0.0000   288.0000 </r>
       <r>   -45.6963     0.0000   288.0000 </r>
       <r>   -45.4359     0.0000   288.0000 </r>
       <r>   -45.1755     0.0000   288.0000 </r>
       <r>   -44.9151     0.0000   288.0000 </r>
       <r>   -44.6546     0.0000   288.0000 </r>
       <r>   -44.3942     0.0000   288.0000 </r>
       <r>   -44.1338     0.0000   288.0000 </r>
       <r>   -43.8734     0.0000   288.0000 </r>
       <r>   -43.6130     0.0000   288.0000 </r>
       <r>   -43.3526     0.0000   288.0000 </r>
       <r>   -43.0922     0.0000   288.0000 </r>
       <r>   -42.8318     0.0000   288.0000 </r>
       <r>   -42.5714     0.0000   288.0000 </r>
       <r>   -42.3110     0.0000   288.0000 </r>
       <r>   -42.0506     0.0000   288.0000 </r>
       <r>   -41.7902     0.0000   288.0000 </r>
       <r>   -41.5298     0.0000   288.0000 </r>
       <r>   -41.2694     0.0000   288.0000 </r>
       <r>   -41.0090     0.0000   288.0000 </r>
       <r>   -40.7486     0.0000   288.0000 </r>
       <r>   -40.4882     0.0000   288.0000 </r>
       <r>   -40.2278     0.0000   288.0000 </r>
       <r>   -39.9674     0.0000   288.0000 </r>
       <r>   -39.7070     0.0000   288.0000 </r>
       <r>   -39.4466     0.0000   288.0000 </r>
       <r>   -39.1862     0.0000   288.0000 </r>
       <r>   -38.9258     0.0000   288.0000 </r>
       <r>   -38.6654     0.0000   288.0000 </r>
       <r>   -38.4050     0.0000   288.0000 </r>
       <r>   -38.1446     0.0000   288.0000 </r>
       <r>   -37.8842     0.0000   288.0000 </r>
       <r>   -37.6238     0.0000   288.0000 </r>
       <r>   -37.3634     0.0000   288.0000 </r>
       <r>   -37.1030     0.0000   288.0000 </r>
       <r>   -36.8426     0.0000   288.0000 </r>
       <r>   -36.5822     0.0000   288.0000 </r>
       <r>   -36.3218     0.0000   288.0000 </r>
       <r>   -36.0614     0.0000   288.0000 </r>
       <r>   -35.8010     0.0000   288.0000 </r>
       <r>   -35.5406     0.0000   288.0000 </r>
       <r>   -35.2802     0.0000   288.0000 </r>
       <r>   -35.0198     0.0000   288.0000 </r>
       <r>   -34.7594     0.0000   288.0000 </r>
       <r>   -34.4990     0.0000   288.0000 </r>
       <r>   -34.2386     0.0000   288.0000 </r>
       <r>   -33.9782     0.0000   288.0000 </r>
       <r>   -33.7178     0.0000   288.0000 </r>
       <r>   -33.4574     0.0000   288.0000 </r>
       <r>   -33.1970     0.0000   288.0000 </r>
       <r>   -32.9366     0.0000   288.0000 </r>
       <r>   -32.6762     0.0000   288.0000 </r>
       <r>   -32.4158     0.0000   288.0000 </r>
       <r>   -32.1553     0.0000   288.0000 </r>
       <r>   -31.8949     0.0000   288.0000 </r>
       <r>   -31.6345     0.0000   288.0000 </r>
       <r>   -31.3741     0.0000   288.0000 </r>
       <r>   -31.1137     0.0000   288.0000 </r>
       <r>   -30.8533     0.0000   288.0000 </r>
       <r>   -30.5929     0.0000   288.0000 </r>
       <r>   -30.3325     0.0000   288.0000 </r>
       <r>   -30.0721     0.0000   288.0000 </r>
       <r>   -29.8117     0.0000   288.0000 </r>
       <r>   -29.5513     0.0000   288.0000 </r>
       <r>   -29.2909     0.0000   288.0000 </r>
       <r>   -29.0305     0.0000   288.0000 </r>
       <r>   -28.7701     0.0000   288.0000 </r>
       <r>   -28.5097     0.0000   288.0000 </r>
       <r>   -28.2493     0.0000   288.0000 </r>
       <r>   -27.9889     0.0000   288.0000 </r>
       <r>   -27.7285     0.0000   288.0000 </r>
       <r>   -27.4681     0.0000   288.0000 </r>
       <r>   -27.2077     0.0000   288.0000 </r>
       <r>   -26.9473     0.0000   288.0000 </r>
       <r>   -26.6869     0.0000   288.0000 </r>
       <r>   -26.4265     0.0000   288.0000 </r>
       <r>   -26.1661     0.0000   288.0000 </r>
       <r>   -25.9057     0.0000   288.0000 </r>
       <r>   -25.6453     0.0000   288.0000 </r>
       <r>   -25.3849     0.0000   288.0000 </r>
       <r>   -25.1245     0.0000   288.0000 </r>
       <r>   -24.8641     0.0000   288.0000 </r>
       <r>   -24.6037     0.0000   288.0000 </r>
       <r>   -24.3433     0.0000   288.0000 </r>
       <r>   -24.0829     0.0000   288.0000 </r>
       <r>   -23.8225     0.0000   288.0000 </r>
       <r>   -23.5621     0.0000   288.0000 </r>
       <r>   -23.3017     0.0000   288.0000 </r>
       <r>   -23.0413     0.0000   288.0000 </r>
       <r>   -22.7809     0.0000   288.0000 </r>
       <r>   -22.5205     0.0000   288.0000 </r>
       <r>   -22.2601     0.0000   288.0000 </r>
       <r>   -21.9997     0.0000   288.0000 </r>
       <r>   -21.7393     0.0000   288.0000 </r>
       <r>   -21.4789     0.0000   288.0000 </r>
       <r>   -21.2185     0.0000   288.0000 </r>
       <r>   -20.9581     0.0000   288.0000 </r>
       <r>   -20.6977     0.0000   288.0000 </r>
       <r>   -20.4373     0.0000   288.0000 </r>
       <r>   -20.1769     0.0000   288.0000 </r>
       <r>   -19.9165     0.0000   288.0000 </r>
       <r>   -19.6561     0.0000   288.0000 </r>
       <r>   -19.3956     0.0000   288.0000 </r>
       <r>   -19.1352     0.0000   288.0000 </r>
       <r>   -18.8748     0.0000   288.0000 </r>
       <r>   -18.6144     0.0000   288.0000 </r>
       <r>   -18.3540     0.0000   288.0000 </r>
       <r>   -18.0936     0.0000   288.0000 </r>
       <r>   -17.8332     0.0000   288.0000 </r>
       <r>   -17.5728     0.0000   288.0000 </r>
       <r>   -17.3124     0.0000   288.0000 </r>
       <r>   -17.0520     0.0000   288.0000 </r>
       <r>   -16.7916     0.0000   288.0000 </r>
       <r>   -16.5312     0.0000   288.0000 </r>
       <r>   -16.2708     0.0000   288.0000 </r>
       <r>   -16.0104     0.0000   288.0000 </r>
       <r>   -15.7500     0.0000   288.0000 </r>
       <r>   -15.4896     0.0000   288.0000 </r>
       <r>   -15.2292     0.0000   288.0000 </r>
       <r>   -14.9688     0.0000   288.0000 </r>
       <r>   -14.7084     0.0420   288.0109 </r>
       <r>   -14.4480     1.8156   288.4837 </r>
       <r>   -14.1876     5.6553   289.9564 </r>
       <r>   -13.9272     8.0681   292.0573 </r>
       <r>   -13.6668    15.5098   296.0961 </r>
       <r>   -13.4064    20.4779   301.4286 </r>
       <r>   -13.1460    22.7681   307.3574 </r>
       <r>   -12.8856    27.4784   314.5129 </r>
       <r>   -12.6252    23.4936   320.6306 </r>
       <r>   -12.3648    49.4089   333.4968 </r>
       <r>   -12.1044    50.7710   346.7177 </r>
       <r>   -11.8440    36.1491   356.1310 </r>
       <r>   -11.5836    40.1707   366.5915 </r>
       <r>   -11.3232    37.4326   376.3391 </r>
       <r>   -11.0628    15.1559   380.2857 </r>
       <r>   -10.8024    10.7661   383.0892 </r>
       <r>   -10.5420     3.4030   383.9753 </r>
       <r>   -10.2816     0.0946   384.0000 </r>
       <r>   -10.0212     0.0001   384.0000 </r>
       <r>    -9.7608     0.0000   384.0000 </r>
       <r>    -9.5004     0.0000   384.0000 </r>
       <r>    -9.2400     0.0000   384.0000 </r>
       <r>    -8.9796     0.0000   384.0000 </r>
       <r>    -8.7192     0.0000   384.0000 </r>
       <r>    -8.4588     0.0000   384.0000 </r>
       <r>    -8.1984     0.0000   384.0000 </r>
       <r>    -7.9380     0.0000   384.0000 </r>
       <r>    -7.6776     0.0000   384.0000 </r>
       <r>    -7.4172     0.0000   384.0000 </r>
       <r>    -7.1568     0.0000   384.0000 </r>
       <r>    -6.8964     0.0000   384.0000 </r>
       <r>    -6.6359     0.0005   384.0001 </r>
       <r>    -6.3755     0.2019   384.0527 </r>
       <r>    -6.1151     6.0566   385.6299 </r>
       <r>    -5.8547    24.9455   392.1257 </r>
       <r>    -5.5943    31.5126   400.3317 </r>
       <r>    -5.3339    28.6821   407.8005 </r>
       <r>    -5.0735    50.3239   420.9050 </r>
       <r>    -4.8131    66.5710   438.2402 </r>
       <r>    -4.5527    59.5467   453.7463 </r>
       <r>    -4.2923    55.8744   468.2961 </r>
       <r>    -4.0319    67.6461   485.9113 </r>
       <r>    -3.7715    60.4583   501.6547 </r>
       <r>    -3.5111    66.9582   519.0908 </r>
       <r>    -3.2507    89.1892   542.3159 </r>
       <r>    -2.9903    96.4845   567.4406 </r>
       <r>    -2.7299    88.5829   590.5078 </r>
       <r>    -2.4695    88.5630   613.5698 </r>
       <r>    -2.2091    75.9299   633.3421 </r>
       <r>    -1.9487    51.4722   646.7455 </r>
       <r>    -1.6883    44.0781   658.2235 </r>
       <r>    -1.4279    56.1122   672.8353 </r>
       <r>    -1.1675    75.6519   692.5352 </r>
       <r>    -0.9071   107.5616   720.5445 </r>
       <r>    -0.6467   139.0213   756.7459 </r>
       <r>    -0.3863   157.4739   797.7524 </r>
       <r>    -0.1259   171.6717   842.4561 </r>
       <r>     0.1345   183.4220   890.2195 </r>
       <r>     0.3949   164.0163   932.9297 </r>
       <r>     0.6553   134.5999   967.9798 </r>
       <r>     0.9157   107.5749   995.9925 </r>
       <r>     1.1761    84.4766  1017.9904 </r>
       <r>     1.4365    75.7726  1037.7217 </r>
       <r>     1.6969    61.8341  1053.8235 </r>
       <r>     1.9573    53.8427  1067.8442 </r>
       <r>     2.2177    60.8572  1083.6916 </r>
       <r>     2.4781    65.7819  1100.8213 </r>
       <r>     2.7385    70.5397  1119.1900 </r>
       <r>     2.9989    60.4914  1134.9421 </r>
       <r>     3.2593    29.0328  1142.5023 </r>
       <r>     3.5197    21.3021  1148.0494 </r>
       <r>     3.7801    12.0598  1151.1898 </r>
       <r>     4.0405     4.4886  1152.3586 </r>
       <r>     4.3009     5.0198  1153.6658 </r>
       <r>     4.5613     1.7638  1154.1251 </r>
       <r>     4.8217     4.9415  1155.4119 </r>
       <r>     5.0821    11.5695  1158.4246 </r>
       <r>     5.3425    21.7148  1164.0791 </r>
       <r>     5.6029    24.4086  1170.4352 </r>
       <r>     5.8633    19.6376  1175.5489 </r>
       <r>     6.1238    24.4007  1181.9029 </r>
       <r>     6.3842    29.3155  1189.5367 </r>
       <r>     6.6446    29.4124  1197.1957 </r>
       <r>     6.9050    36.4360  1206.6837 </r>
       <r>     7.1654    44.6682  1218.3154 </r>
       <r>     7.4258    55.5898  1232.7911 </r>
       <r>     7.6862    53.1341  1246.6274 </r>
       <r>     7.9466    51.4829  1260.0336 </r>
       <r>     8.2070    27.9950  1267.3236 </r>
       <r>     8.4674     2.5792  1267.9952 </r>
       <r>     8.7278     0.0184  1268.0000 </r>
       <r>     8.9882     0.0000  1268.0000 </r>
       <r>     9.2486     0.0000  1268.0000 </r>
       <r>     9.5090     0.0000  1268.0000 </r>
       <r>     9.7694     0.0000  1268.0000 </r>
       <r>    10.0298     0.0000  1268.0000 </r>
       <r>    10.2902     0.0000  1268.0000 </r>
       <r>    10.5506     0.0000  1268.0000 </r>
       <r>    10.8110     0.0000  1268.0000 </r>
       <r>    11.0714     0.0000  1268.0000 </r>
       <r>    11.3318     0.0000  1268.0000 </r>
       <r>    11.5922     0.0000  1268.0000 </r>
      </set>
     </set>
    </array>
   </total>
  </dos>
 </calculation>
 <structure name="finalpos" >
  <crystal>
   <varray name="basis" >
    <v>      11.25646304       0.00000000       0.00000000 </v>
    <v>       5.04456212      10.06282034       0.00000000 </v>
    <v>       0.00000000       0.00000000      21.74423184 </v>
   </varray>
   <i name="volume">   2463.00752351 </i>
   <varray name="rec_basis" >
    <v>       0.08883785      -0.04453504       0.00000000 </v>
    <v>       0.00000000       0.09937572       0.00000000 </v>
    <v>       0.00000000       0.00000000       0.04598921 </v>
   </varray>
  </crystal>
  <varray name="positions" >
   <v>       0.26092070       0.47878036       0.25332799 </v>
   <v>       0.35488056       0.38482049       0.38835497 </v>
   <v>       0.37402200       0.36610408       0.49727065 </v>
   <v>       0.16093289       0.07873709       0.14935617 </v>
   <v>       0.05097355       0.05051842       0.47267822 </v>
   <v>       0.28484372       0.33144741       0.09935239 </v>
   <v>       0.36819893       0.23939913       0.21765305 </v>
   <v>       0.46215880       0.14543926       0.35268003 </v>
   <v>       0.00030194       0.37150212       0.21765305 </v>
   <v>       0.09426181       0.27754226       0.35268003 </v>
   <v>       0.18918343       0.18872511       0.47267991 </v>
   <v>       0.40634206       0.46546199       0.08262607 </v>
   <v>       0.76092070       0.47878036       0.25332799 </v>
   <v>       0.85488056       0.38482049       0.38835497 </v>
   <v>       0.95412076       0.28558028       0.50507481 </v>
   <v>       0.66696083       0.07274024       0.11830101 </v>
   <v>       0.54913715       0.05414984       0.47245657 </v>
   <v>       0.77423906       0.33335899       0.08262607 </v>
   <v>       0.86819893       0.23939913       0.21765305 </v>
   <v>       0.96215880       0.14543926       0.35268003 </v>
   <v>       0.50030194       0.37150212       0.21765305 </v>
   <v>       0.59426181       0.27754226       0.35268003 </v>
   <v>       0.68491012       0.19025034       0.47256892 </v>
   <v>       0.98299681       0.44351134       0.11356023 </v>
   <v>       0.26092070       0.97878036       0.25332799 </v>
   <v>       0.35488056       0.88482049       0.38835497 </v>
   <v>       0.36863286       0.87106839       0.49659109 </v>
   <v>       0.16696083       0.57274024       0.11830101 </v>
   <v>       0.04945346       0.55479330       0.47257270 </v>
   <v>       0.29105314       0.79611052       0.10630943 </v>
   <v>       0.36819893       0.73939913       0.21765305 </v>
   <v>       0.46215880       0.64543926       0.35268003 </v>
   <v>       0.00030194       0.87150212       0.21765305 </v>
   <v>       0.09426181       0.77754226       0.35268003 </v>
   <v>       0.18555260       0.69056374       0.47245685 </v>
   <v>       0.43103925       0.94980594       0.10463479 </v>
   <v>       0.76092070       0.97878036       0.25332799 </v>
   <v>       0.85488056       0.88482049       0.38835497 </v>
   <v>       0.87359841       0.86567782       0.49727119 </v>
   <v>       0.68408998       0.55129103       0.13074748 </v>
   <v>       0.54121436       0.55418346       0.46614478 </v>
   <v>       0.78046502       0.83112915       0.10026029 </v>
   <v>       0.86819893       0.73939913       0.21765305 </v>
   <v>       0.96215880       0.64543926       0.35268003 </v>
   <v>       0.50030194       0.87150212       0.21765305 </v>
   <v>       0.59426181       0.77754226       0.35268003 </v>
   <v>       0.68551560       0.69848600       0.46614672 </v>
   <v>       0.90872874       0.96036126       0.10031257 </v>
   <v>       0.07287763       0.16682343       0.27005396 </v>
   <v>       0.16683750       0.07286357       0.40508094 </v>
   <v>       0.37230905       0.35191910       0.02145185 </v>
   <v>       0.47891775       0.26078330       0.13502698 </v>
   <v>       0.21049834       0.52955762       0.52691953 </v>
   <v>       0.03023343       0.37768264       0.45050807 </v>
   <v>       0.43627354       0.47164251       0.31548109 </v>
   <v>       0.34231368       0.06560239       0.18045411 </v>
   <v>       0.11314720       0.46945221       0.05582489 </v>
   <v>       0.17409868       0.39738738       0.18045411 </v>
   <v>       0.26805855       0.30342751       0.31548109 </v>
   <v>       0.36201842       0.20946765       0.45050807 </v>
   <v>       0.57287763       0.16682343       0.27005396 </v>
   <v>       0.66683750       0.07286357       0.40508094 </v>
   <v>       0.81939478       0.48404879       0.05856999 </v>
   <v>       0.97891775       0.26078330       0.13502698 </v>
   <v>       0.53023343       0.37768264       0.45050807 </v>
   <v>       0.93627354       0.47164251       0.31548109 </v>
   <v>       0.77107688       0.15240611       0.06755272 </v>
   <v>       0.84231368       0.06560239       0.18045411 </v>
   <v>       0.58250041       0.48019074       0.06845855 </v>
   <v>       0.67409868       0.39738738       0.18045411 </v>
   <v>       0.76805855       0.30342751       0.31548109 </v>
   <v>       0.86201842       0.20946765       0.45050807 </v>
   <v>       0.07287764       0.66682343       0.27005396 </v>
   <v>       0.16683750       0.57286357       0.40508094 </v>
   <v>       0.25036627       0.97981288       0.06947063 </v>
   <v>       0.47891775       0.76078330       0.13502698 </v>
   <v>       0.20651092       0.03318745       0.52942276 </v>
   <v>       0.03023342       0.87768264       0.45050807 </v>
   <v>       0.43627354       0.97164251       0.31548109 </v>
   <v>       0.25908246       0.65155508       0.06046149 </v>
   <v>       0.34231368       0.56560239       0.18045411 </v>
   <v>       0.17409868       0.89738738       0.18045411 </v>
   <v>       0.26805855       0.80342751       0.31548109 </v>
   <v>       0.36201842       0.70946764       0.45050807 </v>
   <v>       0.57287764       0.66682343       0.27005396 </v>
   <v>       0.66683750       0.57286357       0.40508094 </v>
   <v>       0.84614914       0.89461782       0.02709618 </v>
   <v>       0.97891775       0.76078330       0.13502698 </v>
   <v>       0.71014540       0.02920573       0.52691757 </v>
   <v>       0.53023342       0.87768264       0.45050807 </v>
   <v>       0.93627354       0.97164251       0.31548109 </v>
   <v>       0.84231368       0.56560239       0.18045411 </v>
   <v>       0.59159333       0.96821149       0.06641722 </v>
   <v>       0.67409868       0.89738738       0.18045411 </v>
   <v>       0.76805855       0.80342751       0.31548109 </v>
   <v>       0.86201842       0.70946764       0.45050807 </v>
  </varray>
 </structure>
</modeling>
