"Millerite NiS"                         
           1
    16.884694    0.000000    0.000000
     0.000000    9.578410    0.000000
     0.000000    0.000000   16.169087
   Ty   Ty
  36  36
Direct configuration=     1
   0.78004631  0.14529695  0.12058499
   0.73151130  0.10015851  0.25038163
   0.21356073  0.60878951  0.09709584
   0.29733029  0.64529695  0.21596896
   0.38511984  0.11005559  0.12577647
   0.46975828  0.14529695  0.24776362
   0.95247430  0.64529695  0.15237965
   0.96861102  0.62643774  0.30082859
   0.12490229  0.14529695  0.18417431
   0.57096594  0.65392007  0.15825659
   0.64218627  0.64529695  0.27955828
   0.88238507  0.97368846  0.09416040
   0.00849004  0.98926181  0.16197250
   0.35664004  0.64492572  0.05801743
   0.42486676  0.51319395  0.19076795
   0.43780744  0.51271075  0.34277646
   0.59059540  0.91150401  0.08820892
   0.59729475  0.01319395  0.22256260
   0.08001077  0.51319395  0.12717863
   0.10154444  0.48725045  0.27312512
   0.25243876  0.01319395  0.15897329
   0.34681614  0.93448676  0.27051513
   0.76160982  0.44582942  0.11584516
   0.76972274  0.51319395  0.25435726
   0.89800688  0.37164808  0.14091714
   0.44036211  0.85666941  0.05405621
   0.42486676  0.77739995  0.19076795
   0.45393109  0.79512094  0.34790216
   0.52912041  0.14767732  0.08815753
   0.59729475  0.27739995  0.22256260
   0.08001077  0.77739995  0.12717863
   0.11718024  0.90536843  0.24631586
   0.25243876  0.27739995  0.15897329
   0.27543683  0.28633123  0.31618643
   0.74691390  0.90577948  0.12158246
   0.76972274  0.77739995  0.25435726
   0.04737786  0.07829309  0.27297273
   0.93612241  0.16074923  0.12779215
   0.47417723  0.64529695  0.08702573
   0.50874518  0.64529695  0.27779368
   0.64660522  0.14529695  0.11882039
   0.63519960  0.15058648  0.31665775
   0.11383458  0.64573101  0.03116657
   0.16388920  0.64529695  0.21420436
   0.28228171  0.14631717  0.06283514
   0.33631719  0.14529695  0.24599902
   0.81903321  0.64529695  0.15061505
   0.84913919  0.64501078  0.31681978
   0.82215736  0.30983441  0.04483108
   0.79495579  0.30253564  0.21430894
   0.31177708  0.81351195  0.11911576
   0.34115814  0.73756054  0.32386690
   0.48420507  0.31351195  0.15091042
   0.50241069  0.33473962  0.30909321
   0.00148905  0.81351195  0.24629439
   0.96994075  0.82674885  0.07595026
   0.14213424  0.32580735  0.10555775
   0.16716352  0.30494902  0.26524911
   0.65663306  0.81351195  0.18270508
   0.69513432  0.79305145  0.35143504
   0.31177708  0.47708195  0.11911576
   0.33576934  0.46203269  0.28341754
   0.78701524  0.01009923  0.01972204
   0.82906105  0.97708195  0.21449973
   0.98947170  0.46076844  0.22280803
   0.97052399  0.49157253  0.06390554
   0.48420507  0.97708195  0.15091042
   0.50612219  0.98040340  0.32122156
   0.65663306  0.47708195  0.18270508
   0.69547791  0.50099677  0.35207442
   0.13362743  0.96878754  0.11424475
   0.22529860  0.96682893  0.28580986
