
76 atoms
2 atom types
   0.0000000000   16.8846940542 xlo xhi
   0.0000000000    9.5784100000 ylo yhi
   0.0000000000   16.2994563815 zlo zhi
   0.0000000000    0.0000000000    0.0000000000 xy xz yz

Atoms # atomic

     1      1   13.1708432418    1.3917137972    2.0801184984
     2      1   13.7545126198    1.3917137972    5.1646620648
     3      1    4.4366615172    6.1809187972    0.5378467234
     4      1    5.0203308953    6.1809187972    3.6223902735
     5      1    7.3480554254    1.3917137972    1.0519373150
     6      1    7.9317248035    1.3917137972    4.1364808651
     7      1   16.0822371500    6.1809187972    2.5942090901
     8      1   16.6659065280    6.1809187972    5.6787526565
     9      1    1.5252676091    1.3917137972    0.0237561317
    10      1    2.1089370040    1.3917137972    3.1082996818
    11      1    2.6926063820    1.3917137972    6.1928432482
    12      1   10.2594493336    6.1809187972    1.5660279067
    13      1   10.8431187116    6.1809187972    4.6505714731
    14      1   15.3242575016    0.1263771009    1.6726410373
    15      1   15.9079268796    0.1263771009    4.7571846037
    16      1    6.5900757771    4.9155821009    0.1303692622
    17      1    7.1737451720    4.9155821009    3.2149128286
    18      1    7.7574145500    4.9155821009    6.2994563787
    19      1    9.5014696853    0.1263771009    0.6444598539
    20      1   10.0851390633    0.1263771009    3.7290034203
    21      1    1.3509573556    4.9155821009    2.1867316290
    22      1    1.9346267336    4.9155821009    5.2712751953
    23      1    4.2623512638    0.1263771009    2.7008222206
    24      1    4.8460206418    0.1263771009    5.7853657870
    25      1   12.4128635934    4.9155821009    1.1585504456
    26      1   12.9965329715    4.9155821009    4.2430940120
    27      1   15.3242575016    2.6570504934    1.6726410373
    28      1   15.9079268796    2.6570504934    4.7571846037
    29      1    6.5900757771    7.4462554934    0.1303692622
    30      1    7.1737451720    7.4462554934    3.2149128286
    31      1    7.7574145500    7.4462554934    6.2994563787
    32      1    9.5014696853    2.6570504934    0.6444598539
    33      1   10.0851390633    2.6570504934    3.7290034203
    34      1    1.3509573556    7.4462554934    2.1867316290
    35      1    4.2623512638    2.6570504934    2.7008222206
    36      1    4.8460206418    2.6570504934    5.7853657870
    37      1   12.4128635934    7.4462554934    1.1585504456
    38      1   12.9965329715    7.4462554934    4.2430940120
    39      2    0.4394944537    1.3917137972    6.1643112128
    40      2   16.7405191299    1.3917137972    3.0797676627
    41      2    8.0063374054    6.1809187972    1.5374958713
    42      2    8.5900067834    6.1809187972    4.6220394377
    43      2   10.9177313135    1.3917137972    2.0515864793
    44      2   11.5014006916    1.3917137972    5.1361300294
    45      2    2.1835495890    6.1809187972    0.5093146880
    46      2    2.7672189670    6.1809187972    3.5938582544
    47      2    5.0949434972    1.3917137972    1.0234052796
    48      2    5.6786128752    1.3917137972    4.1079488460
    49      2   13.8291252217    6.1809187972    2.5656770710
    50      2   14.4127945998    6.1809187972    5.6502206211
    51      2   13.4147728710    3.0029460353    0.5140905917
    52      2   13.9984422659    3.0029460353    3.5986341581
    53      2    5.2642605414    7.7921510353    2.0563623667
    54      2    5.8479299194    7.7921510353    5.1409059331
    55      2    8.1756544496    3.0029460353    2.5704529747
    56      2    8.7593238276    3.0029460353    5.6549965248
    57      2    0.0251421030    7.7921510353    4.1127247497
    58      2   16.3261667792    7.7921510353    1.0281811834
    59      2    2.3528666332    3.0029460353    1.5422717750
    60      2    2.9365360112    3.0029460353    4.6268153414
    61      2   10.5033789797    7.7921510353    0.0000000000
    62      2   11.0870483577    7.7921510353    3.0845435664
    63      2   11.6707177358    7.7921510353    6.1690871165
    64      2    5.2642605414    4.5696865590    2.0563623667
    65      2    5.8479299194    4.5696865590    5.1409059331
    66      2   13.4147728710    9.3588915590    0.5140905917
    67      2   13.9984422659    9.3588915590    3.5986341581
    68      2    0.0251421030    4.5696865590    4.1127247497
    69      2   16.3261667792    4.5696865590    1.0281811834
    70      2    8.1756544496    9.3588915590    2.5704529747
    71      2    8.7593238276    9.3588915590    5.6549965248
    72      2   10.5033789797    4.5696865590    0.0000000000
    73      2   11.0870483577    4.5696865590    3.0845435664
    74      2   11.6707177358    4.5696865590    6.1690871165
    75      2    2.3528666332    9.3588915590    1.5422717750
    76      2    2.9365360112    9.3588915590    4.6268153414
