
96 atoms
2 atom types
   0.0000000000   11.2564630382 xlo xhi
   0.0000000000   10.0628203371 ylo yhi
   0.0000000000   20.9353694064 zlo zhi
   5.0445621212    0.0000000000    0.0000000000 xy xz yz

Atoms # atomic

     1      1    5.3522814171    4.8178806329    6.6478400418
     2      1    5.9359508011    3.8723793724    9.5838980209
     3      1    1.6626616654    1.6774731162    0.7757241255
     4      1    2.2463310544    0.7319718658    3.7117820836
     5      1    4.1849426583    4.3000328142    0.0000000000
     6      1    4.7686120310    3.3545315537    2.9360579582
     7      1    5.3522814200    2.4090303032    5.8721159163
     8      1    5.9359507978    1.4635290528    8.8081738745
     9      1    1.8774643312    3.7383590180    5.8721159163
    10      1    2.4611337089    2.7928577675    8.8081738745
    11      1    6.9220262924    4.6838602684    2.9360579582
    12      1    3.8160759348    0.5979515113    0.0000000000
    13      1   10.9805129363    4.8178806329    6.6478400418
    14      1   11.5641823202    3.8723793724    9.5838980209
    15      1    7.2908931845    1.6774731162    0.7757241255
    16      1    7.8745625736    0.7319718658    3.7117820836
    17      1    9.8131741774    4.3000328142    0.0000000000
    18      1   10.3968435501    3.3545315537    2.9360579582
    19      1   10.9805129391    2.4090303032    5.8721159163
    20      1   11.5641823169    1.4635290528    8.8081738745
    21      1    7.5056958503    3.7383590180    5.8721159163
    22      1    8.0893652281    2.7928577675    8.8081738745
    23      1   12.5502578115    4.6838602684    2.9360579582
    24      1    9.4443074539    0.5979515113    0.0000000000
    25      1    7.8745624777    9.8492908014    6.6478400418
    26      1    8.4582318617    8.9037895409    9.5838980209
    27      1    4.1849427260    6.7088832847    0.7757241255
    28      1    4.7686121150    5.7633820343    3.7117820836
    29      1    6.7072237188    9.3314429827    0.0000000000
    30      1    7.2908930916    8.3859417222    2.9360579582
    31      1    7.8745624806    7.4404404718    5.8721159163
    32      1    8.4582318584    6.4949392213    8.8081738745
    33      1    4.3997453918    8.7697691865    5.8721159163
    34      1    4.9834147695    7.8242679360    8.8081738745
    35      1    9.4443073530    9.7152704369    2.9360579582
    36      1    6.3383569954    5.6293616799    0.0000000000
    37      1   13.5027939968    9.8492908014    6.6478400418
    38      1   14.0864633808    8.9037895409    9.5838980209
    39      1    9.8131742451    6.7088832847    0.7757241255
    40      1   10.3968436342    5.7633820343    3.7117820836
    41      1   12.3354552380    9.3314429827    0.0000000000
    42      1   12.9191246107    8.3859417222    2.9360579582
    43      1   13.5027939997    7.4404404718    5.8721159163
    44      1   14.0864633775    6.4949392213    8.8081738745
    45      1   10.0279769109    8.7697691865    5.8721159163
    46      1   10.6116462887    7.8242679360    8.8081738745
    47      1   15.0725388721    9.7152704369    2.9360579582
    48      1   11.9665885145    5.6293616799    0.0000000000
    49      2    1.6618955754    1.6787141437    7.0115334662
    50      2    2.2455649593    0.7332128832    9.9475914244
    51      2    6.1227881588    3.5697166446    1.1394175499
    52      2    6.7064575479    2.6242153942    4.0754755080
    53      2    2.2455649489    3.8005524401   10.9353694041
    54      2    7.2901269264    4.7460537006    7.9993114459
    55      2    3.6005071747    1.6056461839    2.1271955296
    56      2    4.1841765637    0.6601449334    5.0632534877
    57      2    3.3807112990    4.9443389389    2.1271955296
    58      2    3.9643806830    3.9988376783    5.0632534877
    59      2    4.5480500607    3.0533364279    7.9993114459
    60      2    5.1317194447    2.1078351674   10.9353694041
    61      2    7.2901270945    1.6787141437    7.0115334662
    62      2    7.8737964785    0.7332128832    9.9475914244
    63      2   11.7510196780    3.5697166446    1.1394175499
    64      2   12.3346890670    2.6242153942    4.0754755080
    65      2    7.8737964680    3.8005524401   10.9353694041
    66      2   12.9183584456    4.7460537006    7.9993114459
    67      2    9.2287386938    1.6056461839    2.1271955296
    68      2    9.8124080829    0.6601449334    5.0632534877
    69      2    9.0089428181    4.9443389389    2.1271955296
    70      2    9.5926122021    3.9988376783    5.0632534877
    71      2   10.1762815799    3.0533364279    7.9993114459
    72      2   10.7599509639    2.1078351674   10.9353694041
    73      2    4.1841766359    6.7101243123    7.0115334662
    74      2    4.7678460199    5.7646230517    9.9475914244
    75      2    8.6450692194    8.6011268132    1.1394175499
    76      2    9.2287386084    7.6556255627    4.0754755080
    77      2    4.7678460095    8.8319626086   10.9353694041
    78      2    9.8124079870    9.7774638691    7.9993114459
    79      2    6.1227882353    6.6370563524    2.1271955296
    80      2    6.7064576243    5.6915551020    5.0632534877
    81      2    5.9029923596    9.9757491074    2.1271955296
    82      2    6.4866617436    9.0302478469    5.0632534877
    83      2    7.0703311213    8.0847465964    7.9993114459
    84      2    7.6540005053    7.1392453359   10.9353694041
    85      2    9.8124081551    6.7101243123    7.0115334662
    86      2   10.3960775391    5.7646230517    9.9475914244
    87      2   14.2733007385    8.6011268132    1.1394175499
    88      2   14.8569701276    7.6556255627    4.0754755080
    89      2   10.3960775286    8.8319626086   10.9353694041
    90      2   15.4406395061    9.7774638691    7.9993114459
    91      2   11.7510197544    6.6370563524    2.1271955296
    92      2   12.3346891434    5.6915551020    5.0632534877
    93      2   11.5312238787    9.9757491074    2.1271955296
    94      2   12.1148932627    9.0302478469    5.0632534877
    95      2   12.6985626405    8.0847465964    7.9993114459
    96      2   13.2822320244    7.1392453359   10.9353694041
