LAMMPS data file via write_data, version 5 Jun 2019, timestep = 64

74 atoms
2 atom types

0.0000000000000000e+00 1.6884694054200001e+01 xlo xhi
0.0000000000000000e+00 9.5784099999999999e+00 ylo yhi
0.0000000000000000e+00 1.6654645685100000e+01 zlo zhi
0.0000000000000000e+00 0.0000000000000000e+00 0.0000000000000000e+00 xy xz yz

Masses

1 58.71
2 32.06

Atoms # atomic

1 1 1.3170843208000003e+01 1.3917138258999999e+00 2.0563623765000001e+00 0 0 0
2 1 1.3563706742178800e+01 1.3724910625493019e+00 4.7462536456651456e+00 0 0 0
3 1 3.6412596497723317e+00 5.9977045491954968e+00 1.6498856600723517e+00 0 0 0
4 1 5.0203308784000003e+00 6.1809188259000001e+00 3.5986341463999998e+00 0 0 0
5 1 6.5860967533287003e+00 1.2023812015409805e+00 2.1298875129012891e+00 0 0 0
6 1 7.9317247696999997e+00 1.3917138258999999e+00 4.1127247530000002e+00 0 0 0
7 1 1.6082237116200002e+01 6.1809188259000001e+00 2.5704529665000000e+00 0 0 0
8 1 1.6457092131831391e+01 6.1850703335217165e+00 5.2877059009358645e+00 0 0 0
9 1 2.8732266176743106e+00 1.3673800248113066e+00 7.7930798044491478e-01 0 0 0
10 1 2.1089369701999998e+00 1.3917138258999999e+00 3.0845435563999999e+00 0 0 0
11 1 1.1246862222944574e+00 1.8321287307942318e+00 5.1838881583777088e+00 0 0 0
12 1 9.6216857124890893e+00 6.1715782525188896e+00 2.6979817574707088e+00 0 0 0
13 1 1.0843118677900000e+01 6.1809188259000001e+00 4.6268153428999996e+00 0 0 0
14 1 1.5411259986652654e+01 4.3464013847735218e-02 2.0438867773441802e+00 0 0 0
15 1 1.5914683059618669e+01 1.2394888806874275e-01 4.5058979894358089e+00 0 0 0
16 1 6.0431597785298559e+00 6.1793644069134865e+00 1.0475434164111506e+00 0 0 0
17 1 7.1737451382000001e+00 4.9155821296999997e+00 3.1911566886000000e+00 0 0 0
18 1 7.9128830893303617e+00 4.3937096920112211e+00 5.4301689664238513e+00 0 0 0
19 1 8.9526091590584134e+00 1.4007042646390655e+00 1.5320083814211298e+00 0 0 0
20 1 1.0085139046400000e+01 1.2637712970000001e-01 3.7052472952000000e+00 0 0 0
21 1 1.3509573217999999e+00 4.9155821296999997e+00 2.1629755087000002e+00 0 0 0
22 1 1.8949482471765255e+00 4.8325349080301834e+00 4.9146279708268557e+00 0 0 0
23 1 4.2623512300000002e+00 1.2637712970000001e-01 2.6770660986000001e+00 0 0 0
24 1 1.2976704955231568e+01 4.0613390110849057e+00 2.0023716523851185e+00 0 0 0
25 1 1.2996532937700001e+01 4.9155821296999997e+00 4.2193378850999999e+00 0 0 0
26 1 1.5335854524257256e+01 2.7082908000666883e+00 1.9633958779671559e+00 0 0 0
27 1 1.5863356403365051e+01 2.7159359199757507e+00 4.4654713864985789e+00 0 0 0
28 1 7.0009487381637978e+00 8.4789346582542073e+00 1.0697898311041067e+00 0 0 0
29 1 7.1737451382000001e+00 7.4462555221000031e+00 3.1911566886000000e+00 0 0 0
30 1 7.7669321063266858e+00 7.8108292090947442e+00 5.5462859932606738e+00 0 0 0
31 1 1.0546203531555786e+01 3.3485428842560139e+00 1.4785216633836804e+00 0 0 0
32 1 1.0085139046400000e+01 2.6570505221000000e+00 3.7052472952000000e+00 0 0 0
33 1 1.3509573217999999e+00 7.4462555221000031e+00 2.1629755087000002e+00 0 0 0
34 1 1.8940174982718729e+00 7.5693937165282836e+00 4.8796272983876490e+00 0 0 0
35 1 4.2623512300000002e+00 2.6570505221000000e+00 2.6770660986000001e+00 0 0 0
36 1 4.9874919020118202e+00 3.0717068200863062e+00 4.9443490506003753e+00 0 0 0
37 1 1.2996532937700001e+01 7.4462555221000031e+00 4.2193378850999999e+00 0 0 0
38 2 1.6187159065960241e+01 1.4479573333930826e+00 6.0461738340574653e+00 -1 0 0
39 2 1.6740519096100002e+01 1.3917138258999999e+00 3.0560115336000000e+00 0 0 0
40 2 8.0063373716000008e+00 6.1809188259000001e+00 1.5137397470000000e+00 0 0 0
41 2 8.5900067496000005e+00 6.1809188259000001e+00 4.5982833201000002e+00 0 0 0
42 2 1.0917731279800000e+01 1.3917138258999999e+00 2.0278303370000001e+00 0 0 0
43 2 1.1480879466116134e+01 1.3612515605748836e+00 4.6849413061130978e+00 0 0 0
44 2 1.8935955697228579e+00 6.1802784107004953e+00 6.3393791421438550e-01 0 0 0
45 2 2.7672189501000002e+00 6.1809188259000001e+00 3.5701021234999999e+00 0 0 0
46 2 1.3441382811650646e+00 6.2229030643446439e+00 6.3170466468776310e+00 0 0 0
47 2 4.8671796526333289e+00 1.3910486586500761e+00 1.0436874867496908e+00 0 0 0
48 2 5.5481005116112012e+00 1.3647891406000636e+00 3.9289076747021801e+00 0 0 0
49 2 1.3862389055195067e+01 5.9588786498575681e+00 2.6190649849078418e+00 0 0 0
50 2 1.4358625457378537e+01 6.2127999778352549e+00 5.2164054344673367e+00 0 0 0
51 2 1.3761510954789236e+01 2.7871531793723960e+00 6.3134856846776732e-01 0 0 0
52 2 1.3998442232200000e+01 3.0029460640000001e+00 3.5748780264000000e+00 0 0 0
53 2 5.2642605076000004e+00 7.7921510639999996e+00 2.0326062398999998e+00 0 0 0
54 2 5.8814164196825196e+00 7.6651273954922887e+00 4.8265299582041674e+00 0 0 0
55 2 8.1756544158000004e+00 3.0029460640000001e+00 2.5466968465000002e+00 0 0 0
56 2 8.9259298383701253e+00 2.6687446494937621e+00 5.4294977457772493e+00 0 0 0
57 2 2.5142086099999999e-02 7.7921510639999996e+00 4.0889686162999999e+00 0 0 0
58 2 1.6337733918342948e+01 7.8586742025007048e+00 1.3981782505348903e+00 0 0 0
59 2 2.3740342385453053e+00 3.0918307464682231e+00 1.7704811521301429e+00 0 0 0
60 2 2.9365359774000002e+00 3.0029460640000001e+00 4.6030592063000002e+00 0 0 0
61 2 1.1008899501025772e+01 7.7611710366922688e+00 3.2705209612223878e+00 0 0 0
62 2 1.1829294590004508e+01 7.4871220401819496e+00 5.8442387239802640e+00 0 0 0
63 2 5.2642605076000004e+00 4.5696865876999997e+00 2.0326062398999998e+00 0 0 0
64 2 5.9659336218408798e+00 4.8454000832778705e+00 4.9614382540414450e+00 0 0 0
65 2 1.3905688178654296e+01 7.5589735450037873e-02 7.2169948579458265e-01 0 1 0
66 2 1.3998442232200000e+01 9.3588915877000023e+00 3.5748780264000000e+00 0 0 0
67 2 2.5142086099999999e-02 4.5696865876999997e+00 4.0889686162999999e+00 0 0 0
68 2 1.6328808232705967e+01 4.4792430459712644e+00 1.4047364397031561e+00 0 0 0
69 2 8.1756544158000004e+00 9.3588915877000023e+00 2.5466968465000002e+00 0 0 0
70 2 8.8189847086719588e+00 9.5110239411975872e+00 5.3341575352263391e+00 0 0 0
71 2 1.1087048324000000e+01 4.5696865876999997e+00 3.0607874364000001e+00 0 0 0
72 2 1.1731107400865158e+01 4.7630754816456742e+00 5.7912698969405110e+00 0 0 0
73 2 2.3864358593319590e+00 9.2560765377265799e+00 1.8350863860602822e+00 0 0 0
74 2 2.1661514355002165e+00 9.6746764391423892e-02 4.7672890206453422e+00 0 1 0

Velocities

1 0.0000000000000000e+00 0.0000000000000000e+00 0.0000000000000000e+00
2 0.0000000000000000e+00 0.0000000000000000e+00 0.0000000000000000e+00
3 0.0000000000000000e+00 0.0000000000000000e+00 0.0000000000000000e+00
4 0.0000000000000000e+00 0.0000000000000000e+00 0.0000000000000000e+00
5 0.0000000000000000e+00 0.0000000000000000e+00 0.0000000000000000e+00
6 0.0000000000000000e+00 0.0000000000000000e+00 0.0000000000000000e+00
7 0.0000000000000000e+00 0.0000000000000000e+00 0.0000000000000000e+00
8 0.0000000000000000e+00 0.0000000000000000e+00 0.0000000000000000e+00
9 0.0000000000000000e+00 0.0000000000000000e+00 0.0000000000000000e+00
10 0.0000000000000000e+00 0.0000000000000000e+00 0.0000000000000000e+00
11 0.0000000000000000e+00 0.0000000000000000e+00 0.0000000000000000e+00
12 0.0000000000000000e+00 0.0000000000000000e+00 0.0000000000000000e+00
13 0.0000000000000000e+00 0.0000000000000000e+00 0.0000000000000000e+00
14 0.0000000000000000e+00 0.0000000000000000e+00 0.0000000000000000e+00
15 0.0000000000000000e+00 0.0000000000000000e+00 0.0000000000000000e+00
16 0.0000000000000000e+00 0.0000000000000000e+00 0.0000000000000000e+00
17 0.0000000000000000e+00 0.0000000000000000e+00 0.0000000000000000e+00
18 0.0000000000000000e+00 0.0000000000000000e+00 0.0000000000000000e+00
19 0.0000000000000000e+00 0.0000000000000000e+00 0.0000000000000000e+00
20 0.0000000000000000e+00 0.0000000000000000e+00 0.0000000000000000e+00
21 0.0000000000000000e+00 0.0000000000000000e+00 0.0000000000000000e+00
22 0.0000000000000000e+00 0.0000000000000000e+00 0.0000000000000000e+00
23 0.0000000000000000e+00 0.0000000000000000e+00 0.0000000000000000e+00
24 0.0000000000000000e+00 0.0000000000000000e+00 0.0000000000000000e+00
25 0.0000000000000000e+00 0.0000000000000000e+00 0.0000000000000000e+00
26 0.0000000000000000e+00 0.0000000000000000e+00 0.0000000000000000e+00
27 0.0000000000000000e+00 0.0000000000000000e+00 0.0000000000000000e+00
28 0.0000000000000000e+00 0.0000000000000000e+00 0.0000000000000000e+00
29 0.0000000000000000e+00 0.0000000000000000e+00 0.0000000000000000e+00
30 0.0000000000000000e+00 0.0000000000000000e+00 0.0000000000000000e+00
31 0.0000000000000000e+00 0.0000000000000000e+00 0.0000000000000000e+00
32 0.0000000000000000e+00 0.0000000000000000e+00 0.0000000000000000e+00
33 0.0000000000000000e+00 0.0000000000000000e+00 0.0000000000000000e+00
34 0.0000000000000000e+00 0.0000000000000000e+00 0.0000000000000000e+00
35 0.0000000000000000e+00 0.0000000000000000e+00 0.0000000000000000e+00
36 0.0000000000000000e+00 0.0000000000000000e+00 0.0000000000000000e+00
37 0.0000000000000000e+00 0.0000000000000000e+00 0.0000000000000000e+00
38 0.0000000000000000e+00 0.0000000000000000e+00 0.0000000000000000e+00
39 0.0000000000000000e+00 0.0000000000000000e+00 0.0000000000000000e+00
40 0.0000000000000000e+00 0.0000000000000000e+00 0.0000000000000000e+00
41 0.0000000000000000e+00 0.0000000000000000e+00 0.0000000000000000e+00
42 0.0000000000000000e+00 0.0000000000000000e+00 0.0000000000000000e+00
43 0.0000000000000000e+00 0.0000000000000000e+00 0.0000000000000000e+00
44 0.0000000000000000e+00 0.0000000000000000e+00 0.0000000000000000e+00
45 0.0000000000000000e+00 0.0000000000000000e+00 0.0000000000000000e+00
46 0.0000000000000000e+00 0.0000000000000000e+00 0.0000000000000000e+00
47 0.0000000000000000e+00 0.0000000000000000e+00 0.0000000000000000e+00
48 0.0000000000000000e+00 0.0000000000000000e+00 0.0000000000000000e+00
49 0.0000000000000000e+00 0.0000000000000000e+00 0.0000000000000000e+00
50 0.0000000000000000e+00 0.0000000000000000e+00 0.0000000000000000e+00
51 0.0000000000000000e+00 0.0000000000000000e+00 0.0000000000000000e+00
52 0.0000000000000000e+00 0.0000000000000000e+00 0.0000000000000000e+00
53 0.0000000000000000e+00 0.0000000000000000e+00 0.0000000000000000e+00
54 0.0000000000000000e+00 0.0000000000000000e+00 0.0000000000000000e+00
55 0.0000000000000000e+00 0.0000000000000000e+00 0.0000000000000000e+00
56 0.0000000000000000e+00 0.0000000000000000e+00 0.0000000000000000e+00
57 0.0000000000000000e+00 0.0000000000000000e+00 0.0000000000000000e+00
58 0.0000000000000000e+00 0.0000000000000000e+00 0.0000000000000000e+00
59 0.0000000000000000e+00 0.0000000000000000e+00 0.0000000000000000e+00
60 0.0000000000000000e+00 0.0000000000000000e+00 0.0000000000000000e+00
61 0.0000000000000000e+00 0.0000000000000000e+00 0.0000000000000000e+00
62 0.0000000000000000e+00 0.0000000000000000e+00 0.0000000000000000e+00
63 0.0000000000000000e+00 0.0000000000000000e+00 0.0000000000000000e+00
64 0.0000000000000000e+00 0.0000000000000000e+00 0.0000000000000000e+00
65 0.0000000000000000e+00 0.0000000000000000e+00 0.0000000000000000e+00
66 0.0000000000000000e+00 0.0000000000000000e+00 0.0000000000000000e+00
67 0.0000000000000000e+00 0.0000000000000000e+00 0.0000000000000000e+00
68 0.0000000000000000e+00 0.0000000000000000e+00 0.0000000000000000e+00
69 0.0000000000000000e+00 0.0000000000000000e+00 0.0000000000000000e+00
70 0.0000000000000000e+00 0.0000000000000000e+00 0.0000000000000000e+00
71 0.0000000000000000e+00 0.0000000000000000e+00 0.0000000000000000e+00
72 0.0000000000000000e+00 0.0000000000000000e+00 0.0000000000000000e+00
73 0.0000000000000000e+00 0.0000000000000000e+00 0.0000000000000000e+00
74 0.0000000000000000e+00 0.0000000000000000e+00 0.0000000000000000e+00
