<?xml version="1.0" encoding="ISO-8859-1"?>
<modeling>
 <generator>
  <i name="program" type="string">vasp </i>
  <i name="version" type="string">5.4.4.18Apr17-6-g9f103f2a35  </i>
  <i name="subversion" type="string">(build Aug 13 2019 17:33:20) gamma-only         parallel </i>
  <i name="platform" type="string">LinuxIFC </i>
  <i name="date" type="string">2020 05 12 </i>
  <i name="time" type="string">05:11:35 </i>
 </generator>
 <incar>
  <i type="string" name="SYSTEM">"Millerite NiS"</i>
  <i type="string" name="PREC">normal</i>
  <i type="int" name="NSIM">     4</i>
  <i type="int" name="NELM">   100</i>
  <i name="ENCUT">    450.00000000</i>
  <i type="string" name="LREAL">A</i>
  <i type="int" name="ISMEAR">     0</i>
  <i type="int" name="NWRITE">     2</i>
  <i type="logical" name="LWAVE"> F  </i>
  <i type="logical" name="LCHARG"> F  </i>
  <v type="int" name="KPOINT_BSE">    -1     0     0     0</v>
  <i type="int" name="NELM">   100</i>
 </incar>
 <structure name="primitive_cell" >
  <crystal>
   <varray name="basis" >
    <v>      16.88469405       0.00000000       0.00000000 </v>
    <v>       0.00000000       9.57841000       0.00000000 </v>
    <v>       0.00000000       0.00000000      16.65464569 </v>
   </varray>
   <i name="volume">   2693.53123734 </i>
   <varray name="rec_basis" >
    <v>       0.05922524       0.00000000       0.00000000 </v>
    <v>       0.00000000       0.10440146       0.00000000 </v>
    <v>       0.00000000       0.00000000       0.06004331 </v>
   </varray>
  </crystal>
  <varray name="positions" >
   <v>      -0.21995370       0.14529696       0.12347080 </v>
   <v>      -0.33981269       0.14529696       0.14681655 </v>
   <v>      -0.18317872      -0.00413678       0.04037307 </v>
   <v>      -0.18317872       0.29473069       0.04037307 </v>
   <v>      -0.26388338       0.14529696       0.25161499 </v>
   <v>      -0.17093895       0.31351196       0.21464750 </v>
   <v>      -0.17093895      -0.02291804       0.21464750 </v>
   <v>      -0.09027813       0.00251184       0.12018864 </v>
   <v>      -0.09027813       0.28808208       0.12018864 </v>
   <v>      -0.22900603       0.42638564       0.12248855 </v>
   <v>      -0.22900603      -0.13579173       0.12248855 </v>
   <v>      -0.00853880       0.14529696       0.18349304 </v>
   <v>      -0.40270525       0.01319396       0.22247530 </v>
   <v>      -0.40270525       0.27739996       0.22247530 </v>
   <v>      -0.05384073       0.28058505       0.26848116 </v>
   <v>      -0.05384073       0.01000887       0.26848116 </v>
   <v>      -0.34336694       0.47708196       0.18377980 </v>
   <v>      -0.34336694      -0.18648804       0.18377980 </v>
   <v>      -0.36375280       0.14529696       0.31511863 </v>
   <v>      -0.23027726      -0.48680604       0.25334300 </v>
   <v>      -0.23027726      -0.22260004       0.25334300 </v>
   <v>      -0.03202347      -0.17984659       0.08291490 </v>
   <v>      -0.03202347       0.47044050       0.08291490 </v>
   <v>      -0.18096679      -0.35470304       0.15262534 </v>
   <v>      -0.00378442       0.14529696       0.35022839 </v>
   <v>      -0.30357771      -0.21097602       0.34863992 </v>
   <v>      -0.30357771      -0.49843007       0.34863992 </v>
   <v>       0.00148905       0.47708196       0.24551520 </v>
   <v>       0.00148905      -0.18648804       0.24551520 </v>
   <v>       0.47710479       0.30630517       0.15932569 </v>
   <v>       0.47710479      -0.01571125       0.15932569 </v>
   <v>      -0.04752570      -0.35470304       0.15433850 </v>
   <v>       0.46975828       0.14529696       0.24694159 </v>
   <v>      -0.48733615      -0.02239469       0.31561452 </v>
   <v>      -0.48733615       0.31298860       0.31561452 </v>
   <v>      -0.14815154      -0.35470304       0.31171933 </v>
   <v>      -0.35781373      -0.35470304       0.27780929 </v>
   <v>       0.12490229       0.14529696       0.18520619 </v>
   <v>      -0.42918191      -0.35470304       0.16199804 </v>
   <v>       0.08001077      -0.48680604       0.12987220 </v>
   <v>       0.08001077      -0.22260004       0.12987220 </v>
   <v>       0.14002202      -0.03118054       0.10754220 </v>
   <v>       0.14002202       0.32177445       0.10754220 </v>
   <v>       0.39306405       0.14529696       0.13045367 </v>
   <v>       0.11469834       0.14529696       0.32906977 </v>
   <v>      -0.02370079      -0.35470304       0.31827946 </v>
   <v>       0.17363893       0.14529696       0.04712463 </v>
   <v>       0.42486675      -0.48680604       0.19160760 </v>
   <v>       0.42486675      -0.22260004       0.19160760 </v>
   <v>       0.47417723      -0.35470304       0.09088994 </v>
   <v>      -0.49125482      -0.35470304       0.27609614 </v>
   <v>       0.11202496      -0.49359140       0.29512259 </v>
   <v>       0.11202496      -0.21581469       0.29512259 </v>
   <v>       0.17391704       0.31351196       0.27638290 </v>
   <v>       0.17391704      -0.02291804       0.27638290 </v>
   <v>       0.45287236       0.49123407       0.33929481 </v>
   <v>       0.45287236      -0.20064016       0.33929481 </v>
   <v>       0.39350161      -0.22833616       0.03956062 </v>
   <v>       0.39350161      -0.48106993       0.03956062 </v>
   <v>       0.11852749      -0.35470304       0.04074641 </v>
   <v>       0.33631719       0.14529696       0.24522844 </v>
   <v>       0.25243876       0.01319396       0.16073990 </v>
   <v>       0.25243876       0.27739996       0.16073990 </v>
   <v>       0.08002693      -0.35470304       0.38245039 </v>
   <v>       0.16388920      -0.35470304       0.21436074 </v>
   <v>       0.29143866       0.14529696       0.06515930 </v>
   <v>       0.31177707       0.47708196       0.12204440 </v>
   <v>       0.31177707      -0.18648804       0.12204440 </v>
   <v>       0.34239844       0.48647930       0.29113161 </v>
   <v>       0.34239844      -0.19588538       0.29113161 </v>
   <v>       0.22509938      -0.35470304       0.09617103 </v>
   <v>       0.28793195       0.29797731       0.31455921 </v>
   <v>       0.28793195      -0.00738340       0.31455921 </v>
   <v>       0.29733028      -0.35470304       0.21607389 </v>
  </varray>
 </structure>
 <varray name="primitive_index" >
  <v type="int" >        1 </v>
  <v type="int" >       42 </v>
  <v type="int" >       65 </v>
  <v type="int" >       51 </v>
  <v type="int" >        2 </v>
  <v type="int" >       52 </v>
  <v type="int" >       66 </v>
  <v type="int" >       14 </v>
  <v type="int" >       26 </v>
  <v type="int" >       24 </v>
  <v type="int" >       36 </v>
  <v type="int" >       39 </v>
  <v type="int" >       19 </v>
  <v type="int" >       31 </v>
  <v type="int" >       27 </v>
  <v type="int" >       15 </v>
  <v type="int" >       71 </v>
  <v type="int" >       61 </v>
  <v type="int" >       43 </v>
  <v type="int" >       25 </v>
  <v type="int" >       37 </v>
  <v type="int" >       58 </v>
  <v type="int" >       68 </v>
  <v type="int" >       49 </v>
  <v type="int" >       38 </v>
  <v type="int" >       62 </v>
  <v type="int" >       72 </v>
  <v type="int" >       67 </v>
  <v type="int" >       57 </v>
  <v type="int" >       55 </v>
  <v type="int" >       69 </v>
  <v type="int" >        7 </v>
  <v type="int" >        6 </v>
  <v type="int" >       70 </v>
  <v type="int" >       56 </v>
  <v type="int" >       50 </v>
  <v type="int" >       13 </v>
  <v type="int" >       10 </v>
  <v type="int" >       12 </v>
  <v type="int" >       20 </v>
  <v type="int" >       32 </v>
  <v type="int" >       73 </v>
  <v type="int" >       59 </v>
  <v type="int" >        5 </v>
  <v type="int" >       11 </v>
  <v type="int" >        8 </v>
  <v type="int" >        9 </v>
  <v type="int" >       17 </v>
  <v type="int" >       29 </v>
  <v type="int" >       40 </v>
  <v type="int" >       41 </v>
  <v type="int" >       21 </v>
  <v type="int" >       33 </v>
  <v type="int" >       60 </v>
  <v type="int" >       74 </v>
  <v type="int" >       18 </v>
  <v type="int" >       30 </v>
  <v type="int" >       28 </v>
  <v type="int" >       16 </v>
  <v type="int" >       44 </v>
  <v type="int" >       48 </v>
  <v type="int" >       22 </v>
  <v type="int" >       34 </v>
  <v type="int" >       46 </v>
  <v type="int" >       45 </v>
  <v type="int" >       47 </v>
  <v type="int" >       63 </v>
  <v type="int" >       53 </v>
  <v type="int" >       64 </v>
  <v type="int" >       54 </v>
  <v type="int" >        3 </v>
  <v type="int" >       35 </v>
  <v type="int" >       23 </v>
  <v type="int" >        4 </v>
 </varray>
 <kpoints>
  <generation param="Gamma">
   <v type="int" name="divisions">       1        1        1 </v>
   <v name="usershift">      0.00000000       0.00000000       0.00000000 </v>
   <v name="genvec1">      1.00000000       0.00000000       0.00000000 </v>
   <v name="genvec2">      0.00000000       1.00000000       0.00000000 </v>
   <v name="genvec3">      0.00000000       0.00000000       1.00000000 </v>
   <v name="shift">      0.00000000       0.00000000       0.00000000 </v>
  </generation>
  <varray name="kpointlist" >
   <v>       0.00000000       0.00000000       0.00000000 </v>
  </varray>
  <varray name="weights" >
   <v>       1.00000000 </v>
  </varray>
 </kpoints>
 <parameters>
  <separator name="general" >
   <i type="string" name="SYSTEM">"Millerite NiS"</i>
   <i type="logical" name="LCOMPAT"> F  </i>
  </separator>
  <separator name="electronic" >
   <i type="string" name="PREC">normal</i>
   <i name="ENMAX">    450.00000000</i>
   <i name="ENAUG">    703.44300000</i>
   <i name="EDIFF">      0.00010000</i>
   <i type="int" name="IALGO">    38</i>
   <i type="int" name="IWAVPR">    10</i>
   <i type="int" name="NBANDS">   488</i>
   <i name="NELECT">    814.00000000</i>
   <i type="int" name="TURBO">     0</i>
   <i type="int" name="IRESTART">     0</i>
   <i type="int" name="NREBOOT">     0</i>
   <i type="int" name="NMIN">     0</i>
   <i name="EREF">      0.00000000</i>
   <separator name="electronic smearing" >
    <i type="int" name="ISMEAR">     0</i>
    <i name="SIGMA">      0.20000000</i>
    <i name="KSPACING">      0.50000000</i>
    <i type="logical" name="KGAMMA"> T  </i>
   </separator>
   <separator name="electronic projectors" >
    <i type="logical" name="LREAL"> T  </i>
    <v name="ROPT">     -0.00050000     -0.00050000</v>
    <i type="int" name="LMAXPAW">  -100</i>
    <i type="int" name="LMAXMIX">     2</i>
    <i type="logical" name="NLSPLINE"> F  </i>
   </separator>
   <separator name="electronic startup" >
    <i type="int" name="ISTART">     0</i>
    <i type="int" name="ICHARG">     2</i>
    <i type="int" name="INIWAV">     1</i>
   </separator>
   <separator name="electronic spin" >
    <i type="int" name="ISPIN">     1</i>
    <i type="logical" name="LNONCOLLINEAR"> F  </i>
    <v name="MAGMOM">      1.00000000      1.00000000      1.00000000      1.00000000      1.00000000      1.00000000      1.00000000      1.00000000      1.00000000      1.00000000      1.00000000      1.00000000      1.00000000      1.00000000      1.00000000      1.00000000      1.00000000      1.00000000      1.00000000      1.00000000
      1.00000000      1.00000000      1.00000000      1.00000000      1.00000000      1.00000000      1.00000000      1.00000000      1.00000000      1.00000000      1.00000000      1.00000000      1.00000000      1.00000000      1.00000000      1.00000000      1.00000000      1.00000000      1.00000000      1.00000000
      1.00000000      1.00000000      1.00000000      1.00000000      1.00000000      1.00000000      1.00000000      1.00000000      1.00000000      1.00000000      1.00000000      1.00000000      1.00000000      1.00000000      1.00000000      1.00000000      1.00000000      1.00000000      1.00000000      1.00000000
      1.00000000      1.00000000      1.00000000      1.00000000      1.00000000      1.00000000      1.00000000      1.00000000      1.00000000      1.00000000      1.00000000      1.00000000      1.00000000      1.00000000</v>
    <i name="NUPDOWN">     -1.00000000</i>
    <i type="logical" name="LSORBIT"> F  </i>
    <v name="SAXIS">      0.00000000      0.00000000      1.00000000</v>
    <i type="logical" name="LSPIRAL"> F  </i>
    <v name="QSPIRAL">      0.00000000      0.00000000      0.00000000</v>
    <i type="logical" name="LZEROZ"> F  </i>
   </separator>
   <separator name="electronic exchange-correlation" >
    <i type="logical" name="LASPH"> F  </i>
    <i type="logical" name="LMETAGGA"> F  </i>
   </separator>
   <separator name="electronic convergence" >
    <i type="int" name="NELM">   100</i>
    <i type="int" name="NELMDL">    -5</i>
    <i type="int" name="NELMIN">     2</i>
    <i name="ENINI">    450.00000000</i>
    <separator name="electronic convergence detail" >
     <i type="logical" name="LDIAG"> T  </i>
     <i type="logical" name="LSUBROT"> F  </i>
     <i name="WEIMIN">      0.00000000</i>
     <i name="EBREAK">      0.00000005</i>
     <i name="DEPER">      0.30000000</i>
     <i type="int" name="NRMM">     4</i>
     <i name="TIME">      0.40000000</i>
    </separator>
   </separator>
   <separator name="electronic mixer" >
    <i name="AMIX">      0.40000000</i>
    <i name="BMIX">      1.00000000</i>
    <i name="AMIN">      0.10000000</i>
    <i name="AMIX_MAG">      1.60000000</i>
    <i name="BMIX_MAG">      1.00000000</i>
    <separator name="electronic mixer details" >
     <i type="int" name="IMIX">     4</i>
     <i type="logical" name="MIXFIRST"> F  </i>
     <i type="int" name="MAXMIX">   -45</i>
     <i name="WC">    100.00000000</i>
     <i type="int" name="INIMIX">     1</i>
     <i type="int" name="MIXPRE">     1</i>
     <i type="int" name="MREMOVE">     5</i>
    </separator>
   </separator>
   <separator name="electronic dipolcorrection" >
    <i type="logical" name="LDIPOL"> F  </i>
    <i type="logical" name="LMONO"> F  </i>
    <i type="int" name="IDIPOL">     0</i>
    <i name="EPSILON">      1.00000000</i>
    <v name="DIPOL">   -100.00000000   -100.00000000   -100.00000000</v>
    <i name="EFIELD">      0.00000000</i>
   </separator>
  </separator>
  <separator name="grids" >
   <i type="int" name="NGX">    90</i>
   <i type="int" name="NGY">    50</i>
   <i type="int" name="NGZ">    90</i>
   <i type="int" name="NGXF">   180</i>
   <i type="int" name="NGYF">   100</i>
   <i type="int" name="NGZF">   180</i>
   <i type="logical" name="ADDGRID"> F  </i>
  </separator>
  <separator name="ionic" >
   <i type="int" name="NSW">     0</i>
   <i type="int" name="IBRION">    -1</i>
   <i type="int" name="MDALGO">     0</i>
   <i type="int" name="ISIF">     2</i>
   <i name="PSTRESS">      0.00000000</i>
   <i name="EDIFFG">      0.00100000</i>
   <i type="int" name="NFREE">     0</i>
   <i name="POTIM">      0.50000000</i>
   <i name="SMASS">     -3.00000000</i>
   <i name="SCALEE">      1.00000000</i>
  </separator>
  <separator name="ionic md" >
   <i name="TEBEG">      0.00010000</i>
   <i name="TEEND">      0.00010000</i>
   <i type="int" name="NBLOCK">     1</i>
   <i type="int" name="KBLOCK">     1</i>
   <i type="int" name="NPACO">   256</i>
   <i name="APACO">     16.00000000</i>
  </separator>
  <separator name="symmetry" >
   <i type="int" name="ISYM">     2</i>
   <i name="SYMPREC">      0.00001000</i>
  </separator>
  <separator name="dos" >
   <i type="int" name="LORBIT">     0</i>
   <v name="RWIGS">     -1.00000000     -1.00000000</v>
   <i type="int" name="NEDOS">   301</i>
   <i name="EMIN">     10.00000000</i>
   <i name="EMAX">    -10.00000000</i>
   <i name="EFERMI">      0.00000000</i>
  </separator>
  <separator name="writing" >
   <i type="int" name="NWRITE">     2</i>
   <i type="logical" name="LWAVE"> F  </i>
   <i type="logical" name="LDOWNSAMPLE"> F  </i>
   <i type="logical" name="LCHARG"> F  </i>
   <i type="logical" name="LPARD"> F  </i>
   <i type="logical" name="LVTOT"> F  </i>
   <i type="logical" name="LVHAR"> F  </i>
   <i type="logical" name="LELF"> F  </i>
   <i type="logical" name="LOPTICS"> F  </i>
   <v name="STM">      0.00000000      0.00000000      0.00000000      0.00000000      0.00000000      0.00000000      0.00000000</v>
  </separator>
  <separator name="performance" >
   <i type="int" name="NPAR">     2</i>
   <i type="int" name="NSIM">     4</i>
   <i type="int" name="NBLK">    -1</i>
   <i type="logical" name="LPLANE"> T  </i>
   <i type="logical" name="LSCALAPACK"> T  </i>
   <i type="logical" name="LSCAAWARE"> F  </i>
   <i type="logical" name="LSCALU"> F  </i>
   <i type="logical" name="LASYNC"> F  </i>
   <i type="logical" name="LORBITALREAL"> F  </i>
  </separator>
  <separator name="miscellaneous" >
   <i type="int" name="IDIOT">     3</i>
   <i type="int" name="ISPECIAL">     0</i>
   <i type="logical" name="LMUSIC"> F  </i>
   <v name="POMASS">     58.69000000     32.06600000</v>
   <v name="DARWINR">      0.00000000      0.00000000</v>
   <v name="DARWINV">      1.00000000      1.00000000</v>
   <i type="logical" name="LCORR"> T  </i>
  </separator>
  <i type="logical" name="GGA_COMPAT"> T  </i>
  <i type="logical" name="LBERRY"> F  </i>
  <i type="int" name="ICORELEVEL">     0</i>
  <i type="logical" name="LDAU"> F  </i>
  <i type="int" name="I_CONSTRAINED_M">     0</i>
  <separator name="electronic exchange-correlation" >
   <i type="string" name="GGA">--</i>
   <i type="int" name="VOSKOWN">     0</i>
   <i type="logical" name="LHFCALC"> F  </i>
   <i type="string" name="PRECFOCK"></i>
   <i type="logical" name="LSYMGRAD"> F  </i>
   <i type="logical" name="LHFONE"> F  </i>
   <i type="logical" name="LRHFCALC"> F  </i>
   <i type="logical" name="LTHOMAS"> F  </i>
   <i type="logical" name="LMODELHF"> F  </i>
   <i name="ENCUT4O">     -1.00000000</i>
   <i type="int" name="EXXOEP">     0</i>
   <i type="int" name="FOURORBIT">     0</i>
   <i name="AEXX">      0.00000000</i>
   <i name="HFALPHA">      0.00000000</i>
   <i name="MCALPHA">      0.00000000</i>
   <i name="ALDAX">      1.00000000</i>
   <i name="AGGAX">      1.00000000</i>
   <i name="ALDAC">      1.00000000</i>
   <i name="AGGAC">      1.00000000</i>
   <i type="int" name="NKREDX">     1</i>
   <i type="int" name="NKREDY">     1</i>
   <i type="int" name="NKREDZ">     1</i>
   <i type="logical" name="SHIFTRED"> F  </i>
   <i type="logical" name="ODDONLY"> F  </i>
   <i type="logical" name="EVENONLY"> F  </i>
   <i type="int" name="LMAXFOCK">     0</i>
   <i type="int" name="NMAXFOCKAE">     0</i>
   <i type="logical" name="LFOCKAEDFT"> F  </i>
   <i name="HFSCREEN">      0.00000000</i>
   <i name="HFSCREENC">      0.00000000</i>
   <i type="int" name="NBANDSGWLOW">     0</i>
  </separator>
  <separator name="vdW DFT" >
   <i type="logical" name="LUSE_VDW"> F  </i>
   <i name="Zab_VDW">     -0.84910000</i>
   <i name="PARAM1">      0.12340000</i>
   <i name="PARAM2">      1.00000000</i>
   <i name="PARAM3">      0.00000000</i>
  </separator>
  <separator name="model GW" >
   <i type="int" name="MODEL_GW">     0</i>
   <i name="MODEL_EPS0">     21.83944246</i>
   <i name="MODEL_ALPHA">      1.00000000</i>
  </separator>
  <separator name="linear response parameters" >
   <i type="logical" name="LEPSILON"> F  </i>
   <i type="logical" name="LRPA"> F  </i>
   <i type="logical" name="LNABLA"> F  </i>
   <i type="logical" name="LVEL"> F  </i>
   <i type="int" name="KINTER">     0</i>
   <i name="CSHIFT">      0.10000000</i>
   <i name="OMEGAMAX">     -1.00000000</i>
   <i name="DEG_THRESHOLD">      0.00200000</i>
   <i name="RTIME">     -0.10000000</i>
   <i name="WPLASMAI">      0.00000000</i>
   <v name="DFIELD">      0.00000000      0.00000000      0.00000000</v>
   <v name="WPLASMA">      0.00000000      0.00000000      0.00000000      0.00000000      0.00000000      0.00000000      0.00000000      0.00000000      0.00000000</v>
  </separator>
  <separator name="orbital magnetization" >
   <i type="logical" name="NUCIND"> F  </i>
   <v name="MAGPOS">      0.00000000      0.00000000      0.00000000</v>
   <i type="logical" name="LNICSALL"> T  </i>
   <i type="logical" name="ORBITALMAG"> F  </i>
   <i type="logical" name="LMAGBLOCH"> F  </i>
   <i type="logical" name="LCHIMAG"> F  </i>
   <i type="logical" name="LGAUGE"> T  </i>
   <i type="int" name="MAGATOM">     0</i>
   <v name="MAGDIPOL">      0.00000000      0.00000000      0.00000000</v>
   <v name="AVECCONST">      0.00000000      0.00000000      0.00000000</v>
  </separator>
  <separator name="response functions" >
   <i type="logical" name="LADDER"> F  </i>
   <i type="logical" name="LRPAFORCE"> F  </i>
   <i type="logical" name="LFXC"> F  </i>
   <i type="logical" name="LHARTREE"> T  </i>
   <i type="int" name="IBSE">     0</i>
   <v type="int" name="KPOINT">    -1     0     0     0</v>
   <i type="logical" name="LTCTE"> F  </i>
   <i type="logical" name="LTETE"> F  </i>
   <i type="logical" name="LTRIPLET"> F  </i>
   <i type="logical" name="LFXCEPS"> F  </i>
   <i type="logical" name="LFXHEG"> F  </i>
   <i type="int" name="NATURALO">     2</i>
   <i type="logical" name="L2ORDER"> F  </i>
   <i type="logical" name="LMP2LT"> F  </i>
   <i type="logical" name="LUSEW"> F  </i>
   <i name="ENCUTGW">     -2.00000000</i>
   <i name="ENCUTGWSOFT">     -2.00000000</i>
   <i name="ENCUTLF">     -1.00000000</i>
   <i type="int" name="LMAXMP2">    -1</i>
   <i name="SCISSOR">      0.00000000</i>
   <i type="int" name="NOMEGA">     0</i>
   <i type="int" name="NOMEGAR">     0</i>
   <i type="int" name="NBANDSGW">    -1</i>
   <i type="int" name="NBANDSO">    -1</i>
   <i type="int" name="NBANDSV">    -1</i>
   <i type="int" name="NELM">   100</i>
   <i type="int" name="NELMHF">     1</i>
   <i type="int" name="DIM">     3</i>
   <i type="int" name="ANTIRES">     0</i>
   <i name="OMEGAMAX">    -30.00000000</i>
   <i name="OMEGAMIN">    -30.00000000</i>
   <i name="OMEGATL">   -200.00000000</i>
   <i type="int" name="OMEGAGRID">   140</i>
   <i name="CSHIFT">     -0.10000000</i>
   <i type="logical" name="SELFENERGY"> F  </i>
   <i type="logical" name="LSPECTRAL"> F  </i>
   <i type="logical" name="LSPECTRALGW"> F  </i>
   <i type="logical" name="LSINGLES"> F  </i>
   <i type="logical" name="LFERMIGW"> F  </i>
   <i type="logical" name="ODDONLYGW"> F  </i>
   <i type="logical" name="EVENONLYGW"> F  </i>
   <i type="int" name="NKREDLFX">     1</i>
   <i type="int" name="NKREDLFY">     1</i>
   <i type="int" name="NKREDLFZ">     1</i>
   <i type="int" name="MAXMEM">  2800</i>
   <i type="int" name="TELESCOPE">     0</i>
   <i type="int" name="TAUPAR">     1</i>
   <i type="int" name="OMEGAPAR">    -1</i>
   <i name="LAMBDA">      1.00000000</i>
  </separator>
  <separator name="External order field" >
   <i name="OFIELD_KAPPA">      0.00000000</i>
   <v name="OFIELD_K">      0.00000000      0.00000000      0.00000000</v>
   <i name="OFIELD_Q6_NEAR">      0.00000000</i>
   <i name="OFIELD_Q6_FAR">      0.00000000</i>
   <i name="OFIELD_A">      0.00000000</i>
  </separator>
 </parameters>
 <atominfo>
  <atoms>      74 </atoms>
  <types>       2 </types>
  <array name="atoms" >
   <dimension dim="1">ion</dimension>
   <field type="string">element</field>
   <field type="int">atomtype</field>
   <set>
    <rc><c>Ni</c><c>   1</c></rc>
    <rc><c>Ni</c><c>   1</c></rc>
    <rc><c>Ni</c><c>   1</c></rc>
    <rc><c>Ni</c><c>   1</c></rc>
    <rc><c>Ni</c><c>   1</c></rc>
    <rc><c>Ni</c><c>   1</c></rc>
    <rc><c>Ni</c><c>   1</c></rc>
    <rc><c>Ni</c><c>   1</c></rc>
    <rc><c>Ni</c><c>   1</c></rc>
    <rc><c>Ni</c><c>   1</c></rc>
    <rc><c>Ni</c><c>   1</c></rc>
    <rc><c>Ni</c><c>   1</c></rc>
    <rc><c>Ni</c><c>   1</c></rc>
    <rc><c>Ni</c><c>   1</c></rc>
    <rc><c>Ni</c><c>   1</c></rc>
    <rc><c>Ni</c><c>   1</c></rc>
    <rc><c>Ni</c><c>   1</c></rc>
    <rc><c>Ni</c><c>   1</c></rc>
    <rc><c>Ni</c><c>   1</c></rc>
    <rc><c>Ni</c><c>   1</c></rc>
    <rc><c>Ni</c><c>   1</c></rc>
    <rc><c>Ni</c><c>   1</c></rc>
    <rc><c>Ni</c><c>   1</c></rc>
    <rc><c>Ni</c><c>   1</c></rc>
    <rc><c>Ni</c><c>   1</c></rc>
    <rc><c>Ni</c><c>   1</c></rc>
    <rc><c>Ni</c><c>   1</c></rc>
    <rc><c>Ni</c><c>   1</c></rc>
    <rc><c>Ni</c><c>   1</c></rc>
    <rc><c>Ni</c><c>   1</c></rc>
    <rc><c>Ni</c><c>   1</c></rc>
    <rc><c>Ni</c><c>   1</c></rc>
    <rc><c>Ni</c><c>   1</c></rc>
    <rc><c>Ni</c><c>   1</c></rc>
    <rc><c>Ni</c><c>   1</c></rc>
    <rc><c>Ni</c><c>   1</c></rc>
    <rc><c>Ni</c><c>   1</c></rc>
    <rc><c>S </c><c>   2</c></rc>
    <rc><c>S </c><c>   2</c></rc>
    <rc><c>S </c><c>   2</c></rc>
    <rc><c>S </c><c>   2</c></rc>
    <rc><c>S </c><c>   2</c></rc>
    <rc><c>S </c><c>   2</c></rc>
    <rc><c>S </c><c>   2</c></rc>
    <rc><c>S </c><c>   2</c></rc>
    <rc><c>S </c><c>   2</c></rc>
    <rc><c>S </c><c>   2</c></rc>
    <rc><c>S </c><c>   2</c></rc>
    <rc><c>S </c><c>   2</c></rc>
    <rc><c>S </c><c>   2</c></rc>
    <rc><c>S </c><c>   2</c></rc>
    <rc><c>S </c><c>   2</c></rc>
    <rc><c>S </c><c>   2</c></rc>
    <rc><c>S </c><c>   2</c></rc>
    <rc><c>S </c><c>   2</c></rc>
    <rc><c>S </c><c>   2</c></rc>
    <rc><c>S </c><c>   2</c></rc>
    <rc><c>S </c><c>   2</c></rc>
    <rc><c>S </c><c>   2</c></rc>
    <rc><c>S </c><c>   2</c></rc>
    <rc><c>S </c><c>   2</c></rc>
    <rc><c>S </c><c>   2</c></rc>
    <rc><c>S </c><c>   2</c></rc>
    <rc><c>S </c><c>   2</c></rc>
    <rc><c>S </c><c>   2</c></rc>
    <rc><c>S </c><c>   2</c></rc>
    <rc><c>S </c><c>   2</c></rc>
    <rc><c>S </c><c>   2</c></rc>
    <rc><c>S </c><c>   2</c></rc>
    <rc><c>S </c><c>   2</c></rc>
    <rc><c>S </c><c>   2</c></rc>
    <rc><c>S </c><c>   2</c></rc>
    <rc><c>S </c><c>   2</c></rc>
    <rc><c>S </c><c>   2</c></rc>
   </set>
  </array>
  <array name="atomtypes" >
   <dimension dim="1">type</dimension>
   <field type="int">atomspertype</field>
   <field type="string">element</field>
   <field>mass</field>
   <field>valence</field>
   <field type="string">pseudopotential</field>
   <set>
    <rc><c>  37</c><c>Ni</c><c>     58.69000000</c><c>     16.00000000</c><c>  PAW_PBE Ni_pv 06Sep2000               </c></rc>
    <rc><c>  37</c><c>S </c><c>     32.06600000</c><c>      6.00000000</c><c>  PAW_PBE S 06Sep2000                   </c></rc>
   </set>
  </array>
 </atominfo>
 <structure name="initialpos" >
  <crystal>
   <varray name="basis" >
    <v>      16.88469405       0.00000000       0.00000000 </v>
    <v>       0.00000000       9.57841000       0.00000000 </v>
    <v>       0.00000000       0.00000000      16.65464569 </v>
   </varray>
   <i name="volume">   2693.53123734 </i>
   <varray name="rec_basis" >
    <v>       0.05922524       0.00000000       0.00000000 </v>
    <v>       0.00000000       0.10440146       0.00000000 </v>
    <v>       0.00000000       0.00000000       0.06004331 </v>
   </varray>
  </crystal>
  <varray name="positions" >
   <v>       0.78004630       0.14529696       0.12347080 </v>
   <v>       0.73611662       0.14529696       0.25161499 </v>
   <v>       0.22509938       0.64529696       0.09617103 </v>
   <v>       0.29733028       0.64529696       0.21607389 </v>
   <v>       0.39306405       0.14529696       0.13045367 </v>
   <v>       0.46975828       0.14529696       0.24694159 </v>
   <v>       0.95247430       0.64529696       0.15433850 </v>
   <v>       0.97629921       0.64529696       0.31827946 </v>
   <v>       0.17363893       0.14529696       0.04712463 </v>
   <v>       0.12490229       0.14529696       0.18520619 </v>
   <v>       0.11469834       0.14529696       0.32906977 </v>
   <v>       0.57081809       0.64529696       0.16199804 </v>
   <v>       0.64218627       0.64529696       0.27780929 </v>
   <v>       0.90972187       0.00251184       0.12018864 </v>
   <v>       0.94615927       0.01000887       0.26848116 </v>
   <v>       0.39350161       0.51893007       0.03956062 </v>
   <v>       0.42486675       0.51319396       0.19160760 </v>
   <v>       0.45287236       0.49123407       0.33929481 </v>
   <v>       0.59729475       0.01319396       0.22247530 </v>
   <v>       0.08001077       0.51319396       0.12987220 </v>
   <v>       0.11202496       0.50640860       0.29512259 </v>
   <v>       0.25243876       0.01319396       0.16073990 </v>
   <v>       0.28793195       0.99261660       0.31455921 </v>
   <v>       0.77099397       0.42638564       0.12248855 </v>
   <v>       0.76972274       0.51319396       0.25334300 </v>
   <v>       0.90972187       0.28808208       0.12018864 </v>
   <v>       0.94615927       0.28058505       0.26848116 </v>
   <v>       0.39350161       0.77166384       0.03956062 </v>
   <v>       0.42486675       0.77739996       0.19160760 </v>
   <v>       0.45287236       0.79935984       0.33929481 </v>
   <v>       0.59729475       0.27739996       0.22247530 </v>
   <v>       0.08001077       0.77739996       0.12987220 </v>
   <v>       0.11202496       0.78418531       0.29512259 </v>
   <v>       0.25243876       0.27739996       0.16073990 </v>
   <v>       0.28793195       0.29797731       0.31455921 </v>
   <v>       0.77099397       0.86420827       0.12248855 </v>
   <v>       0.76972274       0.77739996       0.25334300 </v>
   <v>       0.99621558       0.14529696       0.35022839 </v>
   <v>       0.99146120       0.14529696       0.18349304 </v>
   <v>       0.47417723       0.64529696       0.09088994 </v>
   <v>       0.50874518       0.64529696       0.27609614 </v>
   <v>       0.66018731       0.14529696       0.14681655 </v>
   <v>       0.63624720       0.14529696       0.31511863 </v>
   <v>       0.11852749       0.64529696       0.04074641 </v>
   <v>       0.16388920       0.64529696       0.21436074 </v>
   <v>       0.08002693       0.64529696       0.38245039 </v>
   <v>       0.29143866       0.14529696       0.06515930 </v>
   <v>       0.33631719       0.14529696       0.24522844 </v>
   <v>       0.81903321       0.64529696       0.15262534 </v>
   <v>       0.85184846       0.64529696       0.31171933 </v>
   <v>       0.81682128       0.29473069       0.04037307 </v>
   <v>       0.82906105       0.31351196       0.21464750 </v>
   <v>       0.31177707       0.81351196       0.12204440 </v>
   <v>       0.34239844       0.80411462       0.29113161 </v>
   <v>       0.47710479       0.30630517       0.15932569 </v>
   <v>       0.51266385       0.31298860       0.31561452 </v>
   <v>       0.00148905       0.81351196       0.24551520 </v>
   <v>       0.96797653       0.82015341       0.08291490 </v>
   <v>       0.14002202       0.32177445       0.10754220 </v>
   <v>       0.17391704       0.31351196       0.27638290 </v>
   <v>       0.65663306       0.81351196       0.18377980 </v>
   <v>       0.69642229       0.78902398       0.34863992 </v>
   <v>       0.31177707       0.47708196       0.12204440 </v>
   <v>       0.34239844       0.48647930       0.29113161 </v>
   <v>       0.81682128       0.99586322       0.04037307 </v>
   <v>       0.82906105       0.97708196       0.21464750 </v>
   <v>       0.00148905       0.47708196       0.24551520 </v>
   <v>       0.96797653       0.47044050       0.08291490 </v>
   <v>       0.47710479       0.98428875       0.15932569 </v>
   <v>       0.51266385       0.97760531       0.31561452 </v>
   <v>       0.65663306       0.47708196       0.18377980 </v>
   <v>       0.69642229       0.50156993       0.34863992 </v>
   <v>       0.14002202       0.96881946       0.10754220 </v>
   <v>       0.17391704       0.97708196       0.27638290 </v>
  </varray>
 </structure>
 <calculation>
  <scstep>
   <time name="dav">    9.46    9.47</time>
   <time name="total">    9.84    9.84</time>
   <energy>
    <i name="alphaZ">   1458.83996183 </i>
    <i name="ewald"> 164962.37918166 </i>
    <i name="hartreedc">-288597.14700492 </i>
    <i name="XCdc">   3783.93643840 </i>
    <i name="pawpsdc"> 115860.90926010 </i>
    <i name="pawaedc">-120909.33166199 </i>
    <i name="eentropy">     -0.39662341 </i>
    <i name="bandstr">  -7202.15207291 </i>
    <i name="atom"> 139780.45519414 </i>
    <i name="e_fr_energy">   9137.49267291 </i>
    <i name="e_wo_entrp">   9137.88929632 </i>
    <i name="e_0_energy">   9137.69098461 </i>
   </energy>
  </scstep>
  <scstep>
   <time name="dav">    8.28    8.28</time>
   <time name="total">    8.28    8.28</time>
   <energy>
    <i name="e_fr_energy">    502.28573941 </i>
    <i name="e_wo_entrp">    502.97876188 </i>
    <i name="e_0_energy">    502.63225064 </i>
   </energy>
  </scstep>
  <scstep>
   <time name="dav">    9.22    9.22</time>
   <time name="total">    9.22    9.22</time>
   <energy>
    <i name="e_fr_energy">   -360.55970100 </i>
    <i name="e_wo_entrp">   -359.39490942 </i>
    <i name="e_0_energy">   -359.97730521 </i>
   </energy>
  </scstep>
  <scstep>
   <time name="dav">    9.06    9.06</time>
   <time name="total">    9.06    9.06</time>
   <energy>
    <i name="e_fr_energy">   -403.70519866 </i>
    <i name="e_wo_entrp">   -402.52406303 </i>
    <i name="e_0_energy">   -403.11463085 </i>
   </energy>
  </scstep>
  <scstep>
   <time name="dav">    9.63    9.63</time>
   <time name="total">    9.99    9.99</time>
   <energy>
    <i name="e_fr_energy">   -405.35659936 </i>
    <i name="e_wo_entrp">   -404.17797729 </i>
    <i name="e_0_energy">   -404.76728832 </i>
   </energy>
  </scstep>
  <scstep>
   <time name="dav">    9.47    9.47</time>
   <time name="total">   10.24   10.24</time>
   <energy>
    <i name="e_fr_energy">   -472.43562522 </i>
    <i name="e_wo_entrp">   -471.66538409 </i>
    <i name="e_0_energy">   -472.05050466 </i>
   </energy>
  </scstep>
  <scstep>
   <time name="dav">    8.75    8.75</time>
   <time name="total">    9.56    9.56</time>
   <energy>
    <i name="e_fr_energy">   -373.34768606 </i>
    <i name="e_wo_entrp">   -372.37661413 </i>
    <i name="e_0_energy">   -372.86215009 </i>
   </energy>
  </scstep>
  <scstep>
   <time name="dav">   10.10   10.10</time>
   <time name="total">   10.82   10.82</time>
   <energy>
    <i name="e_fr_energy">   -433.54610943 </i>
    <i name="e_wo_entrp">   -432.47310333 </i>
    <i name="e_0_energy">   -433.00960638 </i>
   </energy>
  </scstep>
  <scstep>
   <time name="dav">   10.48   10.49</time>
   <time name="total">   11.20   11.21</time>
   <energy>
    <i name="e_fr_energy">   -377.83801001 </i>
    <i name="e_wo_entrp">   -376.79834371 </i>
    <i name="e_0_energy">   -377.31817686 </i>
   </energy>
  </scstep>
  <scstep>
   <time name="dav">   10.14   10.14</time>
   <time name="total">   10.86   10.86</time>
   <energy>
    <i name="e_fr_energy">   -390.56903676 </i>
    <i name="e_wo_entrp">   -389.33447149 </i>
    <i name="e_0_energy">   -389.95175413 </i>
   </energy>
  </scstep>
  <scstep>
   <time name="dav">   10.32   10.32</time>
   <time name="total">   11.03   11.03</time>
   <energy>
    <i name="e_fr_energy">   -370.01447915 </i>
    <i name="e_wo_entrp">   -369.17663808 </i>
    <i name="e_0_energy">   -369.59555861 </i>
   </energy>
  </scstep>
  <scstep>
   <time name="dav">   10.37   10.37</time>
   <time name="total">   11.10   11.10</time>
   <energy>
    <i name="e_fr_energy">   -364.98908282 </i>
    <i name="e_wo_entrp">   -363.92089128 </i>
    <i name="e_0_energy">   -364.45498705 </i>
   </energy>
  </scstep>
  <scstep>
   <time name="dav">   10.30   10.30</time>
   <time name="total">   11.03   11.03</time>
   <energy>
    <i name="e_fr_energy">   -358.36460071 </i>
    <i name="e_wo_entrp">   -357.41737840 </i>
    <i name="e_0_energy">   -357.89098955 </i>
   </energy>
  </scstep>
  <scstep>
   <time name="dav">   10.37   10.37</time>
   <time name="total">   11.10   11.10</time>
   <energy>
    <i name="e_fr_energy">   -355.27701301 </i>
    <i name="e_wo_entrp">   -354.21006722 </i>
    <i name="e_0_energy">   -354.74354011 </i>
   </energy>
  </scstep>
  <scstep>
   <time name="dav">   10.19   10.19</time>
   <time name="total">   10.91   10.92</time>
   <energy>
    <i name="e_fr_energy">   -354.64586270 </i>
    <i name="e_wo_entrp">   -353.60839198 </i>
    <i name="e_0_energy">   -354.12712734 </i>
   </energy>
  </scstep>
  <scstep>
   <time name="dav">   10.14   10.14</time>
   <time name="total">   10.86   10.86</time>
   <energy>
    <i name="e_fr_energy">   -353.95096319 </i>
    <i name="e_wo_entrp">   -352.85221222 </i>
    <i name="e_0_energy">   -353.40158770 </i>
   </energy>
  </scstep>
  <scstep>
   <time name="dav">    9.94    9.94</time>
   <time name="total">   10.67   10.67</time>
   <energy>
    <i name="e_fr_energy">   -353.74936543 </i>
    <i name="e_wo_entrp">   -352.67048009 </i>
    <i name="e_0_energy">   -353.20992276 </i>
   </energy>
  </scstep>
  <scstep>
   <time name="dav">   10.32   10.32</time>
   <time name="total">   11.05   11.05</time>
   <energy>
    <i name="e_fr_energy">   -353.25028224 </i>
    <i name="e_wo_entrp">   -352.12802440 </i>
    <i name="e_0_energy">   -352.68915332 </i>
   </energy>
  </scstep>
  <scstep>
   <time name="dav">   10.19   10.19</time>
   <time name="total">   10.92   10.93</time>
   <energy>
    <i name="e_fr_energy">   -352.97463818 </i>
    <i name="e_wo_entrp">   -351.81376763 </i>
    <i name="e_0_energy">   -352.39420291 </i>
   </energy>
  </scstep>
  <scstep>
   <time name="dav">   10.14   10.14</time>
   <time name="total">   10.87   10.87</time>
   <energy>
    <i name="e_fr_energy">   -352.90992194 </i>
    <i name="e_wo_entrp">   -351.71273267 </i>
    <i name="e_0_energy">   -352.31132731 </i>
   </energy>
  </scstep>
  <scstep>
   <time name="dav">    9.29    9.30</time>
   <time name="total">   10.03   10.03</time>
   <energy>
    <i name="e_fr_energy">   -352.89983307 </i>
    <i name="e_wo_entrp">   -351.68251078 </i>
    <i name="e_0_energy">   -352.29117193 </i>
   </energy>
  </scstep>
  <scstep>
   <time name="dav">    9.03    9.03</time>
   <time name="total">    9.77    9.77</time>
   <energy>
    <i name="e_fr_energy">   -352.89963750 </i>
    <i name="e_wo_entrp">   -351.68724708 </i>
    <i name="e_0_energy">   -352.29344229 </i>
   </energy>
  </scstep>
  <scstep>
   <time name="dav">   10.22   10.23</time>
   <time name="total">   10.96   10.97</time>
   <energy>
    <i name="e_fr_energy">   -352.83788218 </i>
    <i name="e_wo_entrp">   -351.65194043 </i>
    <i name="e_0_energy">   -352.24491130 </i>
   </energy>
  </scstep>
  <scstep>
   <time name="dav">   10.16   10.16</time>
   <time name="total">   10.90   10.91</time>
   <energy>
    <i name="e_fr_energy">   -352.82386781 </i>
    <i name="e_wo_entrp">   -351.63814811 </i>
    <i name="e_0_energy">   -352.23100796 </i>
   </energy>
  </scstep>
  <scstep>
   <time name="dav">   10.21   10.21</time>
   <time name="total">   10.95   10.95</time>
   <energy>
    <i name="e_fr_energy">   -352.81016419 </i>
    <i name="e_wo_entrp">   -351.63618349 </i>
    <i name="e_0_energy">   -352.22317384 </i>
   </energy>
  </scstep>
  <scstep>
   <time name="dav">    9.47    9.47</time>
   <time name="total">   10.20   10.20</time>
   <energy>
    <i name="e_fr_energy">   -352.80763829 </i>
    <i name="e_wo_entrp">   -351.62677305 </i>
    <i name="e_0_energy">   -352.21720567 </i>
   </energy>
  </scstep>
  <scstep>
   <time name="dav">   10.49   10.50</time>
   <time name="total">   11.24   11.24</time>
   <energy>
    <i name="e_fr_energy">   -352.79642923 </i>
    <i name="e_wo_entrp">   -351.62754991 </i>
    <i name="e_0_energy">   -352.21198957 </i>
   </energy>
  </scstep>
  <scstep>
   <time name="dav">   10.08   10.08</time>
   <time name="total">   10.82   10.82</time>
   <energy>
    <i name="e_fr_energy">   -352.79586031 </i>
    <i name="e_wo_entrp">   -351.62177776 </i>
    <i name="e_0_energy">   -352.20881903 </i>
   </energy>
  </scstep>
  <scstep>
   <time name="dav">   10.14   10.14</time>
   <time name="total">   10.88   10.88</time>
   <energy>
    <i name="e_fr_energy">   -352.79562851 </i>
    <i name="e_wo_entrp">   -351.62487732 </i>
    <i name="e_0_energy">   -352.21025291 </i>
   </energy>
  </scstep>
  <scstep>
   <time name="dav">    9.21    9.21</time>
   <time name="total">    9.95    9.95</time>
   <energy>
    <i name="e_fr_energy">   -352.79521149 </i>
    <i name="e_wo_entrp">   -351.62352590 </i>
    <i name="e_0_energy">   -352.20936870 </i>
   </energy>
  </scstep>
  <scstep>
   <time name="dav">    8.80    8.80</time>
   <time name="total">    9.59    9.59</time>
   <energy>
    <i name="e_fr_energy">   -352.79555239 </i>
    <i name="e_wo_entrp">   -351.62342070 </i>
    <i name="e_0_energy">   -352.20948654 </i>
   </energy>
  </scstep>
  <scstep>
   <time name="dav">    8.77    8.77</time>
   <time name="total">    9.61    9.62</time>
   <energy>
    <i name="e_fr_energy">   -352.79572103 </i>
    <i name="e_wo_entrp">   -351.62385550 </i>
    <i name="e_0_energy">   -352.20978826 </i>
   </energy>
  </scstep>
  <scstep>
   <time name="dav">    8.31    8.31</time>
   <time name="total">    9.06    9.06</time>
   <energy>
    <i name="e_fr_energy">   -352.79636085 </i>
    <i name="e_wo_entrp">   -351.62616035 </i>
    <i name="e_0_energy">   -352.21126060 </i>
   </energy>
  </scstep>
  <scstep>
   <time name="dav">    7.52    7.52</time>
   <time name="total">    8.27    8.28</time>
   <energy>
    <i name="e_fr_energy">   -352.79649476 </i>
    <i name="e_wo_entrp">   -351.62542247 </i>
    <i name="e_0_energy">   -352.21095861 </i>
   </energy>
  </scstep>
  <scstep>
   <time name="dav">    6.48    6.48</time>
   <time name="total">    7.31    7.31</time>
   <energy>
    <i name="e_fr_energy">   -352.79671897 </i>
    <i name="e_wo_entrp">   -351.62472367 </i>
    <i name="e_0_energy">   -352.21072132 </i>
   </energy>
  </scstep>
  <scstep>
   <time name="dav">    5.83    5.83</time>
   <time name="total">    6.59    6.59</time>
   <energy>
    <i name="e_fr_energy">   -352.79694169 </i>
    <i name="e_wo_entrp">   -351.62444758 </i>
    <i name="e_0_energy">   -352.21069464 </i>
   </energy>
  </scstep>
  <scstep>
   <time name="dav">    6.43    6.43</time>
   <time name="total">    7.20    7.20</time>
   <energy>
    <i name="e_fr_energy">   -352.79758751 </i>
    <i name="e_wo_entrp">   -351.62468216 </i>
    <i name="e_0_energy">   -352.21113484 </i>
   </energy>
  </scstep>
  <scstep>
   <time name="dav">    5.86    5.86</time>
   <time name="total">    6.79    6.80</time>
   <energy>
    <i name="e_fr_energy">   -352.79792535 </i>
    <i name="e_wo_entrp">   -351.62502703 </i>
    <i name="e_0_energy">   -352.21147619 </i>
   </energy>
  </scstep>
  <scstep>
   <time name="dav">    5.87    5.87</time>
   <time name="total">    6.67    6.67</time>
   <energy>
    <i name="e_fr_energy">   -352.79847647 </i>
    <i name="e_wo_entrp">   -351.62635932 </i>
    <i name="e_0_energy">   -352.21241790 </i>
   </energy>
  </scstep>
  <scstep>
   <time name="dav">    5.78    5.78</time>
   <time name="total">    6.57    6.57</time>
   <energy>
    <i name="e_fr_energy">   -352.79860687 </i>
    <i name="e_wo_entrp">   -351.62645100 </i>
    <i name="e_0_energy">   -352.21252893 </i>
   </energy>
  </scstep>
  <scstep>
   <time name="dav">    5.53    5.53</time>
   <time name="total">    6.33    6.33</time>
   <energy>
    <i name="e_fr_energy">   -352.79888916 </i>
    <i name="e_wo_entrp">   -351.62688264 </i>
    <i name="e_0_energy">   -352.21288590 </i>
   </energy>
  </scstep>
  <scstep>
   <time name="dav">    5.63    5.63</time>
   <time name="total">    6.42    6.43</time>
   <energy>
    <i name="e_fr_energy">   -352.79908779 </i>
    <i name="e_wo_entrp">   -351.62698307 </i>
    <i name="e_0_energy">   -352.21303543 </i>
   </energy>
  </scstep>
  <scstep>
   <time name="dav">    5.69    5.69</time>
   <time name="total">    6.56    6.56</time>
   <energy>
    <i name="e_fr_energy">   -352.79929496 </i>
    <i name="e_wo_entrp">   -351.62727303 </i>
    <i name="e_0_energy">   -352.21328399 </i>
   </energy>
  </scstep>
  <scstep>
   <time name="dav">    5.69    5.69</time>
   <time name="total">    6.58    6.58</time>
   <energy>
    <i name="e_fr_energy">   -352.79940332 </i>
    <i name="e_wo_entrp">   -351.62725542 </i>
    <i name="e_0_energy">   -352.21332937 </i>
   </energy>
  </scstep>
  <scstep>
   <time name="dav">    5.63    5.64</time>
   <time name="total">    6.01    6.01</time>
   <energy>
    <i name="alphaZ">   1458.83996183 </i>
    <i name="ewald"> 164962.37918166 </i>
    <i name="hartreedc">-287985.46052617 </i>
    <i name="XCdc">   3754.50513099 </i>
    <i name="pawpsdc"> 144626.62721579 </i>
    <i name="pawaedc">-149759.28625731 </i>
    <i name="eentropy">     -1.17213246 </i>
    <i name="bandstr"> -17189.68722192 </i>
    <i name="atom"> 139780.45519414 </i>
    <i name="e_fr_energy">   -352.79945345 </i>
    <i name="e_wo_entrp">   -351.62732100 </i>
    <i name="e_0_energy">   -352.21338723 </i>
   </energy>
  </scstep>
  <structure>
   <crystal>
    <varray name="basis" >
     <v>      16.88469405       0.00000000       0.00000000 </v>
     <v>       0.00000000       9.57841000       0.00000000 </v>
     <v>       0.00000000       0.00000000      16.65464569 </v>
    </varray>
    <i name="volume">   2693.53123734 </i>
    <varray name="rec_basis" >
     <v>       0.05922524       0.00000000       0.00000000 </v>
     <v>       0.00000000       0.10440146       0.00000000 </v>
     <v>       0.00000000       0.00000000       0.06004331 </v>
    </varray>
   </crystal>
   <varray name="positions" >
    <v>       0.78004630       0.14529696       0.12347080 </v>
    <v>       0.73611662       0.14529696       0.25161499 </v>
    <v>       0.22509938       0.64529696       0.09617103 </v>
    <v>       0.29733028       0.64529696       0.21607389 </v>
    <v>       0.39306405       0.14529696       0.13045367 </v>
    <v>       0.46975828       0.14529696       0.24694159 </v>
    <v>       0.95247430       0.64529696       0.15433850 </v>
    <v>       0.97629921       0.64529696       0.31827946 </v>
    <v>       0.17363893       0.14529696       0.04712463 </v>
    <v>       0.12490229       0.14529696       0.18520619 </v>
    <v>       0.11469834       0.14529696       0.32906977 </v>
    <v>       0.57081809       0.64529696       0.16199804 </v>
    <v>       0.64218627       0.64529696       0.27780929 </v>
    <v>       0.90972187       0.00251184       0.12018864 </v>
    <v>       0.94615927       0.01000887       0.26848116 </v>
    <v>       0.39350161       0.51893007       0.03956062 </v>
    <v>       0.42486675       0.51319396       0.19160760 </v>
    <v>       0.45287236       0.49123407       0.33929481 </v>
    <v>       0.59729475       0.01319396       0.22247530 </v>
    <v>       0.08001077       0.51319396       0.12987220 </v>
    <v>       0.11202496       0.50640860       0.29512259 </v>
    <v>       0.25243876       0.01319396       0.16073990 </v>
    <v>       0.28793195       0.99261660       0.31455921 </v>
    <v>       0.77099397       0.42638564       0.12248855 </v>
    <v>       0.76972274       0.51319396       0.25334300 </v>
    <v>       0.90972187       0.28808208       0.12018864 </v>
    <v>       0.94615927       0.28058505       0.26848116 </v>
    <v>       0.39350161       0.77166384       0.03956062 </v>
    <v>       0.42486675       0.77739996       0.19160760 </v>
    <v>       0.45287236       0.79935984       0.33929481 </v>
    <v>       0.59729475       0.27739996       0.22247530 </v>
    <v>       0.08001077       0.77739996       0.12987220 </v>
    <v>       0.11202496       0.78418531       0.29512259 </v>
    <v>       0.25243876       0.27739996       0.16073990 </v>
    <v>       0.28793195       0.29797731       0.31455921 </v>
    <v>       0.77099397       0.86420827       0.12248855 </v>
    <v>       0.76972274       0.77739996       0.25334300 </v>
    <v>       0.99621558       0.14529696       0.35022839 </v>
    <v>       0.99146120       0.14529696       0.18349304 </v>
    <v>       0.47417723       0.64529696       0.09088994 </v>
    <v>       0.50874518       0.64529696       0.27609614 </v>
    <v>       0.66018731       0.14529696       0.14681655 </v>
    <v>       0.63624720       0.14529696       0.31511863 </v>
    <v>       0.11852749       0.64529696       0.04074641 </v>
    <v>       0.16388920       0.64529696       0.21436074 </v>
    <v>       0.08002693       0.64529696       0.38245039 </v>
    <v>       0.29143866       0.14529696       0.06515930 </v>
    <v>       0.33631719       0.14529696       0.24522844 </v>
    <v>       0.81903321       0.64529696       0.15262534 </v>
    <v>       0.85184846       0.64529696       0.31171933 </v>
    <v>       0.81682128       0.29473069       0.04037307 </v>
    <v>       0.82906105       0.31351196       0.21464750 </v>
    <v>       0.31177707       0.81351196       0.12204440 </v>
    <v>       0.34239844       0.80411462       0.29113161 </v>
    <v>       0.47710479       0.30630517       0.15932569 </v>
    <v>       0.51266385       0.31298860       0.31561452 </v>
    <v>       0.00148905       0.81351196       0.24551520 </v>
    <v>       0.96797653       0.82015341       0.08291490 </v>
    <v>       0.14002202       0.32177445       0.10754220 </v>
    <v>       0.17391704       0.31351196       0.27638290 </v>
    <v>       0.65663306       0.81351196       0.18377980 </v>
    <v>       0.69642229       0.78902398       0.34863992 </v>
    <v>       0.31177707       0.47708196       0.12204440 </v>
    <v>       0.34239844       0.48647930       0.29113161 </v>
    <v>       0.81682128       0.99586322       0.04037307 </v>
    <v>       0.82906105       0.97708196       0.21464750 </v>
    <v>       0.00148905       0.47708196       0.24551520 </v>
    <v>       0.96797653       0.47044050       0.08291490 </v>
    <v>       0.47710479       0.98428875       0.15932569 </v>
    <v>       0.51266385       0.97760531       0.31561452 </v>
    <v>       0.65663306       0.47708196       0.18377980 </v>
    <v>       0.69642229       0.50156993       0.34863992 </v>
    <v>       0.14002202       0.96881946       0.10754220 </v>
    <v>       0.17391704       0.97708196       0.27638290 </v>
   </varray>
  </structure>
  <varray name="forces" >
   <v>       1.75293132      -0.00000000      -0.68312632 </v>
   <v>       1.40348146      -0.00000000       0.54397303 </v>
   <v>       0.88502515      -0.00000000      -0.16470641 </v>
   <v>      -0.11587229      -0.00000000      -0.23988089 </v>
   <v>       0.07659926      -0.00000000      -0.58516365 </v>
   <v>      -0.50158332      -0.00000000       0.45074118 </v>
   <v>      -0.42081075      -0.00000000       2.12390888 </v>
   <v>      -1.66517055      -0.00000000       0.51683154 </v>
   <v>      -1.03572636      -0.00000000      -1.92006643 </v>
   <v>      -1.00950496      -0.00000000       0.67871960 </v>
   <v>       0.84327424      -0.00000000       1.03039402 </v>
   <v>       0.37708493      -0.00000000      -0.45486954 </v>
   <v>      -0.76434175      -0.00000000      -1.19816784 </v>
   <v>       0.93046477       0.71194708       0.12065917 </v>
   <v>      -0.92315859      -0.78993972      -0.08053286 </v>
   <v>       0.16494733      -0.54481975      -1.10748236 </v>
   <v>       0.28038626      -0.21890301      -0.65595108 </v>
   <v>       0.30715199       0.33421676       1.06673679 </v>
   <v>      -0.44301992      -1.41466186      -0.58558932 </v>
   <v>       0.17268839      -0.41096106       1.58897933 </v>
   <v>       1.19371757      -1.21316926       0.35823283 </v>
   <v>       0.66950654      -0.72882247       1.02656867 </v>
   <v>       0.33790069      -0.05989249       0.68582136 </v>
   <v>      -0.48677653       1.25295247      -0.16875783 </v>
   <v>       0.72428597      -0.11440174      -1.29336587 </v>
   <v>       0.93046477      -0.71194708       0.12065917 </v>
   <v>      -0.92315859       0.78993972      -0.08053286 </v>
   <v>       0.16494733       0.54481975      -1.10748236 </v>
   <v>       0.28038626       0.21890301      -0.65595108 </v>
   <v>       0.30715199      -0.33421676       1.06673679 </v>
   <v>      -0.44301992       1.41466186      -0.58558932 </v>
   <v>       0.17268839       0.41096106       1.58897933 </v>
   <v>       1.19371757       1.21316926       0.35823283 </v>
   <v>       0.66950654       0.72882247       1.02656867 </v>
   <v>       0.33790069       0.05989249       0.68582136 </v>
   <v>      -0.48677653      -1.25295247      -0.16875783 </v>
   <v>       0.72428597       0.11440174      -1.29336587 </v>
   <v>      -0.37087610      -0.00000000       3.04462269 </v>
   <v>       1.87333811      -0.00000000      -2.57268699 </v>
   <v>       1.64615751      -0.00000000      -1.67752844 </v>
   <v>       1.17728969      -0.00000000       0.61883327 </v>
   <v>      -0.89755910      -0.00000000      -2.30745451 </v>
   <v>       0.79417548      -0.00000000       3.94892844 </v>
   <v>       0.00241219      -0.00000000      -4.10363114 </v>
   <v>       1.55386233      -0.00000000      -1.09706027 </v>
   <v>       0.58031141      -0.00000000       4.19596276 </v>
   <v>       1.56735048      -0.00000000      -3.08189349 </v>
   <v>       0.52841554      -0.00000000       0.78472704 </v>
   <v>       0.26310099      -0.00000000      -1.57328912 </v>
   <v>       0.92726264      -0.00000000       2.59592174 </v>
   <v>      -0.32493482       0.89246737      -3.92249691 </v>
   <v>      -1.13006146      -0.32683631       3.03817601 </v>
   <v>      -1.76495420       0.91578884      -0.28271409 </v>
   <v>      -0.90485586       0.46746232       1.86483164 </v>
   <v>       0.30401112       1.33543746      -1.93234216 </v>
   <v>       0.35767969       0.01435276       2.32750105 </v>
   <v>      -1.06097891       1.45626367      -0.70341320 </v>
   <v>      -0.47560890       0.66653747      -2.83817735 </v>
   <v>      -0.83237188       0.79607381      -1.36636938 </v>
   <v>      -0.70698196       0.35655968       0.48395578 </v>
   <v>      -0.64762489       0.73004772      -0.95613305 </v>
   <v>      -0.47672618       1.18009930       3.89484324 </v>
   <v>      -1.76495420      -0.91578884      -0.28271409 </v>
   <v>      -0.90485586      -0.46746232       1.86483164 </v>
   <v>      -0.32493482      -0.89246737      -3.92249691 </v>
   <v>      -1.13006146       0.32683631       3.03817601 </v>
   <v>      -1.06097891      -1.45626367      -0.70341320 </v>
   <v>      -0.47560890      -0.66653747      -2.83817735 </v>
   <v>       0.30401112      -1.33543746      -1.93234216 </v>
   <v>       0.35767969      -0.01435276       2.32750105 </v>
   <v>      -0.64762489      -0.73004772      -0.95613305 </v>
   <v>      -0.47672618      -1.18009930       3.89484324 </v>
   <v>      -0.83237188      -0.79607381      -1.36636938 </v>
   <v>      -0.70698196      -0.35655968       0.48395578 </v>
  </varray>
  <varray name="stress" >
   <v>      73.60042244       0.00000000       1.40682506 </v>
   <v>       0.00000000      67.31288753       0.00000000 </v>
   <v>       1.40682526       0.00000000      87.05769655 </v>
  </varray>
  <energy>
   <i name="e_fr_energy">   -352.79945345 </i>
   <i name="e_wo_entrp">   -352.21338723 </i>
   <i name="e_0_energy">     -1.17213246 </i>
  </energy>
  <time name="totalsc">  432.16  432.25</time>
  <eigenvalues>
   <array>
    <dimension dim="1">band</dimension>
    <dimension dim="2">kpoint</dimension>
    <dimension dim="3">spin</dimension>
    <field>eigene</field>
    <field>occ</field>
    <set>
     <set comment="spin 1">
      <set comment="kpoint 1">
       <r>  -65.0943    1.0000 </r>
       <r>  -65.0622    1.0000 </r>
       <r>  -64.9676    1.0000 </r>
       <r>  -64.9500    1.0000 </r>
       <r>  -64.9458    1.0000 </r>
       <r>  -64.9364    1.0000 </r>
       <r>  -64.9257    1.0000 </r>
       <r>  -64.9092    1.0000 </r>
       <r>  -64.8758    1.0000 </r>
       <r>  -64.8061    1.0000 </r>
       <r>  -64.8048    1.0000 </r>
       <r>  -64.7804    1.0000 </r>
       <r>  -64.7702    1.0000 </r>
       <r>  -64.7680    1.0000 </r>
       <r>  -64.7661    1.0000 </r>
       <r>  -64.7646    1.0000 </r>
       <r>  -64.7578    1.0000 </r>
       <r>  -64.7524    1.0000 </r>
       <r>  -64.7506    1.0000 </r>
       <r>  -64.7426    1.0000 </r>
       <r>  -64.7359    1.0000 </r>
       <r>  -64.7349    1.0000 </r>
       <r>  -64.7209    1.0000 </r>
       <r>  -64.6883    1.0000 </r>
       <r>  -64.6687    1.0000 </r>
       <r>  -64.6251    1.0000 </r>
       <r>  -64.6243    1.0000 </r>
       <r>  -64.6056    1.0000 </r>
       <r>  -64.5815    1.0000 </r>
       <r>  -64.5763    1.0000 </r>
       <r>  -64.5728    1.0000 </r>
       <r>  -64.5632    1.0000 </r>
       <r>  -64.5531    1.0000 </r>
       <r>  -64.5385    1.0000 </r>
       <r>  -64.5379    1.0000 </r>
       <r>  -64.5376    1.0000 </r>
       <r>  -64.5252    1.0000 </r>
       <r>  -64.5164    1.0000 </r>
       <r>  -64.5049    1.0000 </r>
       <r>  -64.5029    1.0000 </r>
       <r>  -64.4933    1.0000 </r>
       <r>  -64.4893    1.0000 </r>
       <r>  -64.4825    1.0000 </r>
       <r>  -64.4675    1.0000 </r>
       <r>  -64.4568    1.0000 </r>
       <r>  -64.4307    1.0000 </r>
       <r>  -64.4277    1.0000 </r>
       <r>  -64.4262    1.0000 </r>
       <r>  -64.4232    1.0000 </r>
       <r>  -64.4136    1.0000 </r>
       <r>  -64.4121    1.0000 </r>
       <r>  -64.4112    1.0000 </r>
       <r>  -64.4108    1.0000 </r>
       <r>  -64.4080    1.0000 </r>
       <r>  -64.4019    1.0000 </r>
       <r>  -64.3979    1.0000 </r>
       <r>  -64.3979    1.0000 </r>
       <r>  -64.3974    1.0000 </r>
       <r>  -64.3960    1.0000 </r>
       <r>  -64.3926    1.0000 </r>
       <r>  -64.3909    1.0000 </r>
       <r>  -64.3626    1.0000 </r>
       <r>  -64.3575    1.0000 </r>
       <r>  -64.3426    1.0000 </r>
       <r>  -64.3234    1.0000 </r>
       <r>  -64.3141    1.0000 </r>
       <r>  -64.3094    1.0000 </r>
       <r>  -64.3082    1.0000 </r>
       <r>  -64.3020    1.0000 </r>
       <r>  -64.2978    1.0000 </r>
       <r>  -64.2950    1.0000 </r>
       <r>  -64.2901    1.0000 </r>
       <r>  -64.2845    1.0000 </r>
       <r>  -64.2652    1.0000 </r>
       <r>  -64.2367    1.0000 </r>
       <r>  -64.2272    1.0000 </r>
       <r>  -64.2268    1.0000 </r>
       <r>  -64.2113    1.0000 </r>
       <r>  -64.1885    1.0000 </r>
       <r>  -64.1858    1.0000 </r>
       <r>  -64.1734    1.0000 </r>
       <r>  -64.1662    1.0000 </r>
       <r>  -64.1637    1.0000 </r>
       <r>  -64.1627    1.0000 </r>
       <r>  -64.1610    1.0000 </r>
       <r>  -64.1546    1.0000 </r>
       <r>  -64.1211    1.0000 </r>
       <r>  -64.1209    1.0000 </r>
       <r>  -64.0763    1.0000 </r>
       <r>  -64.0566    1.0000 </r>
       <r>  -64.0546    1.0000 </r>
       <r>  -64.0298    1.0000 </r>
       <r>  -64.0088    1.0000 </r>
       <r>  -63.9799    1.0000 </r>
       <r>  -63.9785    1.0000 </r>
       <r>  -63.8721    1.0000 </r>
       <r>  -63.8646    1.0000 </r>
       <r>  -63.8638    1.0000 </r>
       <r>  -63.8557    1.0000 </r>
       <r>  -63.8556    1.0000 </r>
       <r>  -63.8427    1.0000 </r>
       <r>  -63.8305    1.0000 </r>
       <r>  -63.8027    1.0000 </r>
       <r>  -63.8018    1.0000 </r>
       <r>  -63.7887    1.0000 </r>
       <r>  -63.5382    1.0000 </r>
       <r>  -63.4170    1.0000 </r>
       <r>  -63.4041    1.0000 </r>
       <r>  -63.3569    1.0000 </r>
       <r>  -63.2170    1.0000 </r>
       <r>  -63.1592    1.0000 </r>
       <r>  -16.4300    1.0000 </r>
       <r>  -16.1663    1.0000 </r>
       <r>  -16.0784    1.0000 </r>
       <r>  -15.7429    1.0000 </r>
       <r>  -15.6254    1.0000 </r>
       <r>  -15.3770    1.0000 </r>
       <r>  -15.3662    1.0000 </r>
       <r>  -15.2772    1.0000 </r>
       <r>  -15.1312    1.0000 </r>
       <r>  -15.0798    1.0000 </r>
       <r>  -15.0412    1.0000 </r>
       <r>  -14.9262    1.0000 </r>
       <r>  -14.8797    1.0000 </r>
       <r>  -14.8203    1.0000 </r>
       <r>  -14.7956    1.0000 </r>
       <r>  -14.6205    1.0000 </r>
       <r>  -14.6018    1.0000 </r>
       <r>  -14.4577    1.0000 </r>
       <r>  -14.4468    1.0000 </r>
       <r>  -14.3835    1.0000 </r>
       <r>  -14.2730    1.0000 </r>
       <r>  -14.2338    1.0000 </r>
       <r>  -14.1874    1.0000 </r>
       <r>  -14.1326    1.0000 </r>
       <r>  -14.0883    1.0000 </r>
       <r>  -13.9594    1.0000 </r>
       <r>  -13.8255    1.0000 </r>
       <r>  -13.8242    1.0000 </r>
       <r>  -13.7240    1.0000 </r>
       <r>  -13.6480    1.0000 </r>
       <r>  -13.5389    1.0000 </r>
       <r>  -13.4088    1.0000 </r>
       <r>  -13.2814    1.0000 </r>
       <r>  -13.2739    1.0000 </r>
       <r>  -13.1872    1.0000 </r>
       <r>  -13.0582    1.0000 </r>
       <r>  -12.7391    1.0000 </r>
       <r>   -8.2848    1.0000 </r>
       <r>   -8.0156    1.0000 </r>
       <r>   -7.9512    1.0000 </r>
       <r>   -7.8337    1.0000 </r>
       <r>   -7.7897    1.0000 </r>
       <r>   -7.7118    1.0000 </r>
       <r>   -7.7056    1.0000 </r>
       <r>   -7.5932    1.0000 </r>
       <r>   -7.5309    1.0000 </r>
       <r>   -7.5267    1.0000 </r>
       <r>   -7.4905    1.0000 </r>
       <r>   -7.3716    1.0000 </r>
       <r>   -7.3332    1.0000 </r>
       <r>   -7.2876    1.0000 </r>
       <r>   -7.2559    1.0000 </r>
       <r>   -7.1904    1.0000 </r>
       <r>   -7.1642    1.0000 </r>
       <r>   -7.0866    1.0000 </r>
       <r>   -7.0681    1.0000 </r>
       <r>   -7.0086    1.0000 </r>
       <r>   -6.9560    1.0000 </r>
       <r>   -6.8786    1.0000 </r>
       <r>   -6.8264    1.0000 </r>
       <r>   -6.7627    1.0000 </r>
       <r>   -6.7416    1.0000 </r>
       <r>   -6.6837    1.0000 </r>
       <r>   -6.6821    1.0000 </r>
       <r>   -6.6700    1.0000 </r>
       <r>   -6.6290    1.0000 </r>
       <r>   -6.5364    1.0000 </r>
       <r>   -6.5104    1.0000 </r>
       <r>   -6.4798    1.0000 </r>
       <r>   -6.4716    1.0000 </r>
       <r>   -6.3785    1.0000 </r>
       <r>   -6.3097    1.0000 </r>
       <r>   -6.3074    1.0000 </r>
       <r>   -6.3040    1.0000 </r>
       <r>   -6.1915    1.0000 </r>
       <r>   -6.1269    1.0000 </r>
       <r>   -6.1248    1.0000 </r>
       <r>   -6.0899    1.0000 </r>
       <r>   -6.0712    1.0000 </r>
       <r>   -6.0118    1.0000 </r>
       <r>   -6.0069    1.0000 </r>
       <r>   -5.9679    1.0000 </r>
       <r>   -5.9665    1.0000 </r>
       <r>   -5.9003    1.0000 </r>
       <r>   -5.8508    1.0000 </r>
       <r>   -5.8199    1.0000 </r>
       <r>   -5.8191    1.0000 </r>
       <r>   -5.7654    1.0000 </r>
       <r>   -5.7139    1.0000 </r>
       <r>   -5.6483    1.0000 </r>
       <r>   -5.6247    1.0000 </r>
       <r>   -5.6057    1.0000 </r>
       <r>   -5.5345    1.0000 </r>
       <r>   -5.4943    1.0000 </r>
       <r>   -5.4556    1.0000 </r>
       <r>   -5.4374    1.0000 </r>
       <r>   -5.4119    1.0000 </r>
       <r>   -5.3826    1.0000 </r>
       <r>   -5.3409    1.0000 </r>
       <r>   -5.3051    1.0000 </r>
       <r>   -5.2853    1.0000 </r>
       <r>   -5.2546    1.0000 </r>
       <r>   -5.2229    1.0000 </r>
       <r>   -5.2170    1.0000 </r>
       <r>   -5.1907    1.0000 </r>
       <r>   -5.1031    1.0000 </r>
       <r>   -5.1027    1.0000 </r>
       <r>   -5.0720    1.0000 </r>
       <r>   -5.0539    1.0000 </r>
       <r>   -5.0175    1.0000 </r>
       <r>   -4.9976    1.0000 </r>
       <r>   -4.9905    1.0000 </r>
       <r>   -4.9261    1.0000 </r>
       <r>   -4.8565    1.0000 </r>
       <r>   -4.8422    1.0000 </r>
       <r>   -4.8189    1.0000 </r>
       <r>   -4.7900    1.0000 </r>
       <r>   -4.7524    1.0000 </r>
       <r>   -4.7510    1.0000 </r>
       <r>   -4.6867    1.0000 </r>
       <r>   -4.6584    1.0000 </r>
       <r>   -4.6172    1.0000 </r>
       <r>   -4.6148    1.0000 </r>
       <r>   -4.5202    1.0000 </r>
       <r>   -4.5120    1.0000 </r>
       <r>   -4.5070    1.0000 </r>
       <r>   -4.4559    1.0000 </r>
       <r>   -4.4551    1.0000 </r>
       <r>   -4.3689    1.0000 </r>
       <r>   -4.3550    1.0000 </r>
       <r>   -4.3299    1.0000 </r>
       <r>   -4.2994    1.0000 </r>
       <r>   -4.2372    1.0000 </r>
       <r>   -4.2295    1.0000 </r>
       <r>   -4.1009    1.0000 </r>
       <r>   -4.0441    1.0000 </r>
       <r>   -4.0201    1.0000 </r>
       <r>   -3.9486    1.0000 </r>
       <r>   -3.9427    1.0000 </r>
       <r>   -3.9017    1.0000 </r>
       <r>   -3.9003    1.0000 </r>
       <r>   -3.8339    1.0000 </r>
       <r>   -3.7932    1.0000 </r>
       <r>   -3.7497    1.0000 </r>
       <r>   -3.7356    1.0000 </r>
       <r>   -3.6545    1.0000 </r>
       <r>   -3.6539    1.0000 </r>
       <r>   -3.6186    1.0000 </r>
       <r>   -3.5565    1.0000 </r>
       <r>   -3.5421    1.0000 </r>
       <r>   -3.4135    1.0000 </r>
       <r>   -3.3933    1.0000 </r>
       <r>   -3.3865    1.0000 </r>
       <r>   -3.3334    1.0000 </r>
       <r>   -3.3321    1.0000 </r>
       <r>   -3.2925    1.0000 </r>
       <r>   -3.2463    1.0000 </r>
       <r>   -3.2112    1.0000 </r>
       <r>   -3.1762    1.0000 </r>
       <r>   -3.1743    1.0000 </r>
       <r>   -3.0975    1.0000 </r>
       <r>   -3.0973    1.0000 </r>
       <r>   -3.0492    1.0000 </r>
       <r>   -3.0332    1.0000 </r>
       <r>   -3.0163    1.0000 </r>
       <r>   -2.9736    1.0000 </r>
       <r>   -2.9482    1.0000 </r>
       <r>   -2.9462    1.0000 </r>
       <r>   -2.9305    1.0000 </r>
       <r>   -2.9240    1.0000 </r>
       <r>   -2.9059    1.0000 </r>
       <r>   -2.8564    1.0000 </r>
       <r>   -2.8317    1.0000 </r>
       <r>   -2.8198    1.0000 </r>
       <r>   -2.8063    1.0000 </r>
       <r>   -2.7765    1.0000 </r>
       <r>   -2.7664    1.0000 </r>
       <r>   -2.7430    1.0000 </r>
       <r>   -2.6951    1.0000 </r>
       <r>   -2.6822    1.0000 </r>
       <r>   -2.6627    1.0000 </r>
       <r>   -2.6341    1.0000 </r>
       <r>   -2.6308    1.0000 </r>
       <r>   -2.6066    1.0000 </r>
       <r>   -2.5880    1.0000 </r>
       <r>   -2.5815    1.0000 </r>
       <r>   -2.5596    1.0000 </r>
       <r>   -2.5402    1.0000 </r>
       <r>   -2.5326    1.0000 </r>
       <r>   -2.4787    1.0000 </r>
       <r>   -2.4629    1.0000 </r>
       <r>   -2.4459    1.0000 </r>
       <r>   -2.4391    1.0000 </r>
       <r>   -2.4328    1.0000 </r>
       <r>   -2.4261    1.0000 </r>
       <r>   -2.3940    1.0000 </r>
       <r>   -2.3870    1.0000 </r>
       <r>   -2.3735    1.0000 </r>
       <r>   -2.3650    1.0000 </r>
       <r>   -2.3582    1.0000 </r>
       <r>   -2.3483    1.0000 </r>
       <r>   -2.3184    1.0000 </r>
       <r>   -2.3136    1.0000 </r>
       <r>   -2.3135    1.0000 </r>
       <r>   -2.2924    1.0000 </r>
       <r>   -2.2799    1.0000 </r>
       <r>   -2.2698    1.0000 </r>
       <r>   -2.2664    1.0000 </r>
       <r>   -2.2387    1.0000 </r>
       <r>   -2.2318    1.0000 </r>
       <r>   -2.2254    1.0000 </r>
       <r>   -2.2088    1.0000 </r>
       <r>   -2.1874    1.0000 </r>
       <r>   -2.1722    1.0000 </r>
       <r>   -2.1636    1.0000 </r>
       <r>   -2.1594    1.0000 </r>
       <r>   -2.1441    1.0000 </r>
       <r>   -2.1231    1.0000 </r>
       <r>   -2.1167    1.0000 </r>
       <r>   -2.1065    1.0000 </r>
       <r>   -2.1006    1.0000 </r>
       <r>   -2.0836    1.0000 </r>
       <r>   -2.0679    1.0000 </r>
       <r>   -2.0579    1.0000 </r>
       <r>   -2.0343    1.0000 </r>
       <r>   -2.0160    1.0000 </r>
       <r>   -2.0146    1.0000 </r>
       <r>   -1.9913    1.0000 </r>
       <r>   -1.9791    1.0000 </r>
       <r>   -1.9788    1.0000 </r>
       <r>   -1.9650    1.0000 </r>
       <r>   -1.9299    1.0000 </r>
       <r>   -1.9295    1.0000 </r>
       <r>   -1.9003    1.0000 </r>
       <r>   -1.8893    1.0000 </r>
       <r>   -1.8288    1.0000 </r>
       <r>   -1.8172    1.0000 </r>
       <r>   -1.7944    1.0000 </r>
       <r>   -1.7606    1.0000 </r>
       <r>   -1.7530    1.0000 </r>
       <r>   -1.7243    1.0000 </r>
       <r>   -1.6979    1.0000 </r>
       <r>   -1.6901    1.0000 </r>
       <r>   -1.6875    1.0000 </r>
       <r>   -1.6605    1.0000 </r>
       <r>   -1.6476    1.0000 </r>
       <r>   -1.5807    1.0000 </r>
       <r>   -1.5580    1.0000 </r>
       <r>   -1.5262    1.0000 </r>
       <r>   -1.5183    1.0000 </r>
       <r>   -1.4968    1.0000 </r>
       <r>   -1.4440    1.0000 </r>
       <r>   -1.4345    1.0000 </r>
       <r>   -1.4253    1.0000 </r>
       <r>   -1.3984    1.0000 </r>
       <r>   -1.3935    1.0000 </r>
       <r>   -1.3741    1.0000 </r>
       <r>   -1.3394    1.0000 </r>
       <r>   -1.3114    1.0000 </r>
       <r>   -1.2941    1.0000 </r>
       <r>   -1.2752    1.0000 </r>
       <r>   -1.2486    1.0000 </r>
       <r>   -1.2268    1.0000 </r>
       <r>   -1.2023    1.0000 </r>
       <r>   -1.1744    1.0000 </r>
       <r>   -1.1639    1.0000 </r>
       <r>   -1.1364    1.0000 </r>
       <r>   -1.1309    1.0000 </r>
       <r>   -1.0957    1.0000 </r>
       <r>   -1.0408    1.0000 </r>
       <r>   -1.0251    1.0000 </r>
       <r>   -1.0145    1.0000 </r>
       <r>   -0.9645    1.0000 </r>
       <r>   -0.9222    1.0000 </r>
       <r>   -0.9176    1.0000 </r>
       <r>   -0.8494    1.0000 </r>
       <r>   -0.8124    1.0000 </r>
       <r>   -0.7673    1.0000 </r>
       <r>   -0.7334    1.0000 </r>
       <r>   -0.7236    1.0000 </r>
       <r>   -0.7004    1.0000 </r>
       <r>   -0.6956    1.0000 </r>
       <r>   -0.5960    0.9998 </r>
       <r>   -0.5598    0.9994 </r>
       <r>   -0.5524    0.9993 </r>
       <r>   -0.5251    0.9987 </r>
       <r>   -0.4834    0.9966 </r>
       <r>   -0.4342    0.9909 </r>
       <r>   -0.4027    0.9838 </r>
       <r>   -0.3483    0.9604 </r>
       <r>   -0.2777    0.8956 </r>
       <r>   -0.2465    0.8499 </r>
       <r>   -0.2227    0.8072 </r>
       <r>   -0.1821    0.7192 </r>
       <r>   -0.1741    0.6999 </r>
       <r>   -0.1077    0.5219 </r>
       <r>   -0.0465    0.3526 </r>
       <r>   -0.0247    0.2972 </r>
       <r>   -0.0224    0.2916 </r>
       <r>    0.0467    0.1499 </r>
       <r>    0.0655    0.1210 </r>
       <r>    0.0779    0.1042 </r>
       <r>    0.0810    0.1004 </r>
       <r>    0.1069    0.0718 </r>
       <r>    0.1418    0.0437 </r>
       <r>    0.2121    0.0137 </r>
       <r>    0.2238    0.0110 </r>
       <r>    0.2449    0.0074 </r>
       <r>    0.2483    0.0069 </r>
       <r>    0.2639    0.0050 </r>
       <r>    0.3464    0.0008 </r>
       <r>    0.4410    0.0001 </r>
       <r>    0.4600    0.0000 </r>
       <r>    0.5451    0.0000 </r>
       <r>    0.6880    0.0000 </r>
       <r>    0.7028    0.0000 </r>
       <r>    0.7684    0.0000 </r>
       <r>    0.8122    0.0000 </r>
       <r>    0.8425    0.0000 </r>
       <r>    0.9448    0.0000 </r>
       <r>    0.9511    0.0000 </r>
       <r>    0.9636    0.0000 </r>
       <r>    1.0301    0.0000 </r>
       <r>    1.0505    0.0000 </r>
       <r>    1.1290    0.0000 </r>
       <r>    1.1433    0.0000 </r>
       <r>    1.1644    0.0000 </r>
       <r>    1.2585    0.0000 </r>
       <r>    1.2905    0.0000 </r>
       <r>    1.3711    0.0000 </r>
       <r>    1.3871    0.0000 </r>
       <r>    1.5150    0.0000 </r>
       <r>    1.6196    0.0000 </r>
       <r>    1.9409    0.0000 </r>
       <r>    2.4740    0.0000 </r>
       <r>    2.8667    0.0000 </r>
       <r>    2.8927    0.0000 </r>
       <r>    3.1055    0.0000 </r>
       <r>    3.4518    0.0000 </r>
       <r>    3.5082    0.0000 </r>
       <r>    3.6124    0.0000 </r>
       <r>    3.9078    0.0000 </r>
       <r>    4.0336    0.0000 </r>
       <r>    4.0411    0.0000 </r>
       <r>    4.0811    0.0000 </r>
       <r>    4.2606    0.0000 </r>
       <r>    4.2671    0.0000 </r>
       <r>    4.3406    0.0000 </r>
       <r>    4.4335    0.0000 </r>
       <r>    4.4903    0.0000 </r>
       <r>    4.5458    0.0000 </r>
       <r>    4.6286    0.0000 </r>
       <r>    4.6431    0.0000 </r>
       <r>    4.7054    0.0000 </r>
       <r>    4.7681    0.0000 </r>
       <r>    4.8283    0.0000 </r>
       <r>    4.9348    0.0000 </r>
       <r>    4.9678    0.0000 </r>
       <r>    5.0237    0.0000 </r>
       <r>    5.0724    0.0000 </r>
       <r>    5.1068    0.0000 </r>
       <r>    5.1419    0.0000 </r>
       <r>    5.1465    0.0000 </r>
       <r>    5.1508    0.0000 </r>
       <r>    5.2329    0.0000 </r>
       <r>    5.2753    0.0000 </r>
       <r>    5.3273    0.0000 </r>
       <r>    5.3647    0.0000 </r>
       <r>    5.3658    0.0000 </r>
       <r>    5.3860    0.0000 </r>
       <r>    5.4787    0.0000 </r>
       <r>    5.4911    0.0000 </r>
       <r>    5.5205    0.0000 </r>
       <r>    5.5718    0.0000 </r>
       <r>    5.5827    0.0000 </r>
       <r>    5.5870    0.0000 </r>
       <r>    5.6623    0.0000 </r>
      </set>
     </set>
    </set>
   </array>
  </eigenvalues>
  <separator name="orbital magnetization" >
   <v name="MAGDIPOLOUT">      0.00000000      0.00000000      0.00000000</v>
  </separator>
  <dos>
   <i name="efermi">     -0.09996755 </i>
   <total>
    <array>
     <dimension dim="1">gridpoints</dimension>
     <dimension dim="2">spin</dimension>
     <field>energy</field>
     <field>total</field>
     <field>integrated</field>
     <set>
      <set comment="spin 1">
       <r>   -68.6321     0.0000     0.0000 </r>
       <r>   -68.3727     0.0000     0.0000 </r>
       <r>   -68.1132     0.0000     0.0000 </r>
       <r>   -67.8538     0.0000     0.0000 </r>
       <r>   -67.5943     0.0000     0.0000 </r>
       <r>   -67.3349     0.0000     0.0000 </r>
       <r>   -67.0755     0.0000     0.0000 </r>
       <r>   -66.8160     0.0000     0.0000 </r>
       <r>   -66.5566     0.0000     0.0000 </r>
       <r>   -66.2971     0.0000     0.0000 </r>
       <r>   -66.0377     0.0000     0.0000 </r>
       <r>   -65.7782     0.0000     0.0000 </r>
       <r>   -65.5188     0.0163     0.0042 </r>
       <r>   -65.2594     2.1761     0.5688 </r>
       <r>   -64.9999    31.2083     8.6655 </r>
       <r>   -64.7405   110.8579    37.4266 </r>
       <r>   -64.4810   195.9225    88.2569 </r>
       <r>   -64.2216   236.0162   149.4891 </r>
       <r>   -63.9622   145.0572   187.1229 </r>
       <r>   -63.7027    75.2472   206.6451 </r>
       <r>   -63.4433    27.4384   213.7637 </r>
       <r>   -63.1838    22.4764   219.5950 </r>
       <r>   -62.9244     8.7346   221.8611 </r>
       <r>   -62.6650     0.5331   221.9994 </r>
       <r>   -62.4055     0.0022   222.0000 </r>
       <r>   -62.1461     0.0000   222.0000 </r>
       <r>   -61.8866     0.0000   222.0000 </r>
       <r>   -61.6272     0.0000   222.0000 </r>
       <r>   -61.3678     0.0000   222.0000 </r>
       <r>   -61.1083     0.0000   222.0000 </r>
       <r>   -60.8489     0.0000   222.0000 </r>
       <r>   -60.5894     0.0000   222.0000 </r>
       <r>   -60.3300     0.0000   222.0000 </r>
       <r>   -60.0705     0.0000   222.0000 </r>
       <r>   -59.8111     0.0000   222.0000 </r>
       <r>   -59.5517     0.0000   222.0000 </r>
       <r>   -59.2922     0.0000   222.0000 </r>
       <r>   -59.0328     0.0000   222.0000 </r>
       <r>   -58.7733     0.0000   222.0000 </r>
       <r>   -58.5139     0.0000   222.0000 </r>
       <r>   -58.2545     0.0000   222.0000 </r>
       <r>   -57.9950     0.0000   222.0000 </r>
       <r>   -57.7356     0.0000   222.0000 </r>
       <r>   -57.4761     0.0000   222.0000 </r>
       <r>   -57.2167     0.0000   222.0000 </r>
       <r>   -56.9573     0.0000   222.0000 </r>
       <r>   -56.6978     0.0000   222.0000 </r>
       <r>   -56.4384     0.0000   222.0000 </r>
       <r>   -56.1789     0.0000   222.0000 </r>
       <r>   -55.9195     0.0000   222.0000 </r>
       <r>   -55.6601     0.0000   222.0000 </r>
       <r>   -55.4006     0.0000   222.0000 </r>
       <r>   -55.1412     0.0000   222.0000 </r>
       <r>   -54.8817     0.0000   222.0000 </r>
       <r>   -54.6223     0.0000   222.0000 </r>
       <r>   -54.3629     0.0000   222.0000 </r>
       <r>   -54.1034     0.0000   222.0000 </r>
       <r>   -53.8440     0.0000   222.0000 </r>
       <r>   -53.5845     0.0000   222.0000 </r>
       <r>   -53.3251     0.0000   222.0000 </r>
       <r>   -53.0656     0.0000   222.0000 </r>
       <r>   -52.8062     0.0000   222.0000 </r>
       <r>   -52.5468     0.0000   222.0000 </r>
       <r>   -52.2873     0.0000   222.0000 </r>
       <r>   -52.0279     0.0000   222.0000 </r>
       <r>   -51.7684     0.0000   222.0000 </r>
       <r>   -51.5090     0.0000   222.0000 </r>
       <r>   -51.2496     0.0000   222.0000 </r>
       <r>   -50.9901     0.0000   222.0000 </r>
       <r>   -50.7307     0.0000   222.0000 </r>
       <r>   -50.4712     0.0000   222.0000 </r>
       <r>   -50.2118     0.0000   222.0000 </r>
       <r>   -49.9524     0.0000   222.0000 </r>
       <r>   -49.6929     0.0000   222.0000 </r>
       <r>   -49.4335     0.0000   222.0000 </r>
       <r>   -49.1740     0.0000   222.0000 </r>
       <r>   -48.9146     0.0000   222.0000 </r>
       <r>   -48.6552     0.0000   222.0000 </r>
       <r>   -48.3957     0.0000   222.0000 </r>
       <r>   -48.1363     0.0000   222.0000 </r>
       <r>   -47.8768     0.0000   222.0000 </r>
       <r>   -47.6174     0.0000   222.0000 </r>
       <r>   -47.3579     0.0000   222.0000 </r>
       <r>   -47.0985     0.0000   222.0000 </r>
       <r>   -46.8391     0.0000   222.0000 </r>
       <r>   -46.5796     0.0000   222.0000 </r>
       <r>   -46.3202     0.0000   222.0000 </r>
       <r>   -46.0607     0.0000   222.0000 </r>
       <r>   -45.8013     0.0000   222.0000 </r>
       <r>   -45.5419     0.0000   222.0000 </r>
       <r>   -45.2824     0.0000   222.0000 </r>
       <r>   -45.0230     0.0000   222.0000 </r>
       <r>   -44.7635     0.0000   222.0000 </r>
       <r>   -44.5041     0.0000   222.0000 </r>
       <r>   -44.2447     0.0000   222.0000 </r>
       <r>   -43.9852     0.0000   222.0000 </r>
       <r>   -43.7258     0.0000   222.0000 </r>
       <r>   -43.4663     0.0000   222.0000 </r>
       <r>   -43.2069     0.0000   222.0000 </r>
       <r>   -42.9475     0.0000   222.0000 </r>
       <r>   -42.6880     0.0000   222.0000 </r>
       <r>   -42.4286     0.0000   222.0000 </r>
       <r>   -42.1691     0.0000   222.0000 </r>
       <r>   -41.9097     0.0000   222.0000 </r>
       <r>   -41.6502     0.0000   222.0000 </r>
       <r>   -41.3908     0.0000   222.0000 </r>
       <r>   -41.1314     0.0000   222.0000 </r>
       <r>   -40.8719     0.0000   222.0000 </r>
       <r>   -40.6125     0.0000   222.0000 </r>
       <r>   -40.3530     0.0000   222.0000 </r>
       <r>   -40.0936     0.0000   222.0000 </r>
       <r>   -39.8342     0.0000   222.0000 </r>
       <r>   -39.5747     0.0000   222.0000 </r>
       <r>   -39.3153     0.0000   222.0000 </r>
       <r>   -39.0558     0.0000   222.0000 </r>
       <r>   -38.7964     0.0000   222.0000 </r>
       <r>   -38.5370     0.0000   222.0000 </r>
       <r>   -38.2775     0.0000   222.0000 </r>
       <r>   -38.0181     0.0000   222.0000 </r>
       <r>   -37.7586     0.0000   222.0000 </r>
       <r>   -37.4992     0.0000   222.0000 </r>
       <r>   -37.2398     0.0000   222.0000 </r>
       <r>   -36.9803     0.0000   222.0000 </r>
       <r>   -36.7209     0.0000   222.0000 </r>
       <r>   -36.4614     0.0000   222.0000 </r>
       <r>   -36.2020     0.0000   222.0000 </r>
       <r>   -35.9425     0.0000   222.0000 </r>
       <r>   -35.6831     0.0000   222.0000 </r>
       <r>   -35.4237     0.0000   222.0000 </r>
       <r>   -35.1642     0.0000   222.0000 </r>
       <r>   -34.9048     0.0000   222.0000 </r>
       <r>   -34.6453     0.0000   222.0000 </r>
       <r>   -34.3859     0.0000   222.0000 </r>
       <r>   -34.1265     0.0000   222.0000 </r>
       <r>   -33.8670     0.0000   222.0000 </r>
       <r>   -33.6076     0.0000   222.0000 </r>
       <r>   -33.3481     0.0000   222.0000 </r>
       <r>   -33.0887     0.0000   222.0000 </r>
       <r>   -32.8293     0.0000   222.0000 </r>
       <r>   -32.5698     0.0000   222.0000 </r>
       <r>   -32.3104     0.0000   222.0000 </r>
       <r>   -32.0509     0.0000   222.0000 </r>
       <r>   -31.7915     0.0000   222.0000 </r>
       <r>   -31.5321     0.0000   222.0000 </r>
       <r>   -31.2726     0.0000   222.0000 </r>
       <r>   -31.0132     0.0000   222.0000 </r>
       <r>   -30.7537     0.0000   222.0000 </r>
       <r>   -30.4943     0.0000   222.0000 </r>
       <r>   -30.2349     0.0000   222.0000 </r>
       <r>   -29.9754     0.0000   222.0000 </r>
       <r>   -29.7160     0.0000   222.0000 </r>
       <r>   -29.4565     0.0000   222.0000 </r>
       <r>   -29.1971     0.0000   222.0000 </r>
       <r>   -28.9376     0.0000   222.0000 </r>
       <r>   -28.6782     0.0000   222.0000 </r>
       <r>   -28.4188     0.0000   222.0000 </r>
       <r>   -28.1593     0.0000   222.0000 </r>
       <r>   -27.8999     0.0000   222.0000 </r>
       <r>   -27.6404     0.0000   222.0000 </r>
       <r>   -27.3810     0.0000   222.0000 </r>
       <r>   -27.1216     0.0000   222.0000 </r>
       <r>   -26.8621     0.0000   222.0000 </r>
       <r>   -26.6027     0.0000   222.0000 </r>
       <r>   -26.3432     0.0000   222.0000 </r>
       <r>   -26.0838     0.0000   222.0000 </r>
       <r>   -25.8244     0.0000   222.0000 </r>
       <r>   -25.5649     0.0000   222.0000 </r>
       <r>   -25.3055     0.0000   222.0000 </r>
       <r>   -25.0460     0.0000   222.0000 </r>
       <r>   -24.7866     0.0000   222.0000 </r>
       <r>   -24.5272     0.0000   222.0000 </r>
       <r>   -24.2677     0.0000   222.0000 </r>
       <r>   -24.0083     0.0000   222.0000 </r>
       <r>   -23.7488     0.0000   222.0000 </r>
       <r>   -23.4894     0.0000   222.0000 </r>
       <r>   -23.2299     0.0000   222.0000 </r>
       <r>   -22.9705     0.0000   222.0000 </r>
       <r>   -22.7111     0.0000   222.0000 </r>
       <r>   -22.4516     0.0000   222.0000 </r>
       <r>   -22.1922     0.0000   222.0000 </r>
       <r>   -21.9327     0.0000   222.0000 </r>
       <r>   -21.6733     0.0000   222.0000 </r>
       <r>   -21.4139     0.0000   222.0000 </r>
       <r>   -21.1544     0.0000   222.0000 </r>
       <r>   -20.8950     0.0000   222.0000 </r>
       <r>   -20.6355     0.0000   222.0000 </r>
       <r>   -20.3761     0.0000   222.0000 </r>
       <r>   -20.1167     0.0000   222.0000 </r>
       <r>   -19.8572     0.0000   222.0000 </r>
       <r>   -19.5978     0.0000   222.0000 </r>
       <r>   -19.3383     0.0000   222.0000 </r>
       <r>   -19.0789     0.0000   222.0000 </r>
       <r>   -18.8195     0.0000   222.0000 </r>
       <r>   -18.5600     0.0000   222.0000 </r>
       <r>   -18.3006     0.0000   222.0000 </r>
       <r>   -18.0411     0.0000   222.0000 </r>
       <r>   -17.7817     0.0000   222.0000 </r>
       <r>   -17.5222     0.0000   222.0000 </r>
       <r>   -17.2628     0.0000   222.0000 </r>
       <r>   -17.0034     0.0002   222.0001 </r>
       <r>   -16.7439     0.1020   222.0265 </r>
       <r>   -16.4845     2.7070   222.7288 </r>
       <r>   -16.2250     8.1029   224.8310 </r>
       <r>   -15.9656    10.4786   227.5496 </r>
       <r>   -15.7062     8.6821   229.8021 </r>
       <r>   -15.4467    13.1693   233.2188 </r>
       <r>   -15.1873    20.8862   238.6375 </r>
       <r>   -14.9278    27.2241   245.7005 </r>
       <r>   -14.6684    27.4026   252.8099 </r>
       <r>   -14.4090    26.8033   259.7638 </r>
       <r>   -14.1495    31.3898   267.9075 </r>
       <r>   -13.8901    26.1851   274.7010 </r>
       <r>   -13.6306    23.8460   280.8877 </r>
       <r>   -13.3712    20.2645   286.1451 </r>
       <r>   -13.1118    21.0225   291.5992 </r>
       <r>   -12.8523    10.2346   294.2545 </r>
       <r>   -12.5929     5.5627   295.6977 </r>
       <r>   -12.3334     1.1494   295.9959 </r>
       <r>   -12.0740     0.0159   296.0000 </r>
       <r>   -11.8145     0.0000   296.0000 </r>
       <r>   -11.5551     0.0000   296.0000 </r>
       <r>   -11.2957     0.0000   296.0000 </r>
       <r>   -11.0362     0.0000   296.0000 </r>
       <r>   -10.7768     0.0000   296.0000 </r>
       <r>   -10.5173     0.0000   296.0000 </r>
       <r>   -10.2579     0.0000   296.0000 </r>
       <r>    -9.9985     0.0000   296.0000 </r>
       <r>    -9.7390     0.0000   296.0000 </r>
       <r>    -9.4796     0.0000   296.0000 </r>
       <r>    -9.2201     0.0000   296.0000 </r>
       <r>    -8.9607     0.0000   296.0000 </r>
       <r>    -8.7013     0.0124   296.0032 </r>
       <r>    -8.4418     1.0277   296.2699 </r>
       <r>    -8.1824     6.2530   297.8922 </r>
       <r>    -7.9229    15.0719   301.8024 </r>
       <r>    -7.6635    29.4366   309.4395 </r>
       <r>    -7.4041    36.3124   318.8604 </r>
       <r>    -7.1446    39.8084   329.1883 </r>
       <r>    -6.8852    39.4623   339.4265 </r>
       <r>    -6.6257    46.7851   351.5644 </r>
       <r>    -6.3663    48.0683   364.0353 </r>
       <r>    -6.1069    49.0811   376.7690 </r>
       <r>    -5.8474    57.5671   391.7042 </r>
       <r>    -5.5880    51.8178   405.1479 </r>
       <r>    -5.3285    58.6079   420.3532 </r>
       <r>    -5.0691    65.9674   437.4678 </r>
       <r>    -4.8096    62.6311   453.7169 </r>
       <r>    -4.5502    60.4480   469.3995 </r>
       <r>    -4.2908    55.7659   483.8675 </r>
       <r>    -4.0313    43.2999   495.1013 </r>
       <r>    -3.7719    50.3571   508.1660 </r>
       <r>    -3.5124    49.2788   520.9509 </r>
       <r>    -3.2530    54.2995   535.0384 </r>
       <r>    -2.9936    71.7832   553.6619 </r>
       <r>    -2.7341    91.0029   577.2718 </r>
       <r>    -2.4747   109.1547   605.5910 </r>
       <r>    -2.2152   145.1571   643.2506 </r>
       <r>    -1.9558   141.0239   679.8380 </r>
       <r>    -1.6964   100.3640   705.8765 </r>
       <r>    -1.4369    85.9313   728.1706 </r>
       <r>    -1.1775    87.1118   750.7710 </r>
       <r>    -0.9180    71.1514   769.2305 </r>
       <r>    -0.6586    58.8125   784.4889 </r>
       <r>    -0.3992    53.5404   798.3795 </r>
       <r>    -0.1397    51.4167   811.7191 </r>
       <r>     0.1197    63.4943   828.1921 </r>
       <r>     0.3792    56.3785   842.8189 </r>
       <r>     0.6386    32.5020   851.2513 </r>
       <r>     0.8981    37.8349   861.0672 </r>
       <r>     1.1575    45.8313   872.9577 </r>
       <r>     1.4169    35.7775   882.2399 </r>
       <r>     1.6764    18.4934   887.0378 </r>
       <r>     1.9358     7.3429   888.9429 </r>
       <r>     2.1953     3.9843   889.9766 </r>
       <r>     2.4547     3.5466   890.8967 </r>
       <r>     2.7141     5.8082   892.4036 </r>
       <r>     2.9736    11.2962   895.3343 </r>
       <r>     3.2330     9.4581   897.7881 </r>
       <r>     3.4925    10.5751   900.5317 </r>
       <r>     3.7519    13.1192   903.9354 </r>
       <r>     4.0113    15.7934   908.0328 </r>
       <r>     4.2708    25.9165   914.7566 </r>
       <r>     4.5302    30.2334   922.6004 </r>
       <r>     4.7897    33.8631   931.3859 </r>
       <r>     5.0491    38.6895   941.4235 </r>
       <r>     5.3085    52.7589   955.1113 </r>
       <r>     5.5680    52.7028   968.7846 </r>
       <r>     5.8274    25.6839   975.4480 </r>
       <r>     6.0869     2.1127   975.9962 </r>
       <r>     6.3463     0.0148   976.0000 </r>
       <r>     6.6058     0.0000   976.0000 </r>
       <r>     6.8652     0.0000   976.0000 </r>
       <r>     7.1246     0.0000   976.0000 </r>
       <r>     7.3841     0.0000   976.0000 </r>
       <r>     7.6435     0.0000   976.0000 </r>
       <r>     7.9030     0.0000   976.0000 </r>
       <r>     8.1624     0.0000   976.0000 </r>
       <r>     8.4218     0.0000   976.0000 </r>
       <r>     8.6813     0.0000   976.0000 </r>
       <r>     8.9407     0.0000   976.0000 </r>
       <r>     9.2002     0.0000   976.0000 </r>
      </set>
     </set>
    </array>
   </total>
  </dos>
 </calculation>
 <structure name="finalpos" >
  <crystal>
   <varray name="basis" >
    <v>      16.88469405       0.00000000       0.00000000 </v>
    <v>       0.00000000       9.57841000       0.00000000 </v>
    <v>       0.00000000       0.00000000      16.65464569 </v>
   </varray>
   <i name="volume">   2693.53123734 </i>
   <varray name="rec_basis" >
    <v>       0.05922524       0.00000000       0.00000000 </v>
    <v>       0.00000000       0.10440146       0.00000000 </v>
    <v>       0.00000000       0.00000000       0.06004331 </v>
   </varray>
  </crystal>
  <varray name="positions" >
   <v>       0.78004630       0.14529696       0.12347080 </v>
   <v>       0.73611662       0.14529696       0.25161499 </v>
   <v>       0.22509938       0.64529696       0.09617103 </v>
   <v>       0.29733028       0.64529696       0.21607389 </v>
   <v>       0.39306405       0.14529696       0.13045367 </v>
   <v>       0.46975828       0.14529696       0.24694159 </v>
   <v>       0.95247430       0.64529696       0.15433850 </v>
   <v>       0.97629921       0.64529696       0.31827946 </v>
   <v>       0.17363893       0.14529696       0.04712463 </v>
   <v>       0.12490229       0.14529696       0.18520619 </v>
   <v>       0.11469834       0.14529696       0.32906977 </v>
   <v>       0.57081809       0.64529696       0.16199804 </v>
   <v>       0.64218627       0.64529696       0.27780929 </v>
   <v>       0.90972187       0.00251184       0.12018864 </v>
   <v>       0.94615927       0.01000887       0.26848116 </v>
   <v>       0.39350161       0.51893007       0.03956062 </v>
   <v>       0.42486675       0.51319396       0.19160760 </v>
   <v>       0.45287236       0.49123407       0.33929481 </v>
   <v>       0.59729475       0.01319396       0.22247530 </v>
   <v>       0.08001077       0.51319396       0.12987220 </v>
   <v>       0.11202496       0.50640860       0.29512259 </v>
   <v>       0.25243876       0.01319396       0.16073990 </v>
   <v>       0.28793195       0.99261660       0.31455921 </v>
   <v>       0.77099397       0.42638564       0.12248855 </v>
   <v>       0.76972274       0.51319396       0.25334300 </v>
   <v>       0.90972187       0.28808208       0.12018864 </v>
   <v>       0.94615927       0.28058505       0.26848116 </v>
   <v>       0.39350161       0.77166384       0.03956062 </v>
   <v>       0.42486675       0.77739996       0.19160760 </v>
   <v>       0.45287236       0.79935984       0.33929481 </v>
   <v>       0.59729475       0.27739996       0.22247530 </v>
   <v>       0.08001077       0.77739996       0.12987220 </v>
   <v>       0.11202496       0.78418531       0.29512259 </v>
   <v>       0.25243876       0.27739996       0.16073990 </v>
   <v>       0.28793195       0.29797731       0.31455921 </v>
   <v>       0.77099397       0.86420827       0.12248855 </v>
   <v>       0.76972274       0.77739996       0.25334300 </v>
   <v>       0.99621558       0.14529696       0.35022839 </v>
   <v>       0.99146120       0.14529696       0.18349304 </v>
   <v>       0.47417723       0.64529696       0.09088994 </v>
   <v>       0.50874518       0.64529696       0.27609614 </v>
   <v>       0.66018731       0.14529696       0.14681655 </v>
   <v>       0.63624720       0.14529696       0.31511863 </v>
   <v>       0.11852749       0.64529696       0.04074641 </v>
   <v>       0.16388920       0.64529696       0.21436074 </v>
   <v>       0.08002693       0.64529696       0.38245039 </v>
   <v>       0.29143866       0.14529696       0.06515930 </v>
   <v>       0.33631719       0.14529696       0.24522844 </v>
   <v>       0.81903321       0.64529696       0.15262534 </v>
   <v>       0.85184846       0.64529696       0.31171933 </v>
   <v>       0.81682128       0.29473069       0.04037307 </v>
   <v>       0.82906105       0.31351196       0.21464750 </v>
   <v>       0.31177707       0.81351196       0.12204440 </v>
   <v>       0.34239844       0.80411462       0.29113161 </v>
   <v>       0.47710479       0.30630517       0.15932569 </v>
   <v>       0.51266385       0.31298860       0.31561452 </v>
   <v>       0.00148905       0.81351196       0.24551520 </v>
   <v>       0.96797653       0.82015341       0.08291490 </v>
   <v>       0.14002202       0.32177445       0.10754220 </v>
   <v>       0.17391704       0.31351196       0.27638290 </v>
   <v>       0.65663306       0.81351196       0.18377980 </v>
   <v>       0.69642229       0.78902398       0.34863992 </v>
   <v>       0.31177707       0.47708196       0.12204440 </v>
   <v>       0.34239844       0.48647930       0.29113161 </v>
   <v>       0.81682128       0.99586322       0.04037307 </v>
   <v>       0.82906105       0.97708196       0.21464750 </v>
   <v>       0.00148905       0.47708196       0.24551520 </v>
   <v>       0.96797653       0.47044050       0.08291490 </v>
   <v>       0.47710479       0.98428875       0.15932569 </v>
   <v>       0.51266385       0.97760531       0.31561452 </v>
   <v>       0.65663306       0.47708196       0.18377980 </v>
   <v>       0.69642229       0.50156993       0.34863992 </v>
   <v>       0.14002202       0.96881946       0.10754220 </v>
   <v>       0.17391704       0.97708196       0.27638290 </v>
  </varray>
 </structure>
</modeling>
