"Millerite NiS"                         
           1
    11.256463    0.000000    0.000000
     5.044562   10.062820    0.000000
     0.000000    0.000000   21.744232
   Ty   Ty
  48  48
Direct configuration=     1
   0.26092070  0.47878036  0.25332799
   0.35488056  0.38482049  0.38835497
   0.37572535  0.36397528  0.49767087
   0.16696083  0.07274024  0.11830101
   0.04290717  0.05283068  0.46734206
   0.27423906  0.33335899  0.08262607
   0.36819893  0.23939913  0.21765305
   0.46215880  0.14543926  0.35268003
   0.00030194  0.37150212  0.21765305
   0.09426181  0.27754226  0.35268003
   0.18687039  0.19679388  0.46734207
   0.48470428  0.44239872  0.11400967
   0.76092070  0.47878036  0.25332799
   0.85488056  0.38482049  0.38835497
   0.95392087  0.28578019  0.50483998
   0.68385521  0.06308941  0.13185532
   0.54956017  0.05494938  0.47274595
   0.77423906  0.33335899  0.08262607
   0.86819893  0.23939913  0.21765305
   0.96215880  0.14543926  0.35268003
   0.50030194  0.37150212  0.21765305
   0.59426181  0.27754226  0.35268003
   0.68475391  0.19013967  0.47274609
   0.90634206  0.46546199  0.08262607
   0.26092070  0.97878036  0.25332799
   0.35488056  0.88482049  0.38835497
   0.45391627  0.78578479  0.50484066
   0.17661166  0.55584584  0.13185532
   0.04956139  0.55494716  0.47274608
   0.27928920  0.83149342  0.10053132
   0.36819893  0.73939913  0.21765305
   0.46215880  0.64543926  0.35268003
   0.00030194  0.87150212  0.21765305
   0.09426181  0.77754226  0.35268003
   0.18475169  0.69014089  0.47274596
   0.40820764  0.96041185  0.10053132
   0.76092070  0.97878036  0.25332799
   0.85488056  0.88482049  0.38835497
   0.87572579  0.86397571  0.49767087
   0.66696083  0.57274024  0.11830101
   0.54291064  0.55283221  0.46734692
   0.79730234  0.75499675  0.11400968
   0.86819893  0.73939913  0.21765305
   0.96215880  0.64543926  0.35268003
   0.50030194  0.87150212  0.21765305
   0.59426181  0.77754226  0.35268003
   0.68686885  0.69679042  0.46734693
   0.90634206  0.96546199  0.08262607
   0.07287763  0.16682343  0.27005396
   0.16683750  0.07286357  0.40508094
   0.31656721  0.48716752  0.06127542
   0.47891775  0.26078330  0.13502698
   0.21143635  0.52826510  0.52681864
   0.03023343  0.37768264  0.45050807
   0.43627354  0.47164251  0.31548109
   0.27058209  0.15332418  0.06801390
   0.34231368  0.06560239  0.18045411
   0.08212204  0.48056607  0.06843283
   0.17409868  0.39738738  0.18045411
   0.26805855  0.30342751  0.31548109
   0.36201842  0.20946765  0.45050807
   0.57287763  0.16682343  0.27005396
   0.66683750  0.07286357  0.40508094
   0.87492200  0.36477905  0.01397932
   0.97891775  0.26078330  0.13502698
   0.53023343  0.37768264  0.45050807
   0.93627354  0.47164251  0.31548109
   0.75913499  0.15757902  0.06843282
   0.84231368  0.06560239  0.18045411
   0.59840369  0.48582189  0.05326919
   0.67409868  0.39738738  0.18045411
   0.76805855  0.30342751  0.31548109
   0.86201842  0.20946765  0.45050807
   0.07287764  0.66682343  0.27005396
   0.16683750  0.57286357  0.40508094
   0.33710906  0.90259201  0.02755884
   0.47891775  0.76078330  0.13502698
   0.03023342  0.87768264  0.45050807
   0.43627354  0.97164251  0.31548109
   0.34231368  0.56560239  0.18045411
   0.08637687  0.96911899  0.06801391
   0.17409868  0.89738738  0.18045411
   0.26805855  0.80342751  0.31548109
   0.36201842  0.70946764  0.45050807
   0.57287764  0.66682343  0.27005396
   0.66683750  0.57286357  0.40508094
   0.75253353  0.92313384  0.06127543
   0.97891775  0.76078330  0.13502698
   0.71143595  0.02826470  0.52681864
   0.53023342  0.87768264  0.45050807
   0.93627354  0.97164251  0.31548109
   0.75387918  0.64129737  0.05326917
   0.84231368  0.56560239  0.18045411
   0.67409868  0.89738738  0.18045411
   0.76805855  0.80342751  0.31548109
   0.86201842  0.70946764  0.45050807
