
72 atoms
2 atom types
   0.0000000000   10.0797329849 xlo xhi
   0.0000000000    9.4251025535 ylo yhi
   0.0000000000   20.4938792703 zlo zhi
   3.5732980427    0.0000000000    0.0000000000 xy xz yz

Atoms # atomic

     1      1    6.4580091290    7.0816658464    1.9345069250
     2      1    7.4357214262    5.6653697102    4.5600093179
     3      1    8.4134337198    4.2490735646    7.1855117109
     4      1    9.3911460270    2.8327774285    9.8110141038
     5      1    6.7839132297    1.7424615744    0.1841719964
     6      1    7.7616255233    0.3261654288    2.8096743893
     7      1    3.2106151856    6.9186757101    8.0606791752
     8      1   12.3126358733    8.3349718462    5.4351767823
     9      1    2.5588069891    2.9957675743    3.6848418536
    10      1    3.5365192828    1.5794714287    6.3103442466
    11      1    4.5142315799    0.1631752925    8.9358466395
    12      1   11.6608276667    4.4120637104    1.0593394607
    13      1    0.5138172819    1.0909966575    8.4236671337
    14      1    7.6604133586    5.3398850754    0.5471599550
    15      1    8.6381256659    3.9235889392    3.1726623479
    16      1    9.6158379631    2.5072928031    5.7981647408
    17      1    3.4353071181    6.5931910752    4.0478298122
    18      1    4.4130194253    5.1768949390    6.6733322051
    19      1    5.3907317189    3.7605987935    9.2988345980
    20      1   12.5373278093    8.0094872208    1.4223274193
    21      1    3.7612112188    1.2539868032    2.2974948836
    22      1    8.3122215652    9.2627932112    4.9229972765
    23      1    9.2899338624    7.8464970750    7.5484996694
    24      1   10.2676461696    6.4302009389   10.1740020623
    25      1    1.7162215166    3.2069713703    9.1173406187
    26      1    8.8628176034    7.4558597882    1.2408334400
    27      1    9.8405298970    6.0395636427    3.8663358329
    28      1   10.8182422043    4.6232675065    6.4918382258
    29      1   10.1664340078    0.7003593707    2.1160009043
    30      1    4.6377113629    8.7091657881    4.7415032972
    31      1    5.6154236565    7.2928696425    7.3670056901
    32      1    6.5931359637    5.8765735063    9.9925080830
    33      1    3.9859031664    4.7862576523    0.3656659757
    34      1    4.9636154600    3.3699615067    2.9911683686
    35      1    5.9413277572    1.9536653705    5.6166707615
    36      1    6.9190400609    0.5373692249    8.2421731544
    37      2    1.5798113854    2.4701759292    6.9850791123
    38      2    2.5575236790    1.0538797836    9.6105815052
    39      2    9.7041197694    5.3027682110    1.7340743265
    40      2   10.6818320731    3.8864720654    4.3595767194
    41      2    4.5013012317    7.9723703470    2.6092417908
    42      2    5.4790135253    6.5560742014    5.2347441837
    43      2    6.4567258225    5.1397780652    7.8602465766
    44      2    7.4344381297    3.7234819290   10.4857489695
    45      2    4.8272053288    2.6331660656    0.8589068622
    46      2    5.8049176260    1.2168699294    3.4844092551
    47      2   10.3559279760    9.2256763468    6.1099116480
    48      2   11.3336402696    7.8093802012    8.7354140409
    49      2    7.1953110610    8.9369825809    0.8751674643
    50      2    8.1730233546    7.5206864353    3.5006698572
    51      2    9.1507356619    6.1043902991    6.1261722501
    52      2   10.1284479591    4.6880941630    8.7516746430
    53      2    8.4989274654    2.1814821634    1.7503349286
    54      2    9.4766397626    0.7651860272    4.3758373215
    55      2    3.9479171141    8.7739924351    7.0013397144
    56      2    4.9256294213    7.3576962990    9.6268421073
    57      2    3.2961089176    4.8510842993    2.6255023929
    58      2    4.2738212148    3.4347881632    5.2510047858
    59      2    5.2515335185    2.0184920176    7.8765071787
    60      2   12.3981296089    6.2673804449    0.0000000000
    61      2    6.6419269528    4.8262836971    2.6173720816
    62      2    7.6196392500    3.4099875609    5.2428744745
    63      2    8.5973515536    1.9936914153    7.8683768674
    64      2    9.5750638508    0.5773952792   10.4938792603
    65      2    2.4168207122    6.0795896969    6.1180419388
    66      2    3.3945330058    4.6632935513    8.7435443317
    67      2   10.5411290962    8.9121819787    0.8670371530
    68      2   11.5188413898    7.4958858331    3.4925395459
    69      2    1.7650125057    2.1566815611    1.7422046173
    70      2    2.7427248093    0.7403854155    4.3677070102
    71      2    7.2937351492    8.7491918329    6.9932094031
    72      2    8.2714474565    7.3328956967    9.6187117960
