
72 atoms
2 atom types
   0.0000000000   10.0797329849 xlo xhi
   0.0000000000    9.4251025535 ylo yhi
   0.0000000000   20.5020095760 zlo zhi
   3.5732980427    0.0000000000    0.0000000000 xy xz yz

Atoms # atomic

     1      1    5.8651349916    8.9087982632    0.0000000000
     2      1    6.8428472953    7.4925021176    2.6255023948
     3      1    7.8205595925    6.0762059814    5.2510047896
     4      1    8.7982718962    4.6599098358    7.8765071843
     5      1    9.7759841934    3.2436136997   10.5020095791
     6      1    2.6177410564    3.8787025575    3.5006698529
     7      1    3.5954533500    2.4624064119    6.1261722476
     8      1    4.5731656472    1.0461102757    8.7516746424
     9      1   11.7197617340    5.2949986937    0.8751674581
    10      1    3.9213574474    6.8574132598    9.6268421210
    11      1    7.4946554951    1.6811991336    1.7503349367
    12      1    8.4723677887    0.2649029880    4.3758373315
    13      1   13.0233781387    8.2737094054    7.0013397262
    14      1    5.6404430541    5.3765274142    1.9318289150
    15      1    6.6181553578    3.9602312686    4.5573313097
    16      1    7.5958676550    2.5439351324    7.1828337045
    17      1    8.5735799521    1.1276389962    9.8083360993
    18      1    1.4153368116    1.7627278447    2.8069963730
    19      1    2.3930491088    0.3464317085    5.4324987678
    20      1    6.9440594552    8.3552381164    8.0580011626
    21      1   10.5173575028    3.1790239902    0.1814939783
    22      1    2.7189532163    4.7414385563    8.9331686207
    23      1    9.8655492930    8.9903269743    1.0566614364
    24      1   10.8432616003    7.5740308381    3.6821638311
    25      1   11.8209738939    6.1577346925    6.3076662259
    26      1    0.8986554482    1.5018329287    9.1146625990
    27      1    8.0452515350    5.7507213466    1.2381554146
    28      1    9.0229638322    4.3344252104    3.8636578094
    29      1   10.0006761294    2.9181290743    6.4891602042
    30      1    3.8201452860    2.1369217865    2.1133228932
    31      1    4.7978575897    0.7206256409    4.7388252880
    32      1    9.3488679296    8.7294320583    7.3643276828
    33      1   10.3265802369    7.3131359221    9.9898300775
    34      1    3.1683370863    7.9482247705    2.9884903513
    35      1    4.1460493935    6.5319286343    5.6139927461
    36      1    5.1237616907    5.1156324982    8.2394951409
    37      2    3.7821592501    9.0027999759   10.3015769720
    38      2    7.3554572877    3.8265858497    2.4250697877
    39      2    8.3331695913    2.4102897041    5.0505721825
    40      2    9.3108818885    0.9939935680    7.6760745772
    41      2    2.1526387480    1.6290824164    0.6747348715
    42      2    3.1303510452    0.2127862802    3.3002372458
    43      2    7.6813613951    8.2215926976    5.9257396405
    44      2    8.6590736888    6.8052965520    8.5512420353
    45      2    2.4785428490    6.0240892737    4.1754047244
    46      2    3.4562551426    4.6077931281    6.8009071191
    47      2    4.4339674498    3.1914969919    9.4264095139
    48      2   11.5805635366    7.4403854098    1.5499023296
    49      2    7.9088414024    7.9372847241    0.6828651689
    50      2    8.8865536996    6.5209885879    3.3083675637
    51      2    9.8642659968    5.1046924518    5.9338699585
    52      2   10.8419783005    3.6883963062    8.5593723532
    53      2    3.6837351534    4.3234851640    1.5580326270
    54      2    4.6614474571    2.9071890184    4.1835350218
    55      2    5.6391597543    1.4908928822    6.8090374166
    56      2    6.6168720616    0.0745967461    9.4345398113
    57      2    4.0096392609    8.7184920119    5.0587025004
    58      2    4.9873515581    7.3021958757    7.6842048747
    59      2    5.9650638517    5.8858997301   10.3097072694
    60      2    9.5383618958    0.7096855945    2.4332001056
    61      2    4.8466485793    7.4608002197    1.5661629449
    62      2    5.8243608830    6.0445040741    4.1916653397
    63      2    6.8020731801    4.6282079379    6.8171677345
    64      2    7.7797854737    3.2119117923    9.4426701293
    65      2    1.5992546340    2.4307045140    5.0668327978
    66      2    2.5769669377    1.0144083684    7.6923351926
    67      2    7.1279772775    9.0232147857   10.3178375874
    68      2   10.7012753216    3.8470006501    2.4413304030
    69      2    5.4984567755    1.6494972262    0.6909954663
    70      2    6.4761690827    0.2332010900    3.3164978611
    71      2   11.0271794191    8.2420074980    5.9420002559
    72      2   12.0048917263    6.8257113618    8.5675026507
