LAMMPS data file via write_data, version 5 Jun 2019, timestep = 51

74 atoms
2 atom types

0.0000000000000000e+00 1.6884694054200001e+01 xlo xhi
0.0000000000000000e+00 9.5784099999999999e+00 ylo yhi
0.0000000000000000e+00 1.6197619147600001e+01 zlo zhi
0.0000000000000000e+00 0.0000000000000000e+00 0.0000000000000000e+00 xy xz yz

Masses

1 58.71
2 32.06

Atoms # atomic

1 1 1.1905998015394985e+00 8.7188486935902052e+00 4.6081611961178801e+00 0 0 0
2 1 1.6807120366999999e+00 8.8448295298000001e+00 1.9497492390000000e+00 0 0 0
3 1 9.8312243663000007e+00 4.0556245298000002e+00 3.4920210149000002e+00 0 0 0
4 1 1.0573775510378427e+01 3.5034120156215769e+00 1.2735657039156045e+00 0 0 0
5 1 3.9530760166403827e+00 4.1272207458928651e+00 4.2398663063481674e+00 0 0 0
6 1 4.5863814728145513e+00 4.0495179128512948e+00 1.6837380228204433e+00 0 0 0
7 1 1.2834083720318322e+01 8.0179136512161779e+00 5.1278127780558398e+00 0 0 0
8 1 1.2742618274500002e+01 8.8448295298000001e+00 2.9779304176000001e+00 0 0 0
9 1 6.4973496187568740e+00 2.6384368920211215e-01 3.5232240166222586e+00 0 1 0
10 1 7.4709887090956606e+00 8.7626522605170223e+00 1.2800292978529537e+00 0 0 0
11 1 1.5726953414630435e+01 3.2822213230350079e+00 4.6558874784698636e+00 0 0 0
12 1 1.5654012182700001e+01 4.0556245298000002e+00 2.4638398364000000e+00 0 0 0
13 1 6.1968328122040965e+00 4.9670975070205721e+00 4.9913371554839907e+00 0 0 0
14 1 7.7073785754015400e+00 5.2326918810592140e+00 2.9133767334408351e+00 0 0 0
15 1 7.6466835086358431e+00 5.3515841984483323e+00 5.3196909612344834e-01 0 0 0
16 1 1.5828322453000000e+01 5.3175622600000005e-01 4.6268153437999997e+00 0 0 0
17 1 1.6411991831000002e+01 5.3175622600000005e-01 1.5422717759000000e+00 0 0 0
18 1 1.8550223070000005e+00 5.3209612259999997e+00 4.1127247463999996e+00 0 0 0
19 1 2.1427619420805346e+00 5.3225578867668686e+00 1.4798698762387725e+00 0 0 0
20 1 9.1363797848266781e+00 9.3533427553830473e-01 4.5042822194983900e+00 0 0 0
21 1 1.0589204014700000e+01 5.3175622600000005e-01 2.5704529705999999e+00 0 0 0
22 1 4.2927560093597679e+00 3.6521028746497652e-01 2.7934042338402456e+00 0 0 0
23 1 5.3487726005834153e+00 5.3775007835281063e-01 7.3228330249721008e-01 0 0 0
24 1 1.2228077423326567e+01 5.4248094613242879e+00 4.0226990343958056e+00 0 0 0
25 1 1.3500597922900003e+01 5.3209612259999997e+00 2.0563623731999998e+00 0 0 0
26 1 1.1680243058450279e+00 1.8891912569207399e+00 4.6223034303361903e+00 0 0 0
27 1 1.6807120366999999e+00 1.7970929222000001e+00 1.9497492390000000e+00 0 0 0
28 1 1.0164475279503909e+01 6.8398355815504051e+00 3.0438280741899639e+00 0 0 0
29 1 1.0291026174218628e+01 6.5141713353962967e+00 6.7584580341866196e-01 0 0 0
30 1 4.0084365668000004e+00 6.5862979222000009e+00 4.5202022095999999e+00 0 0 0
31 1 4.5571028945095113e+00 6.5932174292563364e+00 1.7101283384928143e+00 0 0 0
32 1 1.1597287476796810e+01 5.4206821457535659e-01 5.1111975569174088e+00 0 0 0
33 1 1.2742618274500002e+01 1.7970929222000001e+00 2.9779304176000001e+00 0 0 0
34 1 7.5886509458652602e+00 2.6207976276282596e+00 3.4000709186724123e+00 0 0 0
35 1 7.4520160212177764e+00 1.7956190792450708e+00 1.1699506501575294e+00 0 0 0
36 1 1.5647820835425431e+01 7.4288095969906260e+00 4.6716500000421810e+00 0 0 0
37 1 1.5654012182700001e+01 6.5862979222000009e+00 2.4638398364000000e+00 0 0 0
38 2 4.4528115102015275e-01 1.8907340559934436e+00 3.7277504445126647e-01 0 0 0
39 2 8.5054091306000004e+00 6.9321934642000000e+00 1.5660279006000000e+00 0 0 0
40 2 1.6489233191411188e+01 1.9579397164613397e+00 5.9692760347406946e+00 0 0 0
41 2 1.6655921460300000e+01 2.1429884642000001e+00 3.1082996927000002e+00 0 0 0
42 2 2.1379301150390417e+00 6.9941714640458832e+00 5.3106485456195864e+00 0 0 0
43 2 2.6826213141999999e+00 6.9321934642000000e+00 2.5942090953000001e+00 0 0 0
44 2 1.0833133660800000e+01 2.1429884642000001e+00 4.1364808711999999e+00 0 0 0
45 2 1.1607422855530478e+01 1.7622585573192686e+00 1.2566272119291721e+00 0 0 0
46 2 5.5940152224000004e+00 2.1429884642000001e+00 2.0801184980000000e+00 0 0 0
47 2 1.3744527569000001e+01 6.9321934642000000e+00 3.6223902737999998e+00 0 0 0
48 2 1.4399693932582007e+01 6.7106320483744426e+00 8.8486456181259676e-01 0 0 0
49 2 2.5133042869000000e+00 5.3175622600000005e-01 3.6271661742000001e+00 0 0 0
50 2 3.1921067946642432e+00 5.2818400216761119e-01 9.9498670192606575e-01 0 0 0
51 2 1.0360660051662828e+01 5.6429338591941489e+00 4.7590630701092920e+00 0 0 0
52 2 1.1247485994600000e+01 5.3209612259999997e+00 2.0848943983999999e+00 0 0 0
53 2 4.4441038847456058e+00 5.1980166394612279e+00 5.9576907030650474e+00 0 0 0
54 2 5.4246981781999999e+00 5.3209612259999997e+00 3.1130755930999974e+00 0 0 0
55 2 5.6028672958736490e+00 5.3460772761128936e+00 4.0160546004680664e-01 0 0 0
56 2 1.3575210524799999e+01 5.3175622600000005e-01 4.6553473689000002e+00 0 0 0
57 2 1.4208972741489704e+01 5.2911779998656228e-01 2.0519040217793316e+00 0 0 0
58 2 8.3062027036638508e-02 5.3204055976266229e+00 1.4189546701847209e+00 0 0 0
59 2 7.2370533350090209e+00 1.4088797408576901e+00 5.0705347332620736e+00 0 0 0
60 2 8.3360920864000008e+00 5.3175622600000005e-01 2.5989849956999973e+00 0 0 0
61 2 1.6486604432899998e+01 5.3209612259999997e+00 4.1412567715999948e+00 0 0 0
62 2 4.4214730380616635e-01 8.7486926328644614e+00 3.7315564438248999e-01 0 0 0
63 2 8.0736922919332574e+00 4.1907210987669155e+00 4.6896998130228562e+00 0 0 0
64 2 8.5054091306000004e+00 3.7097289879000002e+00 1.5660279006000000e+00 0 0 0
65 2 1.6525821378070109e+01 8.7042419895587120e+00 5.9740216005871227e+00 0 0 0
66 2 1.6655921460300000e+01 8.4989339878999992e+00 3.1082996927000002e+00 0 0 0
67 2 2.1690797548275400e+00 3.6101156925890856e+00 5.2466718359417959e+00 0 0 0
68 2 2.6826213141999999e+00 3.7097289879000002e+00 2.5942090953000001e+00 0 0 0
69 2 1.0833133660800000e+01 8.4989339878999992e+00 4.1364808711999999e+00 0 0 0
70 2 1.1163778217908828e+01 8.2193776304075339e+00 1.5706091939408389e+00 0 0 0
71 2 4.8885483215865726e+00 8.6623405677133913e+00 4.4528204658220965e+00 0 0 0
72 2 5.5940152224000004e+00 8.4989339878999992e+00 2.0801184980000000e+00 0 0 0
73 2 1.3744527569000001e+01 3.7097289879000002e+00 3.6223902737999998e+00 0 0 0
74 2 1.4380253561540330e+01 3.9047256720804122e+00 9.0395389417363170e-01 0 0 0

Velocities

1 0.0000000000000000e+00 0.0000000000000000e+00 0.0000000000000000e+00
2 0.0000000000000000e+00 0.0000000000000000e+00 0.0000000000000000e+00
3 0.0000000000000000e+00 0.0000000000000000e+00 0.0000000000000000e+00
4 0.0000000000000000e+00 0.0000000000000000e+00 0.0000000000000000e+00
5 0.0000000000000000e+00 0.0000000000000000e+00 0.0000000000000000e+00
6 0.0000000000000000e+00 0.0000000000000000e+00 0.0000000000000000e+00
7 0.0000000000000000e+00 0.0000000000000000e+00 0.0000000000000000e+00
8 0.0000000000000000e+00 0.0000000000000000e+00 0.0000000000000000e+00
9 0.0000000000000000e+00 0.0000000000000000e+00 0.0000000000000000e+00
10 0.0000000000000000e+00 0.0000000000000000e+00 0.0000000000000000e+00
11 0.0000000000000000e+00 0.0000000000000000e+00 0.0000000000000000e+00
12 0.0000000000000000e+00 0.0000000000000000e+00 0.0000000000000000e+00
13 0.0000000000000000e+00 0.0000000000000000e+00 0.0000000000000000e+00
14 0.0000000000000000e+00 0.0000000000000000e+00 0.0000000000000000e+00
15 0.0000000000000000e+00 0.0000000000000000e+00 0.0000000000000000e+00
16 0.0000000000000000e+00 0.0000000000000000e+00 0.0000000000000000e+00
17 0.0000000000000000e+00 0.0000000000000000e+00 0.0000000000000000e+00
18 0.0000000000000000e+00 0.0000000000000000e+00 0.0000000000000000e+00
19 0.0000000000000000e+00 0.0000000000000000e+00 0.0000000000000000e+00
20 0.0000000000000000e+00 0.0000000000000000e+00 0.0000000000000000e+00
21 0.0000000000000000e+00 0.0000000000000000e+00 0.0000000000000000e+00
22 0.0000000000000000e+00 0.0000000000000000e+00 0.0000000000000000e+00
23 0.0000000000000000e+00 0.0000000000000000e+00 0.0000000000000000e+00
24 0.0000000000000000e+00 0.0000000000000000e+00 0.0000000000000000e+00
25 0.0000000000000000e+00 0.0000000000000000e+00 0.0000000000000000e+00
26 0.0000000000000000e+00 0.0000000000000000e+00 0.0000000000000000e+00
27 0.0000000000000000e+00 0.0000000000000000e+00 0.0000000000000000e+00
28 0.0000000000000000e+00 0.0000000000000000e+00 0.0000000000000000e+00
29 0.0000000000000000e+00 0.0000000000000000e+00 0.0000000000000000e+00
30 0.0000000000000000e+00 0.0000000000000000e+00 0.0000000000000000e+00
31 0.0000000000000000e+00 0.0000000000000000e+00 0.0000000000000000e+00
32 0.0000000000000000e+00 0.0000000000000000e+00 0.0000000000000000e+00
33 0.0000000000000000e+00 0.0000000000000000e+00 0.0000000000000000e+00
34 0.0000000000000000e+00 0.0000000000000000e+00 0.0000000000000000e+00
35 0.0000000000000000e+00 0.0000000000000000e+00 0.0000000000000000e+00
36 0.0000000000000000e+00 0.0000000000000000e+00 0.0000000000000000e+00
37 0.0000000000000000e+00 0.0000000000000000e+00 0.0000000000000000e+00
38 0.0000000000000000e+00 0.0000000000000000e+00 0.0000000000000000e+00
39 0.0000000000000000e+00 0.0000000000000000e+00 0.0000000000000000e+00
40 0.0000000000000000e+00 0.0000000000000000e+00 0.0000000000000000e+00
41 0.0000000000000000e+00 0.0000000000000000e+00 0.0000000000000000e+00
42 0.0000000000000000e+00 0.0000000000000000e+00 0.0000000000000000e+00
43 0.0000000000000000e+00 0.0000000000000000e+00 0.0000000000000000e+00
44 0.0000000000000000e+00 0.0000000000000000e+00 0.0000000000000000e+00
45 0.0000000000000000e+00 0.0000000000000000e+00 0.0000000000000000e+00
46 0.0000000000000000e+00 0.0000000000000000e+00 0.0000000000000000e+00
47 0.0000000000000000e+00 0.0000000000000000e+00 0.0000000000000000e+00
48 0.0000000000000000e+00 0.0000000000000000e+00 0.0000000000000000e+00
49 0.0000000000000000e+00 0.0000000000000000e+00 0.0000000000000000e+00
50 0.0000000000000000e+00 0.0000000000000000e+00 0.0000000000000000e+00
51 0.0000000000000000e+00 0.0000000000000000e+00 0.0000000000000000e+00
52 0.0000000000000000e+00 0.0000000000000000e+00 0.0000000000000000e+00
53 0.0000000000000000e+00 0.0000000000000000e+00 0.0000000000000000e+00
54 0.0000000000000000e+00 0.0000000000000000e+00 0.0000000000000000e+00
55 0.0000000000000000e+00 0.0000000000000000e+00 0.0000000000000000e+00
56 0.0000000000000000e+00 0.0000000000000000e+00 0.0000000000000000e+00
57 0.0000000000000000e+00 0.0000000000000000e+00 0.0000000000000000e+00
58 0.0000000000000000e+00 0.0000000000000000e+00 0.0000000000000000e+00
59 0.0000000000000000e+00 0.0000000000000000e+00 0.0000000000000000e+00
60 0.0000000000000000e+00 0.0000000000000000e+00 0.0000000000000000e+00
61 0.0000000000000000e+00 0.0000000000000000e+00 0.0000000000000000e+00
62 0.0000000000000000e+00 0.0000000000000000e+00 0.0000000000000000e+00
63 0.0000000000000000e+00 0.0000000000000000e+00 0.0000000000000000e+00
64 0.0000000000000000e+00 0.0000000000000000e+00 0.0000000000000000e+00
65 0.0000000000000000e+00 0.0000000000000000e+00 0.0000000000000000e+00
66 0.0000000000000000e+00 0.0000000000000000e+00 0.0000000000000000e+00
67 0.0000000000000000e+00 0.0000000000000000e+00 0.0000000000000000e+00
68 0.0000000000000000e+00 0.0000000000000000e+00 0.0000000000000000e+00
69 0.0000000000000000e+00 0.0000000000000000e+00 0.0000000000000000e+00
70 0.0000000000000000e+00 0.0000000000000000e+00 0.0000000000000000e+00
71 0.0000000000000000e+00 0.0000000000000000e+00 0.0000000000000000e+00
72 0.0000000000000000e+00 0.0000000000000000e+00 0.0000000000000000e+00
73 0.0000000000000000e+00 0.0000000000000000e+00 0.0000000000000000e+00
74 0.0000000000000000e+00 0.0000000000000000e+00 0.0000000000000000e+00
