
72 atoms
2 atom types
   0.0000000000    9.5784100000 xlo xhi
   0.0000000000   10.4033537511 ylo yhi
   0.0000000000   19.5241543203 zlo zhi
  -4.7892049999    0.0000000000    0.0000000000 xy xz yz

Atoms # atomic

     1      1    4.0556245490    4.4635129025    0.3460672754
     2      1    4.0556245538    6.3581094235    2.8491819218
     3      1    4.0556245490    8.2527059446    5.3522965682
     4      1    4.0556245538   10.1473024657    7.8554112146
     5      1    4.0556245490    0.6856046070    4.5179250194
     6      1    4.0556245538    2.5802011281    7.0210396658
     7      1    4.0556245490    4.4747976491    9.5241543122
     8      1   -0.7335804462    9.1943618370    2.0148103730
     9      1   -0.7335804415    1.6272604890    1.1804388242
    10      1   -0.7335804510    3.5218570205    3.6835534706
    11      1   -0.7335804462    5.4164535415    6.1866681170
    12      1   -0.7335804510    7.3110500626    8.6897827634
    13      1    5.3209612500    2.7160119593    1.6687430976
    14      1    5.3209612452    4.6106084804    4.1718577440
    15      1    5.3209612500    6.5052050014    6.6749723905
    16      1    5.3209612548    8.3998015225    9.1780870369
    17      1    5.3209612452    0.8327001849    8.3437154881
    18      1    0.5317562500    5.5522643728    0.8343715488
    19      1    0.5317562452    7.4468608938    3.3374861952
    20      1    0.5317562500    9.3414574149    5.8406008417
    21      1    0.5317562548    1.7743560669    5.0062292928
    22      1    0.5317562452    3.6689525984    7.5093439393
    23      1   -4.2574487500   10.2831132969    2.5031146464
    24      1    5.3209612452    8.3885167758    0.0000000000
    25      1   -2.9921120585    8.2527059446    5.3522965682
    26      1   -2.9921120537   10.1473024657    7.8554112146
    27      1    6.5862979414    4.4635129025    0.3460672754
    28      1    6.5862979462    6.3581094235    2.8491819218
    29      1    6.5862979414    0.6856046070    4.5179250194
    30      1    6.5862979462    2.5802011281    7.0210396658
    31      1    6.5862979414    4.4747976491    9.5241543122
    32      1    1.7970929463    9.1943618370    2.0148103730
    33      1    1.7970929510    1.6272604890    1.1804388242
    34      1    1.7970929414    3.5218570205    3.6835534706
    35      1    1.7970929462    5.4164535415    6.1866681170
    36      1    1.7970929415    7.3110500626    8.6897827634
    37      2   -2.6462165166    6.0272031990    5.1638604423
    38      2   -2.6462165118    7.9217997201    7.6669750888
    39      2    6.9321934833    2.2380101568    0.1576311495
    40      2    6.9321934881    4.1326066779    2.6607457959
    41      2    6.9321934881    0.3546983825    6.8326035399
    42      2    6.9321934833    2.2492949035    9.3357181864
    43      2    2.1429884930    6.9688590810    1.8263742471
    44      2    2.1429884882    8.8634556020    4.3294888935
    45      2    2.1429884881    1.2963542645    3.4951173447
    46      2    2.1429884833    3.1909507855    5.9982319911
    47      2    2.1429884882    5.0855473066    8.5013466376
    48      2   -2.6462165166    9.8051114944    0.9920026983
    49      2    0.5317562452    1.6382445788    8.4858440100
    50      2   -4.2574487500   10.1470018087    5.9827293635
    51      2    5.3209612548    6.3578087562    0.9765000707
    52      2    5.3209612452    8.2524052877    3.4796147171
    53      2    5.3209612500    0.6853039397    2.6452431683
    54      2    5.3209612548    2.5799004607    5.1483578147
    55      2    5.3209612500    4.4744969818    7.6514724612
    56      2    0.5317562452    9.1940611697    0.1421285219
    57      2    0.5317562500    3.5215563531    1.8108716195
    58      2    0.5317562452    5.4161528742    4.3139862659
    59      2    0.5317562500    7.3107493953    6.8171009124
    60      2    0.5317562452    9.2053459163    9.3202155588
    61      2    3.7097290070    2.2380101568    0.1576311495
    62      2    3.7097290118    4.1326066779    2.6607457959
    63      2    3.7097290071    6.0272031990    5.1638604423
    64      2    3.7097290119    7.9217997201    7.6669750888
    65      2    3.7097290118    0.3546983825    6.8326035399
    66      2    3.7097290070    2.2492949035    9.3357181864
    67      2   -1.0794759834    6.9688590810    1.8263742471
    68      2   -1.0794759881    8.8634556020    4.3294888935
    69      2   -1.0794759930    3.1909507855    5.9982319911
    70      2   -1.0794759882    5.0855473066    8.5013466376
    71      2    8.4989340118    1.2963542645    3.4951173447
    72      2    3.7097290071    9.8051114944    0.9920026983
