       N       E                     dE             d eps       ncg     rms          rms(c)
DAV:   1     0.869832886646E+04    0.86983E+04   -0.50033E+05  1168   0.153E+03
DAV:   2     0.466883721838E+03   -0.82314E+04   -0.79172E+04  1032   0.486E+02
DAV:   3    -0.348331969036E+03   -0.81522E+03   -0.77003E+03  1112   0.157E+02
DAV:   4    -0.397270808086E+03   -0.48939E+02   -0.48355E+02  1120   0.355E+01
DAV:   5    -0.399066307651E+03   -0.17955E+01   -0.17931E+01  1216   0.725E+00    0.823E+01
DAV:   6    -0.532190261188E+03   -0.13312E+03   -0.10689E+03  1160   0.122E+02    0.177E+02
DAV:   7    -0.373517285030E+03    0.15867E+03   -0.19647E+02  1128   0.607E+01    0.731E+01
DAV:   8    -0.363842775133E+03    0.96745E+01   -0.18510E+02  1328   0.651E+01    0.900E+01
DAV:   9    -0.356019202274E+03    0.78236E+01   -0.92431E+01  1208   0.458E+01    0.429E+01
DAV:  10    -0.390843041567E+03   -0.34824E+02   -0.42764E+01  1296   0.450E+01    0.118E+02
DAV:  11    -0.350702933178E+03    0.40140E+02   -0.17626E+01  1336   0.202E+01    0.339E+01
DAV:  12    -0.350870794457E+03   -0.16786E+00   -0.14595E+01  1352   0.247E+01    0.542E+01
DAV:  13    -0.348849604592E+03    0.20212E+01   -0.15894E+01  1296   0.131E+01    0.305E+01
DAV:  14    -0.345562020915E+03    0.32876E+01   -0.57377E+00  1272   0.143E+01    0.175E+01
DAV:  15    -0.345015945264E+03    0.54608E+00   -0.30457E+00  1328   0.937E+00    0.166E+01
DAV:  16    -0.344560442193E+03    0.45550E+00   -0.20745E+00  1200   0.790E+00    0.127E+01
DAV:  17    -0.344216977253E+03    0.34346E+00   -0.10332E+00  1304   0.665E+00    0.103E+01
DAV:  18    -0.344040804533E+03    0.17617E+00   -0.87845E-01  1248   0.569E+00    0.865E+00
DAV:  19    -0.343957148155E+03    0.83656E-01   -0.63182E-01  1296   0.427E+00    0.751E+00
DAV:  20    -0.343906128857E+03    0.51019E-01   -0.41794E-01  1296   0.398E+00    0.660E+00
DAV:  21    -0.343874034484E+03    0.32094E-01   -0.35853E-01  1200   0.390E+00    0.596E+00
DAV:  22    -0.343855724985E+03    0.18309E-01   -0.31340E-01  1296   0.315E+00    0.546E+00
DAV:  23    -0.343824444201E+03    0.31281E-01   -0.20853E-01  1240   0.307E+00    0.521E+00
DAV:  24    -0.343788971662E+03    0.35473E-01   -0.10674E-01  1168   0.182E+00    0.420E+00
DAV:  25    -0.343769752292E+03    0.19219E-01   -0.63580E-02  1208   0.141E+00    0.341E+00
DAV:  26    -0.343757512408E+03    0.12240E-01   -0.48261E-02  1288   0.135E+00    0.289E+00
DAV:  27    -0.343733000593E+03    0.24512E-01   -0.30468E-02  1312   0.117E+00    0.174E+00
DAV:  28    -0.343730345142E+03    0.26555E-02   -0.16898E-02  1312   0.851E-01    0.170E+00
DAV:  29    -0.343722913893E+03    0.74312E-02   -0.15154E-02  1264   0.767E-01    0.115E+00
DAV:  30    -0.343721548794E+03    0.13651E-02   -0.98039E-03  1264   0.649E-01    0.110E+00
DAV:  31    -0.343718054746E+03    0.34940E-02   -0.59368E-03  1232   0.515E-01    0.631E-01
DAV:  32    -0.343718062085E+03   -0.73387E-05   -0.31286E-03  1272   0.382E-01    0.551E-01
DAV:  33    -0.343717308442E+03    0.75364E-03   -0.18267E-03  1112   0.285E-01    0.279E-01
DAV:  34    -0.343717398415E+03   -0.89973E-04   -0.77373E-04   984   0.181E-01
   1 F= -.34371740E+03 E0= -.34299058E+03  d E =-.145363E+01
