  72  72   0   0
  0.2705198E+02  0.1007973E-08  0.1007973E-08  0.2050201E-08  0.5000000E-15
  1.000000000000000E-004
  CAR 
 "Millerite NiS"                         
     11.20021815    -66.19842326  301      1.49274262      1.00000000
    -66.198  0.0000E+00  0.0000E+00
    -65.940  0.0000E+00  0.0000E+00
    -65.682  0.0000E+00  0.0000E+00
    -65.424  0.0000E+00  0.0000E+00
    -65.166  0.0000E+00  0.0000E+00
    -64.908  0.0000E+00  0.0000E+00
    -64.650  0.0000E+00  0.0000E+00
    -64.392  0.0000E+00  0.0000E+00
    -64.134  0.0000E+00  0.0000E+00
    -63.876  0.0000E+00  0.0000E+00
    -63.618  0.6282E-09  0.1621E-09
    -63.360  0.4012E-04  0.1035E-04
    -63.102  0.1157E+00  0.2987E-01
    -62.844  0.1772E+02  0.4601E+01
    -62.586  0.1993E+03  0.5601E+02
    -62.328  0.2928E+03  0.1316E+03
    -62.070  0.1284E+03  0.1647E+03
    -61.813  0.4701E+02  0.1768E+03
    -61.555  0.5707E+02  0.1915E+03
    -61.297  0.5011E+02  0.2045E+03
    -61.039  0.3372E+02  0.2132E+03
    -60.781  0.1039E+02  0.2158E+03
    -60.523  0.6264E+00  0.2160E+03
    -60.265  0.2615E-02  0.2160E+03
    -60.007  0.4900E-06  0.2160E+03
    -59.749  0.3655E-11  0.2160E+03
    -59.491  0.0000E+00  0.2160E+03
    -59.233  0.0000E+00  0.2160E+03
    -58.975  0.0000E+00  0.2160E+03
    -58.717  0.0000E+00  0.2160E+03
    -58.459  0.0000E+00  0.2160E+03
    -58.201  0.0000E+00  0.2160E+03
    -57.943  0.0000E+00  0.2160E+03
    -57.685  0.0000E+00  0.2160E+03
    -57.427  0.0000E+00  0.2160E+03
    -57.169  0.0000E+00  0.2160E+03
    -56.911  0.0000E+00  0.2160E+03
    -56.653  0.0000E+00  0.2160E+03
    -56.395  0.0000E+00  0.2160E+03
    -56.137  0.0000E+00  0.2160E+03
    -55.879  0.0000E+00  0.2160E+03
    -55.621  0.0000E+00  0.2160E+03
    -55.363  0.0000E+00  0.2160E+03
    -55.105  0.0000E+00  0.2160E+03
    -54.847  0.0000E+00  0.2160E+03
    -54.589  0.0000E+00  0.2160E+03
    -54.331  0.0000E+00  0.2160E+03
    -54.073  0.0000E+00  0.2160E+03
    -53.815  0.0000E+00  0.2160E+03
    -53.557  0.0000E+00  0.2160E+03
    -53.299  0.0000E+00  0.2160E+03
    -53.041  0.0000E+00  0.2160E+03
    -52.783  0.0000E+00  0.2160E+03
    -52.525  0.0000E+00  0.2160E+03
    -52.267  0.0000E+00  0.2160E+03
    -52.009  0.0000E+00  0.2160E+03
    -51.751  0.0000E+00  0.2160E+03
    -51.493  0.0000E+00  0.2160E+03
    -51.235  0.0000E+00  0.2160E+03
    -50.977  0.0000E+00  0.2160E+03
    -50.719  0.0000E+00  0.2160E+03
    -50.461  0.0000E+00  0.2160E+03
    -50.203  0.0000E+00  0.2160E+03
    -49.945  0.0000E+00  0.2160E+03
    -49.687  0.0000E+00  0.2160E+03
    -49.429  0.0000E+00  0.2160E+03
    -49.171  0.0000E+00  0.2160E+03
    -48.913  0.0000E+00  0.2160E+03
    -48.655  0.0000E+00  0.2160E+03
    -48.397  0.0000E+00  0.2160E+03
    -48.139  0.0000E+00  0.2160E+03
    -47.881  0.0000E+00  0.2160E+03
    -47.623  0.0000E+00  0.2160E+03
    -47.365  0.0000E+00  0.2160E+03
    -47.107  0.0000E+00  0.2160E+03
    -46.849  0.0000E+00  0.2160E+03
    -46.591  0.0000E+00  0.2160E+03
    -46.333  0.0000E+00  0.2160E+03
    -46.075  0.0000E+00  0.2160E+03
    -45.817  0.0000E+00  0.2160E+03
    -45.559  0.0000E+00  0.2160E+03
    -45.301  0.0000E+00  0.2160E+03
    -45.043  0.0000E+00  0.2160E+03
    -44.785  0.0000E+00  0.2160E+03
    -44.527  0.0000E+00  0.2160E+03
    -44.269  0.0000E+00  0.2160E+03
    -44.011  0.0000E+00  0.2160E+03
    -43.753  0.0000E+00  0.2160E+03
    -43.495  0.0000E+00  0.2160E+03
    -43.237  0.0000E+00  0.2160E+03
    -42.979  0.0000E+00  0.2160E+03
    -42.721  0.0000E+00  0.2160E+03
    -42.463  0.0000E+00  0.2160E+03
    -42.205  0.0000E+00  0.2160E+03
    -41.947  0.0000E+00  0.2160E+03
    -41.689  0.0000E+00  0.2160E+03
    -41.431  0.0000E+00  0.2160E+03
    -41.173  0.0000E+00  0.2160E+03
    -40.915  0.0000E+00  0.2160E+03
    -40.657  0.0000E+00  0.2160E+03
    -40.399  0.0000E+00  0.2160E+03
    -40.141  0.0000E+00  0.2160E+03
    -39.883  0.0000E+00  0.2160E+03
    -39.625  0.0000E+00  0.2160E+03
    -39.367  0.0000E+00  0.2160E+03
    -39.109  0.0000E+00  0.2160E+03
    -38.851  0.0000E+00  0.2160E+03
    -38.593  0.0000E+00  0.2160E+03
    -38.335  0.0000E+00  0.2160E+03
    -38.077  0.0000E+00  0.2160E+03
    -37.819  0.0000E+00  0.2160E+03
    -37.561  0.0000E+00  0.2160E+03
    -37.303  0.0000E+00  0.2160E+03
    -37.045  0.0000E+00  0.2160E+03
    -36.787  0.0000E+00  0.2160E+03
    -36.529  0.0000E+00  0.2160E+03
    -36.271  0.0000E+00  0.2160E+03
    -36.013  0.0000E+00  0.2160E+03
    -35.755  0.0000E+00  0.2160E+03
    -35.497  0.0000E+00  0.2160E+03
    -35.239  0.0000E+00  0.2160E+03
    -34.981  0.0000E+00  0.2160E+03
    -34.723  0.0000E+00  0.2160E+03
    -34.465  0.0000E+00  0.2160E+03
    -34.207  0.0000E+00  0.2160E+03
    -33.949  0.0000E+00  0.2160E+03
    -33.691  0.0000E+00  0.2160E+03
    -33.433  0.0000E+00  0.2160E+03
    -33.175  0.0000E+00  0.2160E+03
    -32.917  0.0000E+00  0.2160E+03
    -32.659  0.0000E+00  0.2160E+03
    -32.401  0.0000E+00  0.2160E+03
    -32.143  0.0000E+00  0.2160E+03
    -31.885  0.0000E+00  0.2160E+03
    -31.627  0.0000E+00  0.2160E+03
    -31.369  0.0000E+00  0.2160E+03
    -31.111  0.0000E+00  0.2160E+03
    -30.853  0.0000E+00  0.2160E+03
    -30.595  0.0000E+00  0.2160E+03
    -30.337  0.0000E+00  0.2160E+03
    -30.079  0.0000E+00  0.2160E+03
    -29.821  0.0000E+00  0.2160E+03
    -29.563  0.0000E+00  0.2160E+03
    -29.305  0.0000E+00  0.2160E+03
    -29.047  0.0000E+00  0.2160E+03
    -28.789  0.0000E+00  0.2160E+03
    -28.531  0.0000E+00  0.2160E+03
    -28.273  0.0000E+00  0.2160E+03
    -28.015  0.0000E+00  0.2160E+03
    -27.757  0.0000E+00  0.2160E+03
    -27.499  0.0000E+00  0.2160E+03
    -27.241  0.0000E+00  0.2160E+03
    -26.983  0.0000E+00  0.2160E+03
    -26.725  0.0000E+00  0.2160E+03
    -26.467  0.0000E+00  0.2160E+03
    -26.209  0.0000E+00  0.2160E+03
    -25.951  0.0000E+00  0.2160E+03
    -25.693  0.0000E+00  0.2160E+03
    -25.435  0.0000E+00  0.2160E+03
    -25.177  0.0000E+00  0.2160E+03
    -24.919  0.0000E+00  0.2160E+03
    -24.661  0.0000E+00  0.2160E+03
    -24.403  0.0000E+00  0.2160E+03
    -24.145  0.0000E+00  0.2160E+03
    -23.887  0.0000E+00  0.2160E+03
    -23.629  0.0000E+00  0.2160E+03
    -23.371  0.0000E+00  0.2160E+03
    -23.113  0.0000E+00  0.2160E+03
    -22.855  0.0000E+00  0.2160E+03
    -22.597  0.0000E+00  0.2160E+03
    -22.339  0.0000E+00  0.2160E+03
    -22.081  0.0000E+00  0.2160E+03
    -21.823  0.0000E+00  0.2160E+03
    -21.565  0.0000E+00  0.2160E+03
    -21.307  0.0000E+00  0.2160E+03
    -21.049  0.0000E+00  0.2160E+03
    -20.791  0.0000E+00  0.2160E+03
    -20.533  0.0000E+00  0.2160E+03
    -20.275  0.0000E+00  0.2160E+03
    -20.017  0.0000E+00  0.2160E+03
    -19.759  0.0000E+00  0.2160E+03
    -19.501  0.0000E+00  0.2160E+03
    -19.243  0.0000E+00  0.2160E+03
    -18.985  0.0000E+00  0.2160E+03
    -18.727  0.0000E+00  0.2160E+03
    -18.469  0.0000E+00  0.2160E+03
    -18.211  0.0000E+00  0.2160E+03
    -17.953  0.0000E+00  0.2160E+03
    -17.695  0.0000E+00  0.2160E+03
    -17.437  0.0000E+00  0.2160E+03
    -17.179  0.0000E+00  0.2160E+03
    -16.921  0.0000E+00  0.2160E+03
    -16.663  0.0000E+00  0.2160E+03
    -16.405  0.0000E+00  0.2160E+03
    -16.147  0.0000E+00  0.2160E+03
    -15.889  0.0000E+00  0.2160E+03
    -15.631  0.0000E+00  0.2160E+03
    -15.373  0.0000E+00  0.2160E+03
    -15.115  0.1291E-14  0.2160E+03
    -14.857  0.9878E-09  0.2160E+03
    -14.599  0.2637E-04  0.2160E+03
    -14.341  0.2890E-01  0.2160E+03
    -14.083  0.1501E+01  0.2164E+03
    -13.825  0.4942E+01  0.2177E+03
    -13.567  0.1530E+01  0.2181E+03
    -13.309  0.5573E+01  0.2195E+03
    -13.051  0.1750E+02  0.2240E+03
    -12.793  0.2012E+02  0.2292E+03
    -12.535  0.2826E+02  0.2365E+03
    -12.277  0.2777E+02  0.2437E+03
    -12.019  0.3360E+02  0.2523E+03
    -11.761  0.3531E+02  0.2614E+03
    -11.503  0.3673E+02  0.2709E+03
    -11.245  0.2252E+02  0.2767E+03
    -10.987  0.8271E+01  0.2789E+03
    -10.729  0.9833E+01  0.2814E+03
    -10.471  0.5148E+01  0.2827E+03
    -10.213  0.1169E+02  0.2857E+03
     -9.955  0.7680E+01  0.2877E+03
     -9.697  0.1057E+01  0.2880E+03
     -9.439  0.1255E-01  0.2880E+03
     -9.181  0.7161E-05  0.2880E+03
     -8.923  0.1662E-09  0.2880E+03
     -8.665  0.0000E+00  0.2880E+03
     -8.407  0.0000E+00  0.2880E+03
     -8.149  0.0000E+00  0.2880E+03
     -7.891  0.0000E+00  0.2880E+03
     -7.633  0.0000E+00  0.2880E+03
     -7.375  0.0000E+00  0.2880E+03
     -7.117  0.0000E+00  0.2880E+03
     -6.859  0.3443E-14  0.2880E+03
     -6.601  0.1972E-08  0.2880E+03
     -6.343  0.4724E-04  0.2880E+03
     -6.085  0.5111E-01  0.2880E+03
     -5.827  0.3093E+01  0.2888E+03
     -5.569  0.1513E+02  0.2927E+03
     -5.311  0.1671E+02  0.2970E+03
     -5.053  0.2658E+02  0.3039E+03
     -4.796  0.4272E+02  0.3149E+03
     -4.538  0.5306E+02  0.3286E+03
     -4.280  0.4598E+02  0.3405E+03
     -4.022  0.3402E+02  0.3492E+03
     -3.764  0.3765E+02  0.3589E+03
     -3.506  0.4198E+02  0.3698E+03
     -3.248  0.4322E+02  0.3809E+03
     -2.990  0.5966E+02  0.3963E+03
     -2.732  0.7318E+02  0.4152E+03
     -2.474  0.7820E+02  0.4354E+03
     -2.216  0.7021E+02  0.4535E+03
     -1.958  0.5571E+02  0.4679E+03
     -1.700  0.4287E+02  0.4789E+03
     -1.442  0.4339E+02  0.4901E+03
     -1.184  0.5648E+02  0.5047E+03
     -0.926  0.7588E+02  0.5243E+03
     -0.668  0.9440E+02  0.5486E+03
     -0.410  0.1190E+03  0.5793E+03
     -0.152  0.1685E+03  0.6228E+03
      0.106  0.1623E+03  0.6647E+03
      0.364  0.1258E+03  0.6971E+03
      0.622  0.1092E+03  0.7253E+03
      0.880  0.1025E+03  0.7518E+03
      1.138  0.7796E+02  0.7719E+03
      1.396  0.5808E+02  0.7869E+03
      1.654  0.5554E+02  0.8012E+03
      1.912  0.6131E+02  0.8170E+03
      2.170  0.5864E+02  0.8321E+03
      2.428  0.6009E+02  0.8476E+03
      2.686  0.4999E+02  0.8605E+03
      2.944  0.1866E+02  0.8653E+03
      3.202  0.8737E+01  0.8676E+03
      3.460  0.8394E+01  0.8698E+03
      3.718  0.1143E+01  0.8701E+03
      3.976  0.4129E+01  0.8711E+03
      4.234  0.9899E+01  0.8737E+03
      4.492  0.8242E+01  0.8758E+03
      4.750  0.1202E+02  0.8789E+03
      5.008  0.2319E+02  0.8849E+03
      5.266  0.1494E+02  0.8887E+03
      5.524  0.1473E+02  0.8925E+03
      5.782  0.1830E+02  0.8973E+03
      6.040  0.2133E+02  0.9028E+03
      6.298  0.2813E+02  0.9100E+03
      6.556  0.2868E+02  0.9174E+03
      6.814  0.3019E+02  0.9252E+03
      7.072  0.3878E+02  0.9352E+03
      7.330  0.4143E+02  0.9459E+03
      7.588  0.3664E+02  0.9554E+03
      7.846  0.1640E+02  0.9596E+03
      8.104  0.1593E+01  0.9600E+03
      8.362  0.1375E-01  0.9600E+03
      8.620  0.6455E-05  0.9600E+03
      8.878  0.1321E-09  0.9600E+03
      9.136  0.0000E+00  0.9600E+03
      9.394  0.0000E+00  0.9600E+03
      9.652  0.0000E+00  0.9600E+03
      9.910  0.0000E+00  0.9600E+03
     10.168  0.0000E+00  0.9600E+03
     10.426  0.0000E+00  0.9600E+03
     10.684  0.0000E+00  0.9600E+03
     10.942  0.0000E+00  0.9600E+03
     11.200  0.0000E+00  0.9600E+03
