LAMMPS data file via write_data, version 5 Jun 2019, timestep = 24

54 atoms
2 atom types

0.0000000000000000e+00 9.5784099999999999e+00 xlo xhi
0.0000000000000000e+00 8.2951463878999991e+00 ylo yhi
0.0000000000000000e+00 1.9417840000000002e+01 zlo zhi
-4.7892049999999999e+00 0.0000000000000000e+00 0.0000000000000000e+00 xy xz yz

Masses

1 58.71
2 32.06

Atoms # atomic

1 1 1.0001157957518139e+00 4.9516197471809811e+00 2.4829059438075154e+00 0 0 0
2 1 1.7973757009000002e+00 4.4923822472000001e+00 4.6326501495999999e+00 0 0 0
3 1 1.7416643439479469e+00 4.5118571007613824e+00 7.4294003876167842e+00 0 0 0
4 1 -2.9918292943000004e+00 7.2574310404000002e+00 2.5397968106999995e+00 0 0 0
5 1 -2.9918292943000004e+00 7.2574310404000002e+00 5.6790768092999988e+00 0 0 0
6 1 -3.3053202074353032e+00 7.4422793887748684e+00 8.1680170631418978e+00 0 0 0
7 1 5.8056942916837810e+00 2.1764693465239686e+00 1.4262371556235194e+00 0 0 0
8 1 6.5865807105000016e+00 1.7273334457000000e+00 3.5862234704999998e+00 0 0 0
9 1 6.5865807105000016e+00 1.7273334457000000e+00 6.7255034885000002e+00 0 0 0
10 1 3.1075892154129834e+00 2.1551826806328931e+00 1.9713559479324174e+00 0 0 0
11 1 3.0627123971000016e+00 2.3007548005999992e+00 4.6326501495999999e+00 0 0 0
12 1 3.0627123971000016e+00 2.3007548005999992e+00 7.7719301482000001e+00 0 0 0
13 1 -1.7264925981000001e+00 5.0658035938000001e+00 2.5397968106999995e+00 0 0 0
14 1 -1.7264925981000001e+00 5.0658035938000001e+00 5.6790768092999988e+00 0 0 0
15 1 -1.7266335652579798e+00 4.6943468533886641e+00 8.1643215699240663e+00 0 0 0
16 1 3.0530753863096827e+00 7.8737210351331273e+00 1.0260211665288785e+00 0 0 0
17 1 3.0627124066999998e+00 7.8308523870000002e+00 3.5862234704999998e+00 0 0 0
18 1 3.0627124066999998e+00 7.8308523870000002e+00 6.7255034885000002e+00 0 0 0
19 1 4.4711328536015014e+00 4.5225035216873275e+00 1.9664027828556963e+00 0 0 0
20 1 4.3280490932999998e+00 4.4923822472000001e+00 4.6326501495999999e+00 0 0 0
21 1 4.3875346100915902e+00 4.5141243797586519e+00 7.4235382840868605e+00 0 0 0
22 1 -4.6115590189999983e-01 7.2574310404000002e+00 2.5397968106999995e+00 0 0 0
23 1 -4.6115590189999983e-01 7.2574310404000002e+00 5.6790768092999988e+00 0 0 0
24 1 -1.4927892916804639e-01 7.4415123490356523e+00 8.1700985090228198e+00 0 0 0
25 1 -4.9421926390506765e-01 1.7193037043698294e+00 1.0298805787168639e+00 0 0 0
26 1 -4.6115589709999999e-01 1.7273334457000000e+00 3.5862234704999998e+00 0 0 0
27 1 -4.6115589709999999e-01 1.7273334457000000e+00 6.7255034885000002e+00 0 0 0
28 2 4.2300318863694653e+00 3.0826386210436119e+00 4.9879726162704008e-01 0 0 0
29 2 4.6739446352999998e+00 2.8315943986000001e+00 3.1392799986000002e+00 0 0 0
30 2 4.6739446352999998e+00 2.8315943986000001e+00 6.2785599972000004e+00 0 0 0
31 2 4.3679518564409410e+00 3.2478947819591446e+00 8.9916954130075464e+00 0 0 0
32 2 -3.4450787729026455e-01 5.7288350070152347e+00 1.1781527622344958e+00 0 0 0
33 2 -1.1526035999999977e-01 5.5966431918000001e+00 4.1857066583000000e+00 0 0 0
34 2 -1.1526035999999977e-01 5.5966431918000001e+00 7.3249866763000000e+00 0 0 0
35 2 9.4631496447999996e+00 6.6545597100000006e-02 2.0928533388999999e+00 0 0 0
36 2 9.4631496447999996e+00 6.6545597100000006e-02 5.2321333373999988e+00 0 0 0
37 2 9.3081283469886600e+00 1.5521827240373154e-01 8.0588700319685884e+00 0 0 0
38 2 3.0627123970999994e+00 5.6223304979000002e+00 3.1392799986000002e+00 0 0 0
39 2 3.0627123970999994e+00 5.6223304979000002e+00 6.2785599972000004e+00 0 0 0
40 2 3.0511438840934333e+00 1.5074778060332519e-01 1.4158903749912437e+00 0 0 0
41 2 3.0627124019000007e+00 9.2232903199999994e-02 4.1857066583000000e+00 0 0 0
42 2 3.0627124019000007e+00 9.2232903199999994e-02 7.3249866763000000e+00 0 0 0
43 2 7.8519174067000002e+00 2.8572816963999998e+00 2.0928533388999999e+00 0 0 0
44 2 7.8519174067000002e+00 2.8572816963999998e+00 5.2321333373999988e+00 0 0 0
45 2 7.8518222410332061e+00 2.6715081528788258e+00 8.0631527548551265e+00 0 0 0
46 2 1.4514801589999997e+00 2.8315943986000001e+00 3.1392799986000002e+00 0 0 0
47 2 1.4514801589999997e+00 2.8315943986000001e+00 6.2785599972000004e+00 0 0 0
48 2 1.7533757566031185e+00 3.2406504196023245e+00 8.9931868973079787e+00 0 0 0
49 2 6.1810732626979874e+00 5.5753147379033949e+00 1.4188640688540013e+00 0 0 0
50 2 6.2406851637999994e+00 5.5966431918000001e+00 4.1857066583000000e+00 0 0 0
51 2 6.2406851637999994e+00 5.5966431918000001e+00 7.3249866763000000e+00 0 0 0
52 2 6.2406851684999998e+00 6.6545597100000006e-02 2.0928533388999999e+00 0 0 0
53 2 6.2406851684999998e+00 6.6545597100000006e-02 5.2321333373999988e+00 0 0 0
54 2 6.3941492752777016e+00 1.5442638715312768e-01 8.0580268070445360e+00 0 0 0

Velocities

1 0.0000000000000000e+00 0.0000000000000000e+00 0.0000000000000000e+00
2 0.0000000000000000e+00 0.0000000000000000e+00 0.0000000000000000e+00
3 0.0000000000000000e+00 0.0000000000000000e+00 0.0000000000000000e+00
4 0.0000000000000000e+00 0.0000000000000000e+00 0.0000000000000000e+00
5 0.0000000000000000e+00 0.0000000000000000e+00 0.0000000000000000e+00
6 0.0000000000000000e+00 0.0000000000000000e+00 0.0000000000000000e+00
7 0.0000000000000000e+00 0.0000000000000000e+00 0.0000000000000000e+00
8 0.0000000000000000e+00 0.0000000000000000e+00 0.0000000000000000e+00
9 0.0000000000000000e+00 0.0000000000000000e+00 0.0000000000000000e+00
10 0.0000000000000000e+00 0.0000000000000000e+00 0.0000000000000000e+00
11 0.0000000000000000e+00 0.0000000000000000e+00 0.0000000000000000e+00
12 0.0000000000000000e+00 0.0000000000000000e+00 0.0000000000000000e+00
13 0.0000000000000000e+00 0.0000000000000000e+00 0.0000000000000000e+00
14 0.0000000000000000e+00 0.0000000000000000e+00 0.0000000000000000e+00
15 0.0000000000000000e+00 0.0000000000000000e+00 0.0000000000000000e+00
16 0.0000000000000000e+00 0.0000000000000000e+00 0.0000000000000000e+00
17 0.0000000000000000e+00 0.0000000000000000e+00 0.0000000000000000e+00
18 0.0000000000000000e+00 0.0000000000000000e+00 0.0000000000000000e+00
19 0.0000000000000000e+00 0.0000000000000000e+00 0.0000000000000000e+00
20 0.0000000000000000e+00 0.0000000000000000e+00 0.0000000000000000e+00
21 0.0000000000000000e+00 0.0000000000000000e+00 0.0000000000000000e+00
22 0.0000000000000000e+00 0.0000000000000000e+00 0.0000000000000000e+00
23 0.0000000000000000e+00 0.0000000000000000e+00 0.0000000000000000e+00
24 0.0000000000000000e+00 0.0000000000000000e+00 0.0000000000000000e+00
25 0.0000000000000000e+00 0.0000000000000000e+00 0.0000000000000000e+00
26 0.0000000000000000e+00 0.0000000000000000e+00 0.0000000000000000e+00
27 0.0000000000000000e+00 0.0000000000000000e+00 0.0000000000000000e+00
28 0.0000000000000000e+00 0.0000000000000000e+00 0.0000000000000000e+00
29 0.0000000000000000e+00 0.0000000000000000e+00 0.0000000000000000e+00
30 0.0000000000000000e+00 0.0000000000000000e+00 0.0000000000000000e+00
31 0.0000000000000000e+00 0.0000000000000000e+00 0.0000000000000000e+00
32 0.0000000000000000e+00 0.0000000000000000e+00 0.0000000000000000e+00
33 0.0000000000000000e+00 0.0000000000000000e+00 0.0000000000000000e+00
34 0.0000000000000000e+00 0.0000000000000000e+00 0.0000000000000000e+00
35 0.0000000000000000e+00 0.0000000000000000e+00 0.0000000000000000e+00
36 0.0000000000000000e+00 0.0000000000000000e+00 0.0000000000000000e+00
37 0.0000000000000000e+00 0.0000000000000000e+00 0.0000000000000000e+00
38 0.0000000000000000e+00 0.0000000000000000e+00 0.0000000000000000e+00
39 0.0000000000000000e+00 0.0000000000000000e+00 0.0000000000000000e+00
40 0.0000000000000000e+00 0.0000000000000000e+00 0.0000000000000000e+00
41 0.0000000000000000e+00 0.0000000000000000e+00 0.0000000000000000e+00
42 0.0000000000000000e+00 0.0000000000000000e+00 0.0000000000000000e+00
43 0.0000000000000000e+00 0.0000000000000000e+00 0.0000000000000000e+00
44 0.0000000000000000e+00 0.0000000000000000e+00 0.0000000000000000e+00
45 0.0000000000000000e+00 0.0000000000000000e+00 0.0000000000000000e+00
46 0.0000000000000000e+00 0.0000000000000000e+00 0.0000000000000000e+00
47 0.0000000000000000e+00 0.0000000000000000e+00 0.0000000000000000e+00
48 0.0000000000000000e+00 0.0000000000000000e+00 0.0000000000000000e+00
49 0.0000000000000000e+00 0.0000000000000000e+00 0.0000000000000000e+00
50 0.0000000000000000e+00 0.0000000000000000e+00 0.0000000000000000e+00
51 0.0000000000000000e+00 0.0000000000000000e+00 0.0000000000000000e+00
52 0.0000000000000000e+00 0.0000000000000000e+00 0.0000000000000000e+00
53 0.0000000000000000e+00 0.0000000000000000e+00 0.0000000000000000e+00
54 0.0000000000000000e+00 0.0000000000000000e+00 0.0000000000000000e+00
