LAMMPS (5 Jun 2019)
OMP_NUM_THREADS environment is not set. Defaulting to 1 thread. (../comm.cpp:88)
  using 1 OpenMP thread(s) per MPI task
Reading data file ...
  triclinic box = (0 0 0) to (10.0797 9.4251 20.6835) with tilt (3.5733 0 0)
  1 by 1 by 1 MPI processor grid
  reading atoms ...
  72 atoms
  read_data CPU = 0.000791822 secs
44 atoms in group bulk
WARNING: Using 'neigh_modify every 1 delay 0 check yes' setting during minimization (../min.cpp:168)
Neighbor list info ...
  update every 1 steps, delay 0 steps, check yes
  max neighbors/atom: 2000, page size: 100000
  master list distance cutoff = 8.5
  ghost atom cutoff = 8.5
  binsize = 4.25, bins = 4 3 5
  1 neighbor lists, perpetual/occasional/extra = 1 0 0
  (1) pair eam/alloy, perpetual
      attributes: half, newton on
      pair build: half/bin/newton/tri
      stencil: half/bin/3d/newton/tri
      bin: standard
Setting up cg style minimization ...
  Unit style    : metal
  Current step  : 0
Per MPI rank memory allocation (min/avg/max) = 4.113 | 4.113 | 4.113 Mbytes
Step Temp E_pair E_mol TotEng Press 
       0            0   -305.95387            0   -305.95387   -128194.46 
      48            0   -326.58148            0   -326.58148    -41028.19 
Loop time of 0.0312431 on 1 procs for 48 steps with 72 atoms

99.8% CPU use with 1 MPI tasks x 1 OpenMP threads

Minimization stats:
  Stopping criterion = energy tolerance
  Energy initial, next-to-last, final = 
        -305.953869908     -326.579080978     -326.581481177
  Force two-norm initial, final = 11.0388 0.176674
  Force max component initial, final = 2.87821 0.0755459
  Final line search alpha, max atom move = 0.856104 0.0646751
  Iterations, force evaluations = 48 65

MPI task timing breakdown:
Section |  min time  |  avg time  |  max time  |%varavg| %total
---------------------------------------------------------------
Pair    | 0.02837    | 0.02837    | 0.02837    |   0.0 | 90.80
Neigh   | 0.0016557  | 0.0016557  | 0.0016557  |   0.0 |  5.30
Comm    | 0.00065267 | 0.00065267 | 0.00065267 |   0.0 |  2.09
Output  | 0          | 0          | 0          |   0.0 |  0.00
Modify  | 4.8283e-05 | 4.8283e-05 | 4.8283e-05 |   0.0 |  0.15
Other   |            | 0.0005167  |            |       |  1.65

Nlocal:    72 ave 72 max 72 min
Histogram: 1 0 0 0 0 0 0 0 0 0
Nghost:    943 ave 943 max 943 min
Histogram: 1 0 0 0 0 0 0 0 0 0
Neighs:    4843 ave 4843 max 4843 min
Histogram: 1 0 0 0 0 0 0 0 0 0

Total # of neighbors = 4843
Ave neighs/atom = 67.2639
Neighbor list builds = 3
Dangerous builds = 0
System init for write_data ...
Total wall time: 0:00:00
