"Millerite NiS"                         
           1
     9.425103    3.573298    0.000000
     0.000000   10.079733    0.000000
     0.000000    0.000000   20.502010
   Ni   S 
    36    36
Direct configuration=     1
   0.37433215  0.75136220  0.09475350
   0.52460066  0.60109368  0.22281424
   0.67486918  0.45082517  0.35087497
   0.82513769  0.30055666  0.47893570
   0.60748648  0.18487454  0.00937968
   0.75775499  0.03460603  0.13744041
   0.05829201  0.73406900  0.39356188
   0.90802350  0.88433751  0.26550115
   0.14117783  0.31784985  0.18012733
   0.29144634  0.16758134  0.30818806
   0.44171485  0.01731283  0.43624879
   0.99090931  0.46811837  0.05206659
   0.00994000  0.11575434  0.41126688
   0.55913447  0.56655988  0.02708467
   0.70940298  0.41629137  0.15514541
   0.85967149  0.26602286  0.28320614
   0.09282582  0.69953520  0.19783232
   0.24309433  0.54926668  0.32589305
   0.39336284  0.39899817  0.45395379
   0.94255730  0.84980371  0.06977159
   0.32598014  0.13304754  0.11245850
   0.47624865  0.98277903  0.24051923
   0.62651717  0.83251052  0.36857997
   0.77678568  0.68224200  0.49664070
   0.04964185  0.34025850  0.44510129
   0.59883631  0.79106404  0.06091909
   0.74910482  0.64079553  0.18897982
   0.89937333  0.49052701  0.31704056
   0.98225915  0.07430787  0.10360600
   0.13252766  0.92403935  0.23166673
   0.28279617  0.77377084  0.35972747
   0.43306468  0.62350233  0.48778820
   0.21541347  0.50782021  0.01823218
   0.36568198  0.35755170  0.14629291
   0.51595050  0.20728318  0.27435364
   0.66621901  0.05701467  0.40241438
   0.06382158  0.26208477  0.34109873
   0.21409009  0.11181626  0.46915946
   0.76328455  0.56262179  0.08497726
   0.91355307  0.41235328  0.21303800
   0.14670739  0.84586562  0.12766417
   0.29697590  0.69559711  0.25572491
   0.44724442  0.54532860  0.38378564
   0.59751293  0.39506009  0.51184637
   0.37986171  0.27937797  0.04229035
   0.53013023  0.12910945  0.17035108
   0.68039874  0.97884094  0.29841182
   0.83066725  0.82857243  0.42647255
   0.37769571  0.94821064  0.04308347
   0.52796422  0.79794212  0.17114421
   0.67823274  0.64767361  0.29920494
   0.82850125  0.49740510  0.42726568
   0.76111855  0.23145446  0.08577038
   0.91138706  0.08118595  0.21383112
   0.06165557  0.93091744  0.34189185
   0.21192409  0.78064893  0.46995259
   0.14454139  0.51469829  0.12845729
   0.29480990  0.36442978  0.25651803
   0.44507841  0.21416127  0.38457876
   0.99427287  0.66496681  0.00039656
   0.32714088  0.66233547  0.00000000
   0.47740939  0.51206696  0.12806073
   0.62767790  0.36179845  0.25612147
   0.77794641  0.21152993  0.38418220
   0.92821492  0.06126142  0.51224294
   0.01110074  0.64504228  0.29880838
   0.71056371  0.94557930  0.04268691
   0.86083223  0.79531079  0.17074764
   0.09398655  0.22882313  0.08537382
   0.24425506  0.07855462  0.21343456
   0.39452358  0.92828610  0.34149529
   0.54479209  0.77801759  0.46955603
