 vasp.5.4.4.18Apr17-6-g9f103f2a35 (build Aug 13 2019 17:33:20) gamma-only       
  
 executed on             LinuxIFC date 2020.05.11  20:20:57
 running on   12 total cores
 distrk:  each k-point on   12 cores,    1 groups
 distr:  one band on NCORES_PER_BAND=   6 cores,    2 groups


--------------------------------------------------------------------------------------------------------


 INCAR:
 POTCAR:    PAW_PBE Ni_pv 06Sep2000               
 POTCAR:    PAW_PBE S 06Sep2000                   
 POTCAR:    PAW_PBE Ni_pv 06Sep2000               
   VRHFIN =Ni:                                                                  
   LEXCH  = PE                                                                  
   EATOM  =  3501.1230 eV,  257.3253 Ry                                         
                                                                                
   TITEL  = PAW_PBE Ni_pv 06Sep2000                                             
   LULTRA =        F    use ultrasoft PP ?                                      
   IUNSCR =        1    unscreen: 0-lin 1-nonlin 2-no                           
   RPACOR =    1.500    partial core radius                                     
   POMASS =   58.690; ZVAL   =   16.000    mass and valenz                      
   RCORE  =    2.000    outmost cutoff radius                                   
   RWIGS  =    2.000; RWIGS  =    1.058    wigner-seitz radius (au A)           
   ENMAX  =  367.986; ENMIN  =  275.989 eV                                      
   RCLOC  =    1.301    cutoff for local pot                                    
   LCOR   =        T    correct aug charges                                     
   LPAW   =        T    paw PP                                                  
   EAUG   =  703.443                                                            
   DEXC   =    0.000                                                            
   RMAX   =    2.041    core radius for proj-oper                               
   RAUG   =    1.300    factor for augmentation sphere                          
   RDEP   =    2.103    radius for radial grids                                 
   RDEPT  =    1.618    core radius for aug-charge                              
                                                                                
   Atomic configuration                                                         
    8 entries                                                                   
     n  l   j            E        occ.                                          
     1  0  0.50     -8206.4253   2.0000                                         
     2  0  0.50      -976.1748   2.0000                                         
     2  1  1.50      -839.0571   6.0000                                         
     3  0  0.50      -105.9991   2.0000                                         
     3  1  1.50       -66.4603   6.0000                                         
     3  2  2.50        -4.6458   9.0000                                         
     4  0  0.50        -4.4926   1.0000                                         
     4  3  2.50        -1.3606   0.0000                                         
   Description                                                                  
     l       E           TYP  RCUT    TYP  RCUT                                 
     1    -66.4602962     23  1.700                                             
     1     -1.3605826     23  1.700                                             
     2     -4.6457867     23  2.000                                             
     2     -6.0063693     23  2.000                                             
     0     -4.4925576     23  1.900                                             
     0     16.3626226     23  1.900                                             
  local pseudopotential read in
  partial core-charges read in
  partial kinetic energy density read in
  atomic valenz-charges read in
  non local Contribution for L=           1  read in
    real space projection operators read in
  non local Contribution for L=           1  read in
    real space projection operators read in
  non local Contribution for L=           2  read in
    real space projection operators read in
  non local Contribution for L=           2  read in
    real space projection operators read in
  non local Contribution for L=           0  read in
    real space projection operators read in
  non local Contribution for L=           0  read in
    real space projection operators read in
    PAW grid and wavefunctions read in
 
   number of l-projection  operators is LMAX  =           6
   number of lm-projection operators is LMMAX =          18
 
 POTCAR:    PAW_PBE S 06Sep2000                   
   VRHFIN =S : s2p4                                                             
   LEXCH  = PE                                                                  
   EATOM  =   276.8230 eV,   20.3459 Ry                                         
                                                                                
   TITEL  = PAW_PBE S 06Sep2000                                                 
   LULTRA =        F    use ultrasoft PP ?                                      
   IUNSCR =        1    unscreen: 0-lin 1-nonlin 2-no                           
   RPACOR =    1.500    partial core radius                                     
   POMASS =   32.066; ZVAL   =    6.000    mass and valenz                      
   RCORE  =    1.900    outmost cutoff radius                                   
   RWIGS  =    2.200; RWIGS  =    1.164    wigner-seitz radius (au A)           
   ENMAX  =  258.689; ENMIN  =  194.016 eV                                      
   ICORE  =        2    local potential                                         
   LCOR   =        T    correct aug charges                                     
   LPAW   =        T    paw PP                                                  
   EAUG   =  335.092                                                            
   DEXC   =    0.000                                                            
   RMAX   =    1.942    core radius for proj-oper                               
   RAUG   =    1.300    factor for augmentation sphere                          
   RDEP   =    1.954    radius for radial grids                                 
   RDEPT  =    1.744    core radius for aug-charge                              
                                                                                
   Atomic configuration                                                         
    6 entries                                                                   
     n  l   j            E        occ.                                          
     1  0  0.50     -2405.8406   2.0000                                         
     2  0  0.50      -211.7007   2.0000                                         
     2  1  1.50      -156.4958   6.0000                                         
     3  0  0.50       -17.2562   2.0000                                         
     3  1  0.50        -7.0085   4.0000                                         
     3  2  1.50        -6.8029   0.0000                                         
   Description                                                                  
     l       E           TYP  RCUT    TYP  RCUT                                 
     0    -17.2561641     23  1.900                                             
     0    -15.8743224     23  1.900                                             
     1     -7.0085400     23  1.900                                             
     1     -2.7779785     23  1.900                                             
     2     -6.8029130     23  1.900                                             
  local pseudopotential read in
  partial core-charges read in
  partial kinetic energy density read in
  atomic valenz-charges read in
  non local Contribution for L=           0  read in
    real space projection operators read in
  non local Contribution for L=           0  read in
    real space projection operators read in
  non local Contribution for L=           1  read in
    real space projection operators read in
  non local Contribution for L=           1  read in
    real space projection operators read in
    PAW grid and wavefunctions read in
 
   number of l-projection  operators is LMAX  =           4
   number of lm-projection operators is LMMAX =           8
 
 Optimization of the real space projectors (new method)

 maximal supplied QI-value         = 18.90
 optimisation between [QCUT,QGAM] = [ 10.77, 21.73] = [ 32.49,132.25] Ry 
 Optimized for a Real-space Cutoff    1.38 Angstroem

   l    n(q)    QCUT    max X(q) W(low)/X(q) W(high)/X(q)  e(spline) 
   1      8    10.771     2.836    0.40E-04    0.29E-04    0.12E-06
   1      8    10.771     4.023    0.10E-03    0.48E-04    0.29E-06
   2      8    10.771    73.368    0.42E-03    0.97E-04    0.44E-06
   2      8    10.771    69.010    0.42E-03    0.99E-04    0.45E-06
   0      9    10.771    54.797    0.10E-03    0.56E-04    0.74E-07
   0      9    10.771    24.266    0.89E-04    0.49E-04    0.67E-07
 Optimization of the real space projectors (new method)

 maximal supplied QI-value         = 19.84
 optimisation between [QCUT,QGAM] = [ 10.71, 21.63] = [ 32.15,130.99] Ry 
 Optimized for a Real-space Cutoff    1.19 Angstroem

   l    n(q)    QCUT    max X(q) W(low)/X(q) W(high)/X(q)  e(spline) 
   0      8    10.715   187.594    0.41E-03    0.53E-04    0.66E-07
   0      8    10.715   164.243    0.41E-03    0.53E-04    0.65E-07
   1      7    10.715    67.533    0.19E-03    0.59E-03    0.68E-07
   1      7    10.715    50.729    0.19E-03    0.58E-03    0.67E-07
  PAW_PBE Ni_pv 06Sep2000               :
 energy of atom  1       EATOM=-3501.1230
 kinetic energy error for atom=    0.0925 (will be added to EATOM!!)
  PAW_PBE S 06Sep2000                   :
 energy of atom  2       EATOM= -276.8230
 kinetic energy error for atom=    0.0033 (will be added to EATOM!!)
 
 
 POSCAR: Type_036 Type_136                       
  positions in cartesian coordinates
  No initial velocities read in
 exchange correlation table for  LEXCH =        8
   RHO(1)=    0.500       N(1)  =     2000
   RHO(2)=  100.500       N(2)  =     4000
 


--------------------------------------------------------------------------------------------------------


 ion  position               nearest neighbor table
   1  0.763  0.145  0.175-  63 2.09  49 2.09  42 2.12  41 2.17  50 2.22  64 2.22
   2  0.824  0.145  0.320-  64 2.04  50 2.04  37 2.16  42 2.40  13 2.54  25 2.54
   3  0.226  0.645  0.093-  43 2.01  61 2.21  51 2.21  44 2.22   4 2.33
   4  0.297  0.645  0.216-  52 2.14  62 2.14  44 2.25  51 2.26  61 2.26   3 2.33  27 2.53  15 2.53

   5  0.395  0.145  0.125-  45 2.03  46 2.19  67 2.25  53 2.25   6 2.35
   6  0.470  0.145  0.248-  68 2.10  54 2.10  46 2.25  53 2.26  67 2.26   5 2.35  30 2.53  18 2.53

   7  0.952  0.645  0.152-  66 2.01  56 2.01  47 2.25  55 2.36  65 2.36  31 2.53  19 2.53
   8  0.969  0.645  0.314-  65 2.03  55 2.03  48 2.05
   9  0.125  0.145  0.184-  38 2.07  57 2.09  71 2.09  58 2.36  72 2.36  10 2.41  33 2.53  21 2.53

  10  0.057  0.145  0.315-  38 2.08  37 2.12   9 2.41  13 2.46  25 2.46  72 2.62  58 2.62
  11  0.573  0.645  0.158-  39 2.02  69 2.18  59 2.18  40 2.21  12 2.29
  12  0.642  0.645  0.280-  60 2.03  70 2.03  40 2.25  59 2.26  69 2.26  11 2.29  36 2.53  24 2.53

  13  0.942  0.003  0.273-  37 2.06  38 2.08  64 2.08  55 2.12  10 2.46   2 2.54
  14  0.394  0.518  0.034-  61 1.99  39 2.01  26 2.44
  15  0.425  0.513  0.191-  62 2.14  53 2.25  39 2.26  61 2.26  40 2.36  16 2.43  27 2.53   4 2.53

  16  0.467  0.462  0.331-  54 2.00  62 2.05  40 2.07  15 2.43
  17  0.567  0.017  0.066-  67 2.00  41 2.02  29 2.45
  18  0.597  0.013  0.223-  68 2.06  42 2.18  59 2.25  67 2.26  41 2.26   6 2.53  30 2.53
  19  0.080  0.513  0.127-  66 2.01  43 2.07  57 2.11  44 2.36  65 2.36   7 2.53  31 2.53
  20  0.113  0.500  0.290-  65 2.02  44 2.05  58 2.07
  21  0.252  0.013  0.159-  45 2.06  71 2.09  51 2.25  46 2.36  72 2.36  22 2.49   9 2.53  33 2.53

  22  0.292  0.974  0.306-  52 2.03  72 2.04  46 2.05  21 2.49
  23  0.747  0.497  0.100-  49 2.00  69 2.04  47 2.04  24 2.54
  24  0.770  0.513  0.254-  70 2.02  48 2.11  50 2.11  69 2.26  47 2.26  12 2.53  36 2.53  23 2.54

  25  0.942  0.287  0.273-  37 2.06  38 2.08  50 2.08  65 2.12  10 2.46   2 2.54
  26  0.394  0.773  0.034-  51 1.99  39 2.01  14 2.44
  27  0.425  0.777  0.191-  52 2.14  67 2.25  39 2.26  51 2.26  40 2.36  28 2.43  15 2.53   4 2.53

  28  0.467  0.828  0.331-  68 2.00  52 2.05  40 2.07  27 2.43
  29  0.567  0.273  0.066-  53 2.00  41 2.02  17 2.45
  30  0.597  0.277  0.223-  54 2.06  42 2.18  69 2.25  53 2.26  41 2.26   6 2.53  18 2.53
  31  0.080  0.777  0.127-  56 2.01  43 2.07  71 2.11  44 2.36  55 2.36   7 2.53  19 2.53
  32  0.113  0.791  0.290-  55 2.02  44 2.05  72 2.07
  33  0.252  0.277  0.159-  45 2.06  57 2.09  61 2.25  46 2.36  58 2.36  34 2.49   9 2.53  21 2.53

  34  0.292  0.317  0.306-  62 2.03  58 2.04  46 2.05  33 2.49
  35  0.747  0.793  0.100-  63 2.00  59 2.04  47 2.04  36 2.54
  36  0.770  0.777  0.254-  60 2.02  48 2.11  64 2.11  59 2.26  47 2.26  12 2.53  24 2.53  35 2.54

  37  0.943  0.145  0.369-  25 2.06  13 2.06  10 2.12   2 2.16
  38  0.003  0.145  0.200-   9 2.07  10 2.08  25 2.08  13 2.08
  39  0.474  0.645  0.087-  14 2.01  26 2.01  11 2.02  27 2.26  15 2.26
  40  0.509  0.645  0.278-  16 2.07  28 2.07  11 2.21  12 2.25  27 2.36  15 2.36
  41  0.647  0.145  0.119-  17 2.02  29 2.02   1 2.17  30 2.26  18 2.26  42 2.69  49 2.77  63 2.77

  42  0.687  0.145  0.280-   1 2.12  18 2.18  30 2.18   2 2.40  41 2.69
  43  0.120  0.645  0.035-   3 2.01  31 2.07  19 2.07
  44  0.164  0.645  0.214-  32 2.05  20 2.05   3 2.22   4 2.25  31 2.36  19 2.36
  45  0.289  0.145  0.066-   5 2.03  33 2.06  21 2.06
  46  0.336  0.145  0.246-  22 2.05  34 2.05   5 2.19   6 2.25  33 2.36  21 2.36
  47  0.819  0.645  0.151-  35 2.04  23 2.04   7 2.25  36 2.26  24 2.26  48 2.77
  48  0.848  0.645  0.319-   8 2.05  24 2.11  36 2.11  47 2.77
  49  0.782  0.299  0.086-  23 2.00   1 2.09  50 2.65  41 2.77
  50  0.823  0.315  0.244-   2 2.04  25 2.08  24 2.11   1 2.22  49 2.65
  51  0.312  0.814  0.119-  26 1.99   3 2.21  21 2.25   4 2.26  27 2.26
  52  0.352  0.791  0.298-  22 2.03  28 2.05   4 2.14  27 2.14  62 2.79
  53  0.484  0.314  0.151-  29 2.00   5 2.25  15 2.25  30 2.26   6 2.26
  54  0.529  0.284  0.328-  16 2.00  30 2.06   6 2.10  68 2.66
  55  0.001  0.814  0.246-  32 2.02   8 2.03  13 2.12   7 2.36  31 2.36
  56  0.975  0.794  0.068-   7 2.01  31 2.01
  57  0.140  0.323  0.110-   9 2.09  33 2.09  19 2.11  58 2.77
  58  0.174  0.314  0.278-  34 2.04  20 2.07   9 2.36  33 2.36  10 2.62  57 2.77
  59  0.657  0.814  0.183-  35 2.04  11 2.18  18 2.25  36 2.26  12 2.26
  60  0.695  0.791  0.352-  36 2.02  12 2.03  70 2.78
  61  0.312  0.477  0.119-  14 1.99   3 2.21  33 2.25   4 2.26  15 2.26
  62  0.352  0.500  0.298-  34 2.03  16 2.05   4 2.14  15 2.14  52 2.79
  63  0.782  0.992  0.086-  35 2.00   1 2.09  64 2.65  41 2.77
  64  0.823  0.976  0.244-   2 2.04  13 2.08  36 2.11   1 2.22  63 2.65
  65  0.001  0.477  0.246-  20 2.02   8 2.03  25 2.12   7 2.36  19 2.36
  66  0.975  0.496  0.068-   7 2.01  19 2.01
  67  0.484  0.977  0.151-  17 2.00   5 2.25  27 2.25  18 2.26   6 2.26
  68  0.529  0.006  0.328-  28 2.00  18 2.06   6 2.10  54 2.66
  69  0.657  0.477  0.183-  23 2.04  11 2.18  30 2.25  24 2.26  12 2.26
  70  0.695  0.500  0.352-  24 2.02  12 2.03  60 2.78
  71  0.140  0.968  0.110-   9 2.09  21 2.09  31 2.11  72 2.77
  72  0.174  0.977  0.278-  22 2.04  32 2.07   9 2.36  21 2.36  10 2.62  71 2.77
 
  LATTYP: Found a simple orthorhombic cell.
 ALAT       =     9.5784100000
 B/A-ratio  =     1.6880763216
 C/A-ratio  =     1.7627867312
  
  Lattice vectors:
  
 A1 = (   0.0000000000,   9.5784100000,   0.0000000000)
 A2 = (   0.0000000000,   0.0000000000, -16.1690871197)
 A3 = ( -16.8846940542,   0.0000000000,   0.0000000000)


Analysis of symmetry for initial positions (statically):
=====================================================================
 Subroutine PRICEL returns:
 Original cell was already a primitive cell.
 

 Routine SETGRP: Setting up the symmetry group for a 
 simple orthorhombic supercell.


 Subroutine GETGRP returns: Found  2 space group operations
 (whereof  1 operations were pure point group operations)
 out of a pool of  8 trial point group operations.


The static configuration has the point symmetry C_1 .
 The point group associated with its full space group is C_1h.


Analysis of symmetry for dynamics (positions and initial velocities):
=====================================================================
 Subroutine PRICEL returns:
 Original cell was already a primitive cell.
 

 Routine SETGRP: Setting up the symmetry group for a 
 simple orthorhombic supercell.


 Subroutine GETGRP returns: Found  2 space group operations
 (whereof  1 operations were pure point group operations)
 out of a pool of  8 trial point group operations.


The dynamic configuration has the point symmetry C_1 .
 The point group associated with its full space group is C_1h.


 Subroutine INISYM returns: Found  2 space group operations
 (whereof  1 operations are pure point group operations),
 and found     1 'primitive' translations

 
 
 KPOINTS: gamma-point-only calculation. no periodi

Automatic generation of k-mesh.
Space group operators:
 irot       det(A)        alpha          n_x          n_y          n_z        tau_x        tau_y        tau_z
    1     1.000000     0.000000     1.000000     0.000000     0.000000     0.000000     0.000000     0.000000
    2    -1.000000   180.000000     0.000000     1.000000     0.000000     0.000000     0.290594     0.000000
 
 Subroutine IBZKPT returns following result:
 ===========================================
 
 Found      1 irreducible k-points:
 
 Following reciprocal coordinates:
            Coordinates               Weight
  0.000000  0.000000  0.000000      1.000000
 
 Following cartesian coordinates:
            Coordinates               Weight
  0.000000  0.000000  0.000000      1.000000
 


--------------------------------------------------------------------------------------------------------




 Dimension of arrays:
   k-points           NKPTS =      1   k-points in BZ     NKDIM =      1   number of bands    NBANDS=    476
   number of dos      NEDOS =    301   number of ions     NIONS =     72
   non local maximal  LDIM  =      6   non local SUM 2l+1 LMDIM =     18
   total plane-waves  NPLWV = 378000
   max r-space proj   IRMAX =   1644   max aug-charges    IRDMAX=   4753
   dimension x,y,z NGX =    90 NGY =   50 NGZ =   84
   dimension x,y,z NGXF=   180 NGYF=  100 NGZF=  168
   support grid    NGXF=   180 NGYF=  100 NGZF=  168
   ions per type =              36  36
   NGX,Y,Z   is equivalent  to a cutoff of   8.86,  8.68,  8.64 a.u.
   NGXF,Y,Z  is equivalent  to a cutoff of  17.72, 17.36, 17.27 a.u.

 SYSTEM =  "Millerite NiS"                         
 POSCAR =  Type_036 Type_136                       

 Startparameter for this run:
   NWRITE =      2    write-flag & timer
   PREC   = normal    normal or accurate (medium, high low for compatibility)
   ISTART =      0    job   : 0-new  1-cont  2-samecut
   ICHARG =      2    charge: 1-file 2-atom 10-const
   ISPIN  =      1    spin polarized calculation?
   LNONCOLLINEAR =      F non collinear calculations
   LSORBIT =      F    spin-orbit coupling
   INIWAV =      1    electr: 0-lowe 1-rand  2-diag
   LASPH  =      F    aspherical Exc in radial PAW
   METAGGA=      F    non-selfconsistent MetaGGA calc.

 Electronic Relaxation 1
   ENCUT  =  450.0 eV  33.07 Ry    5.75 a.u.  29.20 16.57 27.97*2*pi/ulx,y,z
   ENINI  =  450.0     initial cutoff
   ENAUG  =  703.4 eV  augmentation charge cutoff
   NELM   =    100;   NELMIN=  2; NELMDL= -5     # of ELM steps 
   EDIFF  = 0.1E-03   stopping-criterion for ELM
   LREAL  =      T    real-space projection
   NLSPLINE    = F    spline interpolate recip. space projectors
   LCOMPAT=      F    compatible to vasp.4.4
   GGA_COMPAT  = T    GGA compatible to vasp.4.4-vasp.4.6
   LMAXPAW     = -100 max onsite density
   LMAXMIX     =    2 max onsite mixed and CHGCAR
   VOSKOWN=      0    Vosko Wilk Nusair interpolation
   ROPT   =   -0.00050  -0.00050
 Ionic relaxation
   EDIFFG = 0.1E-02   stopping-criterion for IOM
   NSW    =      0    number of steps for IOM
   NBLOCK =      1;   KBLOCK =      1    inner block; outer block 
   IBRION =     -1    ionic relax: 0-MD 1-quasi-New 2-CG
   NFREE  =      0    steps in history (QN), initial steepest desc. (CG)
   ISIF   =      2    stress and relaxation
   IWAVPR =     10    prediction:  0-non 1-charg 2-wave 3-comb
   ISYM   =      2    0-nonsym 1-usesym 2-fastsym
   LCORR  =      T    Harris-Foulkes like correction to forces

   POTIM  = 0.5000    time-step for ionic-motion
   TEIN   =    0.0    initial temperature
   TEBEG  =    0.0;   TEEND  =   0.0 temperature during run
   SMASS  =  -3.00    Nose mass-parameter (am)
   estimated Nose-frequenzy (Omega)   =  0.10E-29 period in steps =****** mass=  -0.652E-26a.u.
   SCALEE = 1.0000    scale energy and forces
   NPACO  =    256;   APACO  = 16.0  distance and # of slots for P.C.
   PSTRESS=    0.0 pullay stress

  Mass of Ions in am
   POMASS =  58.69 32.07
  Ionic Valenz
   ZVAL   =  16.00  6.00
  Atomic Wigner-Seitz radii
   RWIGS  =  -1.00 -1.00
  virtual crystal weights 
   VCA    =   1.00  1.00
   NELECT =     792.0000    total number of electrons
   NUPDOWN=      -1.0000    fix difference up-down

 DOS related values:
   EMIN   =  10.00;   EMAX   =-10.00  energy-range for DOS
   EFERMI =   0.00
   ISMEAR =     0;   SIGMA  =   0.20  broadening in eV -4-tet -1-fermi 0-gaus

 Electronic relaxation 2 (details)
   IALGO  =     38    algorithm
   LDIAG  =      T    sub-space diagonalisation (order eigenvalues)
   LSUBROT=      F    optimize rotation matrix (better conditioning)
   TURBO    =      0    0=normal 1=particle mesh
   IRESTART =      0    0=no restart 2=restart with 2 vectors
   NREBOOT  =      0    no. of reboots
   NMIN     =      0    reboot dimension
   EREF     =   0.00    reference energy to select bands
   IMIX   =      4    mixing-type and parameters
     AMIX     =   0.40;   BMIX     =  1.00
     AMIX_MAG =   1.60;   BMIX_MAG =  1.00
     AMIN     =   0.10
     WC   =   100.;   INIMIX=   1;  MIXPRE=   1;  MAXMIX= -45

 Intra band minimization:
   WEIMIN = 0.0000     energy-eigenvalue tresh-hold
   EBREAK =  0.53E-07  absolut break condition
   DEPER  =   0.30     relativ break condition  

   TIME   =   0.40     timestep for ELM

  volume/ion in A,a.u.               =      36.32       245.10
  Fermi-wavevector in a.u.,A,eV,Ry     =   1.099409  2.077581 16.445356  1.208700
  Thomas-Fermi vector in A             =   2.235803
 
 Write flags
   LWAVE        =      F    write WAVECAR
   LDOWNSAMPLE  =      F    k-point downsampling of WAVECAR
   LCHARG       =      F    write CHGCAR
   LVTOT        =      F    write LOCPOT, total local potential
   LVHAR        =      F    write LOCPOT, Hartree potential only
   LELF         =      F    write electronic localiz. function (ELF)
   LORBIT       =      0    0 simple, 1 ext, 2 COOP (PROOUT), +10 PAW based schemes


 Dipole corrections
   LMONO  =      F    monopole corrections only (constant potential shift)
   LDIPOL =      F    correct potential (dipole corrections)
   IDIPOL =      0    1-x, 2-y, 3-z, 4-all directions 
   EPSILON=  1.0000000 bulk dielectric constant

 Exchange correlation treatment:
   GGA     =    --    GGA type
   LEXCH   =     8    internal setting for exchange type
   VOSKOWN=      0    Vosko Wilk Nusair interpolation
   LHFCALC =     F    Hartree Fock is set to
   LHFONE  =     F    Hartree Fock one center treatment
   AEXX    =    0.0000 exact exchange contribution

 Linear response parameters
   LEPSILON=     F    determine dielectric tensor
   LRPA    =     F    only Hartree local field effects (RPA)
   LNABLA  =     F    use nabla operator in PAW spheres
   LVEL    =     F    velocity operator in full k-point grid
   LINTERFAST=   F  fast interpolation
   KINTER  =     0    interpolate to denser k-point grid
   CSHIFT  =0.1000    complex shift for real part using Kramers Kronig
   OMEGAMAX=  -1.0    maximum frequency
   DEG_THRESHOLD= 0.2000000E-02 threshold for treating states as degnerate
   RTIME   =   -0.100 relaxation time in fs
  (WPLASMAI=    0.000 imaginary part of plasma frequency in eV, 0.658/RTIME)
   DFIELD  = 0.0000000 0.0000000 0.0000000 field for delta impulse in time
 
 Orbital magnetization related:
   ORBITALMAG=     F  switch on orbital magnetization
   LCHIMAG   =     F  perturbation theory with respect to B field
   DQ        =  0.001000  dq finite difference perturbation B field
   LLRAUG    =     F  two centre corrections for induced B field



--------------------------------------------------------------------------------------------------------


 Static calculation
 charge density and potential will be updated during run
 non-spin polarized calculation
 Variant of blocked Davidson
 Davidson routine will perform the subspace rotation
 perform sub-space diagonalisation
    after iterative eigenvector-optimisation
 modified Broyden-mixing scheme, WC =      100.0
 initial mixing is a Kerker type mixing with AMIX =  0.4000 and BMIX =      1.0000
 Hartree-type preconditioning will be used
 using additional bands           80
 real space projection scheme for non local part
 use partial core corrections
 calculate Harris-corrections to forces 
   (improved forces if not selfconsistent)
 use gradient corrections 
 use of overlap-Matrix (Vanderbilt PP)
 Gauss-broadening in eV      SIGMA  =   0.20


--------------------------------------------------------------------------------------------------------


  energy-cutoff  :      450.00
  volume of cell :     2615.00
      direct lattice vectors                 reciprocal lattice vectors
    16.884694054  0.000000000  0.000000000     0.059225237  0.000000000  0.000000000
     0.000000000  9.578410000  0.000000000     0.000000000  0.104401461  0.000000000
     0.000000000  0.000000000 16.169087120     0.000000000  0.000000000  0.061846411

  length of vectors
    16.884694054  9.578410000 16.169087120     0.059225237  0.104401461  0.061846411


 
 k-points in units of 2pi/SCALE and weight: gamma-point-only calculation. no periodi
   0.00000000  0.00000000  0.00000000       1.000
 
 k-points in reciprocal lattice and weights: gamma-point-only calculation. no periodi
   0.00000000  0.00000000  0.00000000       1.000
 
 position of ions in fractional coordinates (direct lattice) 
   0.76292661  0.14529695  0.17527627
   0.82376543  0.14529695  0.32014991
   0.22563305  0.64529695  0.09284539
   0.29733029  0.64529695  0.21596896
   0.39479916  0.14529695  0.12537162
   0.46975828  0.14529695  0.24776362
   0.95247430  0.64529695  0.15237965
   0.96928956  0.64529695  0.31446746
   0.12490229  0.14529695  0.18417431
   0.05696904  0.14529695  0.31519804
   0.57251630  0.64529695  0.15834152
   0.64218627  0.64529695  0.27955828
   0.94232851  0.00342427  0.27323447
   0.39403478  0.51770889  0.03407711
   0.42486676  0.51319395  0.19076795
   0.46714079  0.46238198  0.33108353
   0.56653379  0.01723815  0.06558196
   0.59729475  0.01319395  0.22256260
   0.08001077  0.51319395  0.12717863
   0.11294992  0.49968271  0.29010067
   0.25243876  0.01319395  0.15897329
   0.29166877  0.97401542  0.30576628
   0.74679906  0.49748086  0.09958635
   0.76972274  0.51319395  0.25435726
   0.94232851  0.28716964  0.27323447
   0.39403478  0.77288502  0.03407711
   0.42486676  0.77739995  0.19076795
   0.46714079  0.82821193  0.33108353
   0.56653379  0.27335576  0.06558196
   0.59729475  0.27739995  0.22256260
   0.08001077  0.77739995  0.12717863
   0.11294992  0.79091120  0.29010067
   0.25243876  0.27739995  0.15897329
   0.29166877  0.31657849  0.30576628
   0.74679906  0.79311305  0.09958635
   0.76972274  0.77739995  0.25435726
   0.94264144  0.14529695  0.36918681
   0.00342159  0.14529695  0.19954727
   0.47417723  0.64529695  0.08702573
   0.50874518  0.64529695  0.27779368
   0.64660522  0.14529695  0.11882039
   0.68708023  0.14529695  0.27961044
   0.12008618  0.64529695  0.03483668
   0.16388920  0.64529695  0.21420436
   0.28884928  0.14529695  0.06603570
   0.33631719  0.14529695  0.24599902
   0.81903321  0.64529695  0.15061505
   0.84771455  0.64529695  0.31918250
   0.78189233  0.29907068  0.08610917
   0.82324167  0.31490079  0.24392276
   0.31177708  0.81351195  0.11911576
   0.35180169  0.79073351  0.29849986
   0.48420507  0.31351195  0.15091042
   0.52874724  0.28417295  0.32757169
   0.00148905  0.81351195  0.24629439
   0.97547910  0.79409726  0.06804953
   0.14034575  0.32292669  0.11046672
   0.17391704  0.31351195  0.27808905
   0.65663306  0.81351195  0.18270508
   0.69519179  0.79052402  0.35216044
   0.31177708  0.47708195  0.11911576
   0.35180169  0.49986039  0.29849986
   0.78189233  0.99152322  0.08610917
   0.82324167  0.97569311  0.24392276
   0.00148905  0.47708195  0.24629439
   0.97547910  0.49649665  0.06804953
   0.48420507  0.97708195  0.15091042
   0.52874724  0.00642095  0.32757169
   0.65663306  0.47708195  0.18270508
   0.69519179  0.50006989  0.35216044
   0.14034575  0.96766721  0.11046672
   0.17391704  0.97708195  0.27808905
 
 position of ions in cartesian coordinates  (Angst):
  12.88178239  1.39171380  2.83405723
  13.90902725  1.39171380  5.17653183
   3.80974502  6.18091880  1.50122527
   5.02033090  6.18091880  3.49202101
   6.66606301  1.39171380  2.02714466
   7.93172480  1.39171380  4.00611161
  16.08223715  6.18091880  2.46383984
  16.36615764  6.18091880  5.08465175
   2.10893700  1.39171380  2.97793043
   0.96190481  1.39171380  5.09646462
   9.66676254  6.18091880  2.56023783
  10.84311871  6.18091880  4.52020220
  15.91092859  0.03279904  4.41795201
   6.65315674  4.95882798  0.55099575
   7.17374517  4.91558210  3.08454355
   7.88752927  4.42888414  5.35331846
   9.56574979  0.16511406  1.06040035
  10.08513906  0.12637710  3.59863415
   1.35095736  4.91558210  2.05636238
   1.90712484  4.78616586  4.69066308
   4.26235126  0.12637710  2.57045296
   4.92473788  9.32951900  4.94396162
  12.60947370  4.76507562  1.61022031
  12.99653297  4.91558210  4.11272474
  15.91092859  2.75062855  4.41795201
   6.65315674  7.40300962  0.55099575
   7.17374517  7.44625549  3.08454355
   7.88752927  7.93295345  5.35331846
   9.56574980  2.61831354  1.06040036
  10.08513906  2.65705049  3.59863415
   1.35095736  7.44625549  2.05636238
   1.90712484  7.57567174  4.69066308
   4.26235126  2.65705049  2.57045296
   4.92473788  3.03231860  4.94396162
  12.60947370  7.59676198  1.61022032
  12.99653297  7.44625549  4.11272474
  15.91621234  1.39171380  5.96941367
   0.05777255  1.39171380  3.22649712
   8.00633741  6.18091880  1.40712661
   8.59000678  6.18091880  4.49167018
  10.91773131  1.39171380  1.92121721
  11.60113942  1.39171380  4.52104554
   2.02761838  6.18091880  0.56327731
   2.76721897  6.18091880  3.46348899
   4.87713169  1.39171380  1.06773696
   5.67861288  1.39171380  3.97757959
  13.82912522  6.18091880  2.43530780
  14.31340080  6.18091880  5.16088966
  13.20201282  2.86462164  1.39230664
  13.90018368  3.01624892  3.94400829
   5.26426054  7.79215104  1.92599312
   5.94006392  7.57396980  4.82647031
   8.17565445  3.00294604  2.44008371
   8.92773533  2.72192506  5.29653515
   0.02514210  7.79215104  3.98235548
  16.47066624  7.60618914  1.10029877
   2.36969502  3.09312427  1.78614594
   2.93653601  3.00294604  4.49644608
  11.08704836  7.79215104  2.95417429
  11.73810070  7.57196320  5.69411283
   5.26426054  4.56968656  1.92599312
   5.94006392  4.78786779  4.82647031
  13.20201282  9.49721595  1.39230664
  13.90018368  9.34558867  3.94400829
   0.02514210  4.56968656  3.98235548
  16.47066624  4.75564846  1.10029877
   8.17565445  9.35889156  2.44008371
   8.92773533  0.06150254  5.29653515
  11.08704836  4.56968656  2.95417429
  11.73810070  4.78987439  5.69411283
   2.36969502  9.26871332  1.78614594
   2.93653601  9.35889156  4.49644608
 


--------------------------------------------------------------------------------------------------------


 use parallel FFT for orbitals z direction half grid
 k-point  1 :   0.0000 0.0000 0.0000  plane waves:   28369

 maximum and minimum number of plane-waves per node :      4733     4722

 maximum number of plane-waves:     28369
 maximum index in each direction: 
   IXMAX=   29   IYMAX=   16   IZMAX=   27
   IXMIN=  -29   IYMIN=  -16   IZMIN=    0


 real space projection operators:
  total allocation   :      10070.44 KBytes
  max/ min on nodes  :       1685.64       1670.95


 parallel 3D FFT for wavefunctions:
    minimum data exchange during FFTs selected (reduces bandwidth)
 parallel 3D FFT for charge:
    minimum data exchange during FFTs selected (reduces bandwidth)


 total amount of memory used by VASP MPI-rank0    77170. kBytes
=======================================================================

   base      :      30000. kBytes
   nonlr-proj:       2061. kBytes
   fftplans  :       9935. kBytes
   grid      :      16773. kBytes
   one-center:         93. kBytes
   wavefun   :      18308. kBytes
 
     INWAV:  cpu time    0.0001: real time    0.0001
 Broyden mixing: mesh for mixing (old mesh)
   NGX = 59   NGY = 33   NGZ = 55
  (NGX  =180   NGY  =100   NGZ  =168)
  gives a total of 107085 points

 initial charge density was supplied:
 charge density of overlapping atoms calculated
 number of electron     792.0000000 magnetization 
 keeping initial charge density in first step


--------------------------------------------------------------------------------------------------------


 Maximum index for non-local projection operator          266
 Maximum index for augmentation-charges          427 (set IRDMAX)


--------------------------------------------------------------------------------------------------------


 First call to EWALD:  gamma=   0.129
 Maximum number of real-space cells 2x 4x 2
 Maximum number of reciprocal cells 3x 2x 3

    FEWALD:  cpu time    0.0050: real time    0.0050


--------------------------------------- Iteration      1(   1)  ---------------------------------------


    POTLOK:  cpu time    0.3272: real time    0.3272
    SETDIJ:  cpu time    0.0165: real time    0.0165
     EDDAV:  cpu time    8.5692: real time    8.5711
       DOS:  cpu time    0.0020: real time    0.0019
    --------------------------------------------
      LOOP:  cpu time    8.9148: real time    8.9167

 eigenvalue-minimisations  :  1176
 total energy-change (2. order) : 0.8868422E+04  (-0.5054700E+05)
 number of electron     792.0000000 magnetization 
 augmentation part      792.0000000 magnetization 

 Free energy of the ion-electron system (eV)
  ---------------------------------------------------
  alpha Z        PSCENC =      1422.52235994
  Ewald energy   TEWEN  =    145428.65953880
  -Hartree energ DENC   =   -265760.78505520
  -exchange      EXHF   =         0.00000000
  -V(xc)+E(xc)   XCENC  =      3679.06116329
  PAW double counting   =    112729.53333415  -117641.51188735
  entropy T*S    EENTRO =        -0.54565453
  eigenvalues    EBANDS =     -6991.11642851
  atomic energy  EATOM  =    136002.60505376
  Solvation  Ediel_sol  =         0.00000000
  ---------------------------------------------------
  free energy    TOTEN  =      8868.42242435 eV

  energy without entropy =     8868.96807888  energy(sigma->0) =     8868.69525162


--------------------------------------------------------------------------------------------------------




--------------------------------------- Iteration      1(   2)  ---------------------------------------


     EDDAV:  cpu time    7.4834: real time    7.4854
       DOS:  cpu time    0.0011: real time    0.0011
    --------------------------------------------
      LOOP:  cpu time    7.4846: real time    7.4865

 eigenvalue-minimisations  :  1020
 total energy-change (2. order) :-0.8388145E+04  (-0.8096896E+04)
 number of electron     792.0000000 magnetization 
 augmentation part      792.0000000 magnetization 

 Free energy of the ion-electron system (eV)
  ---------------------------------------------------
  alpha Z        PSCENC =      1422.52235994
  Ewald energy   TEWEN  =    145428.65953880
  -Hartree energ DENC   =   -265760.78505520
  -exchange      EXHF   =         0.00000000
  -V(xc)+E(xc)   XCENC  =      3679.06116329
  PAW double counting   =    112729.53333415  -117641.51188735
  entropy T*S    EENTRO =        -0.81061981
  eigenvalues    EBANDS =    -15378.99665925
  atomic energy  EATOM  =    136002.60505376
  Solvation  Ediel_sol  =         0.00000000
  ---------------------------------------------------
  free energy    TOTEN  =       480.27722833 eV

  energy without entropy =      481.08784814  energy(sigma->0) =      480.68253824


--------------------------------------------------------------------------------------------------------




--------------------------------------- Iteration      1(   3)  ---------------------------------------


     EDDAV:  cpu time    8.1941: real time    8.1959
       DOS:  cpu time    0.0012: real time    0.0012
    --------------------------------------------
      LOOP:  cpu time    8.1954: real time    8.1971

 eigenvalue-minimisations  :  1112
 total energy-change (2. order) :-0.8259755E+03  (-0.7933537E+03)
 number of electron     792.0000000 magnetization 
 augmentation part      792.0000000 magnetization 

 Free energy of the ion-electron system (eV)
  ---------------------------------------------------
  alpha Z        PSCENC =      1422.52235994
  Ewald energy   TEWEN  =    145428.65953880
  -Hartree energ DENC   =   -265760.78505520
  -exchange      EXHF   =         0.00000000
  -V(xc)+E(xc)   XCENC  =      3679.06116329
  PAW double counting   =    112729.53333415  -117641.51188735
  entropy T*S    EENTRO =        -1.14078478
  eigenvalues    EBANDS =    -16204.64198482
  atomic energy  EATOM  =    136002.60505376
  Solvation  Ediel_sol  =         0.00000000
  ---------------------------------------------------
  free energy    TOTEN  =      -345.69826221 eV

  energy without entropy =     -344.55747743  energy(sigma->0) =     -345.12786982


--------------------------------------------------------------------------------------------------------




--------------------------------------- Iteration      1(   4)  ---------------------------------------


     EDDAV:  cpu time    7.8925: real time    7.8938
       DOS:  cpu time    0.0011: real time    0.0011
    --------------------------------------------
      LOOP:  cpu time    7.8936: real time    7.8949

 eigenvalue-minimisations  :  1096
 total energy-change (2. order) :-0.4248135E+02  (-0.4201113E+02)
 number of electron     792.0000000 magnetization 
 augmentation part      792.0000000 magnetization 

 Free energy of the ion-electron system (eV)
  ---------------------------------------------------
  alpha Z        PSCENC =      1422.52235994
  Ewald energy   TEWEN  =    145428.65953880
  -Hartree energ DENC   =   -265760.78505520
  -exchange      EXHF   =         0.00000000
  -V(xc)+E(xc)   XCENC  =      3679.06116329
  PAW double counting   =    112729.53333415  -117641.51188735
  entropy T*S    EENTRO =        -1.18221665
  eigenvalues    EBANDS =    -16247.08190104
  atomic energy  EATOM  =    136002.60505376
  Solvation  Ediel_sol  =         0.00000000
  ---------------------------------------------------
  free energy    TOTEN  =      -388.17961029 eV

  energy without entropy =     -386.99739365  energy(sigma->0) =     -387.58850197


--------------------------------------------------------------------------------------------------------




--------------------------------------- Iteration      1(   5)  ---------------------------------------


     EDDAV:  cpu time    8.8942: real time    8.8957
       DOS:  cpu time    0.0012: real time    0.0012
    CHARGE:  cpu time    0.3021: real time    0.3021
    MIXING:  cpu time    0.0092: real time    0.0093
    --------------------------------------------
      LOOP:  cpu time    9.2068: real time    9.2083

 eigenvalue-minimisations  :  1232
 total energy-change (2. order) :-0.1543321E+01  (-0.1541176E+01)
 number of electron     791.9998498 magnetization 
 augmentation part      286.1074176 magnetization 

 Broyden mixing:
  rms(total) = 0.98368E+01    rms(broyden)= 0.98292E+01
  rms(prec ) = 0.10370E+02
  weight for this iteration     100.00

 Free energy of the ion-electron system (eV)
  ---------------------------------------------------
  alpha Z        PSCENC =      1422.52235994
  Ewald energy   TEWEN  =    145428.65953880
  -Hartree energ DENC   =   -265760.78505520
  -exchange      EXHF   =         0.00000000
  -V(xc)+E(xc)   XCENC  =      3679.06116329
  PAW double counting   =    112729.53333415  -117641.51188735
  entropy T*S    EENTRO =        -1.18300935
  eigenvalues    EBANDS =    -16248.62442916
  atomic energy  EATOM  =    136002.60505376
  Solvation  Ediel_sol  =         0.00000000
  ---------------------------------------------------
  free energy    TOTEN  =      -389.72293112 eV

  energy without entropy =     -388.53992177  energy(sigma->0) =     -389.13142644


--------------------------------------------------------------------------------------------------------




--------------------------------------- Iteration      1(   6)  ---------------------------------------


    POTLOK:  cpu time    0.3136: real time    0.3137
    SETDIJ:  cpu time    0.0194: real time    0.0194
     EDDAV:  cpu time    8.3891: real time    8.3907
       DOS:  cpu time    0.0011: real time    0.0011
    CHARGE:  cpu time    0.2990: real time    0.2991
    MIXING:  cpu time    0.0098: real time    0.0098
    --------------------------------------------
      LOOP:  cpu time    9.0320: real time    9.0337

 eigenvalue-minimisations  :  1192
 total energy-change (2. order) :-0.7050989E+02  (-0.1001166E+03)
 number of electron     791.9998048 magnetization 
 augmentation part      348.4957184 magnetization 

 Broyden mixing:
  rms(total) = 0.16320E+02    rms(broyden)= 0.16318E+02
  rms(prec ) = 0.17057E+02
  weight for this iteration     100.00

 eigenvalues of (default mixing * dielectric matrix)
  average eigenvalue GAMMA=   0.2237
  0.2237

 Free energy of the ion-electron system (eV)
  ---------------------------------------------------
  alpha Z        PSCENC =      1422.52235994
  Ewald energy   TEWEN  =    145428.65953880
  -Hartree energ DENC   =   -263141.43301312
  -exchange      EXHF   =         0.00000000
  -V(xc)+E(xc)   XCENC  =      3605.33009721
  PAW double counting   =    117813.41170171  -122492.83111090
  entropy T*S    EENTRO =        -0.83694164
  eigenvalues    EBANDS =    -19097.66051050
  atomic energy  EATOM  =    136002.60505376
  Solvation  Ediel_sol  =         0.00000000
  ---------------------------------------------------
  free energy    TOTEN  =      -460.23282474 eV

  energy without entropy =     -459.39588310  energy(sigma->0) =     -459.81435392


--------------------------------------------------------------------------------------------------------




--------------------------------------- Iteration      1(   7)  ---------------------------------------


    POTLOK:  cpu time    0.4034: real time    0.4036
    SETDIJ:  cpu time    0.0370: real time    0.0370
     EDDAV:  cpu time    8.0512: real time    8.0526
       DOS:  cpu time    0.0013: real time    0.0013
    CHARGE:  cpu time    0.3063: real time    0.3064
    MIXING:  cpu time    0.0099: real time    0.0099
    --------------------------------------------
      LOOP:  cpu time    8.8092: real time    8.8109

 eigenvalue-minimisations  :  1120
 total energy-change (2. order) : 0.1027366E+03  (-0.1929342E+02)
 number of electron     791.9998204 magnetization 
 augmentation part      331.1016099 magnetization 

 Broyden mixing:
  rms(total) = 0.70614E+01    rms(broyden)= 0.70607E+01
  rms(prec ) = 0.74396E+01
  weight for this iteration     100.00

 eigenvalues of (default mixing * dielectric matrix)
  average eigenvalue GAMMA=   0.5849
  0.6739  0.4959

 Free energy of the ion-electron system (eV)
  ---------------------------------------------------
  alpha Z        PSCENC =      1422.52235994
  Ewald energy   TEWEN  =    145428.65953880
  -Hartree energ DENC   =   -264224.35990347
  -exchange      EXHF   =         0.00000000
  -V(xc)+E(xc)   XCENC  =      3632.35320501
  PAW double counting   =    122458.54229096  -127281.79347043
  entropy T*S    EENTRO =        -1.02077557
  eigenvalues    EBANDS =    -17795.00453608
  atomic energy  EATOM  =    136002.60505376
  Solvation  Ediel_sol  =         0.00000000
  ---------------------------------------------------
  free energy    TOTEN  =      -357.49623708 eV

  energy without entropy =     -356.47546152  energy(sigma->0) =     -356.98584930


--------------------------------------------------------------------------------------------------------




--------------------------------------- Iteration      1(   8)  ---------------------------------------


    POTLOK:  cpu time    0.3126: real time    0.3126
    SETDIJ:  cpu time    0.0167: real time    0.0167
     EDDAV:  cpu time    9.3483: real time    9.3500
       DOS:  cpu time    0.0013: real time    0.0012
    CHARGE:  cpu time    0.3213: real time    0.3216
    MIXING:  cpu time    0.0125: real time    0.0125
    --------------------------------------------
      LOOP:  cpu time   10.0127: real time   10.0147

 eigenvalue-minimisations  :  1328
 total energy-change (2. order) :-0.1140624E+02  (-0.2232796E+02)
 number of electron     791.9998244 magnetization 
 augmentation part      304.4310661 magnetization 

 Broyden mixing:
  rms(total) = 0.10067E+02    rms(broyden)= 0.10064E+02
  rms(prec ) = 0.11743E+02
  weight for this iteration     100.00

 eigenvalues of (default mixing * dielectric matrix)
  average eigenvalue GAMMA=   0.4990
  0.8990  0.4116  0.1863

 Free energy of the ion-electron system (eV)
  ---------------------------------------------------
  alpha Z        PSCENC =      1422.52235994
  Ewald energy   TEWEN  =    145428.65953880
  -Hartree energ DENC   =   -265230.33977125
  -exchange      EXHF   =         0.00000000
  -V(xc)+E(xc)   XCENC  =      3658.04125108
  PAW double counting   =    131619.83370429  -136581.05324511
  entropy T*S    EENTRO =        -0.93059306
  eigenvalues    EBANDS =    -16688.24077679
  atomic energy  EATOM  =    136002.60505376
  Solvation  Ediel_sol  =         0.00000000
  ---------------------------------------------------
  free energy    TOTEN  =      -368.90247835 eV

  energy without entropy =     -367.97188529  energy(sigma->0) =     -368.43718182


--------------------------------------------------------------------------------------------------------




--------------------------------------- Iteration      1(   9)  ---------------------------------------


    POTLOK:  cpu time    0.3128: real time    0.3128
    SETDIJ:  cpu time    0.0168: real time    0.0168
     EDDAV:  cpu time    8.8061: real time    8.8075
       DOS:  cpu time    0.0012: real time    0.0012
    CHARGE:  cpu time    0.3032: real time    0.3032
    MIXING:  cpu time    0.0109: real time    0.0109
    --------------------------------------------
      LOOP:  cpu time    9.4510: real time    9.4524

 eigenvalue-minimisations  :  1232
 total energy-change (2. order) : 0.1613362E+02  (-0.1079536E+02)
 number of electron     791.9998458 magnetization 
 augmentation part      304.6322426 magnetization 

 Broyden mixing:
  rms(total) = 0.46580E+01    rms(broyden)= 0.46548E+01
  rms(prec ) = 0.51837E+01
  weight for this iteration     100.00

 eigenvalues of (default mixing * dielectric matrix)
  average eigenvalue GAMMA=   0.6569
  1.6452  0.4251  0.4251  0.1323

 Free energy of the ion-electron system (eV)
  ---------------------------------------------------
  alpha Z        PSCENC =      1422.52235994
  Ewald energy   TEWEN  =    145428.65953880
  -Hartree energ DENC   =   -265228.23342988
  -exchange      EXHF   =         0.00000000
  -V(xc)+E(xc)   XCENC  =      3657.74910957
  PAW double counting   =    133742.05877809  -138716.61102874
  entropy T*S    EENTRO =        -1.06661355
  eigenvalues    EBANDS =    -16660.45262608
  atomic energy  EATOM  =    136002.60505376
  Solvation  Ediel_sol  =         0.00000000
  ---------------------------------------------------
  free energy    TOTEN  =      -352.76885810 eV

  energy without entropy =     -351.70224454  energy(sigma->0) =     -352.23555132


--------------------------------------------------------------------------------------------------------




--------------------------------------- Iteration      1(  10)  ---------------------------------------


    POTLOK:  cpu time    0.3116: real time    0.3118
    SETDIJ:  cpu time    0.0167: real time    0.0167
     EDDAV:  cpu time    9.0347: real time    9.0360
       DOS:  cpu time    0.0013: real time    0.0013
    CHARGE:  cpu time    0.3049: real time    0.3049
    MIXING:  cpu time    0.0111: real time    0.0111
    --------------------------------------------
      LOOP:  cpu time    9.6803: real time    9.6818

 eigenvalue-minimisations  :  1312
 total energy-change (2. order) :-0.1779654E+02  (-0.7005386E+01)
 number of electron     791.9998284 magnetization 
 augmentation part      301.8436403 magnetization 

 Broyden mixing:
  rms(total) = 0.97126E+01    rms(broyden)= 0.97098E+01
  rms(prec ) = 0.11557E+02
  weight for this iteration     100.00

 eigenvalues of (default mixing * dielectric matrix)
  average eigenvalue GAMMA=   0.6553
  2.1225  0.4395  0.4395  0.1376  0.1376

 Free energy of the ion-electron system (eV)
  ---------------------------------------------------
  alpha Z        PSCENC =      1422.52235994
  Ewald energy   TEWEN  =    145428.65953880
  -Hartree energ DENC   =   -265165.50326139
  -exchange      EXHF   =         0.00000000
  -V(xc)+E(xc)   XCENC  =      3655.42348004
  PAW double counting   =    138997.90902063  -144000.34972405
  entropy T*S    EENTRO =        -1.26000351
  eigenvalues    EBANDS =    -16710.57186268
  atomic energy  EATOM  =    136002.60505376
  Solvation  Ediel_sol  =         0.00000000
  ---------------------------------------------------
  free energy    TOTEN  =      -370.56539847 eV

  energy without entropy =     -369.30539496  energy(sigma->0) =     -369.93539671


--------------------------------------------------------------------------------------------------------




--------------------------------------- Iteration      1(  11)  ---------------------------------------


    POTLOK:  cpu time    0.3165: real time    0.3165
    SETDIJ:  cpu time    0.0370: real time    0.0370
     EDDAV:  cpu time    9.2069: real time    9.2086
       DOS:  cpu time    0.0013: real time    0.0013
    CHARGE:  cpu time    0.2939: real time    0.2939
    MIXING:  cpu time    0.0119: real time    0.0119
    --------------------------------------------
      LOOP:  cpu time    9.8675: real time    9.8692

 eigenvalue-minimisations  :  1304
 total energy-change (2. order) : 0.2062827E+02  (-0.5656910E+01)
 number of electron     791.9998435 magnetization 
 augmentation part      310.6486441 magnetization 

 Broyden mixing:
  rms(total) = 0.40210E+01    rms(broyden)= 0.40171E+01
  rms(prec ) = 0.46794E+01
  weight for this iteration     100.00

 eigenvalues of (default mixing * dielectric matrix)
  average eigenvalue GAMMA=   0.6092
  2.2110  0.4375  0.4375  0.3168  0.1262  0.1262

 Free energy of the ion-electron system (eV)
  ---------------------------------------------------
  alpha Z        PSCENC =      1422.52235994
  Ewald energy   TEWEN  =    145428.65953880
  -Hartree energ DENC   =   -265003.18748844
  -exchange      EXHF   =         0.00000000
  -V(xc)+E(xc)   XCENC  =      3650.74515044
  PAW double counting   =    142524.40648412  -147534.49434788
  entropy T*S    EENTRO =        -1.00996126
  eigenvalues    EBANDS =    -16840.18392242
  atomic energy  EATOM  =    136002.60505376
  Solvation  Ediel_sol  =         0.00000000
  ---------------------------------------------------
  free energy    TOTEN  =      -349.93713295 eV

  energy without entropy =     -348.92717169  energy(sigma->0) =     -349.43215232


--------------------------------------------------------------------------------------------------------




--------------------------------------- Iteration      1(  12)  ---------------------------------------


    POTLOK:  cpu time    0.3156: real time    0.3156
    SETDIJ:  cpu time    0.0167: real time    0.0167
     EDDAV:  cpu time    9.3580: real time    9.3597
       DOS:  cpu time    0.0013: real time    0.0013
    CHARGE:  cpu time    0.3017: real time    0.3017
    MIXING:  cpu time    0.0124: real time    0.0124
    --------------------------------------------
      LOOP:  cpu time   10.0058: real time   10.0076

 eigenvalue-minimisations  :  1320
 total energy-change (2. order) : 0.3836486E+01  (-0.2285074E+01)
 number of electron     791.9998355 magnetization 
 augmentation part      311.8734621 magnetization 

 Broyden mixing:
  rms(total) = 0.37155E+01    rms(broyden)= 0.37126E+01
  rms(prec ) = 0.44376E+01
  weight for this iteration     100.00

 eigenvalues of (default mixing * dielectric matrix)
  average eigenvalue GAMMA=   0.5942
  2.2038  0.6015  0.4769  0.4769  0.1486  0.1257  0.1257

 Free energy of the ion-electron system (eV)
  ---------------------------------------------------
  alpha Z        PSCENC =      1422.52235994
  Ewald energy   TEWEN  =    145428.65953880
  -Hartree energ DENC   =   -264981.32654803
  -exchange      EXHF   =         0.00000000
  -V(xc)+E(xc)   XCENC  =      3650.02385023
  PAW double counting   =    143124.22178539  -148136.96069723
  entropy T*S    EENTRO =        -1.16691403
  eigenvalues    EBANDS =    -16854.67907576
  atomic energy  EATOM  =    136002.60505376
  Solvation  Ediel_sol  =         0.00000000
  ---------------------------------------------------
  free energy    TOTEN  =      -346.10064693 eV

  energy without entropy =     -344.93373289  energy(sigma->0) =     -345.51718991


--------------------------------------------------------------------------------------------------------




--------------------------------------- Iteration      1(  13)  ---------------------------------------


    POTLOK:  cpu time    0.3113: real time    0.3113
    SETDIJ:  cpu time    0.0178: real time    0.0178
     EDDAV:  cpu time    9.1567: real time    9.1581
       DOS:  cpu time    0.0013: real time    0.0013
    CHARGE:  cpu time    0.2985: real time    0.2986
    MIXING:  cpu time    0.0130: real time    0.0130
    --------------------------------------------
      LOOP:  cpu time    9.7987: real time    9.8001

 eigenvalue-minimisations  :  1288
 total energy-change (2. order) : 0.3017327E+01  (-0.2581744E+01)
 number of electron     791.9998407 magnetization 
 augmentation part      313.0429212 magnetization 

 Broyden mixing:
  rms(total) = 0.26127E+01    rms(broyden)= 0.26111E+01
  rms(prec ) = 0.31405E+01
  weight for this iteration     100.00

 eigenvalues of (default mixing * dielectric matrix)
  average eigenvalue GAMMA=   0.5521
  2.1786  0.6712  0.4828  0.4828  0.2101  0.1325  0.1325  0.1260

 Free energy of the ion-electron system (eV)
  ---------------------------------------------------
  alpha Z        PSCENC =      1422.52235994
  Ewald energy   TEWEN  =    145428.65953880
  -Hartree energ DENC   =   -264995.15512550
  -exchange      EXHF   =         0.00000000
  -V(xc)+E(xc)   XCENC  =      3649.61192540
  PAW double counting   =    142956.57449479  -147968.44570888
  entropy T*S    EENTRO =        -0.94680153
  eigenvalues    EBANDS =    -16838.50905707
  atomic energy  EATOM  =    136002.60505376
  Solvation  Ediel_sol  =         0.00000000
  ---------------------------------------------------
  free energy    TOTEN  =      -343.08332030 eV

  energy without entropy =     -342.13651877  energy(sigma->0) =     -342.60991954


--------------------------------------------------------------------------------------------------------




--------------------------------------- Iteration      1(  14)  ---------------------------------------


    POTLOK:  cpu time    0.3135: real time    0.3138
    SETDIJ:  cpu time    0.0177: real time    0.0178
     EDDAV:  cpu time    9.4823: real time    9.4850
       DOS:  cpu time    0.0014: real time    0.0014
    CHARGE:  cpu time    0.3037: real time    0.3038
    MIXING:  cpu time    0.0130: real time    0.0130
    --------------------------------------------
      LOOP:  cpu time   10.1317: real time   10.1348

 eigenvalue-minimisations  :  1352
 total energy-change (2. order) : 0.3765872E+01  (-0.5278923E+00)
 number of electron     791.9998369 magnetization 
 augmentation part      312.7543376 magnetization 

 Broyden mixing:
  rms(total) = 0.16270E+01    rms(broyden)= 0.16262E+01
  rms(prec ) = 0.18912E+01
  weight for this iteration     100.00

 eigenvalues of (default mixing * dielectric matrix)
  average eigenvalue GAMMA=   0.5520
  2.1448  0.6684  0.6684  0.4485  0.4485  0.1725  0.1619  0.1274  0.1274

 Free energy of the ion-electron system (eV)
  ---------------------------------------------------
  alpha Z        PSCENC =      1422.52235994
  Ewald energy   TEWEN  =    145428.65953880
  -Hartree energ DENC   =   -265021.30556921
  -exchange      EXHF   =         0.00000000
  -V(xc)+E(xc)   XCENC  =      3650.20610488
  PAW double counting   =    142675.98208903  -147688.50046812
  entropy T*S    EENTRO =        -0.99965422
  eigenvalues    EBANDS =    -16808.48690277
  atomic energy  EATOM  =    136002.60505376
  Solvation  Ediel_sol  =         0.00000000
  ---------------------------------------------------
  free energy    TOTEN  =      -339.31744793 eV

  energy without entropy =     -338.31779371  energy(sigma->0) =     -338.81762082


--------------------------------------------------------------------------------------------------------




--------------------------------------- Iteration      1(  15)  ---------------------------------------


    POTLOK:  cpu time    0.3156: real time    0.3156
    SETDIJ:  cpu time    0.0167: real time    0.0167
     EDDAV:  cpu time    9.0791: real time    9.0820
       DOS:  cpu time    0.0013: real time    0.0013
    CHARGE:  cpu time    0.4941: real time    0.4941
    MIXING:  cpu time    0.0272: real time    0.0272
    --------------------------------------------
      LOOP:  cpu time    9.9340: real time    9.9369

 eigenvalue-minimisations  :  1312
 total energy-change (2. order) : 0.2685757E+00  (-0.3047990E+00)
 number of electron     791.9998366 magnetization 
 augmentation part      312.6522577 magnetization 

 Broyden mixing:
  rms(total) = 0.14857E+01    rms(broyden)= 0.14851E+01
  rms(prec ) = 0.18332E+01
  weight for this iteration     100.00

 eigenvalues of (default mixing * dielectric matrix)
  average eigenvalue GAMMA=   0.5396
  2.0952  0.8202  0.8202  0.4507  0.4507  0.2070  0.1295  0.1295  0.1358  0.1572

 Free energy of the ion-electron system (eV)
  ---------------------------------------------------
  alpha Z        PSCENC =      1422.52235994
  Ewald energy   TEWEN  =    145428.65953880
  -Hartree energ DENC   =   -265033.67116861
  -exchange      EXHF   =         0.00000000
  -V(xc)+E(xc)   XCENC  =      3650.65919616
  PAW double counting   =    142369.80347438  -147380.36905728
  entropy T*S    EENTRO =        -1.09366823
  eigenvalues    EBANDS =    -16798.16460111
  atomic energy  EATOM  =    136002.60505376
  Solvation  Ediel_sol  =         0.00000000
  ---------------------------------------------------
  free energy    TOTEN  =      -339.04887221 eV

  energy without entropy =     -337.95520398  energy(sigma->0) =     -338.50203810


--------------------------------------------------------------------------------------------------------




--------------------------------------- Iteration      1(  16)  ---------------------------------------


    POTLOK:  cpu time    0.3240: real time    0.3243
    SETDIJ:  cpu time    0.0173: real time    0.0173
     EDDAV:  cpu time    8.7273: real time    8.7289
       DOS:  cpu time    0.0014: real time    0.0014
    CHARGE:  cpu time    0.3069: real time    0.3069
    MIXING:  cpu time    0.0148: real time    0.0148
    --------------------------------------------
      LOOP:  cpu time    9.3917: real time    9.3935

 eigenvalue-minimisations  :  1256
 total energy-change (2. order) : 0.8259780E+00  (-0.1534607E+00)
 number of electron     791.9998355 magnetization 
 augmentation part      312.2777338 magnetization 

 Broyden mixing:
  rms(total) = 0.99008E+00    rms(broyden)= 0.98954E+00
  rms(prec ) = 0.11575E+01
  weight for this iteration     100.00

 eigenvalues of (default mixing * dielectric matrix)
  average eigenvalue GAMMA=   0.5555
  2.0962  0.9823  0.9823  0.4527  0.4527  0.3964  0.1956  0.1290  0.1290  0.1472
  0.1472

 Free energy of the ion-electron system (eV)
  ---------------------------------------------------
  alpha Z        PSCENC =      1422.52235994
  Ewald energy   TEWEN  =    145428.65953880
  -Hartree energ DENC   =   -265054.27951038
  -exchange      EXHF   =         0.00000000
  -V(xc)+E(xc)   XCENC  =      3650.93498703
  PAW double counting   =    142048.55411230  -147056.30970349
  entropy T*S    EENTRO =        -1.06204575
  eigenvalues    EBANDS =    -16779.84768639
  atomic energy  EATOM  =    136002.60505376
  Solvation  Ediel_sol  =         0.00000000
  ---------------------------------------------------
  free energy    TOTEN  =      -338.22289419 eV

  energy without entropy =     -337.16084844  energy(sigma->0) =     -337.69187132


--------------------------------------------------------------------------------------------------------




--------------------------------------- Iteration      1(  17)  ---------------------------------------


    POTLOK:  cpu time    0.3166: real time    0.3166
    SETDIJ:  cpu time    0.0167: real time    0.0167
     EDDAV:  cpu time    9.2653: real time    9.2673
       DOS:  cpu time    0.0012: real time    0.0012
    CHARGE:  cpu time    0.3080: real time    0.3081
    MIXING:  cpu time    0.0148: real time    0.0148
    --------------------------------------------
      LOOP:  cpu time    9.9227: real time    9.9247

 eigenvalue-minimisations  :  1312
 total energy-change (2. order) : 0.1338213E+00  (-0.7288546E-01)
 number of electron     791.9998349 magnetization 
 augmentation part      311.9180442 magnetization 

 Broyden mixing:
  rms(total) = 0.95760E+00    rms(broyden)= 0.95725E+00
  rms(prec ) = 0.11863E+01
  weight for this iteration     100.00

 eigenvalues of (default mixing * dielectric matrix)
  average eigenvalue GAMMA=   0.5646
  2.1180  1.1535  1.1535  0.5090  0.4694  0.4694  0.2040  0.1281  0.1281  0.1560
  0.1560  0.1306

 Free energy of the ion-electron system (eV)
  ---------------------------------------------------
  alpha Z        PSCENC =      1422.52235994
  Ewald energy   TEWEN  =    145428.65953880
  -Hartree energ DENC   =   -265069.96615283
  -exchange      EXHF   =         0.00000000
  -V(xc)+E(xc)   XCENC  =      3651.13582443
  PAW double counting   =    141820.71088370  -146825.70274237
  entropy T*S    EENTRO =        -1.11412396
  eigenvalues    EBANDS =    -16766.93971434
  atomic energy  EATOM  =    136002.60505376
  Solvation  Ediel_sol  =         0.00000000
  ---------------------------------------------------
  free energy    TOTEN  =      -338.08907287 eV

  energy without entropy =     -336.97494891  energy(sigma->0) =     -337.53201089


--------------------------------------------------------------------------------------------------------




--------------------------------------- Iteration      1(  18)  ---------------------------------------


    POTLOK:  cpu time    0.3135: real time    0.3135
    SETDIJ:  cpu time    0.0167: real time    0.0167
     EDDAV:  cpu time    8.8809: real time    8.8828
       DOS:  cpu time    0.0012: real time    0.0012
    CHARGE:  cpu time    0.2988: real time    0.2988
    MIXING:  cpu time    0.0153: real time    0.0153
    --------------------------------------------
      LOOP:  cpu time    9.5263: real time    9.5282

 eigenvalue-minimisations  :  1232
 total energy-change (2. order) : 0.1859773E+00  (-0.5195853E-01)
 number of electron     791.9998347 magnetization 
 augmentation part      311.6808314 magnetization 

 Broyden mixing:
  rms(total) = 0.77495E+00    rms(broyden)= 0.77463E+00
  rms(prec ) = 0.90098E+00
  weight for this iteration     100.00

 eigenvalues of (default mixing * dielectric matrix)
  average eigenvalue GAMMA=   0.5789
  2.1118  1.3517  1.3517  0.4904  0.4904  0.4818  0.3716  0.1914  0.1289  0.1289
  0.1510  0.1510  0.1247

 Free energy of the ion-electron system (eV)
  ---------------------------------------------------
  alpha Z        PSCENC =      1422.52235994
  Ewald energy   TEWEN  =    145428.65953880
  -Hartree energ DENC   =   -265084.62459057
  -exchange      EXHF   =         0.00000000
  -V(xc)+E(xc)   XCENC  =      3651.16272617
  PAW double counting   =    141654.25814626  -146656.50362502
  entropy T*S    EENTRO =        -1.10035849
  eigenvalues    EBANDS =    -16754.88234638
  atomic energy  EATOM  =    136002.60505376
  Solvation  Ediel_sol  =         0.00000000
  ---------------------------------------------------
  free energy    TOTEN  =      -337.90309553 eV

  energy without entropy =     -336.80273705  energy(sigma->0) =     -337.35291629


--------------------------------------------------------------------------------------------------------




--------------------------------------- Iteration      1(  19)  ---------------------------------------


    POTLOK:  cpu time    0.3186: real time    0.3187
    SETDIJ:  cpu time    0.0167: real time    0.0167
     EDDAV:  cpu time    9.1850: real time    9.1873
       DOS:  cpu time    0.0011: real time    0.0011
    CHARGE:  cpu time    0.3031: real time    0.3031
    MIXING:  cpu time    0.0161: real time    0.0161
    --------------------------------------------
      LOOP:  cpu time    9.8406: real time    9.8430

 eigenvalue-minimisations  :  1304
 total energy-change (2. order) : 0.1180493E+00  (-0.4015858E-01)
 number of electron     791.9998348 magnetization 
 augmentation part      311.7382375 magnetization 

 Broyden mixing:
  rms(total) = 0.70626E+00    rms(broyden)= 0.70599E+00
  rms(prec ) = 0.83715E+00
  weight for this iteration     100.00

 eigenvalues of (default mixing * dielectric matrix)
  average eigenvalue GAMMA=   0.6133
  2.1391  1.6163  1.6163  0.6235  0.6235  0.4596  0.4596  0.2114  0.1288  0.1288
  0.1573  0.1526  0.1526  0.1162

 Free energy of the ion-electron system (eV)
  ---------------------------------------------------
  alpha Z        PSCENC =      1422.52235994
  Ewald energy   TEWEN  =    145428.65953880
  -Hartree energ DENC   =   -265096.32466282
  -exchange      EXHF   =         0.00000000
  -V(xc)+E(xc)   XCENC  =      3651.10449283
  PAW double counting   =    141374.72137542  -146373.05502750
  entropy T*S    EENTRO =        -1.10827992
  eigenvalues    EBANDS =    -16746.90989675
  atomic energy  EATOM  =    136002.60505376
  Solvation  Ediel_sol  =         0.00000000
  ---------------------------------------------------
  free energy    TOTEN  =      -337.78504625 eV

  energy without entropy =     -336.67676633  energy(sigma->0) =     -337.23090629


--------------------------------------------------------------------------------------------------------




--------------------------------------- Iteration      1(  20)  ---------------------------------------


    POTLOK:  cpu time    0.3191: real time    0.3191
    SETDIJ:  cpu time    0.0167: real time    0.0167
     EDDAV:  cpu time    8.9651: real time    8.9669
       DOS:  cpu time    0.0012: real time    0.0012
    CHARGE:  cpu time    0.2959: real time    0.2959
    MIXING:  cpu time    0.0176: real time    0.0176
    --------------------------------------------
      LOOP:  cpu time    9.6156: real time    9.6174

 eigenvalue-minimisations  :  1296
 total energy-change (2. order) : 0.2096973E+00  (-0.2904047E-01)
 number of electron     791.9998341 magnetization 
 augmentation part      311.9754613 magnetization 

 Broyden mixing:
  rms(total) = 0.39757E+00    rms(broyden)= 0.39720E+00
  rms(prec ) = 0.46184E+00
  weight for this iteration     100.00

 eigenvalues of (default mixing * dielectric matrix)
  average eigenvalue GAMMA=   0.6173
  2.0749  1.7359  1.7359  0.7123  0.7123  0.4575  0.4575  0.3411  0.1822  0.1822
  0.1287  0.1287  0.1470  0.1470  0.1169

 Free energy of the ion-electron system (eV)
  ---------------------------------------------------
  alpha Z        PSCENC =      1422.52235994
  Ewald energy   TEWEN  =    145428.65953880
  -Hartree energ DENC   =   -265111.85126330
  -exchange      EXHF   =         0.00000000
  -V(xc)+E(xc)   XCENC  =      3651.06963666
  PAW double counting   =    140997.39332143  -145990.47808207
  entropy T*S    EENTRO =        -1.12007877
  eigenvalues    EBANDS =    -16736.37583538
  atomic energy  EATOM  =    136002.60505376
  Solvation  Ediel_sol  =         0.00000000
  ---------------------------------------------------
  free energy    TOTEN  =      -337.57534894 eV

  energy without entropy =     -336.45527017  energy(sigma->0) =     -337.01530955


--------------------------------------------------------------------------------------------------------




--------------------------------------- Iteration      1(  21)  ---------------------------------------


    POTLOK:  cpu time    0.3188: real time    0.3188
    SETDIJ:  cpu time    0.0177: real time    0.0177
     EDDAV:  cpu time    9.2508: real time    9.2527
       DOS:  cpu time    0.0012: real time    0.0012
    CHARGE:  cpu time    0.2959: real time    0.2960
    MIXING:  cpu time    0.0185: real time    0.0185
    --------------------------------------------
      LOOP:  cpu time    9.9028: real time    9.9048

 eigenvalue-minimisations  :  1304
 total energy-change (2. order) : 0.2948454E-01  (-0.2118885E-01)
 number of electron     791.9998332 magnetization 
 augmentation part      311.8412414 magnetization 

 Broyden mixing:
  rms(total) = 0.32189E+00    rms(broyden)= 0.32161E+00
  rms(prec ) = 0.37161E+00
  weight for this iteration     100.00

 eigenvalues of (default mixing * dielectric matrix)
  average eigenvalue GAMMA=   0.6124
  1.8369  1.8369  1.5516  0.9854  0.9854  0.4623  0.4623  0.4530  0.2106  0.1288
  0.1288  0.1763  0.1673  0.1485  0.1485  0.1157

 Free energy of the ion-electron system (eV)
  ---------------------------------------------------
  alpha Z        PSCENC =      1422.52235994
  Ewald energy   TEWEN  =    145428.65953880
  -Hartree energ DENC   =   -265132.88608113
  -exchange      EXHF   =         0.00000000
  -V(xc)+E(xc)   XCENC  =      3651.20868109
  PAW double counting   =    140656.67102585  -145646.37069691
  entropy T*S    EENTRO =        -1.13576808
  eigenvalues    EBANDS =    -16718.81997771
  atomic energy  EATOM  =    136002.60505376
  Solvation  Ediel_sol  =         0.00000000
  ---------------------------------------------------
  free energy    TOTEN  =      -337.54586440 eV

  energy without entropy =     -336.41009632  energy(sigma->0) =     -336.97798036


--------------------------------------------------------------------------------------------------------




--------------------------------------- Iteration      1(  22)  ---------------------------------------


    POTLOK:  cpu time    0.3211: real time    0.3212
    SETDIJ:  cpu time    0.0168: real time    0.0168
     EDDAV:  cpu time    9.0835: real time    9.0851
       DOS:  cpu time    0.0013: real time    0.0013
    CHARGE:  cpu time    0.3043: real time    0.3044
    MIXING:  cpu time    0.0194: real time    0.0194
    --------------------------------------------
      LOOP:  cpu time    9.7465: real time    9.7483

 eigenvalue-minimisations  :  1280
 total energy-change (2. order) : 0.2750150E-01  (-0.1442870E-01)
 number of electron     791.9998329 magnetization 
 augmentation part      311.8831439 magnetization 

 Broyden mixing:
  rms(total) = 0.24731E+00    rms(broyden)= 0.24713E+00
  rms(prec ) = 0.29105E+00
  weight for this iteration     100.00

 eigenvalues of (default mixing * dielectric matrix)
  average eigenvalue GAMMA=   0.6109
  2.1081  2.1081  1.1076  1.1076  1.0329  0.4658  0.4658  0.3954  0.3954  0.1959
  0.1288  0.1288  0.1687  0.1687  0.1454  0.1454  0.1165

 Free energy of the ion-electron system (eV)
  ---------------------------------------------------
  alpha Z        PSCENC =      1422.52235994
  Ewald energy   TEWEN  =    145428.65953880
  -Hartree energ DENC   =   -265149.60042992
  -exchange      EXHF   =         0.00000000
  -V(xc)+E(xc)   XCENC  =      3651.24873016
  PAW double counting   =    140419.21983447  -145406.77480236
  entropy T*S    EENTRO =        -1.13987373
  eigenvalues    EBANDS =    -16704.25877400
  atomic energy  EATOM  =    136002.60505376
  Solvation  Ediel_sol  =         0.00000000
  ---------------------------------------------------
  free energy    TOTEN  =      -337.51836290 eV

  energy without entropy =     -336.37848916  energy(sigma->0) =     -336.94842603


--------------------------------------------------------------------------------------------------------




--------------------------------------- Iteration      1(  23)  ---------------------------------------


    POTLOK:  cpu time    0.3177: real time    0.3177
    SETDIJ:  cpu time    0.0167: real time    0.0167
     EDDAV:  cpu time    9.1321: real time    9.1338
       DOS:  cpu time    0.0013: real time    0.0013
    CHARGE:  cpu time    0.3012: real time    0.3012
    MIXING:  cpu time    0.0190: real time    0.0190
    --------------------------------------------
      LOOP:  cpu time    9.7879: real time    9.7896

 eigenvalue-minimisations  :  1288
 total energy-change (2. order) :-0.9390827E-02  (-0.8345581E-02)
 number of electron     791.9998328 magnetization 
 augmentation part      311.8631800 magnetization 

 Broyden mixing:
  rms(total) = 0.26400E+00    rms(broyden)= 0.26388E+00
  rms(prec ) = 0.31029E+00
  weight for this iteration     100.00

 eigenvalues of (default mixing * dielectric matrix)
  average eigenvalue GAMMA=   0.6338
  2.2624  2.2624  1.3013  1.3013  0.8142  0.6296  0.5352  0.4667  0.4667  0.2082
  0.1288  0.1288  0.1743  0.1743  0.1162  0.1476  0.1476  0.1425

 Free energy of the ion-electron system (eV)
  ---------------------------------------------------
  alpha Z        PSCENC =      1422.52235994
  Ewald energy   TEWEN  =    145428.65953880
  -Hartree energ DENC   =   -265157.15152532
  -exchange      EXHF   =         0.00000000
  -V(xc)+E(xc)   XCENC  =      3651.29928425
  PAW double counting   =    140342.30368162  -145329.62503820
  entropy T*S    EENTRO =        -1.13006360
  eigenvalues    EBANDS =    -16697.01104496
  atomic energy  EATOM  =    136002.60505376
  Solvation  Ediel_sol  =         0.00000000
  ---------------------------------------------------
  free energy    TOTEN  =      -337.52775372 eV

  energy without entropy =     -336.39769012  energy(sigma->0) =     -336.96272192


--------------------------------------------------------------------------------------------------------




--------------------------------------- Iteration      1(  24)  ---------------------------------------


    POTLOK:  cpu time    0.3211: real time    0.3212
    SETDIJ:  cpu time    0.0167: real time    0.0167
     EDDAV:  cpu time    8.6880: real time    8.6901
       DOS:  cpu time    0.0017: real time    0.0017
    CHARGE:  cpu time    0.5591: real time    0.5591
    MIXING:  cpu time    0.0202: real time    0.0202
    --------------------------------------------
      LOOP:  cpu time    9.6067: real time    9.6090

 eigenvalue-minimisations  :  1248
 total energy-change (2. order) : 0.2708975E-01  (-0.5108075E-02)
 number of electron     791.9998330 magnetization 
 augmentation part      312.0058130 magnetization 

 Broyden mixing:
  rms(total) = 0.18442E+00    rms(broyden)= 0.18428E+00
  rms(prec ) = 0.21877E+00
  weight for this iteration     100.00

 eigenvalues of (default mixing * dielectric matrix)
  average eigenvalue GAMMA=   0.6415
  2.2764  2.2764  1.4689  1.4689  0.8089  0.6644  0.6401  0.4637  0.4637  0.3098
  0.1991  0.1288  0.1288  0.1832  0.1628  0.1481  0.1481  0.1163  0.1319

 Free energy of the ion-electron system (eV)
  ---------------------------------------------------
  alpha Z        PSCENC =      1422.52235994
  Ewald energy   TEWEN  =    145428.65953880
  -Hartree energ DENC   =   -265160.93549616
  -exchange      EXHF   =         0.00000000
  -V(xc)+E(xc)   XCENC  =      3651.24672769
  PAW double counting   =    140351.43040434  -145339.54534274
  entropy T*S    EENTRO =        -1.12388203
  eigenvalues    EBANDS =    -16692.36002757
  atomic energy  EATOM  =    136002.60505376
  Solvation  Ediel_sol  =         0.00000000
  ---------------------------------------------------
  free energy    TOTEN  =      -337.50066397 eV

  energy without entropy =     -336.37678194  energy(sigma->0) =     -336.93872296


--------------------------------------------------------------------------------------------------------




--------------------------------------- Iteration      1(  25)  ---------------------------------------


    POTLOK:  cpu time    0.3204: real time    0.3204
    SETDIJ:  cpu time    0.0167: real time    0.0167
     EDDAV:  cpu time    8.9755: real time    9.0221
       DOS:  cpu time    0.0013: real time    0.0012
    CHARGE:  cpu time    0.3032: real time    0.3033
    MIXING:  cpu time    0.0207: real time    0.0207
    --------------------------------------------
      LOOP:  cpu time    9.6377: real time    9.6844

 eigenvalue-minimisations  :  1296
 total energy-change (2. order) : 0.8761265E-02  (-0.3963775E-02)
 number of electron     791.9998329 magnetization 
 augmentation part      312.1363774 magnetization 

 Broyden mixing:
  rms(total) = 0.14194E+00    rms(broyden)= 0.14182E+00
  rms(prec ) = 0.16610E+00
  weight for this iteration     100.00

 eigenvalues of (default mixing * dielectric matrix)
  average eigenvalue GAMMA=   0.6678
  2.7274  2.1660  1.5994  1.5994  0.8308  0.8308  0.6476  0.4647  0.4647  0.4952
  0.2104  0.1916  0.1288  0.1288  0.1695  0.1619  0.1468  0.1468  0.1163  0.1292

 Free energy of the ion-electron system (eV)
  ---------------------------------------------------
  alpha Z        PSCENC =      1422.52235994
  Ewald energy   TEWEN  =    145428.65953880
  -Hartree energ DENC   =   -265161.79296972
  -exchange      EXHF   =         0.00000000
  -V(xc)+E(xc)   XCENC  =      3651.20239120
  PAW double counting   =    140389.88555076  -145378.90500781
  entropy T*S    EENTRO =        -1.12144498
  eigenvalues    EBANDS =    -16690.54737465
  atomic energy  EATOM  =    136002.60505376
  Solvation  Ediel_sol  =         0.00000000
  ---------------------------------------------------
  free energy    TOTEN  =      -337.49190270 eV

  energy without entropy =     -336.37045773  energy(sigma->0) =     -336.93118022


[...]
    FORCOR:  cpu time    0.4244: real time    0.4244
    FORHAR:  cpu time    0.1861: real time    0.1861
    MIXING:  cpu time    0.0709: real time    0.0711
    OFIELD:  cpu time    0.0001: real time    0.0001

  FORCE on cell =-STRESS in cart. coord.  units (eV):
  Direction    XX          YY          ZZ          XY          YZ          ZX
  --------------------------------------------------------------------------------------
  Alpha Z  1422.52236  1422.52236  1422.52236
  Ewald  192840.72955194483.31748************     0.00001     0.00000   289.88173
  Hartree226602.04640229142.13711************    -0.00009     0.00012   102.45120
  E(xc)   -5051.69343 -5053.32915 -5061.82132    -0.00000     0.00002     0.42844
  Local  ************************419802.78396     0.00035    -0.00024  -383.48597
  n-local  -584.04606  -593.21082  -607.92969     0.01757    -0.01473     0.42180
  augment  5760.70757  5797.45635  5809.07740     0.00137    -0.00023    -5.83582
  Kinetic 11051.25062 11106.06593 11206.11051    -0.00079    -0.00038    -4.62754
  Fock        0.00000     0.00000     0.00000     0.00000     0.00000     0.00000
  -------------------------------------------------------------------------------------
  Total     122.12321   120.35650   129.14195     0.00000     0.00000    -0.76616
  in kB      74.82327    73.74083    79.12356     0.00000     0.00000    -0.46941
  external pressure =       75.90 kB  Pullay stress =        0.00 kB


 VOLUME and BASIS-vectors are now :
 -----------------------------------------------------------------------------
  energy-cutoff  :      450.00
  volume of cell :     2615.00
      direct lattice vectors                 reciprocal lattice vectors
    16.884694054  0.000000000  0.000000000     0.059225237  0.000000000  0.000000000
     0.000000000  9.578410000  0.000000000     0.000000000  0.104401461  0.000000000
     0.000000000  0.000000000 16.169087120     0.000000000  0.000000000  0.061846411

  length of vectors
    16.884694054  9.578410000 16.169087120     0.059225237  0.104401461  0.061846411


 FORCES acting on ions
    electron-ion (+dipol)            ewald-force                    non-local-force                 convergence-correction
 -----------------------------------------------------------------------------------------------
   -.659E+03 -.960E-03 0.116E+04   0.660E+03 -.657E-06 -.116E+04   0.410E+00 0.000E+00 0.205E+01   -.145E-01 -.261E-07 -.118E-01
   0.380E+03 -.772E-03 -.299E+04   -.382E+03 -.343E-07 0.299E+04   0.732E+00 0.000E+00 -.357E+01   0.240E-02 -.210E-06 0.229E-02
   0.427E+03 -.876E-03 0.292E+04   -.427E+03 0.265E-07 -.293E+04   0.148E+01 0.000E+00 0.626E+01   0.330E-01 -.867E-07 -.187E-01
   0.665E+03 -.815E-03 -.106E+04   -.666E+03 -.152E-06 0.106E+04   0.177E+01 0.000E+00 -.234E+01   0.199E-01 -.114E-06 -.269E-01
   0.797E+02 -.618E-03 0.236E+04   -.803E+02 0.143E-05 -.237E+04   0.143E+01 0.000E+00 0.643E+01   0.281E-01 0.188E-09 -.285E-01
   0.199E+03 -.874E-03 -.174E+04   -.201E+03 0.111E-06 0.175E+04   0.178E+01 0.000E+00 -.472E+01   -.132E-01 0.142E-07 -.448E-01
   0.763E+03 -.886E-03 0.148E+04   -.767E+03 0.137E-07 -.148E+04   0.373E+01 0.000E+00 0.416E+01   0.124E-02 -.779E-08 -.208E-02
   0.291E+03 -.715E-03 -.301E+04   -.293E+03 -.335E-07 0.301E+04   0.212E+01 0.000E+00 0.803E+00   0.120E-01 0.127E-06 0.957E-02
   0.783E+03 -.833E-03 0.960E+03   -.785E+03 0.983E-07 -.963E+03   0.229E+01 0.000E+00 0.367E+01   -.274E-02 -.316E-06 0.885E-02
   -.332E+03 -.805E-03 -.293E+04   0.332E+03 0.218E-07 0.293E+04   0.136E+01 0.000E+00 0.197E+01   0.177E-02 -.414E-06 -.252E-02
   -.482E+03 -.119E-02 0.167E+04   0.484E+03 0.160E-05 -.167E+04   -.185E+01 0.000E+00 0.321E+01   -.274E-01 -.417E-06 -.129E-01
   -.170E+02 -.833E-03 -.233E+04   0.139E+02 0.526E-06 0.234E+04   0.218E+01 0.000E+00 -.576E+01   -.315E-01 -.248E-06 -.297E-02
   0.145E+03 0.530E+03 -.113E+04   -.143E+03 -.536E+03 0.113E+04   -.118E+01 0.499E+01 0.732E+00   0.121E-01 0.146E-01 0.481E-02
   -.122E+02 0.634E+03 0.393E+04   0.999E+01 -.630E+03 -.393E+04   0.244E+01 -.398E+01 -.212E+01   0.833E-02 0.682E-02 -.193E-02
   -.160E+03 0.479E+03 0.198E+03   0.160E+03 -.483E+03 -.199E+03   0.442E+00 0.364E+01 -.293E+00   0.104E-01 -.382E-02 -.204E-01
   -.166E+03 0.146E+03 -.360E+04   0.169E+03 -.150E+03 0.360E+04   -.334E+01 0.469E+01 0.138E+01   0.300E-02 0.940E-02 -.202E-02
   -.418E+03 0.486E+03 0.357E+04   0.415E+03 -.483E+03 -.357E+04   0.351E+01 -.357E+01 -.244E+01   -.284E-01 0.228E-01 -.118E-01
   -.672E+03 0.394E+03 -.855E+03   0.674E+03 -.398E+03 0.857E+03   -.100E+01 0.367E+01 -.377E+01   -.257E-01 -.336E-02 -.375E-01
   0.412E+03 0.782E+03 0.207E+04   -.412E+03 -.788E+03 -.207E+04   0.235E+00 0.557E+01 0.376E+01   0.205E-01 -.240E-02 -.441E-02
   -.164E+02 0.211E+03 -.264E+04   0.178E+02 -.214E+03 0.264E+04   -.119E+01 0.280E+01 -.114E+00   0.410E-02 -.223E-02 0.585E-02
   0.397E+03 0.310E+03 0.134E+04   -.398E+03 -.314E+03 -.134E+04   0.790E+00 0.303E+01 0.441E+01   0.319E-01 0.327E-02 -.184E-01
   0.232E+03 0.336E+02 -.314E+04   -.232E+03 -.373E+02 0.314E+04   -.335E+00 0.388E+01 0.142E+01   0.185E-01 -.304E-02 -.484E-02
   -.456E+03 0.217E+03 0.305E+04   0.457E+03 -.219E+03 -.305E+04   -.100E+01 0.272E+01 0.330E+00   -.239E-01 -.859E-02 -.131E-01
   -.592E+03 0.518E+03 -.136E+04   0.594E+03 -.521E+03 0.136E+04   -.188E+01 0.310E+01 -.415E+01   -.129E-01 -.382E-02 -.423E-03
   0.145E+03 -.530E+03 -.113E+04   -.143E+03 0.536E+03 0.113E+04   -.118E+01 -.499E+01 0.732E+00   0.121E-01 -.146E-01 0.481E-02
   -.122E+02 -.634E+03 0.393E+04   0.999E+01 0.630E+03 -.393E+04   0.244E+01 0.398E+01 -.212E+01   0.833E-02 -.682E-02 -.193E-02
   -.160E+03 -.479E+03 0.198E+03   0.160E+03 0.483E+03 -.199E+03   0.442E+00 -.364E+01 -.293E+00   0.104E-01 0.382E-02 -.204E-01
   -.166E+03 -.146E+03 -.360E+04   0.169E+03 0.150E+03 0.360E+04   -.334E+01 -.469E+01 0.138E+01   0.300E-02 -.940E-02 -.202E-02
   -.418E+03 -.486E+03 0.357E+04   0.415E+03 0.483E+03 -.357E+04   0.351E+01 0.357E+01 -.244E+01   -.284E-01 -.228E-01 -.118E-01
   -.672E+03 -.394E+03 -.855E+03   0.674E+03 0.398E+03 0.857E+03   -.100E+01 -.367E+01 -.377E+01   -.257E-01 0.337E-02 -.375E-01
   0.412E+03 -.782E+03 0.207E+04   -.412E+03 0.788E+03 -.207E+04   0.235E+00 -.557E+01 0.376E+01   0.205E-01 0.240E-02 -.441E-02
   -.164E+02 -.211E+03 -.264E+04   0.178E+02 0.214E+03 0.264E+04   -.119E+01 -.280E+01 -.114E+00   0.410E-02 0.223E-02 0.585E-02
   0.397E+03 -.310E+03 0.134E+04   -.398E+03 0.314E+03 -.134E+04   0.790E+00 -.303E+01 0.441E+01   0.319E-01 -.327E-02 -.184E-01
   0.232E+03 -.336E+02 -.314E+04   -.232E+03 0.373E+02 0.314E+04   -.335E+00 -.388E+01 0.142E+01   0.185E-01 0.304E-02 -.484E-02
   -.456E+03 -.217E+03 0.305E+04   0.457E+03 0.219E+03 -.305E+04   -.100E+01 -.272E+01 0.330E+00   -.239E-01 0.859E-02 -.131E-01
   -.592E+03 -.518E+03 -.136E+04   0.594E+03 0.521E+03 0.136E+04   -.188E+01 -.310E+01 -.415E+01   -.129E-01 0.382E-02 -.423E-03
   0.258E+02 -.298E-04 -.161E+04   -.252E+02 0.493E-08 0.162E+04   -.180E+00 0.000E+00 -.285E+01   0.562E-02 -.774E-07 -.436E-02
   0.216E+03 -.289E-04 0.674E+03   -.218E+03 0.244E-07 -.679E+03   0.222E+01 0.000E+00 0.254E+01   0.423E-02 -.905E-07 0.606E-02
   -.405E+03 -.182E-04 0.117E+04   0.408E+03 -.369E-06 -.118E+04   -.175E+01 0.000E+00 0.202E+01   -.110E-01 -.649E-07 -.727E-02
   -.165E+03 -.334E-04 -.893E+03   0.165E+03 0.123E-06 0.898E+03   0.118E+01 0.000E+00 -.447E+01   -.720E-02 -.584E-07 0.272E-02
   -.461E+03 0.572E-04 0.896E+03   0.460E+03 -.185E-05 -.899E+03   0.155E+01 0.000E+00 0.199E+01   -.251E-01 0.109E-06 -.177E-01
   -.140E+03 -.515E-06 -.103E+04   0.139E+03 -.191E-06 0.103E+04   0.115E+01 0.000E+00 -.228E+01   -.400E-02 0.190E-07 -.189E-02
   0.190E+03 0.403E-05 0.167E+04   -.189E+03 0.354E-07 -.168E+04   -.905E+00 0.000E+00 0.277E+01   0.141E-01 0.631E-08 -.240E-02
   -.272E+02 -.123E-04 -.240E+03   0.267E+02 0.111E-07 0.243E+03   0.213E+01 0.000E+00 -.314E+01   0.622E-02 0.448E-07 -.360E-02
   0.196E+03 0.579E-05 0.159E+04   -.197E+03 0.320E-06 -.159E+04   0.837E+00 0.000E+00 0.171E+01   0.215E-01 -.576E-09 0.989E-03
   -.132E+02 0.320E-04 -.605E+03   0.139E+02 0.205E-06 0.610E+03   0.490E+00 0.000E+00 -.469E+01   0.116E-01 0.300E-08 -.150E-01
   -.343E+03 -.161E-04 0.653E+03   0.346E+03 0.157E-07 -.654E+03   -.451E+00 0.000E+00 0.992E+00   -.321E-02 -.239E-07 -.250E-02
   -.104E+03 0.667E-05 -.119E+04   0.106E+03 0.137E-07 0.120E+04   -.489E+00 0.000E+00 -.278E+01   -.479E-03 0.343E-07 0.276E-02
   -.363E+03 0.115E+03 0.121E+04   0.365E+03 -.114E+03 -.122E+04   -.719E+00 -.113E+01 0.247E+01   -.743E-02 -.349E-02 -.401E-02
   -.782E+02 -.122E+03 -.186E+03   0.788E+02 0.125E+03 0.186E+03   -.682E+00 -.120E+01 -.108E+01   -.135E-04 -.395E-02 0.308E-03
   0.242E+03 -.254E+03 0.786E+03   -.243E+03 0.256E+03 -.789E+03   -.569E+00 -.135E+01 0.300E+01   0.124E-01 -.512E-02 -.126E-01
   0.235E+03 0.466E+02 -.120E+04   -.236E+03 -.457E+02 0.120E+04   0.120E-01 -.410E+00 -.260E+01   0.141E-01 -.942E-03 -.147E-02
   0.329E+02 -.135E+03 0.522E+03   -.339E+02 0.137E+03 -.524E+03   -.667E+00 -.132E+01 0.192E+01   -.107E-02 -.720E-02 -.195E-01
   -.181E+03 0.598E+02 -.144E+04   0.182E+03 -.585E+02 0.145E+04   -.129E+01 -.110E+01 -.197E+01   -.733E-02 0.995E-02 -.966E-03
   0.204E+03 -.217E+03 -.300E+03   -.204E+03 0.218E+03 0.300E+03   -.493E+00 -.386E-01 -.824E+00   0.465E-02 0.498E-02 0.339E-02
   0.312E+03 -.368E+03 0.136E+04   -.315E+03 0.371E+03 -.137E+04   0.878E+00 -.156E+01 0.707E+00   0.111E-02 0.378E-02 -.506E-02
   0.302E+03 0.785E+02 0.113E+04   -.303E+03 -.793E+02 -.113E+04   0.791E-01 0.674E+00 0.426E+01   0.477E-02 -.116E-02 -.240E-02
   0.171E+03 0.156E+02 -.859E+03   -.171E+03 -.145E+02 0.862E+03   -.849E+00 -.217E+01 -.194E+01   -.332E-02 -.122E-02 -.346E-03
   -.601E+02 -.167E+03 0.273E+03   0.585E+02 0.170E+03 -.274E+03   -.501E-01 -.136E+01 0.124E+01   -.136E-01 0.233E-02 -.575E-02
   -.489E+02 -.248E+03 -.152E+04   0.479E+02 0.252E+03 0.152E+04   0.393E+00 -.267E+01 -.730E+00   -.873E-02 -.990E-04 0.148E-02
   0.242E+03 0.254E+03 0.786E+03   -.243E+03 -.256E+03 -.789E+03   -.569E+00 0.135E+01 0.300E+01   0.124E-01 0.512E-02 -.126E-01
   0.235E+03 -.466E+02 -.120E+04   -.236E+03 0.457E+02 0.120E+04   0.120E-01 0.410E+00 -.260E+01   0.141E-01 0.942E-03 -.147E-02
   -.363E+03 -.115E+03 0.121E+04   0.365E+03 0.114E+03 -.122E+04   -.719E+00 0.113E+01 0.247E+01   -.743E-02 0.349E-02 -.401E-02
   -.782E+02 0.122E+03 -.186E+03   0.788E+02 -.125E+03 0.186E+03   -.682E+00 0.120E+01 -.108E+01   -.134E-04 0.395E-02 0.308E-03
   0.204E+03 0.217E+03 -.300E+03   -.204E+03 -.218E+03 0.300E+03   -.493E+00 0.386E-01 -.824E+00   0.465E-02 -.498E-02 0.339E-02
   0.312E+03 0.368E+03 0.136E+04   -.315E+03 -.371E+03 -.137E+04   0.878E+00 0.156E+01 0.707E+00   0.111E-02 -.378E-02 -.506E-02
   0.329E+02 0.135E+03 0.522E+03   -.339E+02 -.137E+03 -.524E+03   -.667E+00 0.132E+01 0.192E+01   -.107E-02 0.720E-02 -.195E-01
   -.181E+03 -.598E+02 -.144E+04   0.182E+03 0.585E+02 0.145E+04   -.129E+01 0.110E+01 -.197E+01   -.733E-02 -.995E-02 -.966E-03
   -.601E+02 0.167E+03 0.273E+03   0.585E+02 -.170E+03 -.274E+03   -.501E-01 0.136E+01 0.124E+01   -.136E-01 -.233E-02 -.575E-02
   -.489E+02 0.248E+03 -.152E+04   0.479E+02 -.252E+03 0.152E+04   0.393E+00 0.267E+01 -.730E+00   -.873E-02 0.990E-04 0.148E-02
   0.302E+03 -.785E+02 0.113E+04   -.303E+03 0.793E+02 -.113E+04   0.791E-01 -.674E+00 0.426E+01   0.477E-02 0.116E-02 -.240E-02
   0.171E+03 -.156E+02 -.859E+03   -.171E+03 0.145E+02 0.862E+03   -.849E+00 0.217E+01 -.194E+01   -.332E-02 0.122E-02 -.346E-03
 -----------------------------------------------------------------------------------------------
   -.104E+02 -.104E-01 -.108E+02   -.210E-11 -.239E-11 -.216E-11   0.103E+02 0.533E-14 0.112E+02   0.484E-01 -.546E-06 -.475E+00
 
 
 POSITION                                       TOTAL-FORCE (eV/Angst)
 -----------------------------------------------------------------------------------
     12.88178      1.39171      2.83406         0.950964      0.000000      0.614495
     13.90903      1.39171      5.17653        -0.619088      0.000000      1.489000
      3.80975      6.18092      1.50123         0.878217      0.000000      0.079188
      5.02033      6.18092      3.49202         0.315533      0.000000     -0.045617
      6.66606      1.39171      2.02714         0.861262      0.000000     -0.201857
      7.93172      1.39171      4.00611        -0.207512      0.000000     -0.719623
     16.08224      6.18092      2.46384        -0.711561      0.000000      2.709677
     16.36616      6.18092      5.08465         0.216474      0.000000      0.879730
      2.10894      1.39171      2.97793         0.972439      0.000000      1.310687
      0.96190      1.39171      5.09646         1.433722      0.000000      0.828658
      9.66676      6.18092      2.56024         0.085551      0.000000     -0.595344
     10.84312      6.18092      4.52020        -0.934176      0.000000     -0.795863
     15.91093      0.03280      4.41795         0.167897     -1.454847     -0.578590
      6.65316      4.95883      0.55100         0.250707     -0.472150     -1.071562
      7.17375      4.91558      3.08454         0.332317     -0.136666     -1.133671
      7.88753      4.42888      5.35332        -0.242775      0.729536      0.808747
      9.56575      0.16511      1.06040         0.244120     -0.612203     -1.317376
     10.08514      0.12638      3.59863         0.786527     -0.474392     -1.508280
      1.35096      4.91558      2.05636         1.095875     -0.365477      1.986201
      1.90712      4.78617      4.69066         0.184654      0.572237      1.045080
      4.26235      0.12638      2.57045         0.308049     -0.918600      1.297566
      4.92474      9.32952      4.94396        -0.029224      0.170421      0.827484
     12.60947      4.76508      1.61022        -0.329208      0.688425     -1.060502
     12.99653      4.91558      4.11272         0.551542      0.079630     -1.552692
     15.91093      2.75063      4.41795         0.167897      1.454847     -0.578590
      6.65316      7.40301      0.55100         0.250707      0.472150     -1.071562
      7.17375      7.44626      3.08454         0.332317      0.136666     -1.133671
      7.88753      7.93295      5.35332        -0.242775     -0.729536      0.808747
      9.56575      2.61831      1.06040         0.244120      0.612203     -1.317376
     10.08514      2.65705      3.59863         0.786527      0.474392     -1.508280
      1.35096      7.44626      2.05636         1.095875      0.365477      1.986201
      1.90712      7.57567      4.69066         0.184654     -0.572237      1.045080
      4.26235      2.65705      2.57045         0.308049      0.918600      1.297566
      4.92474      3.03232      4.94396        -0.029224     -0.170421      0.827484
     12.60947      7.59676      1.61022        -0.329208     -0.688425     -1.060502
     12.99653      7.44626      4.11272         0.551542     -0.079630     -1.552692
     15.91621      1.39171      5.96941         0.453628      0.000000      4.531166
      0.05777      1.39171      3.22650        -0.130480      0.000000     -2.409930
      8.00634      6.18092      1.40713         1.581615      0.000000     -1.766784
      8.59001      6.18092      4.49167         1.373116      0.000000      0.986623
     10.91773      1.39171      1.92122         0.440016      0.000000     -0.916254
     11.60114      1.39171      4.52105         0.028682      0.000000      2.848489
      2.02762      6.18092      0.56328        -0.116154      0.000000     -4.028050
      2.76722      6.18092      3.46349         1.638042      0.000000      0.150839
      4.87713      1.39171      1.06774         0.227724      0.000000     -3.983356
      5.67861      1.39171      3.97758         1.196622      0.000000      0.650807
     13.82913      6.18092      2.43531         2.120866      0.000000     -0.763060
     14.31340      6.18092      5.16089         0.846802      0.000000      2.635582
     13.20201      2.86462      1.39231         0.934061     -0.165936     -2.428254
     13.90018      3.01625      3.94401        -0.003889      1.373800     -0.441101
      5.26426      7.79215      1.92599        -1.628322      1.045341     -0.144481
      5.94006      7.57397      4.82647        -1.156382      0.581321      1.946269
      8.17565      3.00295      2.44008        -1.616543      0.795091      0.098648
      8.92774      2.72193      5.29654         0.260738      0.285730      2.925207
      0.02514      7.79215      3.98236        -1.072013      1.098179     -0.362073
     16.47067      7.60619      1.10030        -1.639428      1.923633     -3.107712
      2.36970      3.09312      1.78615        -0.701709     -0.141756     -2.914205
      2.93654      3.00295      4.49645        -0.898095     -1.000336      1.258706
     11.08705      7.79215      2.95417        -1.639419      0.929048      0.014416
     11.73810      7.57196      5.69411        -0.610631      1.127083      3.667576
      5.26426      4.56969      1.92599        -1.628322     -1.045341     -0.144481
      5.94006      4.78787      4.82647        -1.156382     -0.581321      1.946269
     13.20201      9.49722      1.39231         0.934061      0.165936     -2.428254
     13.90018      9.34559      3.94401        -0.003889     -1.373800     -0.441101
      0.02514      4.56969      3.98236        -1.072013     -1.098179     -0.362073
     16.47067      4.75565      1.10030        -1.639428     -1.923633     -3.107712
      8.17565      9.35889      2.44008        -1.616543     -0.795091      0.098648
      8.92774      0.06150      5.29654         0.260738     -0.285730      2.925207
     11.08705      4.56969      2.95417        -1.639419     -0.929048      0.014416
     11.73810      4.78987      5.69411        -0.610631     -1.127083      3.667576
      2.36970      9.26871      1.78615        -0.701709      0.141756     -2.914205
      2.93654      9.35889      4.49645        -0.898095      1.000336      1.258706
 -----------------------------------------------------------------------------------
    total drift:                               -0.121503     -0.010418     -0.097648


--------------------------------------------------------------------------------------------------------



  FREE ENERGIE OF THE ION-ELECTRON SYSTEM (eV)
  ---------------------------------------------------
  free  energy   TOTEN  =      -337.48734843 eV

  energy  without entropy=     -336.37215014  energy(sigma->0) =     -336.92974929
 


--------------------------------------------------------------------------------------------------------


    POTLOK:  cpu time    0.4520: real time    0.4524


--------------------------------------------------------------------------------------------------------


     LOOP+:  cpu time  367.3748: real time  367.4966
    4ORBIT:  cpu time    0.0000: real time    0.0000

 total amount of memory used by VASP MPI-rank0    77170. kBytes
=======================================================================

   base      :      30000. kBytes
   nonlr-proj:       2061. kBytes
   fftplans  :       9935. kBytes
   grid      :      16773. kBytes
   one-center:         93. kBytes
   wavefun   :      18308. kBytes
 
  
  
 General timing and accounting informations for this job:
 ========================================================
  
                  Total CPU time used (sec):      370.507
                            User time (sec):      370.189
                          System time (sec):        0.318
                         Elapsed time (sec):      370.875
  
                   Maximum memory used (kb):      217260.
                   Average memory used (kb):           0.
  
                          Minor page faults:       108684
                          Major page faults:            0
                 Voluntary context switches:          172
