"Millerite NiS"                         
           1
     6.169087    1.167339    0.000000
     0.000000   11.256463    0.000000
     0.000000    0.000000   27.590079
   Ni   S 
    48    48
Direct configuration=     1
   0.25630944  0.01645859  0.10426099
   0.25630944  0.01645859  0.45142961
   0.00630944  0.26645858  0.27784530
   0.00630944  0.26645858  0.62501393
   0.25630944  0.01645859  0.01253695
   0.25630944  0.01645859  0.35970558
   0.00630944  0.26645858  0.18612127
   0.00630944  0.26645858  0.53328989
   0.19025794  0.21461309  0.05839897
   0.19025794  0.21461309  0.40556760
   0.44025794  0.46461308  0.23198328
   0.44025794  0.46461308  0.57915191
   0.75630944  0.01645859  0.10426099
   0.75630944  0.01645859  0.45142961
   0.50630944  0.26645858  0.27784530
   0.50630944  0.26645858  0.62501393
   0.75630944  0.01645859  0.01253695
   0.75630944  0.01645859  0.35970558
   0.50630944  0.26645858  0.18612127
   0.50630944  0.26645858  0.53328989
   0.69025794  0.21461309  0.05839897
   0.69025794  0.21461309  0.40556760
   0.94025794  0.46461308  0.23198328
   0.94025794  0.46461308  0.57915191
   0.25630944  0.51645859  0.10426099
   0.25630944  0.51645859  0.45142961
   0.00630944  0.76645858  0.27784530
   0.00630944  0.76645858  0.62501393
   0.25630944  0.51645859  0.01253695
   0.25630944  0.51645859  0.35970558
   0.00630944  0.76645858  0.18612127
   0.00630944  0.76645858  0.53328989
   0.19025794  0.71461309  0.05839897
   0.19025794  0.71461309  0.40556760
   0.44025794  0.96461308  0.23198328
   0.44025794  0.96461308  0.57915191
   0.75630944  0.51645859  0.10426099
   0.75630944  0.51645859  0.45142961
   0.50630944  0.76645858  0.27784530
   0.50630944  0.76645858  0.62501393
   0.75630944  0.51645859  0.01253695
   0.75630944  0.51645859  0.35970558
   0.50630944  0.76645858  0.18612127
   0.50630944  0.76645858  0.53328989
   0.69025794  0.71461309  0.05839897
   0.69025794  0.71461309  0.40556760
   0.94025794  0.96461308  0.23198328
   0.94025794  0.96461308  0.57915191
   0.46840410  0.16661759  0.00000000
   0.46840410  0.16661759  0.34716863
   0.21840410  0.41661758  0.17358431
   0.21840410  0.41661758  0.52075294
   0.46840410  0.16661759  0.11679794
   0.46840410  0.16661759  0.46396657
   0.21840410  0.41661758  0.29038225
   0.21840410  0.41661758  0.63755088
   0.05251160  0.41429508  0.05839897
   0.05251160  0.41429508  0.40556760
   0.30251160  0.16429509  0.23198328
   0.30251160  0.16429509  0.57915191
   0.96840410  0.16661759  0.00000000
   0.96840410  0.16661759  0.34716863
   0.71840410  0.41661758  0.17358431
   0.71840410  0.41661758  0.52075294
   0.96840410  0.16661759  0.11679794
   0.96840410  0.16661759  0.46396657
   0.71840410  0.41661758  0.29038225
   0.71840410  0.41661758  0.63755088
   0.55251160  0.41429508  0.05839897
   0.55251160  0.41429508  0.40556760
   0.80251160  0.16429509  0.23198328
   0.80251160  0.16429509  0.57915191
   0.46840410  0.66661759  0.00000000
   0.46840410  0.66661759  0.34716863
   0.21840410  0.91661758  0.17358431
   0.21840410  0.91661758  0.52075294
   0.46840410  0.66661759  0.11679794
   0.46840410  0.66661759  0.46396657
   0.21840410  0.91661758  0.29038225
   0.21840410  0.91661758  0.63755088
   0.05251160  0.91429508  0.05839897
   0.05251160  0.91429508  0.40556760
   0.30251160  0.66429509  0.23198328
   0.30251160  0.66429509  0.57915191
   0.96840410  0.66661759  0.00000000
   0.96840410  0.66661759  0.34716863
   0.71840410  0.91661758  0.17358431
   0.71840410  0.91661758  0.52075294
   0.96840410  0.66661759  0.11679794
   0.96840410  0.66661759  0.46396657
   0.71840410  0.91661758  0.29038225
   0.71840410  0.91661758  0.63755088
   0.55251160  0.91429508  0.05839897
   0.55251160  0.91429508  0.40556760
   0.80251160  0.66429509  0.23198328
   0.80251160  0.66429509  0.57915191
