"Millerite NiS"                         
           1
    16.884694    0.000000    0.000000
     0.000000    9.578410    0.000000
     0.000000    0.000000   16.169087
   Ni   S 
    36    36
Direct configuration=     1
   0.78004630  0.14529696  0.09714858
   0.81461426  0.14529696  0.28791652
   0.26276233  0.64529696  0.00176460
   0.29733028  0.64529696  0.19253255
   0.43519032  0.14529696  0.03355926
   0.46975828  0.14529696  0.22432721
   0.95247430  0.64529696  0.12894324
   0.98704225  0.64529696  0.31971118
   0.12490229  0.14529696  0.16073789
   0.15947025  0.14529696  0.35150584
   0.60761831  0.64529696  0.06535392
   0.64218627  0.64529696  0.25612187
   0.90758277  0.01319396  0.07194756
   0.94215073  0.01319396  0.26271551
   0.42486675  0.51319396  0.16733153
   0.45943471  0.51319396  0.35809948
   0.56272679  0.01319396  0.00835824
   0.59729475  0.01319396  0.19912619
   0.08001077  0.51319396  0.10374222
   0.11457872  0.51319396  0.29451016
   0.25243876  0.01319396  0.13553687
   0.28700672  0.01319396  0.32630482
   0.73515478  0.51319396  0.04015290
   0.76972274  0.51319396  0.23092085
   0.90758277  0.27739996  0.07194756
   0.94215073  0.27739996  0.26271551
   0.42486675  0.77739996  0.16733153
   0.45943471  0.77739996  0.35809948
   0.56272679  0.27739996  0.00835824
   0.59729475  0.27739996  0.19912619
   0.08001077  0.77739996  0.10374222
   0.11457872  0.77739996  0.29451016
   0.25243876  0.27739996  0.13553687
   0.28700672  0.27739996  0.32630482
   0.73515478  0.77739996  0.04015290
   0.76972274  0.77739996  0.23092085
   0.02602916  0.14529696  0.34974124
   0.99146120  0.14529696  0.15897329
   0.47417722  0.64529696  0.06358932
   0.50874518  0.64529696  0.25435726
   0.64660522  0.14529696  0.09538397
   0.68117317  0.14529696  0.28615192
   0.12932124  0.64529696  0.00000000
   0.16388920  0.64529696  0.19076795
   0.19845715  0.64529696  0.38153589
   0.30174923  0.14529696  0.03179466
   0.33631719  0.14529696  0.22256261
   0.81903321  0.64529696  0.12717863
   0.85360117  0.64529696  0.31794658
   0.79449310  0.31351196  0.00029537
   0.82906105  0.31351196  0.19106332
   0.31177707  0.81351196  0.09567935
   0.34634503  0.81351196  0.28644729
   0.48420507  0.31351196  0.12747400
   0.51877302  0.31351196  0.31824195
   0.00148905  0.81351196  0.22285798
   0.96692109  0.81351196  0.03209003
   0.13934908  0.31351196  0.06388469
   0.17391704  0.31351196  0.25465263
   0.65663306  0.81351196  0.15926866
   0.69120102  0.81351196  0.35003661
   0.31177707  0.47708196  0.09567935
   0.34634503  0.47708196  0.28644729
   0.79449310  0.97708196  0.00029537
   0.82906105  0.97708196  0.19106332
   0.00148905  0.47708196  0.22285798
   0.96692109  0.47708196  0.03209003
   0.48420507  0.97708196  0.12747400
   0.65663306  0.47708196  0.15926866
   0.69120102  0.47708196  0.35003661
   0.13934908  0.97708196  0.06388469
   0.17391704  0.97708196  0.25465263
