<?xml version="1.0" encoding="ISO-8859-1"?>
<modeling>
 <generator>
  <i name="program" type="string">vasp </i>
  <i name="version" type="string">5.4.4.18Apr17-6-g9f103f2a35  </i>
  <i name="subversion" type="string">(build Aug 13 2019 17:33:20) gamma-only         parallel </i>
  <i name="platform" type="string">LinuxIFC </i>
  <i name="date" type="string">2020 05 12 </i>
  <i name="time" type="string">04:44:04 </i>
 </generator>
 <incar>
  <i type="string" name="SYSTEM">"Millerite NiS"</i>
  <i type="string" name="PREC">normal</i>
  <i type="int" name="NSIM">     4</i>
  <i type="int" name="NELM">   100</i>
  <i name="ENCUT">    450.00000000</i>
  <i type="string" name="LREAL">A</i>
  <i type="int" name="ISMEAR">     0</i>
  <i type="int" name="NWRITE">     2</i>
  <i type="logical" name="LWAVE"> F  </i>
  <i type="logical" name="LCHARG"> F  </i>
  <v type="int" name="KPOINT_BSE">    -1     0     0     0</v>
  <i type="int" name="NELM">   100</i>
 </incar>
 <structure name="primitive_cell" >
  <crystal>
   <varray name="basis" >
    <v>      16.88469405       0.00000000       0.00000000 </v>
    <v>       0.00000000       9.57841000       0.00000000 </v>
    <v>       0.00000000       0.00000000      16.65464569 </v>
   </varray>
   <i name="volume">   2693.53123734 </i>
   <varray name="rec_basis" >
    <v>       0.05922524       0.00000000       0.00000000 </v>
    <v>       0.00000000       0.10440146       0.00000000 </v>
    <v>       0.00000000       0.00000000       0.06004331 </v>
   </varray>
  </crystal>
  <varray name="positions" >
   <v>      -0.21995370       0.14529696       0.12347080 </v>
   <v>      -0.18380898       0.29399729       0.04064801 </v>
   <v>      -0.18349557      -0.00179308       0.03967372 </v>
   <v>      -0.35339478       0.14529696       0.12175764 </v>
   <v>      -0.17093895       0.31351196       0.21464750 </v>
   <v>      -0.17093895      -0.02291804       0.21464750 </v>
   <v>      -0.09036768       0.00393445       0.11939088 </v>
   <v>      -0.09012269       0.28655862       0.11997335 </v>
   <v>      -0.23308006      -0.13182355       0.12098473 </v>
   <v>      -0.20037652       0.14551617       0.28415346 </v>
   <v>      -0.22356717       0.43513465       0.12083842 </v>
   <v>      -0.32300866       0.14648680       0.28392463 </v>
   <v>      -0.00853880       0.14529696       0.18349304 </v>
   <v>      -0.40270525       0.01319396       0.22247530 </v>
   <v>      -0.40270525       0.27739996       0.22247530 </v>
   <v>      -0.05938747       0.00870352       0.26921655 </v>
   <v>      -0.05602319       0.27747069       0.27035410 </v>
   <v>      -0.34336694       0.47708196       0.18377980 </v>
   <v>      -0.34336694      -0.18648804       0.18377980 </v>
   <v>      -0.40928651      -0.09062143       0.09266431 </v>
   <v>      -0.23027726      -0.48680604       0.25334300 </v>
   <v>      -0.23027726      -0.22260004       0.25334300 </v>
   <v>      -0.46916494       0.14710580       0.09180671 </v>
   <v>      -0.03277630       0.46988893       0.08315235 </v>
   <v>      -0.03228389      -0.17917539       0.08317976 </v>
   <v>      -0.18096679      -0.35470304       0.15262534 </v>
   <v>      -0.03760861       0.14143392       0.36356109 </v>
   <v>      -0.30523135       0.49836340       0.34740354 </v>
   <v>      -0.30386596      -0.21111692       0.34852026 </v>
   <v>       0.48420507       0.31351196       0.15291210 </v>
   <v>       0.48420507      -0.02291804       0.15291210 </v>
   <v>       0.00148905       0.47708196       0.24551520 </v>
   <v>       0.00148905      -0.18648804       0.24551520 </v>
   <v>      -0.47400820       0.28557901       0.32332541 </v>
   <v>      -0.47838287      -0.00296018       0.31688722 </v>
   <v>      -0.04752570      -0.35470304       0.15433850 </v>
   <v>       0.46975828       0.14529696       0.24694159 </v>
   <v>       0.06997813       0.10364787       0.31258434 </v>
   <v>      -0.42045632      -0.35094366       0.15033880 </v>
   <v>      -0.14926112      -0.35485511       0.31302886 </v>
   <v>      -0.35781373      -0.35470304       0.27780929 </v>
   <v>       0.12490229       0.14529696       0.18520619 </v>
   <v>       0.08001077      -0.48680604       0.12987220 </v>
   <v>       0.08001077      -0.22260004       0.12987220 </v>
   <v>       0.14011847      -0.03133412       0.10677055 </v>
   <v>       0.14209372       0.32506023       0.10917263 </v>
   <v>       0.44671924      -0.14616239       0.05769998 </v>
   <v>       0.39061408       0.12950458       0.12804274 </v>
   <v>      -0.02477557      -0.35496493       0.31770916 </v>
   <v>       0.13477752       0.28143689       0.28455390 </v>
   <v>       0.17084364       0.14738095       0.04691384 </v>
   <v>       0.47666408       0.47569107       0.32353552 </v>
   <v>      -0.48742409      -0.35354749       0.25786864 </v>
   <v>       0.42486675      -0.48680604       0.19160760 </v>
   <v>       0.42486675      -0.22260004       0.19160760 </v>
   <v>       0.47417723      -0.35470304       0.09088994 </v>
   <v>       0.11280411       0.49927992       0.29223468 </v>
   <v>       0.11212559      -0.21439914       0.29522794 </v>
   <v>       0.17391704      -0.02291804       0.27638290 </v>
   <v>       0.11194157      -0.35437895       0.03801977 </v>
   <v>       0.32969182       0.15416375       0.23560105 </v>
   <v>       0.25243876       0.01319396       0.16073990 </v>
   <v>       0.25243876       0.27739996       0.16073990 </v>
   <v>       0.08018187      -0.36069021       0.37913612 </v>
   <v>       0.16388920      -0.35470304       0.21436074 </v>
   <v>       0.28837965       0.14844543       0.06339757 </v>
   <v>       0.35996191      -0.49066899       0.29527374 </v>
   <v>       0.34887766      -0.20228512       0.28988487 </v>
   <v>       0.31177707       0.47708196       0.12204440 </v>
   <v>       0.31177707      -0.18648804       0.12204440 </v>
   <v>       0.35706743      -0.35406343       0.06308111 </v>
   <v>       0.21544637      -0.37520569       0.09907081 </v>
   <v>       0.29349057      -0.01750638       0.29961489 </v>
   <v>       0.29733028      -0.35470304       0.21607389 </v>
  </varray>
 </structure>
 <varray name="primitive_index" >
  <v type="int" >        1 </v>
  <v type="int" >       51 </v>
  <v type="int" >       65 </v>
  <v type="int" >       42 </v>
  <v type="int" >       52 </v>
  <v type="int" >       66 </v>
  <v type="int" >       14 </v>
  <v type="int" >       27 </v>
  <v type="int" >       36 </v>
  <v type="int" >        2 </v>
  <v type="int" >       25 </v>
  <v type="int" >       43 </v>
  <v type="int" >       39 </v>
  <v type="int" >       20 </v>
  <v type="int" >       32 </v>
  <v type="int" >       15 </v>
  <v type="int" >       28 </v>
  <v type="int" >       71 </v>
  <v type="int" >       61 </v>
  <v type="int" >       19 </v>
  <v type="int" >       26 </v>
  <v type="int" >       37 </v>
  <v type="int" >       31 </v>
  <v type="int" >       68 </v>
  <v type="int" >       58 </v>
  <v type="int" >       49 </v>
  <v type="int" >       38 </v>
  <v type="int" >       72 </v>
  <v type="int" >       62 </v>
  <v type="int" >       55 </v>
  <v type="int" >       69 </v>
  <v type="int" >       67 </v>
  <v type="int" >       57 </v>
  <v type="int" >       56 </v>
  <v type="int" >       70 </v>
  <v type="int" >        7 </v>
  <v type="int" >        6 </v>
  <v type="int" >       11 </v>
  <v type="int" >       12 </v>
  <v type="int" >       50 </v>
  <v type="int" >       13 </v>
  <v type="int" >       10 </v>
  <v type="int" >       21 </v>
  <v type="int" >       33 </v>
  <v type="int" >       73 </v>
  <v type="int" >       59 </v>
  <v type="int" >       29 </v>
  <v type="int" >        5 </v>
  <v type="int" >        8 </v>
  <v type="int" >       60 </v>
  <v type="int" >        9 </v>
  <v type="int" >       18 </v>
  <v type="int" >       41 </v>
  <v type="int" >       17 </v>
  <v type="int" >       30 </v>
  <v type="int" >       40 </v>
  <v type="int" >       22 </v>
  <v type="int" >       34 </v>
  <v type="int" >       74 </v>
  <v type="int" >       44 </v>
  <v type="int" >       48 </v>
  <v type="int" >       23 </v>
  <v type="int" >       35 </v>
  <v type="int" >       46 </v>
  <v type="int" >       45 </v>
  <v type="int" >       47 </v>
  <v type="int" >       64 </v>
  <v type="int" >       54 </v>
  <v type="int" >       63 </v>
  <v type="int" >       53 </v>
  <v type="int" >       16 </v>
  <v type="int" >        3 </v>
  <v type="int" >       24 </v>
  <v type="int" >        4 </v>
 </varray>
 <kpoints>
  <generation param="Gamma">
   <v type="int" name="divisions">       1        1        1 </v>
   <v name="usershift">      0.00000000       0.00000000       0.00000000 </v>
   <v name="genvec1">      1.00000000       0.00000000       0.00000000 </v>
   <v name="genvec2">      0.00000000       1.00000000       0.00000000 </v>
   <v name="genvec3">      0.00000000       0.00000000       1.00000000 </v>
   <v name="shift">      0.00000000       0.00000000       0.00000000 </v>
  </generation>
  <varray name="kpointlist" >
   <v>       0.00000000       0.00000000       0.00000000 </v>
  </varray>
  <varray name="weights" >
   <v>       1.00000000 </v>
  </varray>
 </kpoints>
 <parameters>
  <separator name="general" >
   <i type="string" name="SYSTEM">"Millerite NiS"</i>
   <i type="logical" name="LCOMPAT"> F  </i>
  </separator>
  <separator name="electronic" >
   <i type="string" name="PREC">normal</i>
   <i name="ENMAX">    450.00000000</i>
   <i name="ENAUG">    703.44300000</i>
   <i name="EDIFF">      0.00010000</i>
   <i type="int" name="IALGO">    38</i>
   <i type="int" name="IWAVPR">    10</i>
   <i type="int" name="NBANDS">   488</i>
   <i name="NELECT">    814.00000000</i>
   <i type="int" name="TURBO">     0</i>
   <i type="int" name="IRESTART">     0</i>
   <i type="int" name="NREBOOT">     0</i>
   <i type="int" name="NMIN">     0</i>
   <i name="EREF">      0.00000000</i>
   <separator name="electronic smearing" >
    <i type="int" name="ISMEAR">     0</i>
    <i name="SIGMA">      0.20000000</i>
    <i name="KSPACING">      0.50000000</i>
    <i type="logical" name="KGAMMA"> T  </i>
   </separator>
   <separator name="electronic projectors" >
    <i type="logical" name="LREAL"> T  </i>
    <v name="ROPT">     -0.00050000     -0.00050000</v>
    <i type="int" name="LMAXPAW">  -100</i>
    <i type="int" name="LMAXMIX">     2</i>
    <i type="logical" name="NLSPLINE"> F  </i>
   </separator>
   <separator name="electronic startup" >
    <i type="int" name="ISTART">     0</i>
    <i type="int" name="ICHARG">     2</i>
    <i type="int" name="INIWAV">     1</i>
   </separator>
   <separator name="electronic spin" >
    <i type="int" name="ISPIN">     1</i>
    <i type="logical" name="LNONCOLLINEAR"> F  </i>
    <v name="MAGMOM">      1.00000000      1.00000000      1.00000000      1.00000000      1.00000000      1.00000000      1.00000000      1.00000000      1.00000000      1.00000000      1.00000000      1.00000000      1.00000000      1.00000000      1.00000000      1.00000000      1.00000000      1.00000000      1.00000000      1.00000000
      1.00000000      1.00000000      1.00000000      1.00000000      1.00000000      1.00000000      1.00000000      1.00000000      1.00000000      1.00000000      1.00000000      1.00000000      1.00000000      1.00000000      1.00000000      1.00000000      1.00000000      1.00000000      1.00000000      1.00000000
      1.00000000      1.00000000      1.00000000      1.00000000      1.00000000      1.00000000      1.00000000      1.00000000      1.00000000      1.00000000      1.00000000      1.00000000      1.00000000      1.00000000      1.00000000      1.00000000      1.00000000      1.00000000      1.00000000      1.00000000
      1.00000000      1.00000000      1.00000000      1.00000000      1.00000000      1.00000000      1.00000000      1.00000000      1.00000000      1.00000000      1.00000000      1.00000000      1.00000000      1.00000000</v>
    <i name="NUPDOWN">     -1.00000000</i>
    <i type="logical" name="LSORBIT"> F  </i>
    <v name="SAXIS">      0.00000000      0.00000000      1.00000000</v>
    <i type="logical" name="LSPIRAL"> F  </i>
    <v name="QSPIRAL">      0.00000000      0.00000000      0.00000000</v>
    <i type="logical" name="LZEROZ"> F  </i>
   </separator>
   <separator name="electronic exchange-correlation" >
    <i type="logical" name="LASPH"> F  </i>
    <i type="logical" name="LMETAGGA"> F  </i>
   </separator>
   <separator name="electronic convergence" >
    <i type="int" name="NELM">   100</i>
    <i type="int" name="NELMDL">    -5</i>
    <i type="int" name="NELMIN">     2</i>
    <i name="ENINI">    450.00000000</i>
    <separator name="electronic convergence detail" >
     <i type="logical" name="LDIAG"> T  </i>
     <i type="logical" name="LSUBROT"> F  </i>
     <i name="WEIMIN">      0.00000000</i>
     <i name="EBREAK">      0.00000005</i>
     <i name="DEPER">      0.30000000</i>
     <i type="int" name="NRMM">     4</i>
     <i name="TIME">      0.40000000</i>
    </separator>
   </separator>
   <separator name="electronic mixer" >
    <i name="AMIX">      0.40000000</i>
    <i name="BMIX">      1.00000000</i>
    <i name="AMIN">      0.10000000</i>
    <i name="AMIX_MAG">      1.60000000</i>
    <i name="BMIX_MAG">      1.00000000</i>
    <separator name="electronic mixer details" >
     <i type="int" name="IMIX">     4</i>
     <i type="logical" name="MIXFIRST"> F  </i>
     <i type="int" name="MAXMIX">   -45</i>
     <i name="WC">    100.00000000</i>
     <i type="int" name="INIMIX">     1</i>
     <i type="int" name="MIXPRE">     1</i>
     <i type="int" name="MREMOVE">     5</i>
    </separator>
   </separator>
   <separator name="electronic dipolcorrection" >
    <i type="logical" name="LDIPOL"> F  </i>
    <i type="logical" name="LMONO"> F  </i>
    <i type="int" name="IDIPOL">     0</i>
    <i name="EPSILON">      1.00000000</i>
    <v name="DIPOL">   -100.00000000   -100.00000000   -100.00000000</v>
    <i name="EFIELD">      0.00000000</i>
   </separator>
  </separator>
  <separator name="grids" >
   <i type="int" name="NGX">    90</i>
   <i type="int" name="NGY">    50</i>
   <i type="int" name="NGZ">    90</i>
   <i type="int" name="NGXF">   180</i>
   <i type="int" name="NGYF">   100</i>
   <i type="int" name="NGZF">   180</i>
   <i type="logical" name="ADDGRID"> F  </i>
  </separator>
  <separator name="ionic" >
   <i type="int" name="NSW">     0</i>
   <i type="int" name="IBRION">    -1</i>
   <i type="int" name="MDALGO">     0</i>
   <i type="int" name="ISIF">     2</i>
   <i name="PSTRESS">      0.00000000</i>
   <i name="EDIFFG">      0.00100000</i>
   <i type="int" name="NFREE">     0</i>
   <i name="POTIM">      0.50000000</i>
   <i name="SMASS">     -3.00000000</i>
   <i name="SCALEE">      1.00000000</i>
  </separator>
  <separator name="ionic md" >
   <i name="TEBEG">      0.00010000</i>
   <i name="TEEND">      0.00010000</i>
   <i type="int" name="NBLOCK">     1</i>
   <i type="int" name="KBLOCK">     1</i>
   <i type="int" name="NPACO">   256</i>
   <i name="APACO">     16.00000000</i>
  </separator>
  <separator name="symmetry" >
   <i type="int" name="ISYM">     2</i>
   <i name="SYMPREC">      0.00001000</i>
  </separator>
  <separator name="dos" >
   <i type="int" name="LORBIT">     0</i>
   <v name="RWIGS">     -1.00000000     -1.00000000</v>
   <i type="int" name="NEDOS">   301</i>
   <i name="EMIN">     10.00000000</i>
   <i name="EMAX">    -10.00000000</i>
   <i name="EFERMI">      0.00000000</i>
  </separator>
  <separator name="writing" >
   <i type="int" name="NWRITE">     2</i>
   <i type="logical" name="LWAVE"> F  </i>
   <i type="logical" name="LDOWNSAMPLE"> F  </i>
   <i type="logical" name="LCHARG"> F  </i>
   <i type="logical" name="LPARD"> F  </i>
   <i type="logical" name="LVTOT"> F  </i>
   <i type="logical" name="LVHAR"> F  </i>
   <i type="logical" name="LELF"> F  </i>
   <i type="logical" name="LOPTICS"> F  </i>
   <v name="STM">      0.00000000      0.00000000      0.00000000      0.00000000      0.00000000      0.00000000      0.00000000</v>
  </separator>
  <separator name="performance" >
   <i type="int" name="NPAR">     2</i>
   <i type="int" name="NSIM">     4</i>
   <i type="int" name="NBLK">    -1</i>
   <i type="logical" name="LPLANE"> T  </i>
   <i type="logical" name="LSCALAPACK"> T  </i>
   <i type="logical" name="LSCAAWARE"> F  </i>
   <i type="logical" name="LSCALU"> F  </i>
   <i type="logical" name="LASYNC"> F  </i>
   <i type="logical" name="LORBITALREAL"> F  </i>
  </separator>
  <separator name="miscellaneous" >
   <i type="int" name="IDIOT">     3</i>
   <i type="int" name="ISPECIAL">     0</i>
   <i type="logical" name="LMUSIC"> F  </i>
   <v name="POMASS">     58.69000000     32.06600000</v>
   <v name="DARWINR">      0.00000000      0.00000000</v>
   <v name="DARWINV">      1.00000000      1.00000000</v>
   <i type="logical" name="LCORR"> T  </i>
  </separator>
  <i type="logical" name="GGA_COMPAT"> T  </i>
  <i type="logical" name="LBERRY"> F  </i>
  <i type="int" name="ICORELEVEL">     0</i>
  <i type="logical" name="LDAU"> F  </i>
  <i type="int" name="I_CONSTRAINED_M">     0</i>
  <separator name="electronic exchange-correlation" >
   <i type="string" name="GGA">--</i>
   <i type="int" name="VOSKOWN">     0</i>
   <i type="logical" name="LHFCALC"> F  </i>
   <i type="string" name="PRECFOCK"></i>
   <i type="logical" name="LSYMGRAD"> F  </i>
   <i type="logical" name="LHFONE"> F  </i>
   <i type="logical" name="LRHFCALC"> F  </i>
   <i type="logical" name="LTHOMAS"> F  </i>
   <i type="logical" name="LMODELHF"> F  </i>
   <i name="ENCUT4O">     -1.00000000</i>
   <i type="int" name="EXXOEP">     0</i>
   <i type="int" name="FOURORBIT">     0</i>
   <i name="AEXX">      0.00000000</i>
   <i name="HFALPHA">      0.00000000</i>
   <i name="MCALPHA">      0.00000000</i>
   <i name="ALDAX">      1.00000000</i>
   <i name="AGGAX">      1.00000000</i>
   <i name="ALDAC">      1.00000000</i>
   <i name="AGGAC">      1.00000000</i>
   <i type="int" name="NKREDX">     1</i>
   <i type="int" name="NKREDY">     1</i>
   <i type="int" name="NKREDZ">     1</i>
   <i type="logical" name="SHIFTRED"> F  </i>
   <i type="logical" name="ODDONLY"> F  </i>
   <i type="logical" name="EVENONLY"> F  </i>
   <i type="int" name="LMAXFOCK">     0</i>
   <i type="int" name="NMAXFOCKAE">     0</i>
   <i type="logical" name="LFOCKAEDFT"> F  </i>
   <i name="HFSCREEN">      0.00000000</i>
   <i name="HFSCREENC">      0.00000000</i>
   <i type="int" name="NBANDSGWLOW">     0</i>
  </separator>
  <separator name="vdW DFT" >
   <i type="logical" name="LUSE_VDW"> F  </i>
   <i name="Zab_VDW">     -0.84910000</i>
   <i name="PARAM1">      0.12340000</i>
   <i name="PARAM2">      1.00000000</i>
   <i name="PARAM3">      0.00000000</i>
  </separator>
  <separator name="model GW" >
   <i type="int" name="MODEL_GW">     0</i>
   <i name="MODEL_EPS0">     21.83944246</i>
   <i name="MODEL_ALPHA">      1.00000000</i>
  </separator>
  <separator name="linear response parameters" >
   <i type="logical" name="LEPSILON"> F  </i>
   <i type="logical" name="LRPA"> F  </i>
   <i type="logical" name="LNABLA"> F  </i>
   <i type="logical" name="LVEL"> F  </i>
   <i type="int" name="KINTER">     0</i>
   <i name="CSHIFT">      0.10000000</i>
   <i name="OMEGAMAX">     -1.00000000</i>
   <i name="DEG_THRESHOLD">      0.00200000</i>
   <i name="RTIME">     -0.10000000</i>
   <i name="WPLASMAI">      0.00000000</i>
   <v name="DFIELD">      0.00000000      0.00000000      0.00000000</v>
   <v name="WPLASMA">      0.00000000      0.00000000      0.00000000      0.00000000      0.00000000      0.00000000      0.00000000      0.00000000      0.00000000</v>
  </separator>
  <separator name="orbital magnetization" >
   <i type="logical" name="NUCIND"> F  </i>
   <v name="MAGPOS">      0.00000000      0.00000000      0.00000000</v>
   <i type="logical" name="LNICSALL"> T  </i>
   <i type="logical" name="ORBITALMAG"> F  </i>
   <i type="logical" name="LMAGBLOCH"> F  </i>
   <i type="logical" name="LCHIMAG"> F  </i>
   <i type="logical" name="LGAUGE"> T  </i>
   <i type="int" name="MAGATOM">     0</i>
   <v name="MAGDIPOL">      0.00000000      0.00000000      0.00000000</v>
   <v name="AVECCONST">      0.00000000      0.00000000      0.00000000</v>
  </separator>
  <separator name="response functions" >
   <i type="logical" name="LADDER"> F  </i>
   <i type="logical" name="LRPAFORCE"> F  </i>
   <i type="logical" name="LFXC"> F  </i>
   <i type="logical" name="LHARTREE"> T  </i>
   <i type="int" name="IBSE">     0</i>
   <v type="int" name="KPOINT">    -1     0     0     0</v>
   <i type="logical" name="LTCTE"> F  </i>
   <i type="logical" name="LTETE"> F  </i>
   <i type="logical" name="LTRIPLET"> F  </i>
   <i type="logical" name="LFXCEPS"> F  </i>
   <i type="logical" name="LFXHEG"> F  </i>
   <i type="int" name="NATURALO">     2</i>
   <i type="logical" name="L2ORDER"> F  </i>
   <i type="logical" name="LMP2LT"> F  </i>
   <i type="logical" name="LUSEW"> F  </i>
   <i name="ENCUTGW">     -2.00000000</i>
   <i name="ENCUTGWSOFT">     -2.00000000</i>
   <i name="ENCUTLF">     -1.00000000</i>
   <i type="int" name="LMAXMP2">    -1</i>
   <i name="SCISSOR">      0.00000000</i>
   <i type="int" name="NOMEGA">     0</i>
   <i type="int" name="NOMEGAR">     0</i>
   <i type="int" name="NBANDSGW">    -1</i>
   <i type="int" name="NBANDSO">    -1</i>
   <i type="int" name="NBANDSV">    -1</i>
   <i type="int" name="NELM">   100</i>
   <i type="int" name="NELMHF">     1</i>
   <i type="int" name="DIM">     3</i>
   <i type="int" name="ANTIRES">     0</i>
   <i name="OMEGAMAX">    -30.00000000</i>
   <i name="OMEGAMIN">    -30.00000000</i>
   <i name="OMEGATL">   -200.00000000</i>
   <i type="int" name="OMEGAGRID">   140</i>
   <i name="CSHIFT">     -0.10000000</i>
   <i type="logical" name="SELFENERGY"> F  </i>
   <i type="logical" name="LSPECTRAL"> F  </i>
   <i type="logical" name="LSPECTRALGW"> F  </i>
   <i type="logical" name="LSINGLES"> F  </i>
   <i type="logical" name="LFERMIGW"> F  </i>
   <i type="logical" name="ODDONLYGW"> F  </i>
   <i type="logical" name="EVENONLYGW"> F  </i>
   <i type="int" name="NKREDLFX">     1</i>
   <i type="int" name="NKREDLFY">     1</i>
   <i type="int" name="NKREDLFZ">     1</i>
   <i type="int" name="MAXMEM">  2800</i>
   <i type="int" name="TELESCOPE">     0</i>
   <i type="int" name="TAUPAR">     1</i>
   <i type="int" name="OMEGAPAR">    -1</i>
   <i name="LAMBDA">      1.00000000</i>
  </separator>
  <separator name="External order field" >
   <i name="OFIELD_KAPPA">      0.00000000</i>
   <v name="OFIELD_K">      0.00000000      0.00000000      0.00000000</v>
   <i name="OFIELD_Q6_NEAR">      0.00000000</i>
   <i name="OFIELD_Q6_FAR">      0.00000000</i>
   <i name="OFIELD_A">      0.00000000</i>
  </separator>
 </parameters>
 <atominfo>
  <atoms>      74 </atoms>
  <types>       2 </types>
  <array name="atoms" >
   <dimension dim="1">ion</dimension>
   <field type="string">element</field>
   <field type="int">atomtype</field>
   <set>
    <rc><c>Ni</c><c>   1</c></rc>
    <rc><c>Ni</c><c>   1</c></rc>
    <rc><c>Ni</c><c>   1</c></rc>
    <rc><c>Ni</c><c>   1</c></rc>
    <rc><c>Ni</c><c>   1</c></rc>
    <rc><c>Ni</c><c>   1</c></rc>
    <rc><c>Ni</c><c>   1</c></rc>
    <rc><c>Ni</c><c>   1</c></rc>
    <rc><c>Ni</c><c>   1</c></rc>
    <rc><c>Ni</c><c>   1</c></rc>
    <rc><c>Ni</c><c>   1</c></rc>
    <rc><c>Ni</c><c>   1</c></rc>
    <rc><c>Ni</c><c>   1</c></rc>
    <rc><c>Ni</c><c>   1</c></rc>
    <rc><c>Ni</c><c>   1</c></rc>
    <rc><c>Ni</c><c>   1</c></rc>
    <rc><c>Ni</c><c>   1</c></rc>
    <rc><c>Ni</c><c>   1</c></rc>
    <rc><c>Ni</c><c>   1</c></rc>
    <rc><c>Ni</c><c>   1</c></rc>
    <rc><c>Ni</c><c>   1</c></rc>
    <rc><c>Ni</c><c>   1</c></rc>
    <rc><c>Ni</c><c>   1</c></rc>
    <rc><c>Ni</c><c>   1</c></rc>
    <rc><c>Ni</c><c>   1</c></rc>
    <rc><c>Ni</c><c>   1</c></rc>
    <rc><c>Ni</c><c>   1</c></rc>
    <rc><c>Ni</c><c>   1</c></rc>
    <rc><c>Ni</c><c>   1</c></rc>
    <rc><c>Ni</c><c>   1</c></rc>
    <rc><c>Ni</c><c>   1</c></rc>
    <rc><c>Ni</c><c>   1</c></rc>
    <rc><c>Ni</c><c>   1</c></rc>
    <rc><c>Ni</c><c>   1</c></rc>
    <rc><c>Ni</c><c>   1</c></rc>
    <rc><c>Ni</c><c>   1</c></rc>
    <rc><c>Ni</c><c>   1</c></rc>
    <rc><c>S </c><c>   2</c></rc>
    <rc><c>S </c><c>   2</c></rc>
    <rc><c>S </c><c>   2</c></rc>
    <rc><c>S </c><c>   2</c></rc>
    <rc><c>S </c><c>   2</c></rc>
    <rc><c>S </c><c>   2</c></rc>
    <rc><c>S </c><c>   2</c></rc>
    <rc><c>S </c><c>   2</c></rc>
    <rc><c>S </c><c>   2</c></rc>
    <rc><c>S </c><c>   2</c></rc>
    <rc><c>S </c><c>   2</c></rc>
    <rc><c>S </c><c>   2</c></rc>
    <rc><c>S </c><c>   2</c></rc>
    <rc><c>S </c><c>   2</c></rc>
    <rc><c>S </c><c>   2</c></rc>
    <rc><c>S </c><c>   2</c></rc>
    <rc><c>S </c><c>   2</c></rc>
    <rc><c>S </c><c>   2</c></rc>
    <rc><c>S </c><c>   2</c></rc>
    <rc><c>S </c><c>   2</c></rc>
    <rc><c>S </c><c>   2</c></rc>
    <rc><c>S </c><c>   2</c></rc>
    <rc><c>S </c><c>   2</c></rc>
    <rc><c>S </c><c>   2</c></rc>
    <rc><c>S </c><c>   2</c></rc>
    <rc><c>S </c><c>   2</c></rc>
    <rc><c>S </c><c>   2</c></rc>
    <rc><c>S </c><c>   2</c></rc>
    <rc><c>S </c><c>   2</c></rc>
    <rc><c>S </c><c>   2</c></rc>
    <rc><c>S </c><c>   2</c></rc>
    <rc><c>S </c><c>   2</c></rc>
    <rc><c>S </c><c>   2</c></rc>
    <rc><c>S </c><c>   2</c></rc>
    <rc><c>S </c><c>   2</c></rc>
    <rc><c>S </c><c>   2</c></rc>
    <rc><c>S </c><c>   2</c></rc>
   </set>
  </array>
  <array name="atomtypes" >
   <dimension dim="1">type</dimension>
   <field type="int">atomspertype</field>
   <field type="string">element</field>
   <field>mass</field>
   <field>valence</field>
   <field type="string">pseudopotential</field>
   <set>
    <rc><c>  37</c><c>Ni</c><c>     58.69000000</c><c>     16.00000000</c><c>  PAW_PBE Ni_pv 06Sep2000               </c></rc>
    <rc><c>  37</c><c>S </c><c>     32.06600000</c><c>      6.00000000</c><c>  PAW_PBE S 06Sep2000                   </c></rc>
   </set>
  </array>
 </atominfo>
 <structure name="initialpos" >
  <crystal>
   <varray name="basis" >
    <v>      16.88469405       0.00000000       0.00000000 </v>
    <v>       0.00000000       9.57841000       0.00000000 </v>
    <v>       0.00000000       0.00000000      16.65464569 </v>
   </varray>
   <i name="volume">   2693.53123734 </i>
   <varray name="rec_basis" >
    <v>       0.05922524       0.00000000       0.00000000 </v>
    <v>       0.00000000       0.10440146       0.00000000 </v>
    <v>       0.00000000       0.00000000       0.06004331 </v>
   </varray>
  </crystal>
  <varray name="positions" >
   <v>       0.78004630       0.14529696       0.12347080 </v>
   <v>       0.79962348       0.14551617       0.28415346 </v>
   <v>       0.21544637       0.62479431       0.09907081 </v>
   <v>       0.29733028       0.64529696       0.21607389 </v>
   <v>       0.39061408       0.12950458       0.12804274 </v>
   <v>       0.46975828       0.14529696       0.24694159 </v>
   <v>       0.95247430       0.64529696       0.15433850 </v>
   <v>       0.97522443       0.64503507       0.31770916 </v>
   <v>       0.17084364       0.14738095       0.04691384 </v>
   <v>       0.12490229       0.14529696       0.18520619 </v>
   <v>       0.06997813       0.10364787       0.31258434 </v>
   <v>       0.57954368       0.64905634       0.15033880 </v>
   <v>       0.64218627       0.64529696       0.27780929 </v>
   <v>       0.90963232       0.00393445       0.11939088 </v>
   <v>       0.94061253       0.00870352       0.26921655 </v>
   <v>       0.35706743       0.64593657       0.06308111 </v>
   <v>       0.42486675       0.51319396       0.19160760 </v>
   <v>       0.47666408       0.47569107       0.32353552 </v>
   <v>       0.59071349       0.90937857       0.09266431 </v>
   <v>       0.59729475       0.01319396       0.22247530 </v>
   <v>       0.08001077       0.51319396       0.12987220 </v>
   <v>       0.11280411       0.49927992       0.29223468 </v>
   <v>       0.25243876       0.01319396       0.16073990 </v>
   <v>       0.29349057       0.98249362       0.29961489 </v>
   <v>       0.77643283       0.43513465       0.12083842 </v>
   <v>       0.76972274       0.51319396       0.25334300 </v>
   <v>       0.90987731       0.28655862       0.11997335 </v>
   <v>       0.94397681       0.27747069       0.27035410 </v>
   <v>       0.44671924       0.85383761       0.05769998 </v>
   <v>       0.42486675       0.77739996       0.19160760 </v>
   <v>       0.53083506       0.14710580       0.09180671 </v>
   <v>       0.59729475       0.27739996       0.22247530 </v>
   <v>       0.08001077       0.77739996       0.12987220 </v>
   <v>       0.11212559       0.78560086       0.29522794 </v>
   <v>       0.25243876       0.27739996       0.16073990 </v>
   <v>       0.76691994       0.86817645       0.12098473 </v>
   <v>       0.76972274       0.77739996       0.25334300 </v>
   <v>       0.96239139       0.14143392       0.36356109 </v>
   <v>       0.99146120       0.14529696       0.18349304 </v>
   <v>       0.47417723       0.64529696       0.09088994 </v>
   <v>       0.51257591       0.64645251       0.25786864 </v>
   <v>       0.64660522       0.14529696       0.12175764 </v>
   <v>       0.67699134       0.14648680       0.28392463 </v>
   <v>       0.11194157       0.64562105       0.03801977 </v>
   <v>       0.16388920       0.64529696       0.21436074 </v>
   <v>       0.08018187       0.63930979       0.37913612 </v>
   <v>       0.28837965       0.14844543       0.06339757 </v>
   <v>       0.32969182       0.15416375       0.23560105 </v>
   <v>       0.81903321       0.64529696       0.15262534 </v>
   <v>       0.85073888       0.64514489       0.31302886 </v>
   <v>       0.81619102       0.29399729       0.04064801 </v>
   <v>       0.82906105       0.31351196       0.21464750 </v>
   <v>       0.31177707       0.81351196       0.12204440 </v>
   <v>       0.34887766       0.79771488       0.28988487 </v>
   <v>       0.48420507       0.31351196       0.15291210 </v>
   <v>       0.52599180       0.28557901       0.32332541 </v>
   <v>       0.00148905       0.81351196       0.24551520 </v>
   <v>       0.96771611       0.82082461       0.08317976 </v>
   <v>       0.14209372       0.32506023       0.10917263 </v>
   <v>       0.13477752       0.28143689       0.28455390 </v>
   <v>       0.65663306       0.81351196       0.18377980 </v>
   <v>       0.69613404       0.78888308       0.34852026 </v>
   <v>       0.31177707       0.47708196       0.12204440 </v>
   <v>       0.35996191       0.50933101       0.29527374 </v>
   <v>       0.81650443       0.99820692       0.03967372 </v>
   <v>       0.82906105       0.97708196       0.21464750 </v>
   <v>       0.00148905       0.47708196       0.24551520 </v>
   <v>       0.96722370       0.46988893       0.08315235 </v>
   <v>       0.48420507       0.97708196       0.15291210 </v>
   <v>       0.52161713       0.99703982       0.31688722 </v>
   <v>       0.65663306       0.47708196       0.18377980 </v>
   <v>       0.69476865       0.49836340       0.34740354 </v>
   <v>       0.14011847       0.96866588       0.10677055 </v>
   <v>       0.17391704       0.97708196       0.27638290 </v>
  </varray>
 </structure>
 <calculation>
  <scstep>
   <time name="dav">    9.48    9.48</time>
   <time name="total">    9.85    9.85</time>
   <energy>
    <i name="alphaZ">   1458.83996183 </i>
    <i name="ewald"> 170078.89027110 </i>
    <i name="hartreedc">-293689.62073442 </i>
    <i name="XCdc">   3785.09813876 </i>
    <i name="pawpsdc"> 115860.90926010 </i>
    <i name="pawaedc">-120909.33166199 </i>
    <i name="eentropy">     -0.55202679 </i>
    <i name="bandstr">  -7227.15906631 </i>
    <i name="atom"> 139780.45519414 </i>
    <i name="e_fr_energy">   9137.52933642 </i>
    <i name="e_wo_entrp">   9138.08136321 </i>
    <i name="e_0_energy">   9137.80534982 </i>
   </energy>
  </scstep>
  <scstep>
   <time name="dav">    8.50    8.50</time>
   <time name="total">    8.50    8.51</time>
   <energy>
    <i name="e_fr_energy">    499.25566082 </i>
    <i name="e_wo_entrp">    500.02104988 </i>
    <i name="e_0_energy">    499.63835535 </i>
   </energy>
  </scstep>
  <scstep>
   <time name="dav">    8.81    8.81</time>
   <time name="total">    8.81    8.81</time>
   <energy>
    <i name="e_fr_energy">   -358.34918285 </i>
    <i name="e_wo_entrp">   -357.22308976 </i>
    <i name="e_0_energy">   -357.78613630 </i>
   </energy>
  </scstep>
  <scstep>
   <time name="dav">    8.80    8.80</time>
   <time name="total">    8.80    8.80</time>
   <energy>
    <i name="e_fr_energy">   -402.37417404 </i>
    <i name="e_wo_entrp">   -401.25339868 </i>
    <i name="e_0_energy">   -401.81378636 </i>
   </energy>
  </scstep>
  <scstep>
   <time name="dav">    9.65    9.66</time>
   <time name="total">    9.97    9.98</time>
   <energy>
    <i name="e_fr_energy">   -404.19460999 </i>
    <i name="e_wo_entrp">   -403.07626420 </i>
    <i name="e_0_energy">   -403.63543709 </i>
   </energy>
  </scstep>
  <scstep>
   <time name="dav">    9.54    9.54</time>
   <time name="total">   10.20   10.20</time>
   <energy>
    <i name="e_fr_energy">   -474.26988038 </i>
    <i name="e_wo_entrp">   -473.51705444 </i>
    <i name="e_0_energy">   -473.89346741 </i>
   </energy>
  </scstep>
  <scstep>
   <time name="dav">    8.84    8.85</time>
   <time name="total">    9.52    9.52</time>
   <energy>
    <i name="e_fr_energy">   -370.92479582 </i>
    <i name="e_wo_entrp">   -370.02230844 </i>
    <i name="e_0_energy">   -370.47355213 </i>
   </energy>
  </scstep>
  <scstep>
   <time name="dav">   10.38   10.38</time>
   <time name="total">   11.05   11.05</time>
   <energy>
    <i name="e_fr_energy">   -413.06533790 </i>
    <i name="e_wo_entrp">   -412.02724320 </i>
    <i name="e_0_energy">   -412.54629055 </i>
   </energy>
  </scstep>
  <scstep>
   <time name="dav">    9.78    9.78</time>
   <time name="total">   10.52   10.52</time>
   <energy>
    <i name="e_fr_energy">   -372.43923636 </i>
    <i name="e_wo_entrp">   -371.32401186 </i>
    <i name="e_0_energy">   -371.88162411 </i>
   </energy>
  </scstep>
  <scstep>
   <time name="dav">   10.46   10.46</time>
   <time name="total">   11.13   11.13</time>
   <energy>
    <i name="e_fr_energy">   -391.21935665 </i>
    <i name="e_wo_entrp">   -390.18063392 </i>
    <i name="e_0_energy">   -390.69999528 </i>
   </energy>
  </scstep>
  <scstep>
   <time name="dav">   10.16   10.16</time>
   <time name="total">   10.84   10.84</time>
   <energy>
    <i name="e_fr_energy">   -365.71321080 </i>
    <i name="e_wo_entrp">   -364.63539990 </i>
    <i name="e_0_energy">   -365.17430535 </i>
   </energy>
  </scstep>
  <scstep>
   <time name="dav">   10.33   10.33</time>
   <time name="total">   11.00   11.01</time>
   <energy>
    <i name="e_fr_energy">   -359.63350668 </i>
    <i name="e_wo_entrp">   -358.57491146 </i>
    <i name="e_0_energy">   -359.10420907 </i>
   </energy>
  </scstep>
  <scstep>
   <time name="dav">    9.97    9.98</time>
   <time name="total">   10.66   10.66</time>
   <energy>
    <i name="e_fr_energy">   -356.25953617 </i>
    <i name="e_wo_entrp">   -355.12928018 </i>
    <i name="e_0_energy">   -355.69440818 </i>
   </energy>
  </scstep>
  <scstep>
   <time name="dav">   10.03   10.03</time>
   <time name="total">   10.71   10.71</time>
   <energy>
    <i name="e_fr_energy">   -354.25599792 </i>
    <i name="e_wo_entrp">   -353.16627301 </i>
    <i name="e_0_energy">   -353.71113546 </i>
   </energy>
  </scstep>
  <scstep>
   <time name="dav">   10.25   10.26</time>
   <time name="total">   10.93   10.94</time>
   <energy>
    <i name="e_fr_energy">   -353.36169197 </i>
    <i name="e_wo_entrp">   -352.28413518 </i>
    <i name="e_0_energy">   -352.82291357 </i>
   </energy>
  </scstep>
  <scstep>
   <time name="dav">   10.14   10.14</time>
   <time name="total">   10.83   10.83</time>
   <energy>
    <i name="e_fr_energy">   -352.84807896 </i>
    <i name="e_wo_entrp">   -351.74470445 </i>
    <i name="e_0_energy">   -352.29639171 </i>
   </energy>
  </scstep>
  <scstep>
   <time name="dav">   10.25   10.26</time>
   <time name="total">   10.94   10.94</time>
   <energy>
    <i name="e_fr_energy">   -352.53448385 </i>
    <i name="e_wo_entrp">   -351.42384889 </i>
    <i name="e_0_energy">   -351.97916637 </i>
   </energy>
  </scstep>
  <scstep>
   <time name="dav">   10.29   10.29</time>
   <time name="total">   10.99   10.99</time>
   <energy>
    <i name="e_fr_energy">   -352.10739582 </i>
    <i name="e_wo_entrp">   -351.00135658 </i>
    <i name="e_0_energy">   -351.55437620 </i>
   </energy>
  </scstep>
  <scstep>
   <time name="dav">   10.50   10.50</time>
   <time name="total">   11.19   11.19</time>
   <energy>
    <i name="e_fr_energy">   -351.75744246 </i>
    <i name="e_wo_entrp">   -350.64053459 </i>
    <i name="e_0_energy">   -351.19898853 </i>
   </energy>
  </scstep>
  <scstep>
   <time name="dav">   10.85   10.86</time>
   <time name="total">   11.59   11.60</time>
   <energy>
    <i name="e_fr_energy">   -351.42050979 </i>
    <i name="e_wo_entrp">   -350.27539789 </i>
    <i name="e_0_energy">   -350.84795384 </i>
   </energy>
  </scstep>
  <scstep>
   <time name="dav">    9.88    9.89</time>
   <time name="total">   10.67   10.67</time>
   <energy>
    <i name="e_fr_energy">   -351.37027189 </i>
    <i name="e_wo_entrp">   -350.24427414 </i>
    <i name="e_0_energy">   -350.80727301 </i>
   </energy>
  </scstep>
  <scstep>
   <time name="dav">    9.55    9.55</time>
   <time name="total">   10.37   10.37</time>
   <energy>
    <i name="e_fr_energy">   -351.34974229 </i>
    <i name="e_wo_entrp">   -350.20883445 </i>
    <i name="e_0_energy">   -350.77928837 </i>
   </energy>
  </scstep>
  <scstep>
   <time name="dav">    8.89    8.90</time>
   <time name="total">    9.59    9.59</time>
   <energy>
    <i name="e_fr_energy">   -351.34144553 </i>
    <i name="e_wo_entrp">   -350.21495808 </i>
    <i name="e_0_energy">   -350.77820180 </i>
   </energy>
  </scstep>
  <scstep>
   <time name="dav">    9.34    9.35</time>
   <time name="total">   10.04   10.04</time>
   <energy>
    <i name="e_fr_energy">   -351.33352142 </i>
    <i name="e_wo_entrp">   -350.20400667 </i>
    <i name="e_0_energy">   -350.76876405 </i>
   </energy>
  </scstep>
  <scstep>
   <time name="dav">   10.25   10.26</time>
   <time name="total">   10.95   10.95</time>
   <energy>
    <i name="e_fr_energy">   -351.33402666 </i>
    <i name="e_wo_entrp">   -350.21259239 </i>
    <i name="e_0_energy">   -350.77330952 </i>
   </energy>
  </scstep>
  <scstep>
   <time name="dav">   10.19   10.20</time>
   <time name="total">   10.89   10.90</time>
   <energy>
    <i name="e_fr_energy">   -351.32544081 </i>
    <i name="e_wo_entrp">   -350.19926510 </i>
    <i name="e_0_energy">   -350.76235295 </i>
   </energy>
  </scstep>
  <scstep>
   <time name="dav">   10.19   10.20</time>
   <time name="total">   10.89   10.89</time>
   <energy>
    <i name="e_fr_energy">   -351.32392267 </i>
    <i name="e_wo_entrp">   -350.20428581 </i>
    <i name="e_0_energy">   -350.76410424 </i>
   </energy>
  </scstep>
  <scstep>
   <time name="dav">    9.36    9.37</time>
   <time name="total">   10.07   10.07</time>
   <energy>
    <i name="e_fr_energy">   -351.32256817 </i>
    <i name="e_wo_entrp">   -350.20159700 </i>
    <i name="e_0_energy">   -350.76208258 </i>
   </energy>
  </scstep>
  <scstep>
   <time name="dav">    9.85    9.85</time>
   <time name="total">   10.56   10.56</time>
   <energy>
    <i name="e_fr_energy">   -351.32283111 </i>
    <i name="e_wo_entrp">   -350.20267387 </i>
    <i name="e_0_energy">   -350.76275249 </i>
   </energy>
  </scstep>
  <scstep>
   <time name="dav">    8.58    8.58</time>
   <time name="total">    9.29    9.30</time>
   <energy>
    <i name="e_fr_energy">   -351.32273403 </i>
    <i name="e_wo_entrp">   -350.20192272 </i>
    <i name="e_0_energy">   -350.76232838 </i>
   </energy>
  </scstep>
  <scstep>
   <time name="dav">    8.83    8.84</time>
   <time name="total">    9.64    9.65</time>
   <energy>
    <i name="e_fr_energy">   -351.32314715 </i>
    <i name="e_wo_entrp">   -350.20304366 </i>
    <i name="e_0_energy">   -350.76309541 </i>
   </energy>
  </scstep>
  <scstep>
   <time name="dav">    7.80    7.80</time>
   <time name="total">    8.17    8.18</time>
   <energy>
    <i name="alphaZ">   1458.83996183 </i>
    <i name="ewald"> 170078.89027110 </i>
    <i name="hartreedc">-293002.52206835 </i>
    <i name="XCdc">   3755.22958713 </i>
    <i name="pawpsdc"> 144777.20536084 </i>
    <i name="pawaedc">-149909.31382325 </i>
    <i name="eentropy">     -1.12120079 </i>
    <i name="bandstr"> -17288.98643808 </i>
    <i name="atom"> 139780.45519414 </i>
    <i name="e_fr_energy">   -351.32315543 </i>
    <i name="e_wo_entrp">   -350.20195463 </i>
    <i name="e_0_energy">   -350.76255503 </i>
   </energy>
  </scstep>
  <structure>
   <crystal>
    <varray name="basis" >
     <v>      16.88469405       0.00000000       0.00000000 </v>
     <v>       0.00000000       9.57841000       0.00000000 </v>
     <v>       0.00000000       0.00000000      16.65464569 </v>
    </varray>
    <i name="volume">   2693.53123734 </i>
    <varray name="rec_basis" >
     <v>       0.05922524       0.00000000       0.00000000 </v>
     <v>       0.00000000       0.10440146       0.00000000 </v>
     <v>       0.00000000       0.00000000       0.06004331 </v>
    </varray>
   </crystal>
   <varray name="positions" >
    <v>       0.78004630       0.14529696       0.12347080 </v>
    <v>       0.79962348       0.14551617       0.28415346 </v>
    <v>       0.21544637       0.62479431       0.09907081 </v>
    <v>       0.29733028       0.64529696       0.21607389 </v>
    <v>       0.39061408       0.12950458       0.12804274 </v>
    <v>       0.46975828       0.14529696       0.24694159 </v>
    <v>       0.95247430       0.64529696       0.15433850 </v>
    <v>       0.97522443       0.64503507       0.31770916 </v>
    <v>       0.17084364       0.14738095       0.04691384 </v>
    <v>       0.12490229       0.14529696       0.18520619 </v>
    <v>       0.06997813       0.10364787       0.31258434 </v>
    <v>       0.57954368       0.64905634       0.15033880 </v>
    <v>       0.64218627       0.64529696       0.27780929 </v>
    <v>       0.90963232       0.00393445       0.11939088 </v>
    <v>       0.94061253       0.00870352       0.26921655 </v>
    <v>       0.35706743       0.64593657       0.06308111 </v>
    <v>       0.42486675       0.51319396       0.19160760 </v>
    <v>       0.47666408       0.47569107       0.32353552 </v>
    <v>       0.59071349       0.90937857       0.09266431 </v>
    <v>       0.59729475       0.01319396       0.22247530 </v>
    <v>       0.08001077       0.51319396       0.12987220 </v>
    <v>       0.11280411       0.49927992       0.29223468 </v>
    <v>       0.25243876       0.01319396       0.16073990 </v>
    <v>       0.29349057       0.98249362       0.29961489 </v>
    <v>       0.77643283       0.43513465       0.12083842 </v>
    <v>       0.76972274       0.51319396       0.25334300 </v>
    <v>       0.90987731       0.28655862       0.11997335 </v>
    <v>       0.94397681       0.27747069       0.27035410 </v>
    <v>       0.44671924       0.85383761       0.05769998 </v>
    <v>       0.42486675       0.77739996       0.19160760 </v>
    <v>       0.53083506       0.14710580       0.09180671 </v>
    <v>       0.59729475       0.27739996       0.22247530 </v>
    <v>       0.08001077       0.77739996       0.12987220 </v>
    <v>       0.11212559       0.78560086       0.29522794 </v>
    <v>       0.25243876       0.27739996       0.16073990 </v>
    <v>       0.76691994       0.86817645       0.12098473 </v>
    <v>       0.76972274       0.77739996       0.25334300 </v>
    <v>       0.96239139       0.14143392       0.36356109 </v>
    <v>       0.99146120       0.14529696       0.18349304 </v>
    <v>       0.47417723       0.64529696       0.09088994 </v>
    <v>       0.51257591       0.64645251       0.25786864 </v>
    <v>       0.64660522       0.14529696       0.12175764 </v>
    <v>       0.67699134       0.14648680       0.28392463 </v>
    <v>       0.11194157       0.64562105       0.03801977 </v>
    <v>       0.16388920       0.64529696       0.21436074 </v>
    <v>       0.08018187       0.63930979       0.37913612 </v>
    <v>       0.28837965       0.14844543       0.06339757 </v>
    <v>       0.32969182       0.15416375       0.23560105 </v>
    <v>       0.81903321       0.64529696       0.15262534 </v>
    <v>       0.85073888       0.64514489       0.31302886 </v>
    <v>       0.81619102       0.29399729       0.04064801 </v>
    <v>       0.82906105       0.31351196       0.21464750 </v>
    <v>       0.31177707       0.81351196       0.12204440 </v>
    <v>       0.34887766       0.79771488       0.28988487 </v>
    <v>       0.48420507       0.31351196       0.15291210 </v>
    <v>       0.52599180       0.28557901       0.32332541 </v>
    <v>       0.00148905       0.81351196       0.24551520 </v>
    <v>       0.96771611       0.82082461       0.08317976 </v>
    <v>       0.14209372       0.32506023       0.10917263 </v>
    <v>       0.13477752       0.28143689       0.28455390 </v>
    <v>       0.65663306       0.81351196       0.18377980 </v>
    <v>       0.69613404       0.78888308       0.34852026 </v>
    <v>       0.31177707       0.47708196       0.12204440 </v>
    <v>       0.35996191       0.50933101       0.29527374 </v>
    <v>       0.81650443       0.99820692       0.03967372 </v>
    <v>       0.82906105       0.97708196       0.21464750 </v>
    <v>       0.00148905       0.47708196       0.24551520 </v>
    <v>       0.96722370       0.46988893       0.08315235 </v>
    <v>       0.48420507       0.97708196       0.15291210 </v>
    <v>       0.52161713       0.99703982       0.31688722 </v>
    <v>       0.65663306       0.47708196       0.18377980 </v>
    <v>       0.69476865       0.49836340       0.34740354 </v>
    <v>       0.14011847       0.96866588       0.10677055 </v>
    <v>       0.17391704       0.97708196       0.27638290 </v>
   </varray>
  </structure>
  <varray name="forces" >
   <v>       0.09747479       0.20565593       0.95761160 </v>
   <v>      -0.01227387       0.00483706       0.98383199 </v>
   <v>       0.97842019       0.31786614      -0.42633909 </v>
   <v>      -0.53441939      -0.08182066      -0.32950644 </v>
   <v>       0.65275786       0.11622183      -0.87069889 </v>
   <v>      -1.38641251       1.05885456      -1.04423613 </v>
   <v>      -0.43539352       0.07997039       2.01814974 </v>
   <v>      -1.57141577       0.00606023       0.47206771 </v>
   <v>      -0.81197504       0.16415618      -1.95919506 </v>
   <v>      -0.79894167      -0.01663385       0.06213212 </v>
   <v>       0.66741914      -0.57895744       0.37548500 </v>
   <v>       0.74502890      -0.15160664      -0.95044379 </v>
   <v>      -0.98715457      -0.02194370      -1.44294422 </v>
   <v>       0.99589620       0.69120842       0.11105777 </v>
   <v>      -0.31827520      -1.10974980      -0.21937758 </v>
   <v>      -0.32447777      -0.07671360      -1.78671068 </v>
   <v>       0.38073634      -0.26931404      -2.23345206 </v>
   <v>      -0.00338827       0.65546303       1.04336296 </v>
   <v>       0.03162591      -0.15166464      -0.96993533 </v>
   <v>       1.22361186       0.21860615      -0.78004957 </v>
   <v>      -0.09408628      -0.39900580       1.36089512 </v>
   <v>       1.04975144      -1.37555447      -0.02812883 </v>
   <v>       0.34086625      -0.59637455       0.05925050 </v>
   <v>      -0.13697875       0.15273774       0.98435601 </v>
   <v>      -0.93807111       0.73442956       0.33295639 </v>
   <v>       0.59986334      -0.04010963      -1.31260874 </v>
   <v>       1.00205980      -0.68995699       0.19877156 </v>
   <v>      -0.97283596       1.14984350      -0.38293030 </v>
   <v>      -0.29879789       0.30614747      -0.73523318 </v>
   <v>       0.23314620      -0.15473606       0.23967840 </v>
   <v>      -0.32386835       0.01055882      -1.78314176 </v>
   <v>       0.54693527       0.49686694      -1.84977176 </v>
   <v>       0.16123871       0.49449473       1.62387996 </v>
   <v>       0.99035461       1.16982623       0.29749648 </v>
   <v>       0.65614761       0.90256830       0.86503004 </v>
   <v>      -0.49582274      -1.17610346       0.22043895 </v>
   <v>       1.15042002       0.00856060      -1.42435226 </v>
   <v>      -0.74788104       0.27129534       4.06585539 </v>
   <v>       1.52470742      -0.31829699      -2.27076322 </v>
   <v>       1.38490881      -0.45594805      -2.99316318 </v>
   <v>       0.17627498       1.04418012       2.06887820 </v>
   <v>       1.61147183      -0.36545245      -1.19642574 </v>
   <v>       0.69839086      -0.09300444       2.65053380 </v>
   <v>       0.17033141       0.00831487      -3.88857191 </v>
   <v>       1.50561314      -0.01066308      -0.13582227 </v>
   <v>       0.63021200       0.07733574       4.36740490 </v>
   <v>       1.70334724      -0.15239827      -3.13145532 </v>
   <v>       0.77952939       1.02341194       2.37978327 </v>
   <v>       0.34107088       0.39789493      -1.64270244 </v>
   <v>       0.81943802      -0.01282543       2.60209801 </v>
   <v>      -0.30228768       0.71291162      -3.96730520 </v>
   <v>      -0.67096838       1.37282878       1.53899338 </v>
   <v>      -0.82039924       1.40585194      -0.56515563 </v>
   <v>       0.25074646       0.30187386       2.40401438 </v>
   <v>      -1.02350335       1.03945766      -0.16371085 </v>
   <v>       0.10152364      -0.14740566       2.93030306 </v>
   <v>      -1.05575804       1.34012981      -0.77105277 </v>
   <v>      -0.56845418       0.80134357      -2.68101573 </v>
   <v>      -0.90866817       0.68681944      -1.21974338 </v>
   <v>       1.45974349       0.92214922       1.55841851 </v>
   <v>       0.26729172       1.16020918      -0.43104204 </v>
   <v>      -0.51492133       1.26269076       3.86649153 </v>
   <v>      -0.91901876      -2.01373405       0.13434610 </v>
   <v>      -1.77400387      -1.33602584       2.74702952 </v>
   <v>      -0.32593337      -0.87263014      -3.91156852 </v>
   <v>      -1.20720085      -1.51547114       1.36421626 </v>
   <v>      -1.23328323      -1.35592737      -0.70111338 </v>
   <v>      -0.39689510      -0.66049693      -2.75636679 </v>
   <v>      -0.95757355      -1.23539619      -0.15961868 </v>
   <v>      -0.38825280      -1.64284199       3.52469092 </v>
   <v>       0.06414070      -1.29795590      -0.95657695 </v>
   <v>      -0.45004308      -1.29392871       3.82544029 </v>
   <v>      -0.88902068      -1.03397850      -1.38046719 </v>
   <v>      -0.39384106      -0.06900615       1.21774707 </v>
  </varray>
  <varray name="stress" >
   <v>      71.62389663      -1.39289758      -1.89788958 </v>
   <v>      -1.39289753      70.99880887       0.94329850 </v>
   <v>      -1.89788968       0.94329842      90.12797317 </v>
  </varray>
  <energy>
   <i name="e_fr_energy">   -351.32315543 </i>
   <i name="e_wo_entrp">   -350.76255503 </i>
   <i name="e_0_energy">     -1.12120079 </i>
  </energy>
  <time name="totalsc">  337.28  337.41</time>
  <eigenvalues>
   <array>
    <dimension dim="1">band</dimension>
    <dimension dim="2">kpoint</dimension>
    <dimension dim="3">spin</dimension>
    <field>eigene</field>
    <field>occ</field>
    <set>
     <set comment="spin 1">
      <set comment="kpoint 1">
       <r>  -65.1251    1.0000 </r>
       <r>  -65.0448    1.0000 </r>
       <r>  -64.9927    1.0000 </r>
       <r>  -64.9765    1.0000 </r>
       <r>  -64.9609    1.0000 </r>
       <r>  -64.9563    1.0000 </r>
       <r>  -64.9366    1.0000 </r>
       <r>  -64.9312    1.0000 </r>
       <r>  -64.9281    1.0000 </r>
       <r>  -64.9161    1.0000 </r>
       <r>  -64.8996    1.0000 </r>
       <r>  -64.8938    1.0000 </r>
       <r>  -64.8915    1.0000 </r>
       <r>  -64.8884    1.0000 </r>
       <r>  -64.8844    1.0000 </r>
       <r>  -64.8618    1.0000 </r>
       <r>  -64.8478    1.0000 </r>
       <r>  -64.8285    1.0000 </r>
       <r>  -64.8072    1.0000 </r>
       <r>  -64.8031    1.0000 </r>
       <r>  -64.7984    1.0000 </r>
       <r>  -64.7965    1.0000 </r>
       <r>  -64.7801    1.0000 </r>
       <r>  -64.7606    1.0000 </r>
       <r>  -64.7513    1.0000 </r>
       <r>  -64.7511    1.0000 </r>
       <r>  -64.7506    1.0000 </r>
       <r>  -64.7500    1.0000 </r>
       <r>  -64.7415    1.0000 </r>
       <r>  -64.7300    1.0000 </r>
       <r>  -64.7291    1.0000 </r>
       <r>  -64.7189    1.0000 </r>
       <r>  -64.7065    1.0000 </r>
       <r>  -64.7059    1.0000 </r>
       <r>  -64.7009    1.0000 </r>
       <r>  -64.6843    1.0000 </r>
       <r>  -64.6785    1.0000 </r>
       <r>  -64.6725    1.0000 </r>
       <r>  -64.6686    1.0000 </r>
       <r>  -64.6679    1.0000 </r>
       <r>  -64.6495    1.0000 </r>
       <r>  -64.6456    1.0000 </r>
       <r>  -64.6348    1.0000 </r>
       <r>  -64.6282    1.0000 </r>
       <r>  -64.6073    1.0000 </r>
       <r>  -64.5943    1.0000 </r>
       <r>  -64.5932    1.0000 </r>
       <r>  -64.5809    1.0000 </r>
       <r>  -64.5580    1.0000 </r>
       <r>  -64.5439    1.0000 </r>
       <r>  -64.5435    1.0000 </r>
       <r>  -64.5397    1.0000 </r>
       <r>  -64.5373    1.0000 </r>
       <r>  -64.5343    1.0000 </r>
       <r>  -64.5159    1.0000 </r>
       <r>  -64.5036    1.0000 </r>
       <r>  -64.5019    1.0000 </r>
       <r>  -64.4968    1.0000 </r>
       <r>  -64.4821    1.0000 </r>
       <r>  -64.4820    1.0000 </r>
       <r>  -64.4819    1.0000 </r>
       <r>  -64.4693    1.0000 </r>
       <r>  -64.4680    1.0000 </r>
       <r>  -64.4646    1.0000 </r>
       <r>  -64.4636    1.0000 </r>
       <r>  -64.4586    1.0000 </r>
       <r>  -64.4508    1.0000 </r>
       <r>  -64.4419    1.0000 </r>
       <r>  -64.4419    1.0000 </r>
       <r>  -64.4380    1.0000 </r>
       <r>  -64.4296    1.0000 </r>
       <r>  -64.4235    1.0000 </r>
       <r>  -64.4139    1.0000 </r>
       <r>  -64.4100    1.0000 </r>
       <r>  -64.4009    1.0000 </r>
       <r>  -64.3952    1.0000 </r>
       <r>  -64.3857    1.0000 </r>
       <r>  -64.3744    1.0000 </r>
       <r>  -64.3741    1.0000 </r>
       <r>  -64.3656    1.0000 </r>
       <r>  -64.3654    1.0000 </r>
       <r>  -64.3468    1.0000 </r>
       <r>  -64.3452    1.0000 </r>
       <r>  -64.3298    1.0000 </r>
       <r>  -64.3076    1.0000 </r>
       <r>  -64.3048    1.0000 </r>
       <r>  -64.2455    1.0000 </r>
       <r>  -64.2316    1.0000 </r>
       <r>  -64.2315    1.0000 </r>
       <r>  -64.2232    1.0000 </r>
       <r>  -64.2067    1.0000 </r>
       <r>  -64.1813    1.0000 </r>
       <r>  -64.1581    1.0000 </r>
       <r>  -64.1535    1.0000 </r>
       <r>  -64.1103    1.0000 </r>
       <r>  -64.1066    1.0000 </r>
       <r>  -64.0647    1.0000 </r>
       <r>  -64.0024    1.0000 </r>
       <r>  -63.9844    1.0000 </r>
       <r>  -63.9496    1.0000 </r>
       <r>  -63.9177    1.0000 </r>
       <r>  -63.8649    1.0000 </r>
       <r>  -63.8465    1.0000 </r>
       <r>  -63.7987    1.0000 </r>
       <r>  -63.7807    1.0000 </r>
       <r>  -63.7530    1.0000 </r>
       <r>  -63.7079    1.0000 </r>
       <r>  -63.6674    1.0000 </r>
       <r>  -63.6563    1.0000 </r>
       <r>  -63.5866    1.0000 </r>
       <r>  -63.5509    1.0000 </r>
       <r>  -16.6813    1.0000 </r>
       <r>  -16.4859    1.0000 </r>
       <r>  -16.2362    1.0000 </r>
       <r>  -15.9763    1.0000 </r>
       <r>  -15.8027    1.0000 </r>
       <r>  -15.7164    1.0000 </r>
       <r>  -15.5861    1.0000 </r>
       <r>  -15.4575    1.0000 </r>
       <r>  -15.2552    1.0000 </r>
       <r>  -15.2249    1.0000 </r>
       <r>  -15.1613    1.0000 </r>
       <r>  -15.0059    1.0000 </r>
       <r>  -14.9203    1.0000 </r>
       <r>  -14.9042    1.0000 </r>
       <r>  -14.8320    1.0000 </r>
       <r>  -14.7562    1.0000 </r>
       <r>  -14.6500    1.0000 </r>
       <r>  -14.5965    1.0000 </r>
       <r>  -14.5012    1.0000 </r>
       <r>  -14.4486    1.0000 </r>
       <r>  -14.3896    1.0000 </r>
       <r>  -14.3617    1.0000 </r>
       <r>  -14.1969    1.0000 </r>
       <r>  -14.1005    1.0000 </r>
       <r>  -14.0346    1.0000 </r>
       <r>  -13.9572    1.0000 </r>
       <r>  -13.8909    1.0000 </r>
       <r>  -13.8540    1.0000 </r>
       <r>  -13.8127    1.0000 </r>
       <r>  -13.6490    1.0000 </r>
       <r>  -13.5817    1.0000 </r>
       <r>  -13.5437    1.0000 </r>
       <r>  -13.4196    1.0000 </r>
       <r>  -13.3551    1.0000 </r>
       <r>  -13.1790    1.0000 </r>
       <r>  -13.1063    1.0000 </r>
       <r>  -12.8752    1.0000 </r>
       <r>   -8.5401    1.0000 </r>
       <r>   -8.4188    1.0000 </r>
       <r>   -8.3046    1.0000 </r>
       <r>   -8.0672    1.0000 </r>
       <r>   -7.9994    1.0000 </r>
       <r>   -7.9662    1.0000 </r>
       <r>   -7.8712    1.0000 </r>
       <r>   -7.8431    1.0000 </r>
       <r>   -7.7902    1.0000 </r>
       <r>   -7.7468    1.0000 </r>
       <r>   -7.7071    1.0000 </r>
       <r>   -7.6433    1.0000 </r>
       <r>   -7.5664    1.0000 </r>
       <r>   -7.5300    1.0000 </r>
       <r>   -7.4358    1.0000 </r>
       <r>   -7.3976    1.0000 </r>
       <r>   -7.3436    1.0000 </r>
       <r>   -7.3064    1.0000 </r>
       <r>   -7.2597    1.0000 </r>
       <r>   -7.1773    1.0000 </r>
       <r>   -7.1321    1.0000 </r>
       <r>   -7.0805    1.0000 </r>
       <r>   -7.0060    1.0000 </r>
       <r>   -6.9434    1.0000 </r>
       <r>   -6.9402    1.0000 </r>
       <r>   -6.8551    1.0000 </r>
       <r>   -6.8533    1.0000 </r>
       <r>   -6.8200    1.0000 </r>
       <r>   -6.7425    1.0000 </r>
       <r>   -6.6935    1.0000 </r>
       <r>   -6.6560    1.0000 </r>
       <r>   -6.5215    1.0000 </r>
       <r>   -6.4960    1.0000 </r>
       <r>   -6.4453    1.0000 </r>
       <r>   -6.3985    1.0000 </r>
       <r>   -6.3601    1.0000 </r>
       <r>   -6.2940    1.0000 </r>
       <r>   -6.2641    1.0000 </r>
       <r>   -6.2402    1.0000 </r>
       <r>   -6.2154    1.0000 </r>
       <r>   -6.1990    1.0000 </r>
       <r>   -6.1563    1.0000 </r>
       <r>   -6.1293    1.0000 </r>
       <r>   -6.1008    1.0000 </r>
       <r>   -6.0595    1.0000 </r>
       <r>   -5.9951    1.0000 </r>
       <r>   -5.9882    1.0000 </r>
       <r>   -5.8885    1.0000 </r>
       <r>   -5.8386    1.0000 </r>
       <r>   -5.8110    1.0000 </r>
       <r>   -5.7982    1.0000 </r>
       <r>   -5.7635    1.0000 </r>
       <r>   -5.7152    1.0000 </r>
       <r>   -5.6633    1.0000 </r>
       <r>   -5.6456    1.0000 </r>
       <r>   -5.6287    1.0000 </r>
       <r>   -5.5686    1.0000 </r>
       <r>   -5.5611    1.0000 </r>
       <r>   -5.5397    1.0000 </r>
       <r>   -5.5167    1.0000 </r>
       <r>   -5.4478    1.0000 </r>
       <r>   -5.4184    1.0000 </r>
       <r>   -5.3663    1.0000 </r>
       <r>   -5.3379    1.0000 </r>
       <r>   -5.3122    1.0000 </r>
       <r>   -5.3004    1.0000 </r>
       <r>   -5.2558    1.0000 </r>
       <r>   -5.2308    1.0000 </r>
       <r>   -5.2013    1.0000 </r>
       <r>   -5.1824    1.0000 </r>
       <r>   -5.1569    1.0000 </r>
       <r>   -5.1230    1.0000 </r>
       <r>   -5.0887    1.0000 </r>
       <r>   -5.0733    1.0000 </r>
       <r>   -5.0679    1.0000 </r>
       <r>   -5.0468    1.0000 </r>
       <r>   -5.0143    1.0000 </r>
       <r>   -4.9993    1.0000 </r>
       <r>   -4.9580    1.0000 </r>
       <r>   -4.9215    1.0000 </r>
       <r>   -4.8989    1.0000 </r>
       <r>   -4.8848    1.0000 </r>
       <r>   -4.8387    1.0000 </r>
       <r>   -4.8138    1.0000 </r>
       <r>   -4.7947    1.0000 </r>
       <r>   -4.7429    1.0000 </r>
       <r>   -4.7252    1.0000 </r>
       <r>   -4.6786    1.0000 </r>
       <r>   -4.6308    1.0000 </r>
       <r>   -4.5484    1.0000 </r>
       <r>   -4.5033    1.0000 </r>
       <r>   -4.4853    1.0000 </r>
       <r>   -4.4799    1.0000 </r>
       <r>   -4.4304    1.0000 </r>
       <r>   -4.3690    1.0000 </r>
       <r>   -4.2868    1.0000 </r>
       <r>   -4.2614    1.0000 </r>
       <r>   -4.2536    1.0000 </r>
       <r>   -4.1790    1.0000 </r>
       <r>   -4.1122    1.0000 </r>
       <r>   -4.0825    1.0000 </r>
       <r>   -4.0280    1.0000 </r>
       <r>   -3.9774    1.0000 </r>
       <r>   -3.9124    1.0000 </r>
       <r>   -3.8688    1.0000 </r>
       <r>   -3.8390    1.0000 </r>
       <r>   -3.8269    1.0000 </r>
       <r>   -3.7813    1.0000 </r>
       <r>   -3.7623    1.0000 </r>
       <r>   -3.7197    1.0000 </r>
       <r>   -3.6876    1.0000 </r>
       <r>   -3.6611    1.0000 </r>
       <r>   -3.6406    1.0000 </r>
       <r>   -3.5959    1.0000 </r>
       <r>   -3.5535    1.0000 </r>
       <r>   -3.5432    1.0000 </r>
       <r>   -3.5211    1.0000 </r>
       <r>   -3.4660    1.0000 </r>
       <r>   -3.4112    1.0000 </r>
       <r>   -3.3837    1.0000 </r>
       <r>   -3.3677    1.0000 </r>
       <r>   -3.3297    1.0000 </r>
       <r>   -3.2805    1.0000 </r>
       <r>   -3.2729    1.0000 </r>
       <r>   -3.2359    1.0000 </r>
       <r>   -3.2139    1.0000 </r>
       <r>   -3.1739    1.0000 </r>
       <r>   -3.1603    1.0000 </r>
       <r>   -3.1266    1.0000 </r>
       <r>   -3.0945    1.0000 </r>
       <r>   -3.0854    1.0000 </r>
       <r>   -3.0796    1.0000 </r>
       <r>   -3.0651    1.0000 </r>
       <r>   -3.0373    1.0000 </r>
       <r>   -3.0130    1.0000 </r>
       <r>   -2.9828    1.0000 </r>
       <r>   -2.9687    1.0000 </r>
       <r>   -2.9497    1.0000 </r>
       <r>   -2.9266    1.0000 </r>
       <r>   -2.9096    1.0000 </r>
       <r>   -2.8539    1.0000 </r>
       <r>   -2.8475    1.0000 </r>
       <r>   -2.8377    1.0000 </r>
       <r>   -2.8031    1.0000 </r>
       <r>   -2.7890    1.0000 </r>
       <r>   -2.7744    1.0000 </r>
       <r>   -2.7630    1.0000 </r>
       <r>   -2.7559    1.0000 </r>
       <r>   -2.7346    1.0000 </r>
       <r>   -2.7268    1.0000 </r>
       <r>   -2.7044    1.0000 </r>
       <r>   -2.6754    1.0000 </r>
       <r>   -2.6574    1.0000 </r>
       <r>   -2.6375    1.0000 </r>
       <r>   -2.6164    1.0000 </r>
       <r>   -2.5883    1.0000 </r>
       <r>   -2.5742    1.0000 </r>
       <r>   -2.5594    1.0000 </r>
       <r>   -2.5530    1.0000 </r>
       <r>   -2.5433    1.0000 </r>
       <r>   -2.4989    1.0000 </r>
       <r>   -2.4900    1.0000 </r>
       <r>   -2.4764    1.0000 </r>
       <r>   -2.4540    1.0000 </r>
       <r>   -2.4478    1.0000 </r>
       <r>   -2.4338    1.0000 </r>
       <r>   -2.4242    1.0000 </r>
       <r>   -2.4131    1.0000 </r>
       <r>   -2.3950    1.0000 </r>
       <r>   -2.3821    1.0000 </r>
       <r>   -2.3633    1.0000 </r>
       <r>   -2.3435    1.0000 </r>
       <r>   -2.3327    1.0000 </r>
       <r>   -2.3197    1.0000 </r>
       <r>   -2.3029    1.0000 </r>
       <r>   -2.2856    1.0000 </r>
       <r>   -2.2741    1.0000 </r>
       <r>   -2.2595    1.0000 </r>
       <r>   -2.2537    1.0000 </r>
       <r>   -2.2434    1.0000 </r>
       <r>   -2.2319    1.0000 </r>
       <r>   -2.2037    1.0000 </r>
       <r>   -2.1955    1.0000 </r>
       <r>   -2.1893    1.0000 </r>
       <r>   -2.1708    1.0000 </r>
       <r>   -2.1294    1.0000 </r>
       <r>   -2.1090    1.0000 </r>
       <r>   -2.1051    1.0000 </r>
       <r>   -2.0830    1.0000 </r>
       <r>   -2.0710    1.0000 </r>
       <r>   -2.0631    1.0000 </r>
       <r>   -2.0369    1.0000 </r>
       <r>   -2.0247    1.0000 </r>
       <r>   -2.0188    1.0000 </r>
       <r>   -1.9957    1.0000 </r>
       <r>   -1.9825    1.0000 </r>
       <r>   -1.9661    1.0000 </r>
       <r>   -1.9544    1.0000 </r>
       <r>   -1.9288    1.0000 </r>
       <r>   -1.9042    1.0000 </r>
       <r>   -1.8893    1.0000 </r>
       <r>   -1.8519    1.0000 </r>
       <r>   -1.8293    1.0000 </r>
       <r>   -1.8011    1.0000 </r>
       <r>   -1.7763    1.0000 </r>
       <r>   -1.7723    1.0000 </r>
       <r>   -1.7672    1.0000 </r>
       <r>   -1.7480    1.0000 </r>
       <r>   -1.7388    1.0000 </r>
       <r>   -1.6984    1.0000 </r>
       <r>   -1.6834    1.0000 </r>
       <r>   -1.6504    1.0000 </r>
       <r>   -1.6418    1.0000 </r>
       <r>   -1.5881    1.0000 </r>
       <r>   -1.5784    1.0000 </r>
       <r>   -1.5648    1.0000 </r>
       <r>   -1.5491    1.0000 </r>
       <r>   -1.5136    1.0000 </r>
       <r>   -1.4961    1.0000 </r>
       <r>   -1.4713    1.0000 </r>
       <r>   -1.4635    1.0000 </r>
       <r>   -1.4505    1.0000 </r>
       <r>   -1.4259    1.0000 </r>
       <r>   -1.4036    1.0000 </r>
       <r>   -1.3666    1.0000 </r>
       <r>   -1.3325    1.0000 </r>
       <r>   -1.3201    1.0000 </r>
       <r>   -1.2865    1.0000 </r>
       <r>   -1.2620    1.0000 </r>
       <r>   -1.2512    1.0000 </r>
       <r>   -1.2093    1.0000 </r>
       <r>   -1.1895    1.0000 </r>
       <r>   -1.1736    1.0000 </r>
       <r>   -1.1328    1.0000 </r>
       <r>   -1.1290    1.0000 </r>
       <r>   -1.0642    1.0000 </r>
       <r>   -1.0473    1.0000 </r>
       <r>   -1.0229    1.0000 </r>
       <r>   -0.9905    1.0000 </r>
       <r>   -0.9767    1.0000 </r>
       <r>   -0.9612    1.0000 </r>
       <r>   -0.9231    1.0000 </r>
       <r>   -0.8537    1.0000 </r>
       <r>   -0.8138    1.0000 </r>
       <r>   -0.7976    1.0000 </r>
       <r>   -0.7623    0.9999 </r>
       <r>   -0.7196    0.9996 </r>
       <r>   -0.6487    0.9979 </r>
       <r>   -0.6368    0.9973 </r>
       <r>   -0.6170    0.9958 </r>
       <r>   -0.5391    0.9816 </r>
       <r>   -0.5234    0.9759 </r>
       <r>   -0.4889    0.9584 </r>
       <r>   -0.4455    0.9230 </r>
       <r>   -0.4024    0.8688 </r>
       <r>   -0.3682    0.8103 </r>
       <r>   -0.3466    0.7662 </r>
       <r>   -0.2828    0.6083 </r>
       <r>   -0.2591    0.5429 </r>
       <r>   -0.2270    0.4525 </r>
       <r>   -0.1899    0.3514 </r>
       <r>   -0.1611    0.2790 </r>
       <r>   -0.0938    0.1443 </r>
       <r>   -0.0617    0.0988 </r>
       <r>   -0.0345    0.0693 </r>
       <r>   -0.0252    0.0610 </r>
       <r>   -0.0111    0.0499 </r>
       <r>    0.0133    0.0345 </r>
       <r>    0.0680    0.0137 </r>
       <r>    0.0848    0.0101 </r>
       <r>    0.1086    0.0063 </r>
       <r>    0.1527    0.0025 </r>
       <r>    0.2241    0.0005 </r>
       <r>    0.2369    0.0003 </r>
       <r>    0.3433    0.0000 </r>
       <r>    0.4094    0.0000 </r>
       <r>    0.5261    0.0000 </r>
       <r>    0.5332    0.0000 </r>
       <r>    0.5592    0.0000 </r>
       <r>    0.6874    0.0000 </r>
       <r>    0.7022    0.0000 </r>
       <r>    0.7779    0.0000 </r>
       <r>    0.8067    0.0000 </r>
       <r>    0.8744    0.0000 </r>
       <r>    0.9215    0.0000 </r>
       <r>    0.9531    0.0000 </r>
       <r>    0.9836    0.0000 </r>
       <r>    1.0146    0.0000 </r>
       <r>    1.0412    0.0000 </r>
       <r>    1.0561    0.0000 </r>
       <r>    1.0749    0.0000 </r>
       <r>    1.1473    0.0000 </r>
       <r>    1.1960    0.0000 </r>
       <r>    1.2648    0.0000 </r>
       <r>    1.3184    0.0000 </r>
       <r>    1.4173    0.0000 </r>
       <r>    1.8735    0.0000 </r>
       <r>    2.5832    0.0000 </r>
       <r>    2.9785    0.0000 </r>
       <r>    3.0258    0.0000 </r>
       <r>    3.1655    0.0000 </r>
       <r>    3.2237    0.0000 </r>
       <r>    3.4995    0.0000 </r>
       <r>    3.5943    0.0000 </r>
       <r>    3.6942    0.0000 </r>
       <r>    3.7487    0.0000 </r>
       <r>    3.9029    0.0000 </r>
       <r>    4.0419    0.0000 </r>
       <r>    4.1180    0.0000 </r>
       <r>    4.1935    0.0000 </r>
       <r>    4.2078    0.0000 </r>
       <r>    4.2574    0.0000 </r>
       <r>    4.3598    0.0000 </r>
       <r>    4.4280    0.0000 </r>
       <r>    4.5293    0.0000 </r>
       <r>    4.5612    0.0000 </r>
       <r>    4.6060    0.0000 </r>
       <r>    4.6636    0.0000 </r>
       <r>    4.7249    0.0000 </r>
       <r>    4.7815    0.0000 </r>
       <r>    4.8235    0.0000 </r>
       <r>    4.8378    0.0000 </r>
       <r>    4.8943    0.0000 </r>
       <r>    4.9204    0.0000 </r>
       <r>    4.9470    0.0000 </r>
       <r>    5.0638    0.0000 </r>
       <r>    5.1158    0.0000 </r>
       <r>    5.1550    0.0000 </r>
       <r>    5.1793    0.0000 </r>
       <r>    5.2487    0.0000 </r>
       <r>    5.2695    0.0000 </r>
       <r>    5.3052    0.0000 </r>
       <r>    5.3963    0.0000 </r>
       <r>    5.4158    0.0000 </r>
       <r>    5.4794    0.0000 </r>
       <r>    5.4932    0.0000 </r>
       <r>    5.5340    0.0000 </r>
       <r>    5.5866    0.0000 </r>
       <r>    5.6098    0.0000 </r>
       <r>    5.6874    0.0000 </r>
      </set>
     </set>
    </set>
   </array>
  </eigenvalues>
  <separator name="orbital magnetization" >
   <v name="MAGDIPOLOUT">      0.00000000      0.00000000      0.00000000</v>
  </separator>
  <dos>
   <i name="efermi">     -0.24389411 </i>
   <total>
    <array>
     <dimension dim="1">gridpoints</dimension>
     <dimension dim="2">spin</dimension>
     <field>energy</field>
     <field>total</field>
     <field>integrated</field>
     <set>
      <set comment="spin 1">
       <r>   -68.6657     0.0000     0.0000 </r>
       <r>   -68.4061     0.0000     0.0000 </r>
       <r>   -68.1464     0.0000     0.0000 </r>
       <r>   -67.8868     0.0000     0.0000 </r>
       <r>   -67.6271     0.0000     0.0000 </r>
       <r>   -67.3675     0.0000     0.0000 </r>
       <r>   -67.1078     0.0000     0.0000 </r>
       <r>   -66.8482     0.0000     0.0000 </r>
       <r>   -66.5885     0.0000     0.0000 </r>
       <r>   -66.3289     0.0000     0.0000 </r>
       <r>   -66.0693     0.0000     0.0000 </r>
       <r>   -65.8096     0.0000     0.0000 </r>
       <r>   -65.5500     0.0126     0.0033 </r>
       <r>   -65.2903     1.9143     0.5003 </r>
       <r>   -65.0307    38.1499    10.4058 </r>
       <r>   -64.7710   159.2517    51.7548 </r>
       <r>   -64.5114   242.4905   114.7164 </r>
       <r>   -64.2517   213.4155   170.1289 </r>
       <r>   -63.9921    98.8109   195.7847 </r>
       <r>   -63.7324    58.9223   211.0836 </r>
       <r>   -63.4728    35.9722   220.4237 </r>
       <r>   -63.2132     5.9595   221.9710 </r>
       <r>   -62.9535     0.1114   222.0000 </r>
       <r>   -62.6939     0.0001   222.0000 </r>
       <r>   -62.4342     0.0000   222.0000 </r>
       <r>   -62.1746     0.0000   222.0000 </r>
       <r>   -61.9149     0.0000   222.0000 </r>
       <r>   -61.6553     0.0000   222.0000 </r>
       <r>   -61.3956     0.0000   222.0000 </r>
       <r>   -61.1360     0.0000   222.0000 </r>
       <r>   -60.8763     0.0000   222.0000 </r>
       <r>   -60.6167     0.0000   222.0000 </r>
       <r>   -60.3571     0.0000   222.0000 </r>
       <r>   -60.0974     0.0000   222.0000 </r>
       <r>   -59.8378     0.0000   222.0000 </r>
       <r>   -59.5781     0.0000   222.0000 </r>
       <r>   -59.3185     0.0000   222.0000 </r>
       <r>   -59.0588     0.0000   222.0000 </r>
       <r>   -58.7992     0.0000   222.0000 </r>
       <r>   -58.5395     0.0000   222.0000 </r>
       <r>   -58.2799     0.0000   222.0000 </r>
       <r>   -58.0202     0.0000   222.0000 </r>
       <r>   -57.7606     0.0000   222.0000 </r>
       <r>   -57.5009     0.0000   222.0000 </r>
       <r>   -57.2413     0.0000   222.0000 </r>
       <r>   -56.9817     0.0000   222.0000 </r>
       <r>   -56.7220     0.0000   222.0000 </r>
       <r>   -56.4624     0.0000   222.0000 </r>
       <r>   -56.2027     0.0000   222.0000 </r>
       <r>   -55.9431     0.0000   222.0000 </r>
       <r>   -55.6834     0.0000   222.0000 </r>
       <r>   -55.4238     0.0000   222.0000 </r>
       <r>   -55.1641     0.0000   222.0000 </r>
       <r>   -54.9045     0.0000   222.0000 </r>
       <r>   -54.6448     0.0000   222.0000 </r>
       <r>   -54.3852     0.0000   222.0000 </r>
       <r>   -54.1256     0.0000   222.0000 </r>
       <r>   -53.8659     0.0000   222.0000 </r>
       <r>   -53.6063     0.0000   222.0000 </r>
       <r>   -53.3466     0.0000   222.0000 </r>
       <r>   -53.0870     0.0000   222.0000 </r>
       <r>   -52.8273     0.0000   222.0000 </r>
       <r>   -52.5677     0.0000   222.0000 </r>
       <r>   -52.3080     0.0000   222.0000 </r>
       <r>   -52.0484     0.0000   222.0000 </r>
       <r>   -51.7887     0.0000   222.0000 </r>
       <r>   -51.5291     0.0000   222.0000 </r>
       <r>   -51.2694     0.0000   222.0000 </r>
       <r>   -51.0098     0.0000   222.0000 </r>
       <r>   -50.7502     0.0000   222.0000 </r>
       <r>   -50.4905     0.0000   222.0000 </r>
       <r>   -50.2309     0.0000   222.0000 </r>
       <r>   -49.9712     0.0000   222.0000 </r>
       <r>   -49.7116     0.0000   222.0000 </r>
       <r>   -49.4519     0.0000   222.0000 </r>
       <r>   -49.1923     0.0000   222.0000 </r>
       <r>   -48.9326     0.0000   222.0000 </r>
       <r>   -48.6730     0.0000   222.0000 </r>
       <r>   -48.4133     0.0000   222.0000 </r>
       <r>   -48.1537     0.0000   222.0000 </r>
       <r>   -47.8941     0.0000   222.0000 </r>
       <r>   -47.6344     0.0000   222.0000 </r>
       <r>   -47.3748     0.0000   222.0000 </r>
       <r>   -47.1151     0.0000   222.0000 </r>
       <r>   -46.8555     0.0000   222.0000 </r>
       <r>   -46.5958     0.0000   222.0000 </r>
       <r>   -46.3362     0.0000   222.0000 </r>
       <r>   -46.0765     0.0000   222.0000 </r>
       <r>   -45.8169     0.0000   222.0000 </r>
       <r>   -45.5572     0.0000   222.0000 </r>
       <r>   -45.2976     0.0000   222.0000 </r>
       <r>   -45.0379     0.0000   222.0000 </r>
       <r>   -44.7783     0.0000   222.0000 </r>
       <r>   -44.5187     0.0000   222.0000 </r>
       <r>   -44.2590     0.0000   222.0000 </r>
       <r>   -43.9994     0.0000   222.0000 </r>
       <r>   -43.7397     0.0000   222.0000 </r>
       <r>   -43.4801     0.0000   222.0000 </r>
       <r>   -43.2204     0.0000   222.0000 </r>
       <r>   -42.9608     0.0000   222.0000 </r>
       <r>   -42.7011     0.0000   222.0000 </r>
       <r>   -42.4415     0.0000   222.0000 </r>
       <r>   -42.1818     0.0000   222.0000 </r>
       <r>   -41.9222     0.0000   222.0000 </r>
       <r>   -41.6626     0.0000   222.0000 </r>
       <r>   -41.4029     0.0000   222.0000 </r>
       <r>   -41.1433     0.0000   222.0000 </r>
       <r>   -40.8836     0.0000   222.0000 </r>
       <r>   -40.6240     0.0000   222.0000 </r>
       <r>   -40.3643     0.0000   222.0000 </r>
       <r>   -40.1047     0.0000   222.0000 </r>
       <r>   -39.8450     0.0000   222.0000 </r>
       <r>   -39.5854     0.0000   222.0000 </r>
       <r>   -39.3257     0.0000   222.0000 </r>
       <r>   -39.0661     0.0000   222.0000 </r>
       <r>   -38.8065     0.0000   222.0000 </r>
       <r>   -38.5468     0.0000   222.0000 </r>
       <r>   -38.2872     0.0000   222.0000 </r>
       <r>   -38.0275     0.0000   222.0000 </r>
       <r>   -37.7679     0.0000   222.0000 </r>
       <r>   -37.5082     0.0000   222.0000 </r>
       <r>   -37.2486     0.0000   222.0000 </r>
       <r>   -36.9889     0.0000   222.0000 </r>
       <r>   -36.7293     0.0000   222.0000 </r>
       <r>   -36.4696     0.0000   222.0000 </r>
       <r>   -36.2100     0.0000   222.0000 </r>
       <r>   -35.9503     0.0000   222.0000 </r>
       <r>   -35.6907     0.0000   222.0000 </r>
       <r>   -35.4311     0.0000   222.0000 </r>
       <r>   -35.1714     0.0000   222.0000 </r>
       <r>   -34.9118     0.0000   222.0000 </r>
       <r>   -34.6521     0.0000   222.0000 </r>
       <r>   -34.3925     0.0000   222.0000 </r>
       <r>   -34.1328     0.0000   222.0000 </r>
       <r>   -33.8732     0.0000   222.0000 </r>
       <r>   -33.6135     0.0000   222.0000 </r>
       <r>   -33.3539     0.0000   222.0000 </r>
       <r>   -33.0942     0.0000   222.0000 </r>
       <r>   -32.8346     0.0000   222.0000 </r>
       <r>   -32.5750     0.0000   222.0000 </r>
       <r>   -32.3153     0.0000   222.0000 </r>
       <r>   -32.0557     0.0000   222.0000 </r>
       <r>   -31.7960     0.0000   222.0000 </r>
       <r>   -31.5364     0.0000   222.0000 </r>
       <r>   -31.2767     0.0000   222.0000 </r>
       <r>   -31.0171     0.0000   222.0000 </r>
       <r>   -30.7574     0.0000   222.0000 </r>
       <r>   -30.4978     0.0000   222.0000 </r>
       <r>   -30.2381     0.0000   222.0000 </r>
       <r>   -29.9785     0.0000   222.0000 </r>
       <r>   -29.7188     0.0000   222.0000 </r>
       <r>   -29.4592     0.0000   222.0000 </r>
       <r>   -29.1996     0.0000   222.0000 </r>
       <r>   -28.9399     0.0000   222.0000 </r>
       <r>   -28.6803     0.0000   222.0000 </r>
       <r>   -28.4206     0.0000   222.0000 </r>
       <r>   -28.1610     0.0000   222.0000 </r>
       <r>   -27.9013     0.0000   222.0000 </r>
       <r>   -27.6417     0.0000   222.0000 </r>
       <r>   -27.3820     0.0000   222.0000 </r>
       <r>   -27.1224     0.0000   222.0000 </r>
       <r>   -26.8627     0.0000   222.0000 </r>
       <r>   -26.6031     0.0000   222.0000 </r>
       <r>   -26.3435     0.0000   222.0000 </r>
       <r>   -26.0838     0.0000   222.0000 </r>
       <r>   -25.8242     0.0000   222.0000 </r>
       <r>   -25.5645     0.0000   222.0000 </r>
       <r>   -25.3049     0.0000   222.0000 </r>
       <r>   -25.0452     0.0000   222.0000 </r>
       <r>   -24.7856     0.0000   222.0000 </r>
       <r>   -24.5259     0.0000   222.0000 </r>
       <r>   -24.2663     0.0000   222.0000 </r>
       <r>   -24.0066     0.0000   222.0000 </r>
       <r>   -23.7470     0.0000   222.0000 </r>
       <r>   -23.4873     0.0000   222.0000 </r>
       <r>   -23.2277     0.0000   222.0000 </r>
       <r>   -22.9681     0.0000   222.0000 </r>
       <r>   -22.7084     0.0000   222.0000 </r>
       <r>   -22.4488     0.0000   222.0000 </r>
       <r>   -22.1891     0.0000   222.0000 </r>
       <r>   -21.9295     0.0000   222.0000 </r>
       <r>   -21.6698     0.0000   222.0000 </r>
       <r>   -21.4102     0.0000   222.0000 </r>
       <r>   -21.1505     0.0000   222.0000 </r>
       <r>   -20.8909     0.0000   222.0000 </r>
       <r>   -20.6312     0.0000   222.0000 </r>
       <r>   -20.3716     0.0000   222.0000 </r>
       <r>   -20.1120     0.0000   222.0000 </r>
       <r>   -19.8523     0.0000   222.0000 </r>
       <r>   -19.5927     0.0000   222.0000 </r>
       <r>   -19.3330     0.0000   222.0000 </r>
       <r>   -19.0734     0.0000   222.0000 </r>
       <r>   -18.8137     0.0000   222.0000 </r>
       <r>   -18.5541     0.0000   222.0000 </r>
       <r>   -18.2944     0.0000   222.0000 </r>
       <r>   -18.0348     0.0000   222.0000 </r>
       <r>   -17.7751     0.0000   222.0000 </r>
       <r>   -17.5155     0.0000   222.0000 </r>
       <r>   -17.2559     0.0002   222.0000 </r>
       <r>   -16.9962     0.1010   222.0263 </r>
       <r>   -16.7366     2.8744   222.7726 </r>
       <r>   -16.4769     8.5448   224.9912 </r>
       <r>   -16.2173     8.2764   227.1401 </r>
       <r>   -15.9576     8.8049   229.4263 </r>
       <r>   -15.6980    14.2108   233.1161 </r>
       <r>   -15.4383    15.4666   237.1319 </r>
       <r>   -15.1787    18.2736   241.8766 </r>
       <r>   -14.9190    24.0504   248.1211 </r>
       <r>   -14.6594    27.3280   255.2167 </r>
       <r>   -14.3997    27.9354   262.4700 </r>
       <r>   -14.1401    23.7983   268.6492 </r>
       <r>   -13.8805    27.1092   275.6880 </r>
       <r>   -13.6208    25.8179   282.3915 </r>
       <r>   -13.3612    22.3594   288.1970 </r>
       <r>   -13.1015    16.3906   292.4527 </r>
       <r>   -12.8419    10.2247   295.1075 </r>
       <r>   -12.5822     3.2889   295.9615 </r>
       <r>   -12.3226     0.1480   295.9999 </r>
       <r>   -12.0629     0.0004   296.0000 </r>
       <r>   -11.8033     0.0000   296.0000 </r>
       <r>   -11.5436     0.0000   296.0000 </r>
       <r>   -11.2840     0.0000   296.0000 </r>
       <r>   -11.0244     0.0000   296.0000 </r>
       <r>   -10.7647     0.0000   296.0000 </r>
       <r>   -10.5051     0.0000   296.0000 </r>
       <r>   -10.2454     0.0000   296.0000 </r>
       <r>    -9.9858     0.0000   296.0000 </r>
       <r>    -9.7261     0.0000   296.0000 </r>
       <r>    -9.4665     0.0000   296.0000 </r>
       <r>    -9.2068     0.0000   296.0000 </r>
       <r>    -8.9472     0.0161   296.0042 </r>
       <r>    -8.6875     1.3754   296.3613 </r>
       <r>    -8.4279     9.8500   298.9188 </r>
       <r>    -8.1682    13.8274   302.5091 </r>
       <r>    -7.9086    24.4465   308.8565 </r>
       <r>    -7.6490    36.6546   318.3737 </r>
       <r>    -7.3893    35.3967   327.5643 </r>
       <r>    -7.1297    36.7292   337.1009 </r>
       <r>    -6.8700    39.9798   347.4815 </r>
       <r>    -6.6104    38.4179   357.4565 </r>
       <r>    -6.3507    40.3816   367.9414 </r>
       <r>    -6.0911    54.7709   382.1624 </r>
       <r>    -5.8314    49.8564   395.1074 </r>
       <r>    -5.5718    57.1350   409.9423 </r>
       <r>    -5.3121    62.0652   426.0573 </r>
       <r>    -5.0525    73.9921   445.2690 </r>
       <r>    -4.7929    70.2802   463.5170 </r>
       <r>    -4.5332    51.8911   476.9903 </r>
       <r>    -4.2736    45.2736   488.7454 </r>
       <r>    -4.0139    42.2537   499.7164 </r>
       <r>    -3.7543    52.1651   513.2608 </r>
       <r>    -3.4946    61.2459   529.1631 </r>
       <r>    -3.2350    65.3359   546.1272 </r>
       <r>    -2.9753    85.4523   568.3146 </r>
       <r>    -2.7157   101.4751   594.6622 </r>
       <r>    -2.4560   117.4235   625.1507 </r>
       <r>    -2.1964   131.6458   659.3320 </r>
       <r>    -1.9367   119.4779   690.3539 </r>
       <r>    -1.6771   100.5202   716.4536 </r>
       <r>    -1.4175    91.3087   740.1615 </r>
       <r>    -1.1578    80.5384   761.0730 </r>
       <r>    -0.8982    67.7622   778.6671 </r>
       <r>    -0.6385    54.5823   792.8392 </r>
       <r>    -0.3789    53.0120   806.6035 </r>
       <r>    -0.1192    56.3891   821.2447 </r>
       <r>     0.1404    59.3235   836.6478 </r>
       <r>     0.4001    38.6534   846.6840 </r>
       <r>     0.6597    33.1516   855.2917 </r>
       <r>     0.9194    42.6979   866.3780 </r>
       <r>     1.1790    49.4935   879.2288 </r>
       <r>     1.4386    27.4485   886.3557 </r>
       <r>     1.6983     6.9434   888.1585 </r>
       <r>     1.9579     4.9713   889.4493 </r>
       <r>     2.2176     2.1009   889.9947 </r>
       <r>     2.4772     1.7687   890.4540 </r>
       <r>     2.7369     5.3931   891.8543 </r>
       <r>     2.9965     9.3209   894.2744 </r>
       <r>     3.2562    16.7035   898.6114 </r>
       <r>     3.5158    12.7849   901.9309 </r>
       <r>     3.7755    18.6811   906.7814 </r>
       <r>     4.0351    19.0865   911.7372 </r>
       <r>     4.2947    28.3299   919.0929 </r>
       <r>     4.5544    30.9338   927.1247 </r>
       <r>     4.8140    39.6580   937.4218 </r>
       <r>     5.0737    41.8567   948.2897 </r>
       <r>     5.3333    42.5891   959.3478 </r>
       <r>     5.5930    42.5924   970.4067 </r>
       <r>     5.8526    19.8642   975.5644 </r>
       <r>     6.1123     1.6650   975.9967 </r>
       <r>     6.3719     0.0127   976.0000 </r>
       <r>     6.6316     0.0000   976.0000 </r>
       <r>     6.8912     0.0000   976.0000 </r>
       <r>     7.1509     0.0000   976.0000 </r>
       <r>     7.4105     0.0000   976.0000 </r>
       <r>     7.6701     0.0000   976.0000 </r>
       <r>     7.9298     0.0000   976.0000 </r>
       <r>     8.1894     0.0000   976.0000 </r>
       <r>     8.4491     0.0000   976.0000 </r>
       <r>     8.7087     0.0000   976.0000 </r>
       <r>     8.9684     0.0000   976.0000 </r>
       <r>     9.2280     0.0000   976.0000 </r>
      </set>
     </set>
    </array>
   </total>
  </dos>
 </calculation>
 <structure name="finalpos" >
  <crystal>
   <varray name="basis" >
    <v>      16.88469405       0.00000000       0.00000000 </v>
    <v>       0.00000000       9.57841000       0.00000000 </v>
    <v>       0.00000000       0.00000000      16.65464569 </v>
   </varray>
   <i name="volume">   2693.53123734 </i>
   <varray name="rec_basis" >
    <v>       0.05922524       0.00000000       0.00000000 </v>
    <v>       0.00000000       0.10440146       0.00000000 </v>
    <v>       0.00000000       0.00000000       0.06004331 </v>
   </varray>
  </crystal>
  <varray name="positions" >
   <v>       0.78004630       0.14529696       0.12347080 </v>
   <v>       0.79962348       0.14551617       0.28415346 </v>
   <v>       0.21544637       0.62479431       0.09907081 </v>
   <v>       0.29733028       0.64529696       0.21607389 </v>
   <v>       0.39061408       0.12950458       0.12804274 </v>
   <v>       0.46975828       0.14529696       0.24694159 </v>
   <v>       0.95247430       0.64529696       0.15433850 </v>
   <v>       0.97522443       0.64503507       0.31770916 </v>
   <v>       0.17084364       0.14738095       0.04691384 </v>
   <v>       0.12490229       0.14529696       0.18520619 </v>
   <v>       0.06997813       0.10364787       0.31258434 </v>
   <v>       0.57954368       0.64905634       0.15033880 </v>
   <v>       0.64218627       0.64529696       0.27780929 </v>
   <v>       0.90963232       0.00393445       0.11939088 </v>
   <v>       0.94061253       0.00870352       0.26921655 </v>
   <v>       0.35706743       0.64593657       0.06308111 </v>
   <v>       0.42486675       0.51319396       0.19160760 </v>
   <v>       0.47666408       0.47569107       0.32353552 </v>
   <v>       0.59071349       0.90937857       0.09266431 </v>
   <v>       0.59729475       0.01319396       0.22247530 </v>
   <v>       0.08001077       0.51319396       0.12987220 </v>
   <v>       0.11280411       0.49927992       0.29223468 </v>
   <v>       0.25243876       0.01319396       0.16073990 </v>
   <v>       0.29349057       0.98249362       0.29961489 </v>
   <v>       0.77643283       0.43513465       0.12083842 </v>
   <v>       0.76972274       0.51319396       0.25334300 </v>
   <v>       0.90987731       0.28655862       0.11997335 </v>
   <v>       0.94397681       0.27747069       0.27035410 </v>
   <v>       0.44671924       0.85383761       0.05769998 </v>
   <v>       0.42486675       0.77739996       0.19160760 </v>
   <v>       0.53083506       0.14710580       0.09180671 </v>
   <v>       0.59729475       0.27739996       0.22247530 </v>
   <v>       0.08001077       0.77739996       0.12987220 </v>
   <v>       0.11212559       0.78560086       0.29522794 </v>
   <v>       0.25243876       0.27739996       0.16073990 </v>
   <v>       0.76691994       0.86817645       0.12098473 </v>
   <v>       0.76972274       0.77739996       0.25334300 </v>
   <v>       0.96239139       0.14143392       0.36356109 </v>
   <v>       0.99146120       0.14529696       0.18349304 </v>
   <v>       0.47417723       0.64529696       0.09088994 </v>
   <v>       0.51257591       0.64645251       0.25786864 </v>
   <v>       0.64660522       0.14529696       0.12175764 </v>
   <v>       0.67699134       0.14648680       0.28392463 </v>
   <v>       0.11194157       0.64562105       0.03801977 </v>
   <v>       0.16388920       0.64529696       0.21436074 </v>
   <v>       0.08018187       0.63930979       0.37913612 </v>
   <v>       0.28837965       0.14844543       0.06339757 </v>
   <v>       0.32969182       0.15416375       0.23560105 </v>
   <v>       0.81903321       0.64529696       0.15262534 </v>
   <v>       0.85073888       0.64514489       0.31302886 </v>
   <v>       0.81619102       0.29399729       0.04064801 </v>
   <v>       0.82906105       0.31351196       0.21464750 </v>
   <v>       0.31177707       0.81351196       0.12204440 </v>
   <v>       0.34887766       0.79771488       0.28988487 </v>
   <v>       0.48420507       0.31351196       0.15291210 </v>
   <v>       0.52599180       0.28557901       0.32332541 </v>
   <v>       0.00148905       0.81351196       0.24551520 </v>
   <v>       0.96771611       0.82082461       0.08317976 </v>
   <v>       0.14209372       0.32506023       0.10917263 </v>
   <v>       0.13477752       0.28143689       0.28455390 </v>
   <v>       0.65663306       0.81351196       0.18377980 </v>
   <v>       0.69613404       0.78888308       0.34852026 </v>
   <v>       0.31177707       0.47708196       0.12204440 </v>
   <v>       0.35996191       0.50933101       0.29527374 </v>
   <v>       0.81650443       0.99820692       0.03967372 </v>
   <v>       0.82906105       0.97708196       0.21464750 </v>
   <v>       0.00148905       0.47708196       0.24551520 </v>
   <v>       0.96722370       0.46988893       0.08315235 </v>
   <v>       0.48420507       0.97708196       0.15291210 </v>
   <v>       0.52161713       0.99703982       0.31688722 </v>
   <v>       0.65663306       0.47708196       0.18377980 </v>
   <v>       0.69476865       0.49836340       0.34740354 </v>
   <v>       0.14011847       0.96866588       0.10677055 </v>
   <v>       0.17391704       0.97708196       0.27638290 </v>
  </varray>
 </structure>
</modeling>
