       N       E                     dE             d eps       ncg     rms          rms(c)
DAV:   1     0.760281464587E+04    0.76028E+04   -0.42020E+05   976   0.157E+03
DAV:   2     0.451101019302E+03   -0.71517E+04   -0.68951E+04   848   0.500E+02
DAV:   3    -0.284498178056E+03   -0.73560E+03   -0.69191E+03   936   0.166E+02
DAV:   4    -0.330680589781E+03   -0.46182E+02   -0.45587E+02   920   0.373E+01
DAV:   5    -0.332338895155E+03   -0.16583E+01   -0.16556E+01  1016   0.772E+00    0.745E+01
DAV:   6    -0.427933339559E+03   -0.95594E+02   -0.87458E+02   952   0.123E+02    0.158E+02
DAV:   7    -0.311208296018E+03    0.11673E+03   -0.16136E+02   936   0.608E+01    0.641E+01
DAV:   8    -0.318546184303E+03   -0.73379E+01   -0.14992E+02  1120   0.706E+01    0.105E+02
DAV:   9    -0.298988373172E+03    0.19558E+02   -0.62209E+01  1024   0.312E+01    0.414E+01
DAV:  10    -0.309153363105E+03   -0.10165E+02   -0.41237E+01  1080   0.491E+01    0.985E+01
DAV:  11    -0.305266968310E+03    0.38864E+01   -0.44639E+01  1104   0.287E+01    0.579E+01
DAV:  12    -0.294932642636E+03    0.10334E+02   -0.25839E+01  1144   0.302E+01    0.315E+01
DAV:  13    -0.292621965690E+03    0.23107E+01   -0.11613E+01  1064   0.241E+01    0.264E+01
DAV:  14    -0.291646477028E+03    0.97549E+00   -0.70947E+00  1072   0.171E+01    0.231E+01
DAV:  15    -0.289887427814E+03    0.17590E+01   -0.29530E+00   976   0.121E+01    0.167E+01
DAV:  16    -0.289341566848E+03    0.54586E+00   -0.13422E+00  1096   0.792E+00    0.145E+01
DAV:  17    -0.289004070815E+03    0.33750E+00   -0.92449E-01  1032   0.654E+00    0.132E+01
DAV:  18    -0.288486169486E+03    0.51790E+00   -0.69367E-01  1096   0.660E+00    0.101E+01
DAV:  19    -0.288274206923E+03    0.21196E+00   -0.47486E-01  1096   0.464E+00    0.826E+00
DAV:  20    -0.288089842472E+03    0.18436E+00   -0.32375E-01  1120   0.439E+00    0.588E+00
DAV:  21    -0.288028813377E+03    0.61029E-01   -0.18528E-01  1080   0.251E+00    0.501E+00
DAV:  22    -0.288003325123E+03    0.25488E-01   -0.16264E-01  1016   0.281E+00    0.459E+00
DAV:  23    -0.287988703346E+03    0.14622E-01   -0.18993E-01  1064   0.272E+00    0.419E+00
DAV:  24    -0.287962731162E+03    0.25972E-01   -0.13820E-01  1072   0.291E+00    0.337E+00
DAV:  25    -0.287946567596E+03    0.16164E-01   -0.10099E-01  1072   0.202E+00    0.274E+00
DAV:  26    -0.287961143449E+03   -0.14576E-01   -0.86508E-02  1088   0.155E+00    0.354E+00
DAV:  27    -0.287943204129E+03    0.17939E-01   -0.30408E-02  1088   0.989E-01    0.238E+00
DAV:  28    -0.287934501281E+03    0.87028E-02   -0.20234E-02  1048   0.996E-01    0.181E+00
DAV:  29    -0.287923712029E+03    0.10789E-01   -0.19119E-02  1176   0.882E-01    0.960E-01
DAV:  30    -0.287921873461E+03    0.18386E-02   -0.93305E-03  1088   0.665E-01    0.589E-01
DAV:  31    -0.287922000525E+03   -0.12706E-03   -0.48047E-03  1080   0.434E-01    0.594E-01
DAV:  32    -0.287921458514E+03    0.54201E-03   -0.39579E-03  1024   0.421E-01    0.444E-01
DAV:  33    -0.287922051643E+03   -0.59313E-03   -0.30058E-03   896   0.320E-01    0.533E-01
DAV:  34    -0.287921233399E+03    0.81824E-03   -0.16904E-03   912   0.283E-01    0.195E-01
DAV:  35    -0.287921439013E+03   -0.20561E-03   -0.61572E-04   752   0.187E-01    0.197E-01
DAV:  36    -0.287921564373E+03   -0.12536E-03   -0.30891E-04   568   0.151E-01    0.120E-01
DAV:  37    -0.287921794844E+03   -0.23047E-03   -0.15235E-04   496   0.959E-02    0.120E-01
DAV:  38    -0.287921901521E+03   -0.10668E-03   -0.12708E-04   504   0.901E-02    0.638E-02
DAV:  39    -0.287922159214E+03   -0.25769E-03   -0.74001E-05   496   0.530E-02    0.535E-02
DAV:  40    -0.287922297619E+03   -0.13840E-03   -0.69998E-05   496   0.568E-02    0.414E-02
DAV:  41    -0.287922640064E+03   -0.34245E-03   -0.55658E-05   520   0.311E-02    0.326E-02
DAV:  42    -0.287922859212E+03   -0.21915E-03   -0.43067E-05   496   0.431E-02    0.438E-02
DAV:  43    -0.287923153774E+03   -0.29456E-03   -0.48681E-05   528   0.382E-02    0.284E-02
DAV:  44    -0.287923301000E+03   -0.14723E-03   -0.34017E-05   496   0.278E-02    0.337E-02
DAV:  45    -0.287923404077E+03   -0.10308E-03   -0.27743E-05   496   0.267E-02    0.178E-02
DAV:  46    -0.287923491824E+03   -0.87747E-04   -0.18362E-05   496   0.124E-02
   1 F= -.28792349E+03 E0= -.28740901E+03  d E =-.102897E+01
