"Millerite NiS"                         
           1
    10.079733    0.000000    0.000000
     3.573298    9.425103    0.000000
     0.000000    0.000000   20.502010
   Ty   Ty
  36  36
Direct configuration=     1
   0.28811397  0.99342323  0.05875306
   0.39705889  0.79495179  0.12806073
   0.54732741  0.64468327  0.25612147
   0.69759592  0.49441476  0.38418220
   0.82508087  0.34153729  0.48753125
   0.11381506  0.41152895  0.17074765
   0.26408358  0.26126044  0.29880838
   0.41435209  0.11099192  0.42686911
   0.08223088  0.80699288  0.45268183
   0.71521810  0.21381091  0.14470775
   0.83057123  0.02810611  0.21343456
   0.98083975  0.87783760  0.34149529
   0.34839990  0.47580140  0.13577579
   0.50762556  0.42017912  0.22228705
   0.65789408  0.26991060  0.35034779
   0.77939974  0.12513381  0.46023020
   0.07411322  0.18702479  0.13691323
   0.22438173  0.03675628  0.26497396
   0.37465025  0.88648777  0.39303470
   0.89477950  0.25548798  0.06064770
   0.08987654  0.51079974  0.42498805
   0.57454981  0.88975518  0.09681177
   0.79086939  0.80360196  0.17960014
   0.94113790  0.65333344  0.30766088
   0.02499692  0.16574367  0.42914095
   0.58232010  0.59846727  0.08199035
   0.73212972  0.45988096  0.18845264
   0.88239823  0.30961245  0.31651337
   0.29861738  0.22672664  0.10307882
   0.44888589  0.07645812  0.23113955
   0.59915440  0.92618961  0.35920029
   0.72846620  0.79895545  0.45105849
   0.01537355  0.84330380  0.14576573
   0.16564206  0.69303528  0.27382646
   0.31591057  0.54276677  0.40188720
   0.78062148  0.97883335  0.08673418
   0.98920507  0.01445845  0.48992420
   0.58579930  0.40599939  0.11828449
   0.73606781  0.25573087  0.24634523
   0.88633632  0.10546236  0.37440596
   0.12325470  0.18933506  0.04091318
   0.30255547  0.02257655  0.16097140
   0.45282398  0.87230804  0.28903214
   0.59111294  0.72973033  0.40001530
   0.01931164  0.63915371  0.20365832
   0.16958015  0.48888520  0.33171905
   0.30162199  0.34289084  0.43008484
   0.88729658  0.76734227  0.08883271
   0.47144715  0.79169966  0.03495895
   0.63635413  0.69187455  0.16136797
   0.78662264  0.54160604  0.28942870
   0.93689116  0.39133753  0.41748943
   0.19713167  0.43748426  0.08241928
   0.35311030  0.30845171  0.20405488
   0.50337881  0.15818320  0.33211561
   0.63548339  0.01627836  0.44829715
   0.06986647  0.92502888  0.24674179
   0.22013498  0.77476036  0.37480252
   0.19702027  0.60585877  0.48440308
   0.91959796  0.07529739  0.11868105
   0.19091942  0.84756197  0.09040740
   0.35047897  0.64131971  0.20445144
   0.50074748  0.49105120  0.33251217
   0.64581874  0.34399163  0.44473239
   0.06723514  0.25789688  0.24713835
   0.21750365  0.10762836  0.37519908
   0.39066943  0.95734680  0.48267668
   0.92020745  0.39415230  0.13060402
   0.44875439  0.07545851  0.04725098
   0.63372280  0.02474255  0.16176453
   0.78399131  0.87447404  0.28982526
   0.93425982  0.72420553  0.41788599
