       N       E                     dE             d eps       ncg     rms          rms(c)
DAV:   1     0.146298760592E+05    0.14630E+05   -0.73506E+05  1648   0.169E+03
DAV:   2     0.102668558924E+04   -0.13603E+05   -0.13162E+05  1416   0.547E+02
DAV:   3    -0.469554013546E+03   -0.14962E+04   -0.13926E+04  1584   0.192E+02
DAV:   4    -0.581702860744E+03   -0.11215E+03   -0.11022E+03  1680   0.451E+01
DAV:   5    -0.585322600757E+03   -0.36197E+01   -0.36114E+01  1736   0.874E+00    0.992E+01
DAV:   6    -0.708819780491E+03   -0.12350E+03   -0.14205E+03  1672   0.117E+02    0.189E+02
DAV:   7    -0.545377205523E+03    0.16344E+03   -0.24900E+02  1592   0.641E+01    0.801E+01
DAV:   8    -0.832740604699E+03   -0.28736E+03   -0.17288E+02  1752   0.116E+02    0.231E+02
DAV:   9    -0.589439461838E+03    0.24330E+03   -0.26740E+02  1864   0.566E+01    0.145E+02
DAV:  10    -0.554938557631E+03    0.34501E+02   -0.11655E+02  1912   0.393E+01    0.691E+01
DAV:  11    -0.548079495629E+03    0.68591E+01   -0.61803E+01  1800   0.478E+01    0.110E+02
DAV:  12    -0.538392733495E+03    0.96868E+01   -0.53564E+01  1792   0.303E+01    0.611E+01
DAV:  13    -0.538379564602E+03    0.13169E-01   -0.46147E+01  1856   0.367E+01    0.707E+01
DAV:  14    -0.532471404685E+03    0.59082E+01   -0.42001E+01  1808   0.280E+01    0.521E+01
DAV:  15    -0.524169015239E+03    0.83024E+01   -0.17691E+01  1792   0.240E+01    0.478E+01
DAV:  16    -0.524327879988E+03   -0.15886E+00   -0.18970E+01  1832   0.142E+01    0.488E+01
DAV:  17    -0.521123211818E+03    0.32047E+01   -0.17793E+01  1768   0.107E+01    0.321E+01
DAV:  18    -0.518237383820E+03    0.28858E+01   -0.67891E+00  1840   0.107E+01    0.269E+01
DAV:  19    -0.516861100035E+03    0.13763E+01   -0.26377E+00  1848   0.864E+00    0.242E+01
DAV:  20    -0.515305536906E+03    0.15556E+01   -0.15287E+00  1848   0.764E+00    0.206E+01
DAV:  21    -0.514768282964E+03    0.53725E+00   -0.22089E+00  1872   0.590E+00    0.197E+01
DAV:  22    -0.513630976794E+03    0.11373E+01   -0.93956E-01  1824   0.496E+00    0.176E+01
DAV:  23    -0.513528072081E+03    0.10290E+00   -0.15127E+00  1888   0.419E+00    0.240E+01
DAV:  24    -0.512675972648E+03    0.85210E+00   -0.16850E+00  1920   0.343E+00    0.124E+01
DAV:  25    -0.512451109792E+03    0.22486E+00   -0.35006E-01  1880   0.319E+00    0.106E+01
DAV:  26    -0.512203024367E+03    0.24809E+00   -0.20001E-01  1872   0.204E+00    0.840E+00
DAV:  27    -0.512176708826E+03    0.26316E-01   -0.20536E-01  1888   0.236E+00    0.836E+00
DAV:  28    -0.512069988102E+03    0.10672E+00   -0.11068E-01  1736   0.200E+00    0.664E+00
DAV:  29    -0.512014515643E+03    0.55472E-01   -0.20170E-01  1960   0.261E+00    0.568E+00
DAV:  30    -0.511926004398E+03    0.88511E-01   -0.15388E-01  1888   0.213E+00    0.346E+00
DAV:  31    -0.511923425721E+03    0.25787E-02   -0.70056E-02  1840   0.137E+00    0.346E+00
DAV:  32    -0.511905253959E+03    0.18172E-01   -0.50668E-02  1856   0.134E+00    0.276E+00
DAV:  33    -0.511917599169E+03   -0.12345E-01   -0.63645E-02  1968   0.133E+00    0.322E+00
DAV:  34    -0.511905587753E+03    0.12011E-01   -0.33354E-02  1816   0.104E+00    0.297E+00
DAV:  35    -0.511888611250E+03    0.16977E-01   -0.17182E-02  1872   0.669E-01    0.194E+00
DAV:  36    -0.511883423176E+03    0.51881E-02   -0.11114E-02  1880   0.647E-01    0.145E+00
DAV:  37    -0.511881844985E+03    0.15782E-02   -0.45829E-03  1856   0.333E-01    0.115E+00
DAV:  38    -0.511881608952E+03    0.23603E-03   -0.24019E-03  1584   0.296E-01    0.106E+00
DAV:  39    -0.511881668666E+03   -0.59715E-04   -0.26013E-03  1648   0.294E-01    0.973E-01
DAV:  40    -0.511880091834E+03    0.15768E-02   -0.19185E-03  1560   0.279E-01    0.646E-01
DAV:  41    -0.511879722143E+03    0.36969E-03   -0.13925E-03  1528   0.170E-01    0.392E-01
DAV:  42    -0.511879830785E+03   -0.10864E-03   -0.78823E-04  1440   0.162E-01    0.278E-01
DAV:  43    -0.511880109399E+03   -0.27861E-03   -0.28723E-04  1024   0.963E-02    0.262E-01
DAV:  44    -0.511880363683E+03   -0.25428E-03   -0.19662E-04   928   0.837E-02    0.127E-01
DAV:  45    -0.511880624287E+03   -0.26060E-03   -0.12737E-04   880   0.675E-02    0.121E-01
DAV:  46    -0.511881003270E+03   -0.37898E-03   -0.13594E-04   952   0.564E-02    0.910E-02
DAV:  47    -0.511881142125E+03   -0.13885E-03   -0.77162E-05   872   0.386E-02    0.775E-02
DAV:  48    -0.511881433881E+03   -0.29176E-03   -0.56070E-05   872   0.364E-02    0.387E-02
DAV:  49    -0.511881601923E+03   -0.16804E-03   -0.35106E-05   864   0.308E-02    0.406E-02
DAV:  50    -0.511881937830E+03   -0.33591E-03   -0.51090E-05   896   0.282E-02    0.704E-02
DAV:  51    -0.511881907982E+03    0.29848E-04   -0.38663E-05   824   0.313E-02
   1 F= -.51188191E+03 E0= -.51106814E+03  d E =-.162754E+01
