  72  72   0   0
  0.3631948E+02  0.1688469E-08  0.9578410E-09  0.1616909E-08  0.5000000E-15
  1.000000000000000E-004
  CAR 
 "Millerite NiS"                         
      9.31329024    -68.62510845  301     -0.11124872      1.00000000
    -68.625  0.0000E+00  0.0000E+00
    -68.365  0.0000E+00  0.0000E+00
    -68.106  0.0000E+00  0.0000E+00
    -67.846  0.0000E+00  0.0000E+00
    -67.586  0.0000E+00  0.0000E+00
    -67.326  0.0000E+00  0.0000E+00
    -67.066  0.0000E+00  0.0000E+00
    -66.807  0.0000E+00  0.0000E+00
    -66.547  0.0000E+00  0.0000E+00
    -66.287  0.0000E+00  0.0000E+00
    -66.027  0.9256E-10  0.2405E-10
    -65.767  0.5083E-05  0.1321E-05
    -65.508  0.1187E-01  0.3084E-02
    -65.248  0.1775E+01  0.4642E+00
    -64.988  0.3431E+02  0.9376E+01
    -64.728  0.1308E+03  0.4337E+02
    -64.468  0.1751E+03  0.8886E+02
    -64.209  0.1905E+03  0.1384E+03
    -63.949  0.1512E+03  0.1776E+03
    -63.689  0.9514E+02  0.2024E+03
    -63.429  0.4306E+02  0.2135E+03
    -63.169  0.9142E+01  0.2159E+03
    -62.910  0.3077E+00  0.2160E+03
    -62.650  0.8130E-03  0.2160E+03
    -62.390  0.1053E-06  0.2160E+03
    -62.130  0.5359E-12  0.2160E+03
    -61.870  0.0000E+00  0.2160E+03
    -61.611  0.0000E+00  0.2160E+03
    -61.351  0.0000E+00  0.2160E+03
    -61.091  0.0000E+00  0.2160E+03
    -60.831  0.0000E+00  0.2160E+03
    -60.571  0.0000E+00  0.2160E+03
    -60.312  0.0000E+00  0.2160E+03
    -60.052  0.0000E+00  0.2160E+03
    -59.792  0.0000E+00  0.2160E+03
    -59.532  0.0000E+00  0.2160E+03
    -59.273  0.0000E+00  0.2160E+03
    -59.013  0.0000E+00  0.2160E+03
    -58.753  0.0000E+00  0.2160E+03
    -58.493  0.0000E+00  0.2160E+03
    -58.233  0.0000E+00  0.2160E+03
    -57.974  0.0000E+00  0.2160E+03
    -57.714  0.0000E+00  0.2160E+03
    -57.454  0.0000E+00  0.2160E+03
    -57.194  0.0000E+00  0.2160E+03
    -56.934  0.0000E+00  0.2160E+03
    -56.675  0.0000E+00  0.2160E+03
    -56.415  0.0000E+00  0.2160E+03
    -56.155  0.0000E+00  0.2160E+03
    -55.895  0.0000E+00  0.2160E+03
    -55.635  0.0000E+00  0.2160E+03
    -55.376  0.0000E+00  0.2160E+03
    -55.116  0.0000E+00  0.2160E+03
    -54.856  0.0000E+00  0.2160E+03
    -54.596  0.0000E+00  0.2160E+03
    -54.336  0.0000E+00  0.2160E+03
    -54.077  0.0000E+00  0.2160E+03
    -53.817  0.0000E+00  0.2160E+03
    -53.557  0.0000E+00  0.2160E+03
    -53.297  0.0000E+00  0.2160E+03
    -53.037  0.0000E+00  0.2160E+03
    -52.778  0.0000E+00  0.2160E+03
    -52.518  0.0000E+00  0.2160E+03
    -52.258  0.0000E+00  0.2160E+03
    -51.998  0.0000E+00  0.2160E+03
    -51.738  0.0000E+00  0.2160E+03
    -51.479  0.0000E+00  0.2160E+03
    -51.219  0.0000E+00  0.2160E+03
    -50.959  0.0000E+00  0.2160E+03
    -50.699  0.0000E+00  0.2160E+03
    -50.439  0.0000E+00  0.2160E+03
    -50.180  0.0000E+00  0.2160E+03
    -49.920  0.0000E+00  0.2160E+03
    -49.660  0.0000E+00  0.2160E+03
    -49.400  0.0000E+00  0.2160E+03
    -49.141  0.0000E+00  0.2160E+03
    -48.881  0.0000E+00  0.2160E+03
    -48.621  0.0000E+00  0.2160E+03
    -48.361  0.0000E+00  0.2160E+03
    -48.101  0.0000E+00  0.2160E+03
    -47.842  0.0000E+00  0.2160E+03
    -47.582  0.0000E+00  0.2160E+03
    -47.322  0.0000E+00  0.2160E+03
    -47.062  0.0000E+00  0.2160E+03
    -46.802  0.0000E+00  0.2160E+03
    -46.543  0.0000E+00  0.2160E+03
    -46.283  0.0000E+00  0.2160E+03
    -46.023  0.0000E+00  0.2160E+03
    -45.763  0.0000E+00  0.2160E+03
    -45.503  0.0000E+00  0.2160E+03
    -45.244  0.0000E+00  0.2160E+03
    -44.984  0.0000E+00  0.2160E+03
    -44.724  0.0000E+00  0.2160E+03
    -44.464  0.0000E+00  0.2160E+03
    -44.204  0.0000E+00  0.2160E+03
    -43.945  0.0000E+00  0.2160E+03
    -43.685  0.0000E+00  0.2160E+03
    -43.425  0.0000E+00  0.2160E+03
    -43.165  0.0000E+00  0.2160E+03
    -42.905  0.0000E+00  0.2160E+03
    -42.646  0.0000E+00  0.2160E+03
    -42.386  0.0000E+00  0.2160E+03
    -42.126  0.0000E+00  0.2160E+03
    -41.866  0.0000E+00  0.2160E+03
    -41.606  0.0000E+00  0.2160E+03
    -41.347  0.0000E+00  0.2160E+03
    -41.087  0.0000E+00  0.2160E+03
    -40.827  0.0000E+00  0.2160E+03
    -40.567  0.0000E+00  0.2160E+03
    -40.307  0.0000E+00  0.2160E+03
    -40.048  0.0000E+00  0.2160E+03
    -39.788  0.0000E+00  0.2160E+03
    -39.528  0.0000E+00  0.2160E+03
    -39.268  0.0000E+00  0.2160E+03
    -39.009  0.0000E+00  0.2160E+03
    -38.749  0.0000E+00  0.2160E+03
    -38.489  0.0000E+00  0.2160E+03
    -38.229  0.0000E+00  0.2160E+03
    -37.969  0.0000E+00  0.2160E+03
    -37.710  0.0000E+00  0.2160E+03
    -37.450  0.0000E+00  0.2160E+03
    -37.190  0.0000E+00  0.2160E+03
    -36.930  0.0000E+00  0.2160E+03
    -36.670  0.0000E+00  0.2160E+03
    -36.411  0.0000E+00  0.2160E+03
    -36.151  0.0000E+00  0.2160E+03
    -35.891  0.0000E+00  0.2160E+03
    -35.631  0.0000E+00  0.2160E+03
    -35.371  0.0000E+00  0.2160E+03
    -35.112  0.0000E+00  0.2160E+03
    -34.852  0.0000E+00  0.2160E+03
    -34.592  0.0000E+00  0.2160E+03
    -34.332  0.0000E+00  0.2160E+03
    -34.072  0.0000E+00  0.2160E+03
    -33.813  0.0000E+00  0.2160E+03
    -33.553  0.0000E+00  0.2160E+03
    -33.293  0.0000E+00  0.2160E+03
    -33.033  0.0000E+00  0.2160E+03
    -32.773  0.0000E+00  0.2160E+03
    -32.514  0.0000E+00  0.2160E+03
    -32.254  0.0000E+00  0.2160E+03
    -31.994  0.0000E+00  0.2160E+03
    -31.734  0.0000E+00  0.2160E+03
    -31.474  0.0000E+00  0.2160E+03
    -31.215  0.0000E+00  0.2160E+03
    -30.955  0.0000E+00  0.2160E+03
    -30.695  0.0000E+00  0.2160E+03
    -30.435  0.0000E+00  0.2160E+03
    -30.175  0.0000E+00  0.2160E+03
    -29.916  0.0000E+00  0.2160E+03
    -29.656  0.0000E+00  0.2160E+03
    -29.396  0.0000E+00  0.2160E+03
    -29.136  0.0000E+00  0.2160E+03
    -28.877  0.0000E+00  0.2160E+03
    -28.617  0.0000E+00  0.2160E+03
    -28.357  0.0000E+00  0.2160E+03
    -28.097  0.0000E+00  0.2160E+03
    -27.837  0.0000E+00  0.2160E+03
    -27.578  0.0000E+00  0.2160E+03
    -27.318  0.0000E+00  0.2160E+03
    -27.058  0.0000E+00  0.2160E+03
    -26.798  0.0000E+00  0.2160E+03
    -26.538  0.0000E+00  0.2160E+03
    -26.279  0.0000E+00  0.2160E+03
    -26.019  0.0000E+00  0.2160E+03
    -25.759  0.0000E+00  0.2160E+03
    -25.499  0.0000E+00  0.2160E+03
    -25.239  0.0000E+00  0.2160E+03
    -24.980  0.0000E+00  0.2160E+03
    -24.720  0.0000E+00  0.2160E+03
    -24.460  0.0000E+00  0.2160E+03
    -24.200  0.0000E+00  0.2160E+03
    -23.940  0.0000E+00  0.2160E+03
    -23.681  0.0000E+00  0.2160E+03
    -23.421  0.0000E+00  0.2160E+03
    -23.161  0.0000E+00  0.2160E+03
    -22.901  0.0000E+00  0.2160E+03
    -22.641  0.0000E+00  0.2160E+03
    -22.382  0.0000E+00  0.2160E+03
    -22.122  0.0000E+00  0.2160E+03
    -21.862  0.0000E+00  0.2160E+03
    -21.602  0.0000E+00  0.2160E+03
    -21.342  0.0000E+00  0.2160E+03
    -21.083  0.0000E+00  0.2160E+03
    -20.823  0.0000E+00  0.2160E+03
    -20.563  0.0000E+00  0.2160E+03
    -20.303  0.0000E+00  0.2160E+03
    -20.044  0.0000E+00  0.2160E+03
    -19.784  0.0000E+00  0.2160E+03
    -19.524  0.0000E+00  0.2160E+03
    -19.264  0.0000E+00  0.2160E+03
    -19.004  0.0000E+00  0.2160E+03
    -18.745  0.0000E+00  0.2160E+03
    -18.485  0.0000E+00  0.2160E+03
    -18.225  0.0000E+00  0.2160E+03
    -17.965  0.0000E+00  0.2160E+03
    -17.705  0.4273E-15  0.2160E+03
    -17.446  0.2472E-09  0.2160E+03
    -17.186  0.1019E-04  0.2160E+03
    -16.926  0.1633E-01  0.2160E+03
    -16.666  0.1173E+01  0.2163E+03
    -16.406  0.6121E+01  0.2179E+03
    -16.147  0.1041E+02  0.2206E+03
    -15.887  0.6183E+01  0.2222E+03
    -15.627  0.1223E+02  0.2254E+03
    -15.367  0.2209E+02  0.2311E+03
    -15.107  0.1980E+02  0.2363E+03
    -14.848  0.2259E+02  0.2421E+03
    -14.588  0.2492E+02  0.2486E+03
    -14.328  0.2197E+02  0.2543E+03
    -14.068  0.2485E+02  0.2608E+03
    -13.808  0.2952E+02  0.2684E+03
    -13.549  0.2486E+02  0.2749E+03
    -13.289  0.2287E+02  0.2808E+03
    -13.029  0.1674E+02  0.2852E+03
    -12.769  0.7962E+01  0.2873E+03
    -12.509  0.2722E+01  0.2880E+03
    -12.250  0.1014E+00  0.2880E+03
    -11.990  0.1902E-03  0.2880E+03
    -11.730  0.1439E-07  0.2880E+03
    -11.470  0.4103E-13  0.2880E+03
    -11.210  0.0000E+00  0.2880E+03
    -10.951  0.0000E+00  0.2880E+03
    -10.691  0.0000E+00  0.2880E+03
    -10.431  0.0000E+00  0.2880E+03
    -10.171  0.0000E+00  0.2880E+03
     -9.912  0.0000E+00  0.2880E+03
     -9.652  0.0000E+00  0.2880E+03
     -9.392  0.5667E-12  0.2880E+03
     -9.132  0.1084E-06  0.2880E+03
     -8.872  0.7813E-03  0.2880E+03
     -8.613  0.2353E+00  0.2881E+03
     -8.353  0.4230E+01  0.2892E+03
     -8.093  0.1280E+02  0.2925E+03
     -7.833  0.2061E+02  0.2978E+03
     -7.573  0.3199E+02  0.3062E+03
     -7.314  0.3814E+02  0.3161E+03
     -7.054  0.3714E+02  0.3257E+03
     -6.794  0.3752E+02  0.3355E+03
     -6.534  0.4842E+02  0.3480E+03
     -6.274  0.4681E+02  0.3602E+03
     -6.015  0.5128E+02  0.3735E+03
     -5.755  0.4915E+02  0.3863E+03
     -5.495  0.5072E+02  0.3995E+03
     -5.235  0.6188E+02  0.4155E+03
     -4.975  0.6186E+02  0.4316E+03
     -4.716  0.5945E+02  0.4471E+03
     -4.456  0.5401E+02  0.4611E+03
     -4.196  0.4611E+02  0.4731E+03
     -3.936  0.3692E+02  0.4827E+03
     -3.676  0.4700E+02  0.4949E+03
     -3.417  0.5389E+02  0.5089E+03
     -3.157  0.6924E+02  0.5269E+03
     -2.897  0.8222E+02  0.5482E+03
     -2.637  0.9586E+02  0.5731E+03
     -2.377  0.1116E+03  0.6021E+03
     -2.118  0.1202E+03  0.6334E+03
     -1.858  0.1220E+03  0.6650E+03
     -1.598  0.1079E+03  0.6931E+03
     -1.338  0.9375E+02  0.7174E+03
     -1.078  0.8223E+02  0.7388E+03
     -0.819  0.6144E+02  0.7548E+03
     -0.559  0.5162E+02  0.7682E+03
     -0.299  0.4896E+02  0.7809E+03
     -0.039  0.5916E+02  0.7963E+03
      0.220  0.5404E+02  0.8103E+03
      0.480  0.4474E+02  0.8219E+03
      0.740  0.3526E+02  0.8311E+03
      1.000  0.3761E+02  0.8409E+03
      1.260  0.4040E+02  0.8513E+03
      1.519  0.2997E+02  0.8591E+03
      1.779  0.1608E+02  0.8633E+03
      2.039  0.5154E+01  0.8647E+03
      2.299  0.1192E+02  0.8677E+03
      2.559  0.1027E+02  0.8704E+03
      2.818  0.8166E+01  0.8725E+03
      3.078  0.1072E+02  0.8753E+03
      3.338  0.6960E+01  0.8771E+03
      3.598  0.1049E+02  0.8799E+03
      3.858  0.1025E+02  0.8825E+03
      4.117  0.2204E+02  0.8882E+03
      4.377  0.2844E+02  0.8956E+03
      4.637  0.3625E+02  0.9051E+03
      4.897  0.3562E+02  0.9143E+03
      5.157  0.3746E+02  0.9240E+03
      5.416  0.3778E+02  0.9339E+03
      5.676  0.4155E+02  0.9446E+03
      5.936  0.2564E+02  0.9513E+03
      6.196  0.2640E+01  0.9520E+03
      6.456  0.2035E-01  0.9520E+03
      6.715  0.7783E-05  0.9520E+03
      6.975  0.1243E-09  0.9520E+03
      7.235  0.0000E+00  0.9520E+03
      7.495  0.0000E+00  0.9520E+03
      7.755  0.0000E+00  0.9520E+03
      8.014  0.0000E+00  0.9520E+03
      8.274  0.0000E+00  0.9520E+03
      8.534  0.0000E+00  0.9520E+03
      8.794  0.0000E+00  0.9520E+03
      9.053  0.0000E+00  0.9520E+03
      9.313  0.0000E+00  0.9520E+03
