<?xml version="1.0" encoding="ISO-8859-1"?>
<modeling>
 <generator>
  <i name="program" type="string">vasp </i>
  <i name="version" type="string">6.1.0  </i>
  <i name="subversion" type="string">28Jan20 (build Mar 31 2020 17:42:31) gamma-only                       parallel </i>
  <i name="platform" type="string">LinuxIFC </i>
  <i name="date" type="string">2020 04 12 </i>
  <i name="time" type="string">20:46:59 </i>
 </generator>
 <incar>
  <i type="string" name="SYSTEM">"Millerite NiS"</i>
  <i type="int" name="NSIM">     4</i>
  <i type="int" name="NELM">   100</i>
  <i name="ENCUT">    450.00000000</i>
  <i type="string" name="LREAL">A</i>
  <i type="int" name="ISMEAR">     0</i>
  <i type="int" name="NWRITE">     2</i>
  <i type="logical" name="LWAVE"> F  </i>
  <i type="logical" name="LCHARG"> F  </i>
  <i type="int" name="NCORE">     6</i>
  <i type="int" name="NELM">   100</i>
 </incar>
 <structure name="primitive_cell" >
  <crystal>
   <varray name="basis" >
    <v>       8.70073080      -4.00539907       0.00000000 </v>
    <v>       0.00000000      11.45278367       0.00000000 </v>
    <v>       0.00000000       0.00000000      20.84683014 </v>
   </varray>
   <i name="volume">   2077.33633233 </i>
   <varray name="rec_basis" >
    <v>       0.11493287       0.00000000       0.00000000 </v>
    <v>       0.04019565       0.08731502       0.00000000 </v>
    <v>       0.00000000       0.00000000       0.04796892 </v>
   </varray>
  </crystal>
  <varray name="positions" >
   <v>       0.63793591       0.42904558       0.08004781 </v>
   <v>       0.72899292       0.61115959       0.20011952 </v>
   <v>       0.82004993       0.79327361       0.32019124 </v>
   <v>       0.91110694       0.97538762       0.44026296 </v>
   <v>       0.45636426       0.06590227       0.28016734 </v>
   <v>       0.54742127       0.24801628       0.40023905 </v>
   <v>       0.63847827       0.43013030       0.52031076 </v>
   <v>       0.27425024       0.70167424       0.04002390 </v>
   <v>       0.36530725       0.88378825       0.16009562 </v>
   <v>       0.00162158       0.15641692       0.12007172 </v>
   <v>       0.09267859       0.33853093       0.24014343 </v>
   <v>       0.18373560       0.52064495       0.36021514 </v>
   <v>       0.91056458       0.97430290       0.00000000 </v>
   <v>       0.59499452       0.07895679       0.02342343 </v>
   <v>       0.68605153       0.26107081       0.14349515 </v>
   <v>       0.77710854       0.44318482       0.26356686 </v>
   <v>       0.86816554       0.62529884       0.38363857 </v>
   <v>       0.95922255       0.80741285       0.50371029 </v>
   <v>       0.59553688       0.08004151       0.46368639 </v>
   <v>       0.32236586       0.53369947       0.10347124 </v>
   <v>       0.41342287       0.71581348       0.22354295 </v>
   <v>       0.50447988       0.89792750       0.34361467 </v>
   <v>       0.14079421       0.17055616       0.30359077 </v>
   <v>       0.23185121       0.35267018       0.42366248 </v>
   <v>       0.04973720       0.98844215       0.18351905 </v>
   <v>       0.95868019       0.80632813       0.06344733 </v>
   <v>       0.08425593       0.79327361       0.32019124 </v>
   <v>       0.17531294       0.97538762       0.44026296 </v>
   <v>       0.90214191       0.42904558       0.08004781 </v>
   <v>       0.99319892       0.61115959       0.20011952 </v>
   <v>       0.72057026       0.06590227       0.28016734 </v>
   <v>       0.81162727       0.24801628       0.40023905 </v>
   <v>       0.53845624       0.70167424       0.04002390 </v>
   <v>       0.62951325       0.88378825       0.16009562 </v>
   <v>       0.26582758       0.15641692       0.12007172 </v>
   <v>       0.35688459       0.33853093       0.24014343 </v>
   <v>       0.44794160       0.52064495       0.36021514 </v>
   <v>       0.53899861       0.70275896       0.48028686 </v>
   <v>       0.17477058       0.97430290       0.00000000 </v>
   <v>       0.01340710       0.57935194       0.31115216 </v>
   <v>       0.10446410       0.76146596       0.43122388 </v>
   <v>       0.83129308       0.21512391       0.07100873 </v>
   <v>       0.92235009       0.39723793       0.19108045 </v>
   <v>       0.74077844       0.03409462       0.39119997 </v>
   <v>       0.83183544       0.21620863       0.51127169 </v>
   <v>       0.46760741       0.48775257       0.03098483 </v>
   <v>       0.55866442       0.66986659       0.15105654 </v>
   <v>       0.64972143       0.85198060       0.27112826 </v>
   <v>       0.28603576       0.12460926       0.23110435 </v>
   <v>       0.37709277       0.30672328       0.35117607 </v>
   <v>       0.46814977       0.48883730       0.47124778 </v>
   <v>       0.19497875       0.94249525       0.11103264 </v>
   <v>       0.13425249       0.15747274       0.47050414 </v>
   <v>       0.04319549       0.97535872       0.35043242 </v>
   <v>       0.86108147       0.61113069       0.11028899 </v>
   <v>       0.95213848       0.79324471       0.23036071 </v>
   <v>       0.58845281       0.06587337       0.19033680 </v>
   <v>       0.67950982       0.24798738       0.31040852 </v>
   <v>       0.77056683       0.43010140       0.43048023 </v>
   <v>       0.49739580       0.88375935       0.07026509 </v>
   <v>       0.13371013       0.15638801       0.03024118 </v>
   <v>       0.22476714       0.33850203       0.15031290 </v>
   <v>       0.31582415       0.52061604       0.27038461 </v>
   <v>       0.40688116       0.70273006       0.39045633 </v>
   <v>       0.49793816       0.88484407       0.51052804 </v>
   <v>       0.49486308       0.21512391       0.07100873 </v>
   <v>       0.58592009       0.39723793       0.19108045 </v>
   <v>       0.67697710       0.57935194       0.31115216 </v>
   <v>       0.76803410       0.76146596       0.43122388 </v>
   <v>       0.40434844       0.03409462       0.39119997 </v>
   <v>       0.49540544       0.21620863       0.51127169 </v>
   <v>       0.13117741       0.48775257       0.03098483 </v>
   <v>       0.22223442       0.66986659       0.15105654 </v>
   <v>       0.31329143       0.85198060       0.27112826 </v>
   <v>       0.04066277       0.30672328       0.35117607 </v>
   <v>       0.13171977       0.48883730       0.47124778 </v>
   <v>       0.94960576       0.12460926       0.23110435 </v>
   <v>       0.85854875       0.94249525       0.11103264 </v>
  </varray>
 </structure>
 <varray name="primitive_index" >
  <v type="int" >        1 </v>
  <v type="int" >        2 </v>
  <v type="int" >        3 </v>
  <v type="int" >        4 </v>
  <v type="int" >        5 </v>
  <v type="int" >        6 </v>
  <v type="int" >        7 </v>
  <v type="int" >        8 </v>
  <v type="int" >        9 </v>
  <v type="int" >       10 </v>
  <v type="int" >       11 </v>
  <v type="int" >       12 </v>
  <v type="int" >       13 </v>
  <v type="int" >       14 </v>
  <v type="int" >       15 </v>
  <v type="int" >       16 </v>
  <v type="int" >       17 </v>
  <v type="int" >       18 </v>
  <v type="int" >       19 </v>
  <v type="int" >       20 </v>
  <v type="int" >       21 </v>
  <v type="int" >       22 </v>
  <v type="int" >       23 </v>
  <v type="int" >       24 </v>
  <v type="int" >       25 </v>
  <v type="int" >       26 </v>
  <v type="int" >       27 </v>
  <v type="int" >       28 </v>
  <v type="int" >       29 </v>
  <v type="int" >       30 </v>
  <v type="int" >       31 </v>
  <v type="int" >       32 </v>
  <v type="int" >       33 </v>
  <v type="int" >       34 </v>
  <v type="int" >       35 </v>
  <v type="int" >       36 </v>
  <v type="int" >       37 </v>
  <v type="int" >       38 </v>
  <v type="int" >       39 </v>
  <v type="int" >       40 </v>
  <v type="int" >       41 </v>
  <v type="int" >       42 </v>
  <v type="int" >       43 </v>
  <v type="int" >       44 </v>
  <v type="int" >       45 </v>
  <v type="int" >       46 </v>
  <v type="int" >       47 </v>
  <v type="int" >       48 </v>
  <v type="int" >       49 </v>
  <v type="int" >       50 </v>
  <v type="int" >       51 </v>
  <v type="int" >       52 </v>
  <v type="int" >       53 </v>
  <v type="int" >       54 </v>
  <v type="int" >       55 </v>
  <v type="int" >       56 </v>
  <v type="int" >       57 </v>
  <v type="int" >       58 </v>
  <v type="int" >       59 </v>
  <v type="int" >       60 </v>
  <v type="int" >       61 </v>
  <v type="int" >       62 </v>
  <v type="int" >       63 </v>
  <v type="int" >       64 </v>
  <v type="int" >       65 </v>
  <v type="int" >       66 </v>
  <v type="int" >       67 </v>
  <v type="int" >       68 </v>
  <v type="int" >       69 </v>
  <v type="int" >       70 </v>
  <v type="int" >       71 </v>
  <v type="int" >       72 </v>
  <v type="int" >       73 </v>
  <v type="int" >       74 </v>
  <v type="int" >       75 </v>
  <v type="int" >       76 </v>
  <v type="int" >       77 </v>
  <v type="int" >       78 </v>
 </varray>
 <kpoints>
  <generation param="Gamma">
   <v type="int" name="divisions">       1        1        1 </v>
   <v name="usershift">      0.00000000       0.00000000       0.00000000 </v>
   <v name="genvec1">      1.00000000       0.00000000       0.00000000 </v>
   <v name="genvec2">      0.00000000       1.00000000       0.00000000 </v>
   <v name="genvec3">      0.00000000       0.00000000       1.00000000 </v>
   <v name="shift">      0.00000000       0.00000000       0.00000000 </v>
  </generation>
  <varray name="kpointlist" >
   <v>       0.00000000       0.00000000       0.00000000 </v>
  </varray>
  <varray name="weights" >
   <v>       1.00000000 </v>
  </varray>
 </kpoints>
 <parameters>
  <separator name="general" >
   <i type="string" name="SYSTEM">"Millerite NiS"</i>
   <i type="logical" name="LCOMPAT"> F  </i>
  </separator>
  <separator name="electronic" >
   <i type="string" name="PREC">normal</i>
   <i name="ENMAX">    450.00000000</i>
   <i name="ENAUG">    703.44300000</i>
   <i name="EDIFF">      0.00010000</i>
   <i type="int" name="IALGO">    38</i>
   <i type="int" name="IWAVPR">    10</i>
   <i type="int" name="NBANDS">   520</i>
   <i type="int" name="NBANDSLOW">    -1</i>
   <i type="int" name="NBANDSHIGH">    -1</i>
   <i name="NELECT">    858.00000000</i>
   <i type="int" name="TURBO">     0</i>
   <i type="int" name="IRESTART">     0</i>
   <i type="int" name="NREBOOT">     0</i>
   <i type="int" name="NMIN">     0</i>
   <i name="EREF">      0.00000000</i>
   <separator name="electronic smearing" >
    <i type="int" name="ISMEAR">     0</i>
    <i name="SIGMA">      0.20000000</i>
    <i name="KSPACING">      0.50000000</i>
    <i type="logical" name="KGAMMA"> T  </i>
    <i type="logical" name="KBLOWUP"> T  </i>
   </separator>
   <separator name="electronic projectors" >
    <i type="logical" name="LREAL"> T  </i>
    <v name="ROPT">     -0.00050000     -0.00050000</v>
    <i type="int" name="LMAXPAW">  -100</i>
    <i type="int" name="LMAXMIX">     2</i>
    <i type="logical" name="NLSPLINE"> F  </i>
   </separator>
   <separator name="electronic startup" >
    <i type="int" name="ISTART">     0</i>
    <i type="int" name="ICHARG">     2</i>
    <i type="int" name="INIWAV">     1</i>
   </separator>
   <separator name="electronic spin" >
    <i type="int" name="ISPIN">     1</i>
    <i type="logical" name="LNONCOLLINEAR"> F  </i>
    <v name="MAGMOM">      1.00000000      1.00000000      1.00000000      1.00000000      1.00000000      1.00000000      1.00000000      1.00000000      1.00000000      1.00000000      1.00000000      1.00000000      1.00000000      1.00000000      1.00000000      1.00000000      1.00000000      1.00000000      1.00000000      1.00000000
      1.00000000      1.00000000      1.00000000      1.00000000      1.00000000      1.00000000      1.00000000      1.00000000      1.00000000      1.00000000      1.00000000      1.00000000      1.00000000      1.00000000      1.00000000      1.00000000      1.00000000      1.00000000      1.00000000      1.00000000
      1.00000000      1.00000000      1.00000000      1.00000000      1.00000000      1.00000000      1.00000000      1.00000000      1.00000000      1.00000000      1.00000000      1.00000000      1.00000000      1.00000000      1.00000000      1.00000000      1.00000000      1.00000000      1.00000000      1.00000000
      1.00000000      1.00000000      1.00000000      1.00000000      1.00000000      1.00000000      1.00000000      1.00000000      1.00000000      1.00000000      1.00000000      1.00000000      1.00000000      1.00000000      1.00000000      1.00000000      1.00000000      1.00000000</v>
    <i name="NUPDOWN">     -1.00000000</i>
    <i type="logical" name="LSORBIT"> F  </i>
    <v name="SAXIS">      0.00000000      0.00000000      1.00000000</v>
    <i type="logical" name="LSPIRAL"> F  </i>
    <v name="QSPIRAL">      0.00000000      0.00000000      0.00000000</v>
    <i type="logical" name="LZEROZ"> F  </i>
   </separator>
   <separator name="electronic exchange-correlation" >
    <i type="logical" name="LASPH"> F  </i>
    <i type="logical" name="LMETAGGA"> F  </i>
   </separator>
   <separator name="electronic convergence" >
    <i type="int" name="NELM">   100</i>
    <i type="int" name="NELMDL">    -5</i>
    <i type="int" name="NELMIN">     2</i>
    <i name="ENINI">    450.00000000</i>
    <separator name="electronic convergence detail" >
     <i type="logical" name="LDIAG"> T  </i>
     <i type="logical" name="LSUBROT"> F  </i>
     <i name="WEIMIN">      0.00000000</i>
     <i name="EBREAK">      0.00000005</i>
     <i name="DEPER">      0.30000000</i>
     <i type="int" name="NRMM">     4</i>
     <i name="TIME">      0.40000000</i>
    </separator>
   </separator>
   <separator name="electronic mixer" >
    <i name="AMIX">      0.40000000</i>
    <i name="BMIX">      1.00000000</i>
    <i name="AMIN">      0.10000000</i>
    <i name="AMIX_MAG">      1.60000000</i>
    <i name="BMIX_MAG">      1.00000000</i>
    <separator name="electronic mixer details" >
     <i type="int" name="IMIX">     4</i>
     <i type="logical" name="MIXFIRST"> F  </i>
     <i type="int" name="MAXMIX">   -45</i>
     <i name="WC">    100.00000000</i>
     <i type="int" name="INIMIX">     1</i>
     <i type="int" name="MIXPRE">     1</i>
     <i type="int" name="MREMOVE">     5</i>
    </separator>
   </separator>
   <separator name="electronic dipolcorrection" >
    <i type="logical" name="LDIPOL"> F  </i>
    <i type="logical" name="LMONO"> F  </i>
    <i type="int" name="IDIPOL">     0</i>
    <i name="EPSILON">      1.00000000</i>
    <v name="DIPOL">   -100.00000000   -100.00000000   -100.00000000</v>
    <i name="EFIELD">      0.00000000</i>
   </separator>
  </separator>
  <separator name="grids" >
   <i type="int" name="NGX">    50</i>
   <i type="int" name="NGY">    60</i>
   <i type="int" name="NGZ">   108</i>
   <i type="int" name="NGXF">   100</i>
   <i type="int" name="NGYF">   120</i>
   <i type="int" name="NGZF">   216</i>
   <i type="logical" name="ADDGRID"> F  </i>
  </separator>
  <separator name="ionic" >
   <i type="int" name="NSW">     0</i>
   <i type="int" name="IBRION">    -1</i>
   <i type="int" name="MDALGO">     0</i>
   <i type="int" name="ISIF">     2</i>
   <i name="PSTRESS">      0.00000000</i>
   <i name="EDIFFG">      0.00100000</i>
   <i type="int" name="NFREE">     0</i>
   <i name="POTIM">      0.50000000</i>
   <i name="SMASS">     -3.00000000</i>
   <i name="SCALEE">      1.00000000</i>
  </separator>
  <separator name="ionic md" >
   <i name="TEBEG">      0.00010000</i>
   <i name="TEEND">      0.00010000</i>
   <i type="int" name="NBLOCK">     1</i>
   <i type="int" name="KBLOCK">     1</i>
   <i type="int" name="NPACO">   256</i>
   <i name="APACO">     16.00000000</i>
  </separator>
  <separator name="symmetry" >
   <i type="int" name="ISYM">     2</i>
   <i name="SYMPREC">      0.00001000</i>
  </separator>
  <separator name="dos" >
   <i type="int" name="LORBIT">     0</i>
   <v name="RWIGS">     -1.00000000     -1.00000000</v>
   <i type="int" name="NEDOS">   301</i>
   <i name="EMIN">     10.00000000</i>
   <i name="EMAX">    -10.00000000</i>
   <i name="EFERMI">      0.00000000</i>
  </separator>
  <separator name="writing" >
   <i type="int" name="NWRITE">     2</i>
   <i type="logical" name="LWAVE"> F  </i>
   <i type="logical" name="LDOWNSAMPLE"> F  </i>
   <i type="logical" name="LCHARG"> F  </i>
   <i type="logical" name="LPARD"> F  </i>
   <i type="logical" name="LVTOT"> F  </i>
   <i type="logical" name="LVHAR"> F  </i>
   <i type="logical" name="LELF"> F  </i>
   <i type="logical" name="LOPTICS"> F  </i>
   <v name="STM">      0.00000000      0.00000000      0.00000000      0.00000000      0.00000000      0.00000000      0.00000000</v>
  </separator>
  <separator name="performance" >
   <i type="int" name="NPAR">     8</i>
   <i type="int" name="NSIM">     4</i>
   <i type="int" name="NBLK">    -1</i>
   <i type="logical" name="LPLANE"> T  </i>
   <i type="logical" name="LSCALAPACK"> T  </i>
   <i type="logical" name="LSCAAWARE"> F  </i>
   <i type="logical" name="LSCALU"> F  </i>
   <i type="logical" name="LASYNC"> F  </i>
   <i type="logical" name="LORBITALREAL"> F  </i>
  </separator>
  <separator name="miscellaneous" >
   <i type="int" name="IDIOT">     3</i>
   <i type="int" name="PHON_NSTRUCT">    -1</i>
   <i type="logical" name="LMUSIC"> F  </i>
   <v name="POMASS">     58.69000000     32.06600000</v>
   <v name="DARWINR">      0.00000000      0.00000000</v>
   <v name="DARWINV">      1.00000000      1.00000000</v>
   <i type="logical" name="LCORR"> T  </i>
  </separator>
  <i type="logical" name="GGA_COMPAT"> T  </i>
  <i type="logical" name="LBERRY"> F  </i>
  <i type="int" name="ICORELEVEL">     0</i>
  <i type="logical" name="LDAU"> F  </i>
  <i type="int" name="I_CONSTRAINED_M">     0</i>
  <separator name="electronic exchange-correlation" >
   <i type="string" name="GGA">--</i>
   <i type="int" name="VOSKOWN">     0</i>
   <i type="logical" name="LHFCALC"> F  </i>
   <i type="string" name="PRECFOCK"></i>
   <i type="logical" name="LSYMGRAD"> F  </i>
   <i type="logical" name="LHFONE"> F  </i>
   <i type="logical" name="LRHFCALC"> F  </i>
   <i type="logical" name="LTHOMAS"> F  </i>
   <i type="logical" name="LMODELHF"> F  </i>
   <i type="logical" name="LFOCKACE"> F  </i>
   <i name="ENCUT4O">     -1.00000000</i>
   <i type="int" name="EXXOEP">     0</i>
   <i type="int" name="FOURORBIT">     0</i>
   <i name="AEXX">      0.00000000</i>
   <i name="HFALPHA">      0.00000000</i>
   <i name="MCALPHA">      0.00000000</i>
   <i name="ALDAX">      1.00000000</i>
   <i name="AGGAX">      1.00000000</i>
   <i name="ALDAC">      1.00000000</i>
   <i name="AGGAC">      1.00000000</i>
   <i type="int" name="NKREDX">     1</i>
   <i type="int" name="NKREDY">     1</i>
   <i type="int" name="NKREDZ">     1</i>
   <i type="logical" name="SHIFTRED"> F  </i>
   <i type="logical" name="ODDONLY"> F  </i>
   <i type="logical" name="EVENONLY"> F  </i>
   <i type="int" name="LMAXFOCK">     0</i>
   <i type="int" name="NMAXFOCKAE">     0</i>
   <i type="logical" name="LFOCKAEDFT"> F  </i>
   <i name="HFSCREEN">      0.00000000</i>
   <i name="HFSCREENC">      0.00000000</i>
   <i type="int" name="NBANDSGWLOW">     0</i>
  </separator>
  <separator name="vdW DFT" >
   <i type="logical" name="LUSE_VDW"> F  </i>
   <i name="Zab_VDW">     -0.84910000</i>
   <i name="PARAM1">      0.12340000</i>
   <i name="PARAM2">      1.00000000</i>
   <i name="PARAM3">      0.00000000</i>
  </separator>
  <separator name="model GW" >
   <i type="int" name="MODEL_GW">     0</i>
   <i name="MODEL_EPS0">     15.97951025</i>
   <i name="MODEL_ALPHA">      1.00000000</i>
  </separator>
  <separator name="linear response parameters" >
   <i type="logical" name="LEPSILON"> F  </i>
   <i type="logical" name="LRPA"> F  </i>
   <i type="logical" name="LNABLA"> F  </i>
   <i type="logical" name="LVEL"> F  </i>
   <i type="int" name="KINTER">     0</i>
   <i name="CSHIFT">      0.10000000</i>
   <i name="OMEGAMAX">     -1.00000000</i>
   <i name="DEG_THRESHOLD">      0.00200000</i>
   <i name="RTIME">     -0.10000000</i>
   <i name="WPLASMAI">      0.00000000</i>
   <v name="DFIELD">      0.00000000      0.00000000      0.00000000</v>
   <v name="WPLASMA">      0.00000000      0.00000000      0.00000000      0.00000000      0.00000000      0.00000000      0.00000000      0.00000000      0.00000000</v>
  </separator>
  <separator name="orbital magnetization" >
   <i type="logical" name="NUCIND"> F  </i>
   <v name="MAGPOS">      0.00000000      0.00000000      0.00000000</v>
   <i type="logical" name="LNICSALL"> T  </i>
   <i type="logical" name="ORBITALMAG"> F  </i>
   <i type="logical" name="LMAGBLOCH"> F  </i>
   <i type="logical" name="LCHIMAG"> F  </i>
   <i type="logical" name="LGAUGE"> T  </i>
   <i type="int" name="MAGATOM">     0</i>
   <v name="MAGDIPOL">      0.00000000      0.00000000      0.00000000</v>
   <v name="AVECCONST">      0.00000000      0.00000000      0.00000000</v>
  </separator>
  <separator name="response functions" >
   <i type="logical" name="LFINITE_TEMPERATURE"> F  </i>
   <i type="logical" name="LADDER"> F  </i>
   <i type="logical" name="LRPAFORCE"> F  </i>
   <i type="logical" name="LFXC"> F  </i>
   <i type="logical" name="LHARTREE"> T  </i>
   <i type="int" name="IBSE">     0</i>
   <v type="int" name="KPOINT">    -1     0     0     0</v>
   <i type="logical" name="LTCTC"> F  </i>
   <i type="logical" name="LTCTE"> F  </i>
   <i type="logical" name="LTETE"> F  </i>
   <i type="logical" name="LTRIPLET"> F  </i>
   <i type="logical" name="LFXCEPS"> F  </i>
   <i type="logical" name="LFXHEG"> F  </i>
   <i type="int" name="NATURALO">     2</i>
   <i type="logical" name="LHOLEGF"> F  </i>
   <i type="logical" name="L2ORDER"> F  </i>
   <i type="logical" name="LDMP1"> F  </i>
   <i type="logical" name="LMP2LT"> F  </i>
   <i type="logical" name="LSMP2LT"> F  </i>
   <i type="logical" name="LGWLF"> F  </i>
   <i name="ENCUTGW">     -2.00000000</i>
   <i name="ENCUTGWSOFT">     -2.00000000</i>
   <i name="ENCUTLF">     -1.00000000</i>
   <i type="logical" name="LESF_SPLINES"> F  </i>
   <i type="int" name="LMAXMP2">    -1</i>
   <i name="SCISSOR">      0.00000000</i>
   <i type="int" name="NOMEGA">     0</i>
   <i type="int" name="NOMEGAR">     0</i>
   <i type="int" name="NBANDSGW">    -1</i>
   <i type="int" name="NBANDSO">    -1</i>
   <i type="int" name="NBANDSV">    -1</i>
   <i type="int" name="NELM">   100</i>
   <i type="int" name="NELMHF">     1</i>
   <i type="int" name="DIM">     3</i>
   <i type="int" name="IESPILON">     4</i>
   <i type="int" name="ANTIRES">     0</i>
   <i name="OMEGAMAX">    -30.00000000</i>
   <i name="OMEGAMIN">    -30.00000000</i>
   <i name="OMEGATL">   -200.00000000</i>
   <i type="int" name="OMEGAGRID">     0</i>
   <i name="CSHIFT">     -0.10000000</i>
   <i type="logical" name="LSELFENERGY"> F  </i>
   <i type="logical" name="LSPECTRAL"> F  </i>
   <i type="logical" name="LSPECTRALGW"> F  </i>
   <i type="logical" name="LSINGLES"> F  </i>
   <i type="logical" name="LFERMIGW"> F  </i>
   <i type="logical" name="ODDONLYGW"> F  </i>
   <i type="logical" name="EVENONLYGW"> F  </i>
   <i type="int" name="NKREDLFX">     1</i>
   <i type="int" name="NKREDLFY">     1</i>
   <i type="int" name="NKREDLFZ">     1</i>
   <i type="int" name="MAXMEM">  2800</i>
   <i type="int" name="TELESCOPE">     0</i>
   <i type="int" name="NTAUPAR">    -1</i>
   <i type="int" name="NOMEGAPAR">    -1</i>
   <i name="LAMBDA">      1.00000000</i>
  </separator>
  <separator name="External order field" >
   <i name="OFIELD_KAPPA">      0.00000000</i>
   <v name="OFIELD_K">      0.00000000      0.00000000      0.00000000</v>
   <i name="OFIELD_Q6_NEAR">      0.00000000</i>
   <i name="OFIELD_Q6_FAR">      0.00000000</i>
   <i name="OFIELD_A">      0.00000000</i>
  </separator>
 </parameters>
 <atominfo>
  <atoms>      78 </atoms>
  <types>       2 </types>
  <array name="atoms" >
   <dimension dim="1">ion</dimension>
   <field type="string">element</field>
   <field type="int">atomtype</field>
   <set>
    <rc><c>Ni</c><c>   1</c></rc>
    <rc><c>Ni</c><c>   1</c></rc>
    <rc><c>Ni</c><c>   1</c></rc>
    <rc><c>Ni</c><c>   1</c></rc>
    <rc><c>Ni</c><c>   1</c></rc>
    <rc><c>Ni</c><c>   1</c></rc>
    <rc><c>Ni</c><c>   1</c></rc>
    <rc><c>Ni</c><c>   1</c></rc>
    <rc><c>Ni</c><c>   1</c></rc>
    <rc><c>Ni</c><c>   1</c></rc>
    <rc><c>Ni</c><c>   1</c></rc>
    <rc><c>Ni</c><c>   1</c></rc>
    <rc><c>Ni</c><c>   1</c></rc>
    <rc><c>Ni</c><c>   1</c></rc>
    <rc><c>Ni</c><c>   1</c></rc>
    <rc><c>Ni</c><c>   1</c></rc>
    <rc><c>Ni</c><c>   1</c></rc>
    <rc><c>Ni</c><c>   1</c></rc>
    <rc><c>Ni</c><c>   1</c></rc>
    <rc><c>Ni</c><c>   1</c></rc>
    <rc><c>Ni</c><c>   1</c></rc>
    <rc><c>Ni</c><c>   1</c></rc>
    <rc><c>Ni</c><c>   1</c></rc>
    <rc><c>Ni</c><c>   1</c></rc>
    <rc><c>Ni</c><c>   1</c></rc>
    <rc><c>Ni</c><c>   1</c></rc>
    <rc><c>Ni</c><c>   1</c></rc>
    <rc><c>Ni</c><c>   1</c></rc>
    <rc><c>Ni</c><c>   1</c></rc>
    <rc><c>Ni</c><c>   1</c></rc>
    <rc><c>Ni</c><c>   1</c></rc>
    <rc><c>Ni</c><c>   1</c></rc>
    <rc><c>Ni</c><c>   1</c></rc>
    <rc><c>Ni</c><c>   1</c></rc>
    <rc><c>Ni</c><c>   1</c></rc>
    <rc><c>Ni</c><c>   1</c></rc>
    <rc><c>Ni</c><c>   1</c></rc>
    <rc><c>Ni</c><c>   1</c></rc>
    <rc><c>Ni</c><c>   1</c></rc>
    <rc><c>S </c><c>   2</c></rc>
    <rc><c>S </c><c>   2</c></rc>
    <rc><c>S </c><c>   2</c></rc>
    <rc><c>S </c><c>   2</c></rc>
    <rc><c>S </c><c>   2</c></rc>
    <rc><c>S </c><c>   2</c></rc>
    <rc><c>S </c><c>   2</c></rc>
    <rc><c>S </c><c>   2</c></rc>
    <rc><c>S </c><c>   2</c></rc>
    <rc><c>S </c><c>   2</c></rc>
    <rc><c>S </c><c>   2</c></rc>
    <rc><c>S </c><c>   2</c></rc>
    <rc><c>S </c><c>   2</c></rc>
    <rc><c>S </c><c>   2</c></rc>
    <rc><c>S </c><c>   2</c></rc>
    <rc><c>S </c><c>   2</c></rc>
    <rc><c>S </c><c>   2</c></rc>
    <rc><c>S </c><c>   2</c></rc>
    <rc><c>S </c><c>   2</c></rc>
    <rc><c>S </c><c>   2</c></rc>
    <rc><c>S </c><c>   2</c></rc>
    <rc><c>S </c><c>   2</c></rc>
    <rc><c>S </c><c>   2</c></rc>
    <rc><c>S </c><c>   2</c></rc>
    <rc><c>S </c><c>   2</c></rc>
    <rc><c>S </c><c>   2</c></rc>
    <rc><c>S </c><c>   2</c></rc>
    <rc><c>S </c><c>   2</c></rc>
    <rc><c>S </c><c>   2</c></rc>
    <rc><c>S </c><c>   2</c></rc>
    <rc><c>S </c><c>   2</c></rc>
    <rc><c>S </c><c>   2</c></rc>
    <rc><c>S </c><c>   2</c></rc>
    <rc><c>S </c><c>   2</c></rc>
    <rc><c>S </c><c>   2</c></rc>
    <rc><c>S </c><c>   2</c></rc>
    <rc><c>S </c><c>   2</c></rc>
    <rc><c>S </c><c>   2</c></rc>
    <rc><c>S </c><c>   2</c></rc>
   </set>
  </array>
  <array name="atomtypes" >
   <dimension dim="1">type</dimension>
   <field type="int">atomspertype</field>
   <field type="string">element</field>
   <field>mass</field>
   <field>valence</field>
   <field type="string">pseudopotential</field>
   <set>
    <rc><c>  39</c><c>Ni</c><c>     58.69000000</c><c>     16.00000000</c><c>  PAW_PBE Ni_pv 06Sep2000               </c></rc>
    <rc><c>  39</c><c>S </c><c>     32.06600000</c><c>      6.00000000</c><c>  PAW_PBE S 06Sep2000                   </c></rc>
   </set>
  </array>
 </atominfo>
 <structure name="initialpos" >
  <crystal>
   <varray name="basis" >
    <v>       8.70073080      -4.00539907       0.00000000 </v>
    <v>       0.00000000      11.45278367       0.00000000 </v>
    <v>       0.00000000       0.00000000      20.84683014 </v>
   </varray>
   <i name="volume">   2077.33633233 </i>
   <varray name="rec_basis" >
    <v>       0.11493287       0.00000000       0.00000000 </v>
    <v>       0.04019565       0.08731502       0.00000000 </v>
    <v>       0.00000000       0.00000000       0.04796892 </v>
   </varray>
  </crystal>
  <varray name="positions" >
   <v>       0.63793591       0.42904558       0.08004781 </v>
   <v>       0.72899292       0.61115959       0.20011952 </v>
   <v>       0.82004993       0.79327361       0.32019124 </v>
   <v>       0.91110694       0.97538762       0.44026296 </v>
   <v>       0.45636426       0.06590227       0.28016734 </v>
   <v>       0.54742127       0.24801628       0.40023905 </v>
   <v>       0.63847827       0.43013030       0.52031076 </v>
   <v>       0.27425024       0.70167424       0.04002390 </v>
   <v>       0.36530725       0.88378825       0.16009562 </v>
   <v>       0.00162158       0.15641692       0.12007172 </v>
   <v>       0.09267859       0.33853093       0.24014343 </v>
   <v>       0.18373560       0.52064495       0.36021514 </v>
   <v>       0.91056458       0.97430290       0.00000000 </v>
   <v>       0.59499452       0.07895679       0.02342343 </v>
   <v>       0.68605153       0.26107081       0.14349515 </v>
   <v>       0.77710854       0.44318482       0.26356686 </v>
   <v>       0.86816554       0.62529884       0.38363857 </v>
   <v>       0.95922255       0.80741285       0.50371029 </v>
   <v>       0.59553688       0.08004151       0.46368639 </v>
   <v>       0.32236586       0.53369947       0.10347124 </v>
   <v>       0.41342287       0.71581348       0.22354295 </v>
   <v>       0.50447988       0.89792750       0.34361467 </v>
   <v>       0.14079421       0.17055616       0.30359077 </v>
   <v>       0.23185121       0.35267018       0.42366248 </v>
   <v>       0.04973720       0.98844215       0.18351905 </v>
   <v>       0.95868019       0.80632813       0.06344733 </v>
   <v>       0.08425593       0.79327361       0.32019124 </v>
   <v>       0.17531294       0.97538762       0.44026296 </v>
   <v>       0.90214191       0.42904558       0.08004781 </v>
   <v>       0.99319892       0.61115959       0.20011952 </v>
   <v>       0.72057026       0.06590227       0.28016734 </v>
   <v>       0.81162727       0.24801628       0.40023905 </v>
   <v>       0.53845624       0.70167424       0.04002390 </v>
   <v>       0.62951325       0.88378825       0.16009562 </v>
   <v>       0.26582758       0.15641692       0.12007172 </v>
   <v>       0.35688459       0.33853093       0.24014343 </v>
   <v>       0.44794160       0.52064495       0.36021514 </v>
   <v>       0.53899861       0.70275896       0.48028686 </v>
   <v>       0.17477058       0.97430290       0.00000000 </v>
   <v>       0.01340710       0.57935194       0.31115216 </v>
   <v>       0.10446410       0.76146596       0.43122388 </v>
   <v>       0.83129308       0.21512391       0.07100873 </v>
   <v>       0.92235009       0.39723793       0.19108045 </v>
   <v>       0.74077844       0.03409462       0.39119997 </v>
   <v>       0.83183544       0.21620863       0.51127169 </v>
   <v>       0.46760741       0.48775257       0.03098483 </v>
   <v>       0.55866442       0.66986659       0.15105654 </v>
   <v>       0.64972143       0.85198060       0.27112826 </v>
   <v>       0.28603576       0.12460926       0.23110435 </v>
   <v>       0.37709277       0.30672328       0.35117607 </v>
   <v>       0.46814977       0.48883730       0.47124778 </v>
   <v>       0.19497875       0.94249525       0.11103264 </v>
   <v>       0.13425249       0.15747274       0.47050414 </v>
   <v>       0.04319549       0.97535872       0.35043242 </v>
   <v>       0.86108147       0.61113069       0.11028899 </v>
   <v>       0.95213848       0.79324471       0.23036071 </v>
   <v>       0.58845281       0.06587337       0.19033680 </v>
   <v>       0.67950982       0.24798738       0.31040852 </v>
   <v>       0.77056683       0.43010140       0.43048023 </v>
   <v>       0.49739580       0.88375935       0.07026509 </v>
   <v>       0.13371013       0.15638801       0.03024118 </v>
   <v>       0.22476714       0.33850203       0.15031290 </v>
   <v>       0.31582415       0.52061604       0.27038461 </v>
   <v>       0.40688116       0.70273006       0.39045633 </v>
   <v>       0.49793816       0.88484407       0.51052804 </v>
   <v>       0.49486308       0.21512391       0.07100873 </v>
   <v>       0.58592009       0.39723793       0.19108045 </v>
   <v>       0.67697710       0.57935194       0.31115216 </v>
   <v>       0.76803410       0.76146596       0.43122388 </v>
   <v>       0.40434844       0.03409462       0.39119997 </v>
   <v>       0.49540544       0.21620863       0.51127169 </v>
   <v>       0.13117741       0.48775257       0.03098483 </v>
   <v>       0.22223442       0.66986659       0.15105654 </v>
   <v>       0.31329143       0.85198060       0.27112826 </v>
   <v>       0.04066277       0.30672328       0.35117607 </v>
   <v>       0.13171977       0.48883730       0.47124778 </v>
   <v>       0.94960576       0.12460926       0.23110435 </v>
   <v>       0.85854875       0.94249525       0.11103264 </v>
  </varray>
 </structure>
 <calculation>
  <scstep>
   <time name="dav">    2.42    2.43</time>
   <time name="total">    2.48    2.50</time>
   <energy>
    <i name="alphaZ">   2101.59301765 </i>
    <i name="ewald"> 179824.39911212 </i>
    <i name="hartreedc">-312807.75257879 </i>
    <i name="XCdc">   3956.47954665 </i>
    <i name="pawpsdc"> 122123.66111200 </i>
    <i name="pawaedc">-127444.97121129 </i>
    <i name="eentropy">     -0.55084645 </i>
    <i name="bandstr">  -4438.68350818 </i>
    <i name="atom"> 147336.15547490 </i>
    <i name="e_fr_energy">  10650.33011860 </i>
    <i name="e_wo_entrp">  10650.88096505 </i>
    <i name="e_0_energy">  10650.60554183 </i>
   </energy>
  </scstep>
  <scstep>
   <time name="dav">    2.13    2.14</time>
   <time name="total">    2.13    2.14</time>
   <energy>
    <i name="e_fr_energy">    685.63971613 </i>
    <i name="e_wo_entrp">    686.42436943 </i>
    <i name="e_0_energy">    686.03204278 </i>
   </energy>
  </scstep>
  <scstep>
   <time name="dav">    2.31    2.32</time>
   <time name="total">    2.32    2.32</time>
   <energy>
    <i name="e_fr_energy">   -367.23081288 </i>
    <i name="e_wo_entrp">   -365.91358827 </i>
    <i name="e_0_energy">   -366.57220057 </i>
   </energy>
  </scstep>
  <scstep>
   <time name="dav">    2.32    2.33</time>
   <time name="total">    2.32    2.33</time>
   <energy>
    <i name="e_fr_energy">   -436.52268272 </i>
    <i name="e_wo_entrp">   -435.09751222 </i>
    <i name="e_0_energy">   -435.81009747 </i>
   </energy>
  </scstep>
  <scstep>
   <time name="dav">    2.56    2.56</time>
   <time name="total">    2.61    2.61</time>
   <energy>
    <i name="e_fr_energy">   -439.26421070 </i>
    <i name="e_wo_entrp">   -437.83625955 </i>
    <i name="e_0_energy">   -438.55023513 </i>
   </energy>
  </scstep>
  <scstep>
   <time name="dav">    2.41    2.42</time>
   <time name="total">    2.51    2.52</time>
   <energy>
    <i name="e_fr_energy">   -540.97924951 </i>
    <i name="e_wo_entrp">   -539.99792937 </i>
    <i name="e_0_energy">   -540.48858944 </i>
   </energy>
  </scstep>
  <scstep>
   <time name="dav">    2.42    2.42</time>
   <time name="total">    2.51    2.52</time>
   <energy>
    <i name="e_fr_energy">   -409.70264803 </i>
    <i name="e_wo_entrp">   -408.58133764 </i>
    <i name="e_0_energy">   -409.14199284 </i>
   </energy>
  </scstep>
  <scstep>
   <time name="dav">    2.43    2.43</time>
   <time name="total">    2.52    2.53</time>
   <energy>
    <i name="e_fr_energy">   -566.56933357 </i>
    <i name="e_wo_entrp">   -565.87851044 </i>
    <i name="e_0_energy">   -566.22392201 </i>
   </energy>
  </scstep>
  <scstep>
   <time name="dav">    2.55    2.56</time>
   <time name="total">    2.65    2.66</time>
   <energy>
    <i name="e_fr_energy">   -417.07184503 </i>
    <i name="e_wo_entrp">   -415.75763974 </i>
    <i name="e_0_energy">   -416.41474238 </i>
   </energy>
  </scstep>
  <scstep>
   <time name="dav">    2.86    2.87</time>
   <time name="total">    2.96    2.97</time>
   <energy>
    <i name="e_fr_energy">   -406.33299939 </i>
    <i name="e_wo_entrp">   -404.52365660 </i>
    <i name="e_0_energy">   -405.42832800 </i>
   </energy>
  </scstep>
  <scstep>
   <time name="dav">    2.67    2.68</time>
   <time name="total">    2.77    2.78</time>
   <energy>
    <i name="e_fr_energy">   -409.43337151 </i>
    <i name="e_wo_entrp">   -408.09895312 </i>
    <i name="e_0_energy">   -408.76616231 </i>
   </energy>
  </scstep>
  <scstep>
   <time name="dav">    2.68    2.69</time>
   <time name="total">    2.78    2.79</time>
   <energy>
    <i name="e_fr_energy">   -399.28316441 </i>
    <i name="e_wo_entrp">   -398.24033525 </i>
    <i name="e_0_energy">   -398.76174983 </i>
   </energy>
  </scstep>
  <scstep>
   <time name="dav">    2.52    2.53</time>
   <time name="total">    2.63    2.63</time>
   <energy>
    <i name="e_fr_energy">   -393.70264987 </i>
    <i name="e_wo_entrp">   -392.49738872 </i>
    <i name="e_0_energy">   -393.10001929 </i>
   </energy>
  </scstep>
  <scstep>
   <time name="dav">    2.64    2.65</time>
   <time name="total">    2.74    2.75</time>
   <energy>
    <i name="e_fr_energy">   -389.14215871 </i>
    <i name="e_wo_entrp">   -388.02512480 </i>
    <i name="e_0_energy">   -388.58364175 </i>
   </energy>
  </scstep>
  <scstep>
   <time name="dav">    2.56    2.56</time>
   <time name="total">    2.66    2.66</time>
   <energy>
    <i name="e_fr_energy">   -387.14666147 </i>
    <i name="e_wo_entrp">   -386.10416306 </i>
    <i name="e_0_energy">   -386.62541227 </i>
   </energy>
  </scstep>
  <scstep>
   <time name="dav">    2.51    2.52</time>
   <time name="total">    2.62    2.63</time>
   <energy>
    <i name="e_fr_energy">   -385.52857961 </i>
    <i name="e_wo_entrp">   -384.39787439 </i>
    <i name="e_0_energy">   -384.96322700 </i>
   </energy>
  </scstep>
  <scstep>
   <time name="dav">    2.61    2.62</time>
   <time name="total">    2.72    2.72</time>
   <energy>
    <i name="e_fr_energy">   -385.19661589 </i>
    <i name="e_wo_entrp">   -384.05398729 </i>
    <i name="e_0_energy">   -384.62530159 </i>
   </energy>
  </scstep>
  <scstep>
   <time name="dav">    2.56    2.57</time>
   <time name="total">    2.67    2.68</time>
   <energy>
    <i name="e_fr_energy">   -384.53134762 </i>
    <i name="e_wo_entrp">   -383.37167068 </i>
    <i name="e_0_energy">   -383.95150915 </i>
   </energy>
  </scstep>
  <scstep>
   <time name="dav">    2.62    2.63</time>
   <time name="total">    2.73    2.73</time>
   <energy>
    <i name="e_fr_energy">   -384.36242969 </i>
    <i name="e_wo_entrp">   -383.13449097 </i>
    <i name="e_0_energy">   -383.74846033 </i>
   </energy>
  </scstep>
  <scstep>
   <time name="dav">    2.50    2.51</time>
   <time name="total">    2.61    2.62</time>
   <energy>
    <i name="e_fr_energy">   -384.21133363 </i>
    <i name="e_wo_entrp">   -383.00937909 </i>
    <i name="e_0_energy">   -383.61035636 </i>
   </energy>
  </scstep>
  <scstep>
   <time name="dav">    2.69    2.70</time>
   <time name="total">    2.79    2.80</time>
   <energy>
    <i name="e_fr_energy">   -384.18105164 </i>
    <i name="e_wo_entrp">   -382.93093057 </i>
    <i name="e_0_energy">   -383.55599111 </i>
   </energy>
  </scstep>
  <scstep>
   <time name="dav">    2.62    2.62</time>
   <time name="total">    2.72    2.72</time>
   <energy>
    <i name="e_fr_energy">   -384.05437123 </i>
    <i name="e_wo_entrp">   -382.81935130 </i>
    <i name="e_0_energy">   -383.43686126 </i>
   </energy>
  </scstep>
  <scstep>
   <time name="dav">    2.56    2.56</time>
   <time name="total">    2.66    2.66</time>
   <energy>
    <i name="e_fr_energy">   -384.04029993 </i>
    <i name="e_wo_entrp">   -382.79765482 </i>
    <i name="e_0_energy">   -383.41897738 </i>
   </energy>
  </scstep>
  <scstep>
   <time name="dav">    2.75    2.76</time>
   <time name="total">    2.85    2.86</time>
   <energy>
    <i name="e_fr_energy">   -384.05193529 </i>
    <i name="e_wo_entrp">   -382.76506254 </i>
    <i name="e_0_energy">   -383.40849892 </i>
   </energy>
  </scstep>
  <scstep>
   <time name="dav">    2.64    2.65</time>
   <time name="total">    2.74    2.75</time>
   <energy>
    <i name="e_fr_energy">   -383.99117610 </i>
    <i name="e_wo_entrp">   -382.71032230 </i>
    <i name="e_0_energy">   -383.35074920 </i>
   </energy>
  </scstep>
  <scstep>
   <time name="dav">    2.65    2.66</time>
   <time name="total">    2.75    2.76</time>
   <energy>
    <i name="e_fr_energy">   -383.97515844 </i>
    <i name="e_wo_entrp">   -382.70672900 </i>
    <i name="e_0_energy">   -383.34094372 </i>
   </energy>
  </scstep>
  <scstep>
   <time name="dav">    2.63    2.64</time>
   <time name="total">    2.73    2.74</time>
   <energy>
    <i name="e_fr_energy">   -383.97374513 </i>
    <i name="e_wo_entrp">   -382.70556346 </i>
    <i name="e_0_energy">   -383.33965430 </i>
   </energy>
  </scstep>
  <scstep>
   <time name="dav">    2.64    2.65</time>
   <time name="total">    2.74    2.75</time>
   <energy>
    <i name="e_fr_energy">   -383.96301500 </i>
    <i name="e_wo_entrp">   -382.70559948 </i>
    <i name="e_0_energy">   -383.33430724 </i>
   </energy>
  </scstep>
  <scstep>
   <time name="dav">    2.86    2.87</time>
   <time name="total">    2.96    2.97</time>
   <energy>
    <i name="e_fr_energy">   -383.94314010 </i>
    <i name="e_wo_entrp">   -382.70739584 </i>
    <i name="e_0_energy">   -383.32526797 </i>
   </energy>
  </scstep>
  <scstep>
   <time name="dav">    2.55    2.56</time>
   <time name="total">    2.65    2.66</time>
   <energy>
    <i name="e_fr_energy">   -383.94317879 </i>
    <i name="e_wo_entrp">   -382.69497438 </i>
    <i name="e_0_energy">   -383.31907658 </i>
   </energy>
  </scstep>
  <scstep>
   <time name="dav">    2.49    2.50</time>
   <time name="total">    2.59    2.60</time>
   <energy>
    <i name="e_fr_energy">   -383.93649128 </i>
    <i name="e_wo_entrp">   -382.69690399 </i>
    <i name="e_0_energy">   -383.31669764 </i>
   </energy>
  </scstep>
  <scstep>
   <time name="dav">    2.65    2.66</time>
   <time name="total">    2.75    2.76</time>
   <energy>
    <i name="e_fr_energy">   -383.93596996 </i>
    <i name="e_wo_entrp">   -382.69438168 </i>
    <i name="e_0_energy">   -383.31517582 </i>
   </energy>
  </scstep>
  <scstep>
   <time name="dav">    2.38    2.38</time>
   <time name="total">    2.48    2.49</time>
   <energy>
    <i name="e_fr_energy">   -383.93635146 </i>
    <i name="e_wo_entrp">   -382.69311897 </i>
    <i name="e_0_energy">   -383.31473522 </i>
   </energy>
  </scstep>
  <scstep>
   <time name="dav">    2.28    2.29</time>
   <time name="total">    2.38    2.39</time>
   <energy>
    <i name="e_fr_energy">   -383.93566666 </i>
    <i name="e_wo_entrp">   -382.69191924 </i>
    <i name="e_0_energy">   -383.31379295 </i>
   </energy>
  </scstep>
  <scstep>
   <time name="dav">    2.20    2.21</time>
   <time name="total">    2.31    2.31</time>
   <energy>
    <i name="e_fr_energy">   -383.93574489 </i>
    <i name="e_wo_entrp">   -382.69361900 </i>
    <i name="e_0_energy">   -383.31468194 </i>
   </energy>
  </scstep>
  <scstep>
   <time name="dav">    2.12    2.12</time>
   <time name="total">    2.17    2.17</time>
   <energy>
    <i name="alphaZ">   2101.59301765 </i>
    <i name="ewald"> 179824.39911212 </i>
    <i name="hartreedc">-311988.69424850 </i>
    <i name="XCdc">   3924.36071793 </i>
    <i name="pawpsdc"> 141400.51436308 </i>
    <i name="pawaedc">-146784.68067283 </i>
    <i name="eentropy">     -1.24062863 </i>
    <i name="bandstr"> -16196.34282265 </i>
    <i name="atom"> 147336.15547490 </i>
    <i name="e_fr_energy">   -383.93568693 </i>
    <i name="e_wo_entrp">   -382.69505830 </i>
    <i name="e_0_energy">   -383.31537262 </i>
   </energy>
  </scstep>
  <structure>
   <crystal>
    <varray name="basis" >
     <v>       8.70073080      -4.00539907       0.00000000 </v>
     <v>       0.00000000      11.45278367       0.00000000 </v>
     <v>       0.00000000       0.00000000      20.84683014 </v>
    </varray>
    <i name="volume">   2077.33633233 </i>
    <varray name="rec_basis" >
     <v>       0.11493287       0.00000000       0.00000000 </v>
     <v>       0.04019565       0.08731502       0.00000000 </v>
     <v>       0.00000000       0.00000000       0.04796892 </v>
    </varray>
   </crystal>
   <varray name="positions" >
    <v>       0.63793591       0.42904558       0.08004781 </v>
    <v>       0.72899292       0.61115959       0.20011952 </v>
    <v>       0.82004993       0.79327361       0.32019124 </v>
    <v>       0.91110694       0.97538762       0.44026296 </v>
    <v>       0.45636426       0.06590227       0.28016734 </v>
    <v>       0.54742127       0.24801628       0.40023905 </v>
    <v>       0.63847827       0.43013030       0.52031076 </v>
    <v>       0.27425024       0.70167424       0.04002390 </v>
    <v>       0.36530725       0.88378825       0.16009562 </v>
    <v>       0.00162158       0.15641692       0.12007172 </v>
    <v>       0.09267859       0.33853093       0.24014343 </v>
    <v>       0.18373560       0.52064495       0.36021514 </v>
    <v>       0.91056458       0.97430290       0.00000000 </v>
    <v>       0.59499452       0.07895679       0.02342343 </v>
    <v>       0.68605153       0.26107081       0.14349515 </v>
    <v>       0.77710854       0.44318482       0.26356686 </v>
    <v>       0.86816554       0.62529884       0.38363857 </v>
    <v>       0.95922255       0.80741285       0.50371029 </v>
    <v>       0.59553688       0.08004151       0.46368639 </v>
    <v>       0.32236586       0.53369947       0.10347124 </v>
    <v>       0.41342287       0.71581348       0.22354295 </v>
    <v>       0.50447988       0.89792750       0.34361467 </v>
    <v>       0.14079421       0.17055616       0.30359077 </v>
    <v>       0.23185121       0.35267018       0.42366248 </v>
    <v>       0.04973720       0.98844215       0.18351905 </v>
    <v>       0.95868019       0.80632813       0.06344733 </v>
    <v>       0.08425593       0.79327361       0.32019124 </v>
    <v>       0.17531294       0.97538762       0.44026296 </v>
    <v>       0.90214191       0.42904558       0.08004781 </v>
    <v>       0.99319892       0.61115959       0.20011952 </v>
    <v>       0.72057026       0.06590227       0.28016734 </v>
    <v>       0.81162727       0.24801628       0.40023905 </v>
    <v>       0.53845624       0.70167424       0.04002390 </v>
    <v>       0.62951325       0.88378825       0.16009562 </v>
    <v>       0.26582758       0.15641692       0.12007172 </v>
    <v>       0.35688459       0.33853093       0.24014343 </v>
    <v>       0.44794160       0.52064495       0.36021514 </v>
    <v>       0.53899861       0.70275896       0.48028686 </v>
    <v>       0.17477058       0.97430290       0.00000000 </v>
    <v>       0.01340710       0.57935194       0.31115216 </v>
    <v>       0.10446410       0.76146596       0.43122388 </v>
    <v>       0.83129308       0.21512391       0.07100873 </v>
    <v>       0.92235009       0.39723793       0.19108045 </v>
    <v>       0.74077844       0.03409462       0.39119997 </v>
    <v>       0.83183544       0.21620863       0.51127169 </v>
    <v>       0.46760741       0.48775257       0.03098483 </v>
    <v>       0.55866442       0.66986659       0.15105654 </v>
    <v>       0.64972143       0.85198060       0.27112826 </v>
    <v>       0.28603576       0.12460926       0.23110435 </v>
    <v>       0.37709277       0.30672328       0.35117607 </v>
    <v>       0.46814977       0.48883730       0.47124778 </v>
    <v>       0.19497875       0.94249525       0.11103264 </v>
    <v>       0.13425249       0.15747274       0.47050414 </v>
    <v>       0.04319549       0.97535872       0.35043242 </v>
    <v>       0.86108147       0.61113069       0.11028899 </v>
    <v>       0.95213848       0.79324471       0.23036071 </v>
    <v>       0.58845281       0.06587337       0.19033680 </v>
    <v>       0.67950982       0.24798738       0.31040852 </v>
    <v>       0.77056683       0.43010140       0.43048023 </v>
    <v>       0.49739580       0.88375935       0.07026509 </v>
    <v>       0.13371013       0.15638801       0.03024118 </v>
    <v>       0.22476714       0.33850203       0.15031290 </v>
    <v>       0.31582415       0.52061604       0.27038461 </v>
    <v>       0.40688116       0.70273006       0.39045633 </v>
    <v>       0.49793816       0.88484407       0.51052804 </v>
    <v>       0.49486308       0.21512391       0.07100873 </v>
    <v>       0.58592009       0.39723793       0.19108045 </v>
    <v>       0.67697710       0.57935194       0.31115216 </v>
    <v>       0.76803410       0.76146596       0.43122388 </v>
    <v>       0.40434844       0.03409462       0.39119997 </v>
    <v>       0.49540544       0.21620863       0.51127169 </v>
    <v>       0.13117741       0.48775257       0.03098483 </v>
    <v>       0.22223442       0.66986659       0.15105654 </v>
    <v>       0.31329143       0.85198060       0.27112826 </v>
    <v>       0.04066277       0.30672328       0.35117607 </v>
    <v>       0.13171977       0.48883730       0.47124778 </v>
    <v>       0.94960576       0.12460926       0.23110435 </v>
    <v>       0.85854875       0.94249525       0.11103264 </v>
   </varray>
  </structure>
  <varray name="forces" >
   <v>      -0.62836871       0.17237111       0.37521838 </v>
   <v>      -0.09526084      -0.05690028      -0.07945501 </v>
   <v>       0.13813290       0.12776447      -0.04998878 </v>
   <v>       0.72204567       0.32086319      -0.62976347 </v>
   <v>       0.12487642      -0.07650681      -0.07802585 </v>
   <v>       0.14513825       0.17335279       0.24376497 </v>
   <v>      -0.96512931      -0.83562511      -2.02888578 </v>
   <v>      -0.11873163      -0.31564728       0.96210612 </v>
   <v>      -0.09629686      -0.15359434      -0.04666465 </v>
   <v>      -0.06516048      -0.12955684      -0.26266254 </v>
   <v>       0.00914746      -0.02602149      -0.07867878 </v>
   <v>       0.12926014      -0.00452410       0.63884613 </v>
   <v>       0.95848684       0.29829947       1.76766335 </v>
   <v>       0.11976664       0.25834770       1.65960533 </v>
   <v>       0.03090583       0.05823337      -0.29800070 </v>
   <v>       0.08066650       0.14419750      -0.03799043 </v>
   <v>       0.06193839       0.09196924       0.32330028 </v>
   <v>      -0.20632071      -0.35684237      -1.87449471 </v>
   <v>       0.36930543      -0.07205561       0.92727112 </v>
   <v>      -0.07664200      -0.21678817      -0.19097490 </v>
   <v>       0.07068613       0.15002312       0.00462644 </v>
   <v>       0.09226186      -0.01090114      -0.10705835 </v>
   <v>       0.04686376       0.16098834      -0.20798813 </v>
   <v>      -0.26972762       0.42558363       0.59407734 </v>
   <v>      -0.03546491      -0.13986838      -0.22273331 </v>
   <v>       0.19339714       0.42067287       0.74803458 </v>
   <v>      -0.12479082       0.21390721       0.23700859 </v>
   <v>      -0.32736072       0.60837834      -0.68773061 </v>
   <v>       0.53693733      -0.32845404       0.37092728 </v>
   <v>       0.01608639      -0.15594092      -0.06379152 </v>
   <v>      -0.18294135       0.07038793       0.00731932 </v>
   <v>      -0.03733380       0.08195812       0.61140677 </v>
   <v>      -0.16235070      -0.29944794       0.99956735 </v>
   <v>      -0.04610589      -0.17263559      -0.05116586 </v>
   <v>      -0.05401377      -0.14893478      -0.26030225 </v>
   <v>      -0.00536018      -0.04471413      -0.14552454 </v>
   <v>       0.01455757       0.05469567      -0.01173903 </v>
   <v>      -0.32814060       0.91767244      -0.94561255 </v>
   <v>      -0.39312580       0.91559884       1.76441224 </v>
   <v>      -0.05224497       0.09744675       0.10088759 </v>
   <v>      -0.23131186       0.37058630       0.66451238 </v>
   <v>      -0.74577358       0.37395367      -0.59855748 </v>
   <v>      -0.18355872       0.15029200       0.12453014 </v>
   <v>      -0.09589682       0.19267235       0.22676141 </v>
   <v>      -0.80040023      -0.24884521      -1.40726834 </v>
   <v>       0.80969167       0.74919811      -0.01468799 </v>
   <v>      -0.21856907       0.16464236      -0.02800805 </v>
   <v>      -0.09558032      -0.02268898       0.11817543 </v>
   <v>      -0.05896075      -0.03891150       0.13347095 </v>
   <v>      -0.10728656       0.09577788       0.22295521 </v>
   <v>       0.35030961       0.60825739       0.62290295 </v>
   <v>      -0.30515580      -0.33668999      -0.92005556 </v>
   <v>      -0.49150946      -1.18210839       0.48066374 </v>
   <v>      -0.08198122      -0.18242806       0.20165328 </v>
   <v>      -0.01461502      -0.04028253      -1.55399599 </v>
   <v>      -0.00815776      -0.05980735       0.03247076 </v>
   <v>      -0.06925130      -0.11335680      -0.01800848 </v>
   <v>       0.01527996      -0.05869142       0.23260437 </v>
   <v>      -0.18855460       0.08548808       1.04980588 </v>
   <v>       0.01245392       0.10384664      -1.93608992 </v>
   <v>      -0.50679901      -1.09140841      -1.23604996 </v>
   <v>       0.01368979       0.06353524      -0.11336255 </v>
   <v>      -0.01895845       0.12801726       0.18082392 </v>
   <v>       0.03076876      -0.29464720       0.63266658 </v>
   <v>       0.30527793      -1.09302707      -0.04849725 </v>
   <v>       0.78160808      -0.33847396      -0.59408902 </v>
   <v>       0.26510381      -0.05086955       0.10681157 </v>
   <v>       0.14291307      -0.06906606       0.12521639 </v>
   <v>       0.31105688       0.22743872       1.43332729 </v>
   <v>       0.04979989       0.05788425       0.35027194 </v>
   <v>       0.64326695       0.07292561      -0.57885880 </v>
   <v>       0.02933243       1.09533981      -0.00132937 </v>
   <v>       0.24324933      -0.05879038      -0.02666636 </v>
   <v>       0.02194827      -0.05865860       0.10932084 </v>
   <v>       0.21029700      -0.03411616       0.12447593 </v>
   <v>       0.45222035      -0.87826669      -1.31872893 </v>
   <v>       0.01292176      -0.04708564       0.16706509 </v>
   <v>      -0.06845788      -0.45938849      -0.92304346 </v>
  </varray>
  <varray name="stress" >
   <v>     -21.72238369      -2.99320016      -4.14464241 </v>
   <v>      -2.99320002     -31.49536749      -9.66664850 </v>
   <v>      -4.14464241      -9.66664816     -23.13337037 </v>
  </varray>
  <energy>
   <i name="e_fr_energy">   -383.93568693 </i>
   <i name="e_wo_entrp">   -382.69505830 </i>
   <i name="e_0_energy">   -383.31537262 </i>
  </energy>
  <time name="totalsc">   96.17   96.49</time>
  <eigenvalues>
   <array>
    <dimension dim="1">band</dimension>
    <dimension dim="2">kpoint</dimension>
    <dimension dim="3">spin</dimension>
    <field>eigene</field>
    <field>occ</field>
    <set>
     <set comment="spin 1">
      <set comment="kpoint 1">
       <r>  -62.6815    1.0000 </r>
       <r>  -62.6399    1.0000 </r>
       <r>  -62.6211    1.0000 </r>
       <r>  -62.6141    1.0000 </r>
       <r>  -62.6058    1.0000 </r>
       <r>  -62.5916    1.0000 </r>
       <r>  -62.5894    1.0000 </r>
       <r>  -62.5879    1.0000 </r>
       <r>  -62.5807    1.0000 </r>
       <r>  -62.5801    1.0000 </r>
       <r>  -62.5785    1.0000 </r>
       <r>  -62.5702    1.0000 </r>
       <r>  -62.5701    1.0000 </r>
       <r>  -62.5653    1.0000 </r>
       <r>  -62.5652    1.0000 </r>
       <r>  -62.5651    1.0000 </r>
       <r>  -62.5620    1.0000 </r>
       <r>  -62.5576    1.0000 </r>
       <r>  -62.5573    1.0000 </r>
       <r>  -62.5566    1.0000 </r>
       <r>  -62.5545    1.0000 </r>
       <r>  -62.5534    1.0000 </r>
       <r>  -62.5524    1.0000 </r>
       <r>  -62.5522    1.0000 </r>
       <r>  -62.5481    1.0000 </r>
       <r>  -62.5475    1.0000 </r>
       <r>  -62.5474    1.0000 </r>
       <r>  -62.5404    1.0000 </r>
       <r>  -62.5393    1.0000 </r>
       <r>  -62.5384    1.0000 </r>
       <r>  -62.5335    1.0000 </r>
       <r>  -62.5311    1.0000 </r>
       <r>  -62.5269    1.0000 </r>
       <r>  -62.5264    1.0000 </r>
       <r>  -62.5228    1.0000 </r>
       <r>  -62.5178    1.0000 </r>
       <r>  -62.5137    1.0000 </r>
       <r>  -62.5123    1.0000 </r>
       <r>  -62.5117    1.0000 </r>
       <r>  -62.5113    1.0000 </r>
       <r>  -62.5110    1.0000 </r>
       <r>  -62.5035    1.0000 </r>
       <r>  -62.5016    1.0000 </r>
       <r>  -62.5015    1.0000 </r>
       <r>  -62.4976    1.0000 </r>
       <r>  -62.4943    1.0000 </r>
       <r>  -62.4926    1.0000 </r>
       <r>  -62.4843    1.0000 </r>
       <r>  -62.4770    1.0000 </r>
       <r>  -62.4756    1.0000 </r>
       <r>  -62.4729    1.0000 </r>
       <r>  -62.4532    1.0000 </r>
       <r>  -62.4509    1.0000 </r>
       <r>  -62.4443    1.0000 </r>
       <r>  -62.4259    1.0000 </r>
       <r>  -62.4229    1.0000 </r>
       <r>  -62.3931    1.0000 </r>
       <r>  -62.3930    1.0000 </r>
       <r>  -62.3834    1.0000 </r>
       <r>  -62.3753    1.0000 </r>
       <r>  -62.3731    1.0000 </r>
       <r>  -62.3698    1.0000 </r>
       <r>  -62.3582    1.0000 </r>
       <r>  -62.3567    1.0000 </r>
       <r>  -62.3552    1.0000 </r>
       <r>  -62.3493    1.0000 </r>
       <r>  -62.3419    1.0000 </r>
       <r>  -62.3416    1.0000 </r>
       <r>  -62.3327    1.0000 </r>
       <r>  -62.3264    1.0000 </r>
       <r>  -62.3229    1.0000 </r>
       <r>  -62.3105    1.0000 </r>
       <r>  -62.3097    1.0000 </r>
       <r>  -62.3006    1.0000 </r>
       <r>  -62.2997    1.0000 </r>
       <r>  -62.2886    1.0000 </r>
       <r>  -62.2828    1.0000 </r>
       <r>  -62.2769    1.0000 </r>
       <r>  -62.2751    1.0000 </r>
       <r>  -62.2620    1.0000 </r>
       <r>  -62.2419    1.0000 </r>
       <r>  -62.1717    1.0000 </r>
       <r>  -62.1425    1.0000 </r>
       <r>  -62.1166    1.0000 </r>
       <r>  -62.1011    1.0000 </r>
       <r>  -62.0925    1.0000 </r>
       <r>  -62.0855    1.0000 </r>
       <r>  -62.0742    1.0000 </r>
       <r>  -62.0660    1.0000 </r>
       <r>  -62.0564    1.0000 </r>
       <r>  -61.9203    1.0000 </r>
       <r>  -61.8762    1.0000 </r>
       <r>  -61.8643    1.0000 </r>
       <r>  -61.8291    1.0000 </r>
       <r>  -61.8028    1.0000 </r>
       <r>  -61.7853    1.0000 </r>
       <r>  -61.7781    1.0000 </r>
       <r>  -61.7354    1.0000 </r>
       <r>  -61.6336    1.0000 </r>
       <r>  -61.5969    1.0000 </r>
       <r>  -61.5954    1.0000 </r>
       <r>  -61.5847    1.0000 </r>
       <r>  -61.5736    1.0000 </r>
       <r>  -61.5363    1.0000 </r>
       <r>  -61.5169    1.0000 </r>
       <r>  -61.4672    1.0000 </r>
       <r>  -61.4437    1.0000 </r>
       <r>  -61.4067    1.0000 </r>
       <r>  -61.3979    1.0000 </r>
       <r>  -61.3936    1.0000 </r>
       <r>  -61.3929    1.0000 </r>
       <r>  -61.2891    1.0000 </r>
       <r>  -61.2811    1.0000 </r>
       <r>  -61.2590    1.0000 </r>
       <r>  -61.2210    1.0000 </r>
       <r>  -61.2157    1.0000 </r>
       <r>  -61.1721    1.0000 </r>
       <r>  -13.9335    1.0000 </r>
       <r>  -13.3109    1.0000 </r>
       <r>  -13.1687    1.0000 </r>
       <r>  -13.1604    1.0000 </r>
       <r>  -13.0038    1.0000 </r>
       <r>  -12.9249    1.0000 </r>
       <r>  -12.7327    1.0000 </r>
       <r>  -12.7029    1.0000 </r>
       <r>  -12.6367    1.0000 </r>
       <r>  -12.6089    1.0000 </r>
       <r>  -12.5333    1.0000 </r>
       <r>  -12.4931    1.0000 </r>
       <r>  -12.3527    1.0000 </r>
       <r>  -12.3284    1.0000 </r>
       <r>  -12.2536    1.0000 </r>
       <r>  -12.1302    1.0000 </r>
       <r>  -12.0630    1.0000 </r>
       <r>  -12.0471    1.0000 </r>
       <r>  -12.0419    1.0000 </r>
       <r>  -12.0100    1.0000 </r>
       <r>  -11.9652    1.0000 </r>
       <r>  -11.8702    1.0000 </r>
       <r>  -11.8533    1.0000 </r>
       <r>  -11.8242    1.0000 </r>
       <r>  -11.7539    1.0000 </r>
       <r>  -11.7182    1.0000 </r>
       <r>  -11.6827    1.0000 </r>
       <r>  -11.6318    1.0000 </r>
       <r>  -11.5150    1.0000 </r>
       <r>  -11.4528    1.0000 </r>
       <r>  -11.4245    1.0000 </r>
       <r>  -11.2649    1.0000 </r>
       <r>  -11.1233    1.0000 </r>
       <r>  -10.9835    1.0000 </r>
       <r>  -10.7544    1.0000 </r>
       <r>  -10.7485    1.0000 </r>
       <r>  -10.3534    1.0000 </r>
       <r>  -10.1607    1.0000 </r>
       <r>  -10.0427    1.0000 </r>
       <r>   -5.8680    1.0000 </r>
       <r>   -5.8187    1.0000 </r>
       <r>   -5.4038    1.0000 </r>
       <r>   -5.3468    1.0000 </r>
       <r>   -5.3278    1.0000 </r>
       <r>   -5.1355    1.0000 </r>
       <r>   -5.1251    1.0000 </r>
       <r>   -5.0733    1.0000 </r>
       <r>   -5.0594    1.0000 </r>
       <r>   -4.9713    1.0000 </r>
       <r>   -4.9055    1.0000 </r>
       <r>   -4.8873    1.0000 </r>
       <r>   -4.7898    1.0000 </r>
       <r>   -4.7677    1.0000 </r>
       <r>   -4.7316    1.0000 </r>
       <r>   -4.7228    1.0000 </r>
       <r>   -4.7217    1.0000 </r>
       <r>   -4.6560    1.0000 </r>
       <r>   -4.6408    1.0000 </r>
       <r>   -4.6315    1.0000 </r>
       <r>   -4.5770    1.0000 </r>
       <r>   -4.5285    1.0000 </r>
       <r>   -4.5216    1.0000 </r>
       <r>   -4.4732    1.0000 </r>
       <r>   -4.4257    1.0000 </r>
       <r>   -4.3185    1.0000 </r>
       <r>   -4.3019    1.0000 </r>
       <r>   -4.2169    1.0000 </r>
       <r>   -4.1717    1.0000 </r>
       <r>   -4.1430    1.0000 </r>
       <r>   -4.1120    1.0000 </r>
       <r>   -4.0374    1.0000 </r>
       <r>   -3.9734    1.0000 </r>
       <r>   -3.9306    1.0000 </r>
       <r>   -3.9142    1.0000 </r>
       <r>   -3.8391    1.0000 </r>
       <r>   -3.8193    1.0000 </r>
       <r>   -3.7841    1.0000 </r>
       <r>   -3.7329    1.0000 </r>
       <r>   -3.6449    1.0000 </r>
       <r>   -3.6151    1.0000 </r>
       <r>   -3.5418    1.0000 </r>
       <r>   -3.5109    1.0000 </r>
       <r>   -3.4676    1.0000 </r>
       <r>   -3.4451    1.0000 </r>
       <r>   -3.3945    1.0000 </r>
       <r>   -3.3226    1.0000 </r>
       <r>   -3.2484    1.0000 </r>
       <r>   -3.2279    1.0000 </r>
       <r>   -3.2105    1.0000 </r>
       <r>   -3.1822    1.0000 </r>
       <r>   -3.1580    1.0000 </r>
       <r>   -3.1447    1.0000 </r>
       <r>   -3.1285    1.0000 </r>
       <r>   -3.0865    1.0000 </r>
       <r>   -3.0652    1.0000 </r>
       <r>   -3.0271    1.0000 </r>
       <r>   -3.0110    1.0000 </r>
       <r>   -2.9871    1.0000 </r>
       <r>   -2.9333    1.0000 </r>
       <r>   -2.9209    1.0000 </r>
       <r>   -2.8874    1.0000 </r>
       <r>   -2.8471    1.0000 </r>
       <r>   -2.8105    1.0000 </r>
       <r>   -2.7637    1.0000 </r>
       <r>   -2.7302    1.0000 </r>
       <r>   -2.7229    1.0000 </r>
       <r>   -2.7021    1.0000 </r>
       <r>   -2.6783    1.0000 </r>
       <r>   -2.6433    1.0000 </r>
       <r>   -2.6174    1.0000 </r>
       <r>   -2.5646    1.0000 </r>
       <r>   -2.5497    1.0000 </r>
       <r>   -2.5406    1.0000 </r>
       <r>   -2.5129    1.0000 </r>
       <r>   -2.4877    1.0000 </r>
       <r>   -2.4717    1.0000 </r>
       <r>   -2.4505    1.0000 </r>
       <r>   -2.4310    1.0000 </r>
       <r>   -2.3978    1.0000 </r>
       <r>   -2.3909    1.0000 </r>
       <r>   -2.3712    1.0000 </r>
       <r>   -2.3415    1.0000 </r>
       <r>   -2.3267    1.0000 </r>
       <r>   -2.3008    1.0000 </r>
       <r>   -2.2767    1.0000 </r>
       <r>   -2.2407    1.0000 </r>
       <r>   -2.2352    1.0000 </r>
       <r>   -2.2095    1.0000 </r>
       <r>   -2.1725    1.0000 </r>
       <r>   -2.1504    1.0000 </r>
       <r>   -2.1238    1.0000 </r>
       <r>   -2.0973    1.0000 </r>
       <r>   -2.0448    1.0000 </r>
       <r>   -2.0088    1.0000 </r>
       <r>   -1.9756    1.0000 </r>
       <r>   -1.9394    1.0000 </r>
       <r>   -1.8287    1.0000 </r>
       <r>   -1.8079    1.0000 </r>
       <r>   -1.7877    1.0000 </r>
       <r>   -1.7624    1.0000 </r>
       <r>   -1.7288    1.0000 </r>
       <r>   -1.6853    1.0000 </r>
       <r>   -1.6501    1.0000 </r>
       <r>   -1.6290    1.0000 </r>
       <r>   -1.5928    1.0000 </r>
       <r>   -1.5661    1.0000 </r>
       <r>   -1.5271    1.0000 </r>
       <r>   -1.4685    1.0000 </r>
       <r>   -1.4061    1.0000 </r>
       <r>   -1.3971    1.0000 </r>
       <r>   -1.3745    1.0000 </r>
       <r>   -1.3416    1.0000 </r>
       <r>   -1.2984    1.0000 </r>
       <r>   -1.2647    1.0000 </r>
       <r>   -1.2300    1.0000 </r>
       <r>   -1.1761    1.0000 </r>
       <r>   -1.1697    1.0000 </r>
       <r>   -1.1298    1.0000 </r>
       <r>   -1.0826    1.0000 </r>
       <r>   -1.0258    1.0000 </r>
       <r>   -0.9923    1.0000 </r>
       <r>   -0.9769    1.0000 </r>
       <r>   -0.9401    1.0000 </r>
       <r>   -0.9344    1.0000 </r>
       <r>   -0.9191    1.0000 </r>
       <r>   -0.8926    1.0000 </r>
       <r>   -0.8854    1.0000 </r>
       <r>   -0.8488    1.0000 </r>
       <r>   -0.8356    1.0000 </r>
       <r>   -0.8202    1.0000 </r>
       <r>   -0.8066    1.0000 </r>
       <r>   -0.7865    1.0000 </r>
       <r>   -0.7736    1.0000 </r>
       <r>   -0.7297    1.0000 </r>
       <r>   -0.7039    1.0000 </r>
       <r>   -0.6825    1.0000 </r>
       <r>   -0.6616    1.0000 </r>
       <r>   -0.6476    1.0000 </r>
       <r>   -0.6319    1.0000 </r>
       <r>   -0.6221    1.0000 </r>
       <r>   -0.6005    1.0000 </r>
       <r>   -0.5759    1.0000 </r>
       <r>   -0.5649    1.0000 </r>
       <r>   -0.5611    1.0000 </r>
       <r>   -0.5484    1.0000 </r>
       <r>   -0.5207    1.0000 </r>
       <r>   -0.5173    1.0000 </r>
       <r>   -0.5074    1.0000 </r>
       <r>   -0.4749    1.0000 </r>
       <r>   -0.4518    1.0000 </r>
       <r>   -0.4381    1.0000 </r>
       <r>   -0.4193    1.0000 </r>
       <r>   -0.4115    1.0000 </r>
       <r>   -0.3944    1.0000 </r>
       <r>   -0.3927    1.0000 </r>
       <r>   -0.3540    1.0000 </r>
       <r>   -0.3394    1.0000 </r>
       <r>   -0.3349    1.0000 </r>
       <r>   -0.3296    1.0000 </r>
       <r>   -0.3060    1.0000 </r>
       <r>   -0.2863    1.0000 </r>
       <r>   -0.2793    1.0000 </r>
       <r>   -0.2736    1.0000 </r>
       <r>   -0.2669    1.0000 </r>
       <r>   -0.2569    1.0000 </r>
       <r>   -0.2508    1.0000 </r>
       <r>   -0.2404    1.0000 </r>
       <r>   -0.2301    1.0000 </r>
       <r>   -0.2266    1.0000 </r>
       <r>   -0.2023    1.0000 </r>
       <r>   -0.1982    1.0000 </r>
       <r>   -0.1902    1.0000 </r>
       <r>   -0.1772    1.0000 </r>
       <r>   -0.1720    1.0000 </r>
       <r>   -0.1538    1.0000 </r>
       <r>   -0.1457    1.0000 </r>
       <r>   -0.1378    1.0000 </r>
       <r>   -0.1296    1.0000 </r>
       <r>   -0.1221    1.0000 </r>
       <r>   -0.1074    1.0000 </r>
       <r>   -0.0910    1.0000 </r>
       <r>   -0.0811    1.0000 </r>
       <r>   -0.0761    1.0000 </r>
       <r>   -0.0683    1.0000 </r>
       <r>   -0.0573    1.0000 </r>
       <r>   -0.0532    1.0000 </r>
       <r>   -0.0406    1.0000 </r>
       <r>   -0.0321    1.0000 </r>
       <r>   -0.0275    1.0000 </r>
       <r>   -0.0129    1.0000 </r>
       <r>    0.0010    1.0000 </r>
       <r>    0.0141    1.0000 </r>
       <r>    0.0219    1.0000 </r>
       <r>    0.0363    1.0000 </r>
       <r>    0.0416    1.0000 </r>
       <r>    0.0469    1.0000 </r>
       <r>    0.0606    1.0000 </r>
       <r>    0.0747    1.0000 </r>
       <r>    0.0872    1.0000 </r>
       <r>    0.0972    1.0000 </r>
       <r>    0.1100    1.0000 </r>
       <r>    0.1231    1.0000 </r>
       <r>    0.1427    1.0000 </r>
       <r>    0.1550    1.0000 </r>
       <r>    0.1689    1.0000 </r>
       <r>    0.1819    1.0000 </r>
       <r>    0.1865    1.0000 </r>
       <r>    0.2061    1.0000 </r>
       <r>    0.2096    1.0000 </r>
       <r>    0.2426    1.0000 </r>
       <r>    0.2501    1.0000 </r>
       <r>    0.2655    1.0000 </r>
       <r>    0.2787    1.0000 </r>
       <r>    0.2940    1.0000 </r>
       <r>    0.3090    1.0000 </r>
       <r>    0.3165    1.0000 </r>
       <r>    0.3236    1.0000 </r>
       <r>    0.3476    1.0000 </r>
       <r>    0.3721    1.0000 </r>
       <r>    0.3742    1.0000 </r>
       <r>    0.3975    1.0000 </r>
       <r>    0.4118    1.0000 </r>
       <r>    0.4255    1.0000 </r>
       <r>    0.4440    1.0000 </r>
       <r>    0.4589    1.0000 </r>
       <r>    0.4720    1.0000 </r>
       <r>    0.4772    1.0000 </r>
       <r>    0.5245    1.0000 </r>
       <r>    0.5620    1.0000 </r>
       <r>    0.5828    1.0000 </r>
       <r>    0.5844    1.0000 </r>
       <r>    0.6045    1.0000 </r>
       <r>    0.6102    1.0000 </r>
       <r>    0.6311    1.0000 </r>
       <r>    0.6526    1.0000 </r>
       <r>    0.6751    1.0000 </r>
       <r>    0.7050    1.0000 </r>
       <r>    0.7098    1.0000 </r>
       <r>    0.7209    1.0000 </r>
       <r>    0.7502    1.0000 </r>
       <r>    0.7547    1.0000 </r>
       <r>    0.7674    1.0000 </r>
       <r>    0.7705    1.0000 </r>
       <r>    0.7996    1.0000 </r>
       <r>    0.8243    1.0000 </r>
       <r>    0.8299    1.0000 </r>
       <r>    0.8542    1.0000 </r>
       <r>    0.8661    1.0000 </r>
       <r>    0.8889    1.0000 </r>
       <r>    0.9039    1.0000 </r>
       <r>    0.9349    1.0000 </r>
       <r>    0.9443    1.0000 </r>
       <r>    0.9721    1.0000 </r>
       <r>    0.9984    0.9999 </r>
       <r>    1.0100    0.9999 </r>
       <r>    1.0146    0.9999 </r>
       <r>    1.0375    0.9998 </r>
       <r>    1.0488    0.9997 </r>
       <r>    1.0793    0.9994 </r>
       <r>    1.1016    0.9989 </r>
       <r>    1.1275    0.9980 </r>
       <r>    1.1590    0.9961 </r>
       <r>    1.1807    0.9939 </r>
       <r>    1.2670    0.9711 </r>
       <r>    1.2935    0.9563 </r>
       <r>    1.3473    0.9081 </r>
       <r>    1.3485    0.9066 </r>
       <r>    1.3957    0.8381 </r>
       <r>    1.4409    0.7476 </r>
       <r>    1.4699    0.6780 </r>
       <r>    1.4891    0.6278 </r>
       <r>    1.5020    0.5930 </r>
       <r>    1.5473    0.4660 </r>
       <r>    1.5809    0.3734 </r>
       <r>    1.6065    0.3072 </r>
       <r>    1.6352    0.2400 </r>
       <r>    1.6621    0.1848 </r>
       <r>    1.7221    0.0932 </r>
       <r>    1.7692    0.0490 </r>
       <r>    1.7992    0.0310 </r>
       <r>    1.8392    0.0158 </r>
       <r>    1.8746    0.0082 </r>
       <r>    1.8838    0.0069 </r>
       <r>    1.8978    0.0052 </r>
       <r>    1.9150    0.0036 </r>
       <r>    1.9472    0.0018 </r>
       <r>    1.9675    0.0011 </r>
       <r>    2.0086    0.0004 </r>
       <r>    2.0368    0.0002 </r>
       <r>    2.0882    0.0000 </r>
       <r>    2.1316    0.0000 </r>
       <r>    2.1383    0.0000 </r>
       <r>    2.1483    0.0000 </r>
       <r>    2.1652    0.0000 </r>
       <r>    2.1970    0.0000 </r>
       <r>    2.2337    0.0000 </r>
       <r>    2.2576    0.0000 </r>
       <r>    2.2900    0.0000 </r>
       <r>    2.3164    0.0000 </r>
       <r>    2.3749    0.0000 </r>
       <r>    2.4062    0.0000 </r>
       <r>    2.4490    0.0000 </r>
       <r>    2.4899    0.0000 </r>
       <r>    2.5155    0.0000 </r>
       <r>    2.5732    0.0000 </r>
       <r>    2.5962    0.0000 </r>
       <r>    2.6173    0.0000 </r>
       <r>    2.6537    0.0000 </r>
       <r>    2.6966    0.0000 </r>
       <r>    2.7269    0.0000 </r>
       <r>    2.7940    0.0000 </r>
       <r>    2.8262    0.0000 </r>
       <r>    3.3455    0.0000 </r>
       <r>    3.6989    0.0000 </r>
       <r>    3.7808    0.0000 </r>
       <r>    4.1093    0.0000 </r>
       <r>    4.5328    0.0000 </r>
       <r>    4.6759    0.0000 </r>
       <r>    4.7475    0.0000 </r>
       <r>    4.8844    0.0000 </r>
       <r>    4.9904    0.0000 </r>
       <r>    5.0042    0.0000 </r>
       <r>    5.2311    0.0000 </r>
       <r>    5.2768    0.0000 </r>
       <r>    5.5339    0.0000 </r>
       <r>    5.5460    0.0000 </r>
       <r>    5.7271    0.0000 </r>
       <r>    5.8262    0.0000 </r>
       <r>    5.9460    0.0000 </r>
       <r>    6.0482    0.0000 </r>
       <r>    6.0703    0.0000 </r>
       <r>    6.1112    0.0000 </r>
       <r>    6.1426    0.0000 </r>
       <r>    6.2368    0.0000 </r>
       <r>    6.2900    0.0000 </r>
       <r>    6.3368    0.0000 </r>
       <r>    6.4049    0.0000 </r>
       <r>    6.5490    0.0000 </r>
       <r>    6.5864    0.0000 </r>
       <r>    6.6271    0.0000 </r>
       <r>    6.6699    0.0000 </r>
       <r>    6.7951    0.0000 </r>
       <r>    6.9056    0.0000 </r>
       <r>    6.9342    0.0000 </r>
       <r>    6.9576    0.0000 </r>
       <r>    7.0147    0.0000 </r>
       <r>    7.0548    0.0000 </r>
       <r>    7.1026    0.0000 </r>
       <r>    7.1125    0.0000 </r>
       <r>    7.1640    0.0000 </r>
       <r>    7.2206    0.0000 </r>
       <r>    7.2605    0.0000 </r>
       <r>    7.3142    0.0000 </r>
       <r>    7.3556    0.0000 </r>
       <r>    7.4014    0.0000 </r>
       <r>    7.4399    0.0000 </r>
       <r>    7.5058    0.0000 </r>
       <r>    7.5922    0.0000 </r>
       <r>    7.6095    0.0000 </r>
       <r>    7.6200    0.0000 </r>
       <r>    7.6504    0.0000 </r>
       <r>    7.6654    0.0000 </r>
       <r>    7.7260    0.0000 </r>
      </set>
     </set>
    </set>
   </array>
  </eigenvalues>
  <separator name="orbital magnetization" >
   <v name="MAGDIPOLOUT">      0.00000000      0.00000000      0.00000000</v>
  </separator>
  <dos>
   <i name="efermi">      1.53524785 </i>
   <total>
    <array>
     <dimension dim="1">gridpoints</dimension>
     <dimension dim="2">spin</dimension>
     <field>energy</field>
     <field>total</field>
     <field>integrated</field>
     <set>
      <set comment="spin 1">
       <r>   -66.2018     0.0000     0.0000 </r>
       <r>   -65.9437     0.0000     0.0000 </r>
       <r>   -65.6855     0.0000     0.0000 </r>
       <r>   -65.4273     0.0000     0.0000 </r>
       <r>   -65.1692     0.0000     0.0000 </r>
       <r>   -64.9110     0.0000     0.0000 </r>
       <r>   -64.6529     0.0000     0.0000 </r>
       <r>   -64.3947     0.0000     0.0000 </r>
       <r>   -64.1365     0.0000     0.0000 </r>
       <r>   -63.8784     0.0000     0.0000 </r>
       <r>   -63.6202     0.0000     0.0000 </r>
       <r>   -63.3621     0.0000     0.0000 </r>
       <r>   -63.1039     0.0369     0.0095 </r>
       <r>   -62.8457     8.6308     2.2377 </r>
       <r>   -62.5876   157.9175    43.0057 </r>
       <r>   -62.3294   331.3396   128.5445 </r>
       <r>   -62.0713   164.9837   171.1368 </r>
       <r>   -61.8131    68.3193   188.7742 </r>
       <r>   -61.5549    64.5751   205.4449 </r>
       <r>   -61.2968    69.4517   223.3746 </r>
       <r>   -61.0386    36.9451   232.9124 </r>
       <r>   -60.7805     4.1703   233.9890 </r>
       <r>   -60.5223     0.0427   234.0000 </r>
       <r>   -60.2641     0.0000   234.0000 </r>
       <r>   -60.0060     0.0000   234.0000 </r>
       <r>   -59.7478     0.0000   234.0000 </r>
       <r>   -59.4896     0.0000   234.0000 </r>
       <r>   -59.2315     0.0000   234.0000 </r>
       <r>   -58.9733     0.0000   234.0000 </r>
       <r>   -58.7152     0.0000   234.0000 </r>
       <r>   -58.4570     0.0000   234.0000 </r>
       <r>   -58.1988     0.0000   234.0000 </r>
       <r>   -57.9407     0.0000   234.0000 </r>
       <r>   -57.6825     0.0000   234.0000 </r>
       <r>   -57.4244     0.0000   234.0000 </r>
       <r>   -57.1662     0.0000   234.0000 </r>
       <r>   -56.9080     0.0000   234.0000 </r>
       <r>   -56.6499     0.0000   234.0000 </r>
       <r>   -56.3917     0.0000   234.0000 </r>
       <r>   -56.1336     0.0000   234.0000 </r>
       <r>   -55.8754     0.0000   234.0000 </r>
       <r>   -55.6172     0.0000   234.0000 </r>
       <r>   -55.3591     0.0000   234.0000 </r>
       <r>   -55.1009     0.0000   234.0000 </r>
       <r>   -54.8428     0.0000   234.0000 </r>
       <r>   -54.5846     0.0000   234.0000 </r>
       <r>   -54.3264     0.0000   234.0000 </r>
       <r>   -54.0683     0.0000   234.0000 </r>
       <r>   -53.8101     0.0000   234.0000 </r>
       <r>   -53.5520     0.0000   234.0000 </r>
       <r>   -53.2938     0.0000   234.0000 </r>
       <r>   -53.0356     0.0000   234.0000 </r>
       <r>   -52.7775     0.0000   234.0000 </r>
       <r>   -52.5193     0.0000   234.0000 </r>
       <r>   -52.2612     0.0000   234.0000 </r>
       <r>   -52.0030     0.0000   234.0000 </r>
       <r>   -51.7448     0.0000   234.0000 </r>
       <r>   -51.4867     0.0000   234.0000 </r>
       <r>   -51.2285     0.0000   234.0000 </r>
       <r>   -50.9704     0.0000   234.0000 </r>
       <r>   -50.7122     0.0000   234.0000 </r>
       <r>   -50.4540     0.0000   234.0000 </r>
       <r>   -50.1959     0.0000   234.0000 </r>
       <r>   -49.9377     0.0000   234.0000 </r>
       <r>   -49.6796     0.0000   234.0000 </r>
       <r>   -49.4214     0.0000   234.0000 </r>
       <r>   -49.1632     0.0000   234.0000 </r>
       <r>   -48.9051     0.0000   234.0000 </r>
       <r>   -48.6469     0.0000   234.0000 </r>
       <r>   -48.3887     0.0000   234.0000 </r>
       <r>   -48.1306     0.0000   234.0000 </r>
       <r>   -47.8724     0.0000   234.0000 </r>
       <r>   -47.6143     0.0000   234.0000 </r>
       <r>   -47.3561     0.0000   234.0000 </r>
       <r>   -47.0979     0.0000   234.0000 </r>
       <r>   -46.8398     0.0000   234.0000 </r>
       <r>   -46.5816     0.0000   234.0000 </r>
       <r>   -46.3235     0.0000   234.0000 </r>
       <r>   -46.0653     0.0000   234.0000 </r>
       <r>   -45.8071     0.0000   234.0000 </r>
       <r>   -45.5490     0.0000   234.0000 </r>
       <r>   -45.2908     0.0000   234.0000 </r>
       <r>   -45.0327     0.0000   234.0000 </r>
       <r>   -44.7745     0.0000   234.0000 </r>
       <r>   -44.5163     0.0000   234.0000 </r>
       <r>   -44.2582     0.0000   234.0000 </r>
       <r>   -44.0000     0.0000   234.0000 </r>
       <r>   -43.7419     0.0000   234.0000 </r>
       <r>   -43.4837     0.0000   234.0000 </r>
       <r>   -43.2255     0.0000   234.0000 </r>
       <r>   -42.9674     0.0000   234.0000 </r>
       <r>   -42.7092     0.0000   234.0000 </r>
       <r>   -42.4511     0.0000   234.0000 </r>
       <r>   -42.1929     0.0000   234.0000 </r>
       <r>   -41.9347     0.0000   234.0000 </r>
       <r>   -41.6766     0.0000   234.0000 </r>
       <r>   -41.4184     0.0000   234.0000 </r>
       <r>   -41.1603     0.0000   234.0000 </r>
       <r>   -40.9021     0.0000   234.0000 </r>
       <r>   -40.6439     0.0000   234.0000 </r>
       <r>   -40.3858     0.0000   234.0000 </r>
       <r>   -40.1276     0.0000   234.0000 </r>
       <r>   -39.8695     0.0000   234.0000 </r>
       <r>   -39.6113     0.0000   234.0000 </r>
       <r>   -39.3531     0.0000   234.0000 </r>
       <r>   -39.0950     0.0000   234.0000 </r>
       <r>   -38.8368     0.0000   234.0000 </r>
       <r>   -38.5786     0.0000   234.0000 </r>
       <r>   -38.3205     0.0000   234.0000 </r>
       <r>   -38.0623     0.0000   234.0000 </r>
       <r>   -37.8042     0.0000   234.0000 </r>
       <r>   -37.5460     0.0000   234.0000 </r>
       <r>   -37.2878     0.0000   234.0000 </r>
       <r>   -37.0297     0.0000   234.0000 </r>
       <r>   -36.7715     0.0000   234.0000 </r>
       <r>   -36.5134     0.0000   234.0000 </r>
       <r>   -36.2552     0.0000   234.0000 </r>
       <r>   -35.9970     0.0000   234.0000 </r>
       <r>   -35.7389     0.0000   234.0000 </r>
       <r>   -35.4807     0.0000   234.0000 </r>
       <r>   -35.2226     0.0000   234.0000 </r>
       <r>   -34.9644     0.0000   234.0000 </r>
       <r>   -34.7062     0.0000   234.0000 </r>
       <r>   -34.4481     0.0000   234.0000 </r>
       <r>   -34.1899     0.0000   234.0000 </r>
       <r>   -33.9318     0.0000   234.0000 </r>
       <r>   -33.6736     0.0000   234.0000 </r>
       <r>   -33.4154     0.0000   234.0000 </r>
       <r>   -33.1573     0.0000   234.0000 </r>
       <r>   -32.8991     0.0000   234.0000 </r>
       <r>   -32.6410     0.0000   234.0000 </r>
       <r>   -32.3828     0.0000   234.0000 </r>
       <r>   -32.1246     0.0000   234.0000 </r>
       <r>   -31.8665     0.0000   234.0000 </r>
       <r>   -31.6083     0.0000   234.0000 </r>
       <r>   -31.3502     0.0000   234.0000 </r>
       <r>   -31.0920     0.0000   234.0000 </r>
       <r>   -30.8338     0.0000   234.0000 </r>
       <r>   -30.5757     0.0000   234.0000 </r>
       <r>   -30.3175     0.0000   234.0000 </r>
       <r>   -30.0594     0.0000   234.0000 </r>
       <r>   -29.8012     0.0000   234.0000 </r>
       <r>   -29.5430     0.0000   234.0000 </r>
       <r>   -29.2849     0.0000   234.0000 </r>
       <r>   -29.0267     0.0000   234.0000 </r>
       <r>   -28.7686     0.0000   234.0000 </r>
       <r>   -28.5104     0.0000   234.0000 </r>
       <r>   -28.2522     0.0000   234.0000 </r>
       <r>   -27.9941     0.0000   234.0000 </r>
       <r>   -27.7359     0.0000   234.0000 </r>
       <r>   -27.4777     0.0000   234.0000 </r>
       <r>   -27.2196     0.0000   234.0000 </r>
       <r>   -26.9614     0.0000   234.0000 </r>
       <r>   -26.7033     0.0000   234.0000 </r>
       <r>   -26.4451     0.0000   234.0000 </r>
       <r>   -26.1869     0.0000   234.0000 </r>
       <r>   -25.9288     0.0000   234.0000 </r>
       <r>   -25.6706     0.0000   234.0000 </r>
       <r>   -25.4125     0.0000   234.0000 </r>
       <r>   -25.1543     0.0000   234.0000 </r>
       <r>   -24.8961     0.0000   234.0000 </r>
       <r>   -24.6380     0.0000   234.0000 </r>
       <r>   -24.3798     0.0000   234.0000 </r>
       <r>   -24.1217     0.0000   234.0000 </r>
       <r>   -23.8635     0.0000   234.0000 </r>
       <r>   -23.6053     0.0000   234.0000 </r>
       <r>   -23.3472     0.0000   234.0000 </r>
       <r>   -23.0890     0.0000   234.0000 </r>
       <r>   -22.8309     0.0000   234.0000 </r>
       <r>   -22.5727     0.0000   234.0000 </r>
       <r>   -22.3145     0.0000   234.0000 </r>
       <r>   -22.0564     0.0000   234.0000 </r>
       <r>   -21.7982     0.0000   234.0000 </r>
       <r>   -21.5401     0.0000   234.0000 </r>
       <r>   -21.2819     0.0000   234.0000 </r>
       <r>   -21.0237     0.0000   234.0000 </r>
       <r>   -20.7656     0.0000   234.0000 </r>
       <r>   -20.5074     0.0000   234.0000 </r>
       <r>   -20.2493     0.0000   234.0000 </r>
       <r>   -19.9911     0.0000   234.0000 </r>
       <r>   -19.7329     0.0000   234.0000 </r>
       <r>   -19.4748     0.0000   234.0000 </r>
       <r>   -19.2166     0.0000   234.0000 </r>
       <r>   -18.9585     0.0000   234.0000 </r>
       <r>   -18.7003     0.0000   234.0000 </r>
       <r>   -18.4421     0.0000   234.0000 </r>
       <r>   -18.1840     0.0000   234.0000 </r>
       <r>   -17.9258     0.0000   234.0000 </r>
       <r>   -17.6676     0.0000   234.0000 </r>
       <r>   -17.4095     0.0000   234.0000 </r>
       <r>   -17.1513     0.0000   234.0000 </r>
       <r>   -16.8932     0.0000   234.0000 </r>
       <r>   -16.6350     0.0000   234.0000 </r>
       <r>   -16.3768     0.0000   234.0000 </r>
       <r>   -16.1187     0.0000   234.0000 </r>
       <r>   -15.8605     0.0000   234.0000 </r>
       <r>   -15.6024     0.0000   234.0000 </r>
       <r>   -15.3442     0.0000   234.0000 </r>
       <r>   -15.0860     0.0000   234.0000 </r>
       <r>   -14.8279     0.0000   234.0000 </r>
       <r>   -14.5697     0.0000   234.0000 </r>
       <r>   -14.3116     0.0291   234.0075 </r>
       <r>   -14.0534     1.5071   234.3966 </r>
       <r>   -13.7952     4.9420   235.6724 </r>
       <r>   -13.5371     1.7406   236.1218 </r>
       <r>   -13.2789     7.5885   238.0808 </r>
       <r>   -13.0208    18.3587   242.8203 </r>
       <r>   -12.7626    19.9674   247.9751 </r>
       <r>   -12.5044    29.5467   255.6029 </r>
       <r>   -12.2463    28.4980   262.9600 </r>
       <r>   -11.9881    38.1319   272.8041 </r>
       <r>   -11.7300    43.6584   284.0750 </r>
       <r>   -11.4718    32.5674   292.4826 </r>
       <r>   -11.2136    20.0066   297.6475 </r>
       <r>   -10.9555    13.7223   301.1901 </r>
       <r>   -10.6973    13.0751   304.5656 </r>
       <r>   -10.4392     7.6618   306.5436 </r>
       <r>   -10.1810     9.4807   308.9911 </r>
       <r>    -9.9228     9.7512   311.5085 </r>
       <r>    -9.6647     1.8730   311.9920 </r>
       <r>    -9.4065     0.0308   312.0000 </r>
       <r>    -9.1484     0.0000   312.0000 </r>
       <r>    -8.8902     0.0000   312.0000 </r>
       <r>    -8.6320     0.0000   312.0000 </r>
       <r>    -8.3739     0.0000   312.0000 </r>
       <r>    -8.1157     0.0000   312.0000 </r>
       <r>    -7.8576     0.0000   312.0000 </r>
       <r>    -7.5994     0.0000   312.0000 </r>
       <r>    -7.3412     0.0000   312.0000 </r>
       <r>    -7.0831     0.0000   312.0000 </r>
       <r>    -6.8249     0.0000   312.0000 </r>
       <r>    -6.5667     0.0000   312.0000 </r>
       <r>    -6.3086     0.0092   312.0024 </r>
       <r>    -6.0504     1.1467   312.2984 </r>
       <r>    -5.7923     8.7785   314.5647 </r>
       <r>    -5.5341     8.0196   316.6350 </r>
       <r>    -5.2759    17.8193   321.2353 </r>
       <r>    -5.0178    31.9458   329.4824 </r>
       <r>    -4.7596    46.3345   341.4441 </r>
       <r>    -4.5015    56.8940   356.1319 </r>
       <r>    -4.2433    41.5176   366.8501 </r>
       <r>    -3.9851    40.7482   377.3697 </r>
       <r>    -3.7270    42.7025   388.3938 </r>
       <r>    -3.4688    41.7071   399.1609 </r>
       <r>    -3.2107    51.6371   412.4916 </r>
       <r>    -2.9525    68.0913   430.0701 </r>
       <r>    -2.6943    67.5205   447.5012 </r>
       <r>    -2.4362    80.9768   468.4062 </r>
       <r>    -2.1780    82.4632   489.6949 </r>
       <r>    -1.9199    58.6247   504.8295 </r>
       <r>    -1.6617    53.3986   518.6149 </r>
       <r>    -1.4035    55.8592   533.0356 </r>
       <r>    -1.1454    57.1026   547.7772 </r>
       <r>    -0.8872    73.6152   566.7817 </r>
       <r>    -0.6291   101.7769   593.0565 </r>
       <r>    -0.3709   130.2217   626.6746 </r>
       <r>    -0.1127   175.8460   672.0711 </r>
       <r>     0.1454   178.9665   718.2732 </r>
       <r>     0.4036   140.7925   754.6203 </r>
       <r>     0.6617   115.1169   784.3389 </r>
       <r>     0.9199   112.5054   813.3834 </r>
       <r>     1.1781    88.0153   836.1054 </r>
       <r>     1.4362    61.0701   851.8713 </r>
       <r>     1.6944    61.3615   867.7124 </r>
       <r>     1.9525    65.4987   884.6216 </r>
       <r>     2.2107    70.0755   902.7123 </r>
       <r>     2.4689    60.0571   918.2167 </r>
       <r>     2.7270    50.6601   931.2951 </r>
       <r>     2.9852    23.7444   937.4250 </r>
       <r>     3.2434     4.0346   938.4665 </r>
       <r>     3.5015     5.7123   939.9412 </r>
       <r>     3.7597     8.8428   942.2241 </r>
       <r>     4.0178     8.4291   944.4002 </r>
       <r>     4.2760     5.5613   945.8359 </r>
       <r>     4.5342     6.3226   947.4681 </r>
       <r>     4.7923    15.9452   951.5845 </r>
       <r>     5.0505    19.4916   956.6165 </r>
       <r>     5.3086    15.9869   960.7437 </r>
       <r>     5.5668    14.8392   964.5746 </r>
       <r>     5.8250    17.4419   969.0774 </r>
       <r>     6.0831    26.3813   975.8880 </r>
       <r>     6.3413    33.0798   984.4279 </r>
       <r>     6.5994    28.4527   991.7733 </r>
       <r>     6.8576    29.5469   999.4011 </r>
       <r>     7.1158    41.6241  1010.1468 </r>
       <r>     7.3739    44.6436  1021.6720 </r>
       <r>     7.6321    43.4789  1032.8965 </r>
       <r>     7.8902    25.2140  1039.4058 </r>
       <r>     8.1484     2.2850  1039.9957 </r>
       <r>     8.4066     0.0166  1040.0000 </r>
       <r>     8.6647     0.0000  1040.0000 </r>
       <r>     8.9229     0.0000  1040.0000 </r>
       <r>     9.1810     0.0000  1040.0000 </r>
       <r>     9.4392     0.0000  1040.0000 </r>
       <r>     9.6974     0.0000  1040.0000 </r>
       <r>     9.9555     0.0000  1040.0000 </r>
       <r>    10.2137     0.0000  1040.0000 </r>
       <r>    10.4718     0.0000  1040.0000 </r>
       <r>    10.7300     0.0000  1040.0000 </r>
       <r>    10.9882     0.0000  1040.0000 </r>
       <r>    11.2463     0.0000  1040.0000 </r>
      </set>
     </set>
    </array>
   </total>
  </dos>
 </calculation>
 <structure name="finalpos" >
  <crystal>
   <varray name="basis" >
    <v>       8.70073080      -4.00539907       0.00000000 </v>
    <v>       0.00000000      11.45278367       0.00000000 </v>
    <v>       0.00000000       0.00000000      20.84683014 </v>
   </varray>
   <i name="volume">   2077.33633233 </i>
   <varray name="rec_basis" >
    <v>       0.11493287       0.00000000       0.00000000 </v>
    <v>       0.04019565       0.08731502       0.00000000 </v>
    <v>       0.00000000       0.00000000       0.04796892 </v>
   </varray>
  </crystal>
  <varray name="positions" >
   <v>       0.63793591       0.42904558       0.08004781 </v>
   <v>       0.72899292       0.61115959       0.20011952 </v>
   <v>       0.82004993       0.79327361       0.32019124 </v>
   <v>       0.91110694       0.97538762       0.44026296 </v>
   <v>       0.45636426       0.06590227       0.28016734 </v>
   <v>       0.54742127       0.24801628       0.40023905 </v>
   <v>       0.63847827       0.43013030       0.52031076 </v>
   <v>       0.27425024       0.70167424       0.04002390 </v>
   <v>       0.36530725       0.88378825       0.16009562 </v>
   <v>       0.00162158       0.15641692       0.12007172 </v>
   <v>       0.09267859       0.33853093       0.24014343 </v>
   <v>       0.18373560       0.52064495       0.36021514 </v>
   <v>       0.91056458       0.97430290       0.00000000 </v>
   <v>       0.59499452       0.07895679       0.02342343 </v>
   <v>       0.68605153       0.26107081       0.14349515 </v>
   <v>       0.77710854       0.44318482       0.26356686 </v>
   <v>       0.86816554       0.62529884       0.38363857 </v>
   <v>       0.95922255       0.80741285       0.50371029 </v>
   <v>       0.59553688       0.08004151       0.46368639 </v>
   <v>       0.32236586       0.53369947       0.10347124 </v>
   <v>       0.41342287       0.71581348       0.22354295 </v>
   <v>       0.50447988       0.89792750       0.34361467 </v>
   <v>       0.14079421       0.17055616       0.30359077 </v>
   <v>       0.23185121       0.35267018       0.42366248 </v>
   <v>       0.04973720       0.98844215       0.18351905 </v>
   <v>       0.95868019       0.80632813       0.06344733 </v>
   <v>       0.08425593       0.79327361       0.32019124 </v>
   <v>       0.17531294       0.97538762       0.44026296 </v>
   <v>       0.90214191       0.42904558       0.08004781 </v>
   <v>       0.99319892       0.61115959       0.20011952 </v>
   <v>       0.72057026       0.06590227       0.28016734 </v>
   <v>       0.81162727       0.24801628       0.40023905 </v>
   <v>       0.53845624       0.70167424       0.04002390 </v>
   <v>       0.62951325       0.88378825       0.16009562 </v>
   <v>       0.26582758       0.15641692       0.12007172 </v>
   <v>       0.35688459       0.33853093       0.24014343 </v>
   <v>       0.44794160       0.52064495       0.36021514 </v>
   <v>       0.53899861       0.70275896       0.48028686 </v>
   <v>       0.17477058       0.97430290       0.00000000 </v>
   <v>       0.01340710       0.57935194       0.31115216 </v>
   <v>       0.10446410       0.76146596       0.43122388 </v>
   <v>       0.83129308       0.21512391       0.07100873 </v>
   <v>       0.92235009       0.39723793       0.19108045 </v>
   <v>       0.74077844       0.03409462       0.39119997 </v>
   <v>       0.83183544       0.21620863       0.51127169 </v>
   <v>       0.46760741       0.48775257       0.03098483 </v>
   <v>       0.55866442       0.66986659       0.15105654 </v>
   <v>       0.64972143       0.85198060       0.27112826 </v>
   <v>       0.28603576       0.12460926       0.23110435 </v>
   <v>       0.37709277       0.30672328       0.35117607 </v>
   <v>       0.46814977       0.48883730       0.47124778 </v>
   <v>       0.19497875       0.94249525       0.11103264 </v>
   <v>       0.13425249       0.15747274       0.47050414 </v>
   <v>       0.04319549       0.97535872       0.35043242 </v>
   <v>       0.86108147       0.61113069       0.11028899 </v>
   <v>       0.95213848       0.79324471       0.23036071 </v>
   <v>       0.58845281       0.06587337       0.19033680 </v>
   <v>       0.67950982       0.24798738       0.31040852 </v>
   <v>       0.77056683       0.43010140       0.43048023 </v>
   <v>       0.49739580       0.88375935       0.07026509 </v>
   <v>       0.13371013       0.15638801       0.03024118 </v>
   <v>       0.22476714       0.33850203       0.15031290 </v>
   <v>       0.31582415       0.52061604       0.27038461 </v>
   <v>       0.40688116       0.70273006       0.39045633 </v>
   <v>       0.49793816       0.88484407       0.51052804 </v>
   <v>       0.49486308       0.21512391       0.07100873 </v>
   <v>       0.58592009       0.39723793       0.19108045 </v>
   <v>       0.67697710       0.57935194       0.31115216 </v>
   <v>       0.76803410       0.76146596       0.43122388 </v>
   <v>       0.40434844       0.03409462       0.39119997 </v>
   <v>       0.49540544       0.21620863       0.51127169 </v>
   <v>       0.13117741       0.48775257       0.03098483 </v>
   <v>       0.22223442       0.66986659       0.15105654 </v>
   <v>       0.31329143       0.85198060       0.27112826 </v>
   <v>       0.04066277       0.30672328       0.35117607 </v>
   <v>       0.13171977       0.48883730       0.47124778 </v>
   <v>       0.94960576       0.12460926       0.23110435 </v>
   <v>       0.85854875       0.94249525       0.11103264 </v>
  </varray>
 </structure>
</modeling>
