  72  72   0   0
  0.2729146E+02  0.1007973E-08  0.1007973E-08  0.2068350E-08  0.5000000E-15
  1.000000000000000E-004
  CAR 
 "Millerite NiS"                         
     11.06286767    -66.28150261  301      1.42059167      1.00000000
    -66.282  0.0000E+00  0.0000E+00
    -66.024  0.0000E+00  0.0000E+00
    -65.766  0.0000E+00  0.0000E+00
    -65.508  0.0000E+00  0.0000E+00
    -65.250  0.0000E+00  0.0000E+00
    -64.992  0.0000E+00  0.0000E+00
    -64.735  0.0000E+00  0.0000E+00
    -64.477  0.0000E+00  0.0000E+00
    -64.219  0.0000E+00  0.0000E+00
    -63.961  0.0000E+00  0.0000E+00
    -63.703  0.4612E-09  0.1189E-09
    -63.446  0.3023E-04  0.7793E-05
    -63.188  0.9282E-01  0.2394E-01
    -62.930  0.1544E+02  0.4005E+01
    -62.672  0.1877E+03  0.5239E+02
    -62.414  0.2886E+03  0.1268E+03
    -62.156  0.1460E+03  0.1644E+03
    -61.899  0.8567E+02  0.1865E+03
    -61.641  0.6689E+02  0.2038E+03
    -61.383  0.3171E+02  0.2119E+03
    -61.125  0.1163E+02  0.2149E+03
    -60.867  0.3866E+01  0.2159E+03
    -60.610  0.2200E+00  0.2160E+03
    -60.352  0.7380E-03  0.2160E+03
    -60.094  0.1078E-06  0.2160E+03
    -59.836  0.6236E-12  0.2160E+03
    -59.578  0.0000E+00  0.2160E+03
    -59.321  0.0000E+00  0.2160E+03
    -59.063  0.0000E+00  0.2160E+03
    -58.805  0.0000E+00  0.2160E+03
    -58.547  0.0000E+00  0.2160E+03
    -58.289  0.0000E+00  0.2160E+03
    -58.031  0.0000E+00  0.2160E+03
    -57.774  0.0000E+00  0.2160E+03
    -57.516  0.0000E+00  0.2160E+03
    -57.258  0.0000E+00  0.2160E+03
    -57.000  0.0000E+00  0.2160E+03
    -56.742  0.0000E+00  0.2160E+03
    -56.485  0.0000E+00  0.2160E+03
    -56.227  0.0000E+00  0.2160E+03
    -55.969  0.0000E+00  0.2160E+03
    -55.711  0.0000E+00  0.2160E+03
    -55.453  0.0000E+00  0.2160E+03
    -55.195  0.0000E+00  0.2160E+03
    -54.938  0.0000E+00  0.2160E+03
    -54.680  0.0000E+00  0.2160E+03
    -54.422  0.0000E+00  0.2160E+03
    -54.164  0.0000E+00  0.2160E+03
    -53.906  0.0000E+00  0.2160E+03
    -53.649  0.0000E+00  0.2160E+03
    -53.391  0.0000E+00  0.2160E+03
    -53.133  0.0000E+00  0.2160E+03
    -52.875  0.0000E+00  0.2160E+03
    -52.617  0.0000E+00  0.2160E+03
    -52.360  0.0000E+00  0.2160E+03
    -52.102  0.0000E+00  0.2160E+03
    -51.844  0.0000E+00  0.2160E+03
    -51.586  0.0000E+00  0.2160E+03
    -51.328  0.0000E+00  0.2160E+03
    -51.070  0.0000E+00  0.2160E+03
    -50.813  0.0000E+00  0.2160E+03
    -50.555  0.0000E+00  0.2160E+03
    -50.297  0.0000E+00  0.2160E+03
    -50.039  0.0000E+00  0.2160E+03
    -49.781  0.0000E+00  0.2160E+03
    -49.524  0.0000E+00  0.2160E+03
    -49.266  0.0000E+00  0.2160E+03
    -49.008  0.0000E+00  0.2160E+03
    -48.750  0.0000E+00  0.2160E+03
    -48.492  0.0000E+00  0.2160E+03
    -48.234  0.0000E+00  0.2160E+03
    -47.977  0.0000E+00  0.2160E+03
    -47.719  0.0000E+00  0.2160E+03
    -47.461  0.0000E+00  0.2160E+03
    -47.203  0.0000E+00  0.2160E+03
    -46.945  0.0000E+00  0.2160E+03
    -46.688  0.0000E+00  0.2160E+03
    -46.430  0.0000E+00  0.2160E+03
    -46.172  0.0000E+00  0.2160E+03
    -45.914  0.0000E+00  0.2160E+03
    -45.656  0.0000E+00  0.2160E+03
    -45.399  0.0000E+00  0.2160E+03
    -45.141  0.0000E+00  0.2160E+03
    -44.883  0.0000E+00  0.2160E+03
    -44.625  0.0000E+00  0.2160E+03
    -44.367  0.0000E+00  0.2160E+03
    -44.109  0.0000E+00  0.2160E+03
    -43.852  0.0000E+00  0.2160E+03
    -43.594  0.0000E+00  0.2160E+03
    -43.336  0.0000E+00  0.2160E+03
    -43.078  0.0000E+00  0.2160E+03
    -42.820  0.0000E+00  0.2160E+03
    -42.563  0.0000E+00  0.2160E+03
    -42.305  0.0000E+00  0.2160E+03
    -42.047  0.0000E+00  0.2160E+03
    -41.789  0.0000E+00  0.2160E+03
    -41.531  0.0000E+00  0.2160E+03
    -41.273  0.0000E+00  0.2160E+03
    -41.016  0.0000E+00  0.2160E+03
    -40.758  0.0000E+00  0.2160E+03
    -40.500  0.0000E+00  0.2160E+03
    -40.242  0.0000E+00  0.2160E+03
    -39.984  0.0000E+00  0.2160E+03
    -39.727  0.0000E+00  0.2160E+03
    -39.469  0.0000E+00  0.2160E+03
    -39.211  0.0000E+00  0.2160E+03
    -38.953  0.0000E+00  0.2160E+03
    -38.695  0.0000E+00  0.2160E+03
    -38.438  0.0000E+00  0.2160E+03
    -38.180  0.0000E+00  0.2160E+03
    -37.922  0.0000E+00  0.2160E+03
    -37.664  0.0000E+00  0.2160E+03
    -37.406  0.0000E+00  0.2160E+03
    -37.148  0.0000E+00  0.2160E+03
    -36.891  0.0000E+00  0.2160E+03
    -36.633  0.0000E+00  0.2160E+03
    -36.375  0.0000E+00  0.2160E+03
    -36.117  0.0000E+00  0.2160E+03
    -35.859  0.0000E+00  0.2160E+03
    -35.602  0.0000E+00  0.2160E+03
    -35.344  0.0000E+00  0.2160E+03
    -35.086  0.0000E+00  0.2160E+03
    -34.828  0.0000E+00  0.2160E+03
    -34.570  0.0000E+00  0.2160E+03
    -34.312  0.0000E+00  0.2160E+03
    -34.055  0.0000E+00  0.2160E+03
    -33.797  0.0000E+00  0.2160E+03
    -33.539  0.0000E+00  0.2160E+03
    -33.281  0.0000E+00  0.2160E+03
    -33.023  0.0000E+00  0.2160E+03
    -32.766  0.0000E+00  0.2160E+03
    -32.508  0.0000E+00  0.2160E+03
    -32.250  0.0000E+00  0.2160E+03
    -31.992  0.0000E+00  0.2160E+03
    -31.734  0.0000E+00  0.2160E+03
    -31.477  0.0000E+00  0.2160E+03
    -31.219  0.0000E+00  0.2160E+03
    -30.961  0.0000E+00  0.2160E+03
    -30.703  0.0000E+00  0.2160E+03
    -30.445  0.0000E+00  0.2160E+03
    -30.187  0.0000E+00  0.2160E+03
    -29.930  0.0000E+00  0.2160E+03
    -29.672  0.0000E+00  0.2160E+03
    -29.414  0.0000E+00  0.2160E+03
    -29.156  0.0000E+00  0.2160E+03
    -28.898  0.0000E+00  0.2160E+03
    -28.641  0.0000E+00  0.2160E+03
    -28.383  0.0000E+00  0.2160E+03
    -28.125  0.0000E+00  0.2160E+03
    -27.867  0.0000E+00  0.2160E+03
    -27.609  0.0000E+00  0.2160E+03
    -27.352  0.0000E+00  0.2160E+03
    -27.094  0.0000E+00  0.2160E+03
    -26.836  0.0000E+00  0.2160E+03
    -26.578  0.0000E+00  0.2160E+03
    -26.320  0.0000E+00  0.2160E+03
    -26.062  0.0000E+00  0.2160E+03
    -25.805  0.0000E+00  0.2160E+03
    -25.547  0.0000E+00  0.2160E+03
    -25.289  0.0000E+00  0.2160E+03
    -25.031  0.0000E+00  0.2160E+03
    -24.773  0.0000E+00  0.2160E+03
    -24.516  0.0000E+00  0.2160E+03
    -24.258  0.0000E+00  0.2160E+03
    -24.000  0.0000E+00  0.2160E+03
    -23.742  0.0000E+00  0.2160E+03
    -23.484  0.0000E+00  0.2160E+03
    -23.226  0.0000E+00  0.2160E+03
    -22.969  0.0000E+00  0.2160E+03
    -22.711  0.0000E+00  0.2160E+03
    -22.453  0.0000E+00  0.2160E+03
    -22.195  0.0000E+00  0.2160E+03
    -21.937  0.0000E+00  0.2160E+03
    -21.680  0.0000E+00  0.2160E+03
    -21.422  0.0000E+00  0.2160E+03
    -21.164  0.0000E+00  0.2160E+03
    -20.906  0.0000E+00  0.2160E+03
    -20.648  0.0000E+00  0.2160E+03
    -20.391  0.0000E+00  0.2160E+03
    -20.133  0.0000E+00  0.2160E+03
    -19.875  0.0000E+00  0.2160E+03
    -19.617  0.0000E+00  0.2160E+03
    -19.359  0.0000E+00  0.2160E+03
    -19.101  0.0000E+00  0.2160E+03
    -18.844  0.0000E+00  0.2160E+03
    -18.586  0.0000E+00  0.2160E+03
    -18.328  0.0000E+00  0.2160E+03
    -18.070  0.0000E+00  0.2160E+03
    -17.812  0.0000E+00  0.2160E+03
    -17.555  0.0000E+00  0.2160E+03
    -17.297  0.0000E+00  0.2160E+03
    -17.039  0.0000E+00  0.2160E+03
    -16.781  0.0000E+00  0.2160E+03
    -16.523  0.0000E+00  0.2160E+03
    -16.265  0.0000E+00  0.2160E+03
    -16.008  0.0000E+00  0.2160E+03
    -15.750  0.0000E+00  0.2160E+03
    -15.492  0.0000E+00  0.2160E+03
    -15.234  0.0000E+00  0.2160E+03
    -14.976  0.2111E-09  0.2160E+03
    -14.719  0.8484E-05  0.2160E+03
    -14.461  0.1391E-01  0.2160E+03
    -14.203  0.1057E+01  0.2163E+03
    -13.945  0.4891E+01  0.2175E+03
    -13.687  0.1890E+01  0.2180E+03
    -13.430  0.3883E+01  0.2190E+03
    -13.172  0.1588E+02  0.2231E+03
    -12.914  0.2090E+02  0.2285E+03
    -12.656  0.2592E+02  0.2352E+03
    -12.398  0.2948E+02  0.2428E+03
    -12.140  0.3105E+02  0.2508E+03
    -11.883  0.3675E+02  0.2603E+03
    -11.625  0.3047E+02  0.2681E+03
    -11.367  0.2550E+02  0.2747E+03
    -11.109  0.2357E+02  0.2808E+03
    -10.851  0.1876E+02  0.2856E+03
    -10.594  0.8668E+01  0.2878E+03
    -10.336  0.5862E+00  0.2880E+03
    -10.078  0.2713E-02  0.2880E+03
     -9.820  0.6019E-06  0.2880E+03
     -9.562  0.5579E-11  0.2880E+03
     -9.304  0.0000E+00  0.2880E+03
     -9.047  0.0000E+00  0.2880E+03
     -8.789  0.0000E+00  0.2880E+03
     -8.531  0.0000E+00  0.2880E+03
     -8.273  0.0000E+00  0.2880E+03
     -8.015  0.0000E+00  0.2880E+03
     -7.758  0.0000E+00  0.2880E+03
     -7.500  0.0000E+00  0.2880E+03
     -7.242  0.0000E+00  0.2880E+03
     -6.984  0.0000E+00  0.2880E+03
     -6.726  0.2036E-09  0.2880E+03
     -6.469  0.8997E-05  0.2880E+03
     -6.211  0.1752E-01  0.2880E+03
     -5.953  0.1799E+01  0.2885E+03
     -5.695  0.1339E+02  0.2919E+03
     -5.437  0.1698E+02  0.2963E+03
     -5.179  0.2544E+02  0.3029E+03
     -4.922  0.4069E+02  0.3133E+03
     -4.664  0.5012E+02  0.3263E+03
     -4.406  0.4971E+02  0.3391E+03
     -4.148  0.3719E+02  0.3487E+03
     -3.890  0.3839E+02  0.3586E+03
     -3.633  0.3903E+02  0.3686E+03
     -3.375  0.4013E+02  0.3790E+03
     -3.117  0.5930E+02  0.3943E+03
     -2.859  0.7619E+02  0.4139E+03
     -2.601  0.7940E+02  0.4344E+03
     -2.343  0.7327E+02  0.4533E+03
     -2.086  0.5617E+02  0.4678E+03
     -1.828  0.4604E+02  0.4796E+03
     -1.570  0.4963E+02  0.4924E+03
     -1.312  0.5337E+02  0.5062E+03
     -1.054  0.6421E+02  0.5227E+03
     -0.797  0.9354E+02  0.5468E+03
     -0.539  0.1136E+03  0.5761E+03
     -0.281  0.1604E+03  0.6175E+03
     -0.023  0.1811E+03  0.6641E+03
      0.235  0.1483E+03  0.7024E+03
      0.492  0.1085E+03  0.7304E+03
      0.750  0.8802E+02  0.7531E+03
      1.008  0.6644E+02  0.7702E+03
      1.266  0.5365E+02  0.7840E+03
      1.524  0.5190E+02  0.7974E+03
      1.782  0.5737E+02  0.8122E+03
      2.039  0.6034E+02  0.8277E+03
      2.297  0.6222E+02  0.8438E+03
      2.555  0.5462E+02  0.8579E+03
      2.813  0.2499E+02  0.8643E+03
      3.071  0.9527E+01  0.8668E+03
      3.328  0.4462E+01  0.8679E+03
      3.586  0.5538E+00  0.8681E+03
      3.844  0.3401E+01  0.8689E+03
      4.102  0.5730E+01  0.8704E+03
      4.360  0.6706E+01  0.8721E+03
      4.618  0.1280E+02  0.8754E+03
      4.875  0.2221E+02  0.8812E+03
      5.133  0.1525E+02  0.8851E+03
      5.391  0.1412E+02  0.8887E+03
      5.649  0.1866E+02  0.8935E+03
      5.907  0.2204E+02  0.8992E+03
      6.164  0.2807E+02  0.9065E+03
      6.422  0.3225E+02  0.9148E+03
      6.680  0.2791E+02  0.9220E+03
      6.938  0.3650E+02  0.9314E+03
      7.196  0.4167E+02  0.9421E+03
      7.453  0.4265E+02  0.9531E+03
      7.711  0.2403E+02  0.9593E+03
      7.969  0.2609E+01  0.9600E+03
      8.227  0.2308E-01  0.9600E+03
      8.485  0.1061E-04  0.9600E+03
      8.743  0.2100E-09  0.9600E+03
      9.000  0.0000E+00  0.9600E+03
      9.258  0.0000E+00  0.9600E+03
      9.516  0.0000E+00  0.9600E+03
      9.774  0.0000E+00  0.9600E+03
     10.032  0.0000E+00  0.9600E+03
     10.289  0.0000E+00  0.9600E+03
     10.547  0.0000E+00  0.9600E+03
     10.805  0.0000E+00  0.9600E+03
     11.063  0.0000E+00  0.9600E+03
