  74  74   0   0
  0.2779749E+02  0.1145278E-08  0.9578410E-09  0.2064289E-08  0.5000000E-15
  1.000000000000000E-004
  CAR 
 "Millerite NiS"                         
     10.72963022    -66.43517313  301      1.25611572      1.00000000
    -66.435  0.0000E+00  0.0000E+00
    -66.178  0.0000E+00  0.0000E+00
    -65.921  0.0000E+00  0.0000E+00
    -65.664  0.0000E+00  0.0000E+00
    -65.406  0.0000E+00  0.0000E+00
    -65.149  0.0000E+00  0.0000E+00
    -64.892  0.0000E+00  0.0000E+00
    -64.635  0.0000E+00  0.0000E+00
    -64.377  0.0000E+00  0.0000E+00
    -64.120  0.0000E+00  0.0000E+00
    -63.863  0.3372E-09  0.8672E-10
    -63.606  0.2265E-04  0.5826E-05
    -63.349  0.7368E-01  0.1896E-01
    -63.091  0.1329E+02  0.3437E+01
    -62.834  0.1762E+03  0.4875E+02
    -62.577  0.3020E+03  0.1264E+03
    -62.320  0.1742E+03  0.1712E+03
    -62.063  0.7610E+02  0.1908E+03
    -61.805  0.4776E+02  0.2031E+03
    -61.548  0.4809E+02  0.2155E+03
    -61.291  0.2257E+02  0.2213E+03
    -61.034  0.2838E+01  0.2220E+03
    -60.776  0.3408E-01  0.2220E+03
    -60.519  0.2221E-04  0.2220E+03
    -60.262  0.6517E-09  0.2220E+03
    -60.005  0.8633E-15  0.2220E+03
    -59.748  0.0000E+00  0.2220E+03
    -59.490  0.0000E+00  0.2220E+03
    -59.233  0.0000E+00  0.2220E+03
    -58.976  0.0000E+00  0.2220E+03
    -58.719  0.0000E+00  0.2220E+03
    -58.461  0.0000E+00  0.2220E+03
    -58.204  0.0000E+00  0.2220E+03
    -57.947  0.0000E+00  0.2220E+03
    -57.690  0.0000E+00  0.2220E+03
    -57.433  0.0000E+00  0.2220E+03
    -57.175  0.0000E+00  0.2220E+03
    -56.918  0.0000E+00  0.2220E+03
    -56.661  0.0000E+00  0.2220E+03
    -56.404  0.0000E+00  0.2220E+03
    -56.147  0.0000E+00  0.2220E+03
    -55.889  0.0000E+00  0.2220E+03
    -55.632  0.0000E+00  0.2220E+03
    -55.375  0.0000E+00  0.2220E+03
    -55.118  0.0000E+00  0.2220E+03
    -54.860  0.0000E+00  0.2220E+03
    -54.603  0.0000E+00  0.2220E+03
    -54.346  0.0000E+00  0.2220E+03
    -54.089  0.0000E+00  0.2220E+03
    -53.832  0.0000E+00  0.2220E+03
    -53.574  0.0000E+00  0.2220E+03
    -53.317  0.0000E+00  0.2220E+03
    -53.060  0.0000E+00  0.2220E+03
    -52.803  0.0000E+00  0.2220E+03
    -52.546  0.0000E+00  0.2220E+03
    -52.288  0.0000E+00  0.2220E+03
    -52.031  0.0000E+00  0.2220E+03
    -51.774  0.0000E+00  0.2220E+03
    -51.517  0.0000E+00  0.2220E+03
    -51.259  0.0000E+00  0.2220E+03
    -51.002  0.0000E+00  0.2220E+03
    -50.745  0.0000E+00  0.2220E+03
    -50.488  0.0000E+00  0.2220E+03
    -50.231  0.0000E+00  0.2220E+03
    -49.973  0.0000E+00  0.2220E+03
    -49.716  0.0000E+00  0.2220E+03
    -49.459  0.0000E+00  0.2220E+03
    -49.202  0.0000E+00  0.2220E+03
    -48.944  0.0000E+00  0.2220E+03
    -48.687  0.0000E+00  0.2220E+03
    -48.430  0.0000E+00  0.2220E+03
    -48.173  0.0000E+00  0.2220E+03
    -47.916  0.0000E+00  0.2220E+03
    -47.658  0.0000E+00  0.2220E+03
    -47.401  0.0000E+00  0.2220E+03
    -47.144  0.0000E+00  0.2220E+03
    -46.887  0.0000E+00  0.2220E+03
    -46.630  0.0000E+00  0.2220E+03
    -46.372  0.0000E+00  0.2220E+03
    -46.115  0.0000E+00  0.2220E+03
    -45.858  0.0000E+00  0.2220E+03
    -45.601  0.0000E+00  0.2220E+03
    -45.343  0.0000E+00  0.2220E+03
    -45.086  0.0000E+00  0.2220E+03
    -44.829  0.0000E+00  0.2220E+03
    -44.572  0.0000E+00  0.2220E+03
    -44.315  0.0000E+00  0.2220E+03
    -44.057  0.0000E+00  0.2220E+03
    -43.800  0.0000E+00  0.2220E+03
    -43.543  0.0000E+00  0.2220E+03
    -43.286  0.0000E+00  0.2220E+03
    -43.029  0.0000E+00  0.2220E+03
    -42.771  0.0000E+00  0.2220E+03
    -42.514  0.0000E+00  0.2220E+03
    -42.257  0.0000E+00  0.2220E+03
    -42.000  0.0000E+00  0.2220E+03
    -41.742  0.0000E+00  0.2220E+03
    -41.485  0.0000E+00  0.2220E+03
    -41.228  0.0000E+00  0.2220E+03
    -40.971  0.0000E+00  0.2220E+03
    -40.714  0.0000E+00  0.2220E+03
    -40.456  0.0000E+00  0.2220E+03
    -40.199  0.0000E+00  0.2220E+03
    -39.942  0.0000E+00  0.2220E+03
    -39.685  0.0000E+00  0.2220E+03
    -39.427  0.0000E+00  0.2220E+03
    -39.170  0.0000E+00  0.2220E+03
    -38.913  0.0000E+00  0.2220E+03
    -38.656  0.0000E+00  0.2220E+03
    -38.399  0.0000E+00  0.2220E+03
    -38.141  0.0000E+00  0.2220E+03
    -37.884  0.0000E+00  0.2220E+03
    -37.627  0.0000E+00  0.2220E+03
    -37.370  0.0000E+00  0.2220E+03
    -37.113  0.0000E+00  0.2220E+03
    -36.855  0.0000E+00  0.2220E+03
    -36.598  0.0000E+00  0.2220E+03
    -36.341  0.0000E+00  0.2220E+03
    -36.084  0.0000E+00  0.2220E+03
    -35.826  0.0000E+00  0.2220E+03
    -35.569  0.0000E+00  0.2220E+03
    -35.312  0.0000E+00  0.2220E+03
    -35.055  0.0000E+00  0.2220E+03
    -34.798  0.0000E+00  0.2220E+03
    -34.540  0.0000E+00  0.2220E+03
    -34.283  0.0000E+00  0.2220E+03
    -34.026  0.0000E+00  0.2220E+03
    -33.769  0.0000E+00  0.2220E+03
    -33.512  0.0000E+00  0.2220E+03
    -33.254  0.0000E+00  0.2220E+03
    -32.997  0.0000E+00  0.2220E+03
    -32.740  0.0000E+00  0.2220E+03
    -32.483  0.0000E+00  0.2220E+03
    -32.225  0.0000E+00  0.2220E+03
    -31.968  0.0000E+00  0.2220E+03
    -31.711  0.0000E+00  0.2220E+03
    -31.454  0.0000E+00  0.2220E+03
    -31.197  0.0000E+00  0.2220E+03
    -30.939  0.0000E+00  0.2220E+03
    -30.682  0.0000E+00  0.2220E+03
    -30.425  0.0000E+00  0.2220E+03
    -30.168  0.0000E+00  0.2220E+03
    -29.910  0.0000E+00  0.2220E+03
    -29.653  0.0000E+00  0.2220E+03
    -29.396  0.0000E+00  0.2220E+03
    -29.139  0.0000E+00  0.2220E+03
    -28.882  0.0000E+00  0.2220E+03
    -28.624  0.0000E+00  0.2220E+03
    -28.367  0.0000E+00  0.2220E+03
    -28.110  0.0000E+00  0.2220E+03
    -27.853  0.0000E+00  0.2220E+03
    -27.596  0.0000E+00  0.2220E+03
    -27.338  0.0000E+00  0.2220E+03
    -27.081  0.0000E+00  0.2220E+03
    -26.824  0.0000E+00  0.2220E+03
    -26.567  0.0000E+00  0.2220E+03
    -26.309  0.0000E+00  0.2220E+03
    -26.052  0.0000E+00  0.2220E+03
    -25.795  0.0000E+00  0.2220E+03
    -25.538  0.0000E+00  0.2220E+03
    -25.281  0.0000E+00  0.2220E+03
    -25.023  0.0000E+00  0.2220E+03
    -24.766  0.0000E+00  0.2220E+03
    -24.509  0.0000E+00  0.2220E+03
    -24.252  0.0000E+00  0.2220E+03
    -23.995  0.0000E+00  0.2220E+03
    -23.737  0.0000E+00  0.2220E+03
    -23.480  0.0000E+00  0.2220E+03
    -23.223  0.0000E+00  0.2220E+03
    -22.966  0.0000E+00  0.2220E+03
    -22.708  0.0000E+00  0.2220E+03
    -22.451  0.0000E+00  0.2220E+03
    -22.194  0.0000E+00  0.2220E+03
    -21.937  0.0000E+00  0.2220E+03
    -21.680  0.0000E+00  0.2220E+03
    -21.422  0.0000E+00  0.2220E+03
    -21.165  0.0000E+00  0.2220E+03
    -20.908  0.0000E+00  0.2220E+03
    -20.651  0.0000E+00  0.2220E+03
    -20.394  0.0000E+00  0.2220E+03
    -20.136  0.0000E+00  0.2220E+03
    -19.879  0.0000E+00  0.2220E+03
    -19.622  0.0000E+00  0.2220E+03
    -19.365  0.0000E+00  0.2220E+03
    -19.107  0.0000E+00  0.2220E+03
    -18.850  0.0000E+00  0.2220E+03
    -18.593  0.0000E+00  0.2220E+03
    -18.336  0.0000E+00  0.2220E+03
    -18.079  0.0000E+00  0.2220E+03
    -17.821  0.0000E+00  0.2220E+03
    -17.564  0.0000E+00  0.2220E+03
    -17.307  0.0000E+00  0.2220E+03
    -17.050  0.0000E+00  0.2220E+03
    -16.792  0.0000E+00  0.2220E+03
    -16.535  0.0000E+00  0.2220E+03
    -16.278  0.0000E+00  0.2220E+03
    -16.021  0.0000E+00  0.2220E+03
    -15.764  0.0000E+00  0.2220E+03
    -15.506  0.0000E+00  0.2220E+03
    -15.249  0.6833E-12  0.2220E+03
    -14.992  0.1128E-06  0.2220E+03
    -14.735  0.7489E-03  0.2220E+03
    -14.478  0.2176E+00  0.2221E+03
    -14.220  0.3388E+01  0.2229E+03
    -13.963  0.3861E+01  0.2239E+03
    -13.706  0.1946E+01  0.2244E+03
    -13.449  0.1287E+02  0.2277E+03
    -13.191  0.1905E+02  0.2326E+03
    -12.934  0.2309E+02  0.2386E+03
    -12.677  0.2825E+02  0.2458E+03
    -12.420  0.3198E+02  0.2541E+03
    -12.163  0.4221E+02  0.2649E+03
    -11.905  0.3698E+02  0.2744E+03
    -11.648  0.1712E+02  0.2788E+03
    -11.391  0.1342E+02  0.2823E+03
    -11.134  0.1340E+02  0.2857E+03
    -10.877  0.2449E+02  0.2920E+03
    -10.619  0.1246E+02  0.2952E+03
    -10.362  0.2863E+01  0.2960E+03
    -10.105  0.1091E+00  0.2960E+03
     -9.848  0.2305E-03  0.2960E+03
     -9.590  0.2098E-07  0.2960E+03
     -9.333  0.7597E-13  0.2960E+03
     -9.076  0.0000E+00  0.2960E+03
     -8.819  0.0000E+00  0.2960E+03
     -8.562  0.0000E+00  0.2960E+03
     -8.304  0.0000E+00  0.2960E+03
     -8.047  0.0000E+00  0.2960E+03
     -7.790  0.0000E+00  0.2960E+03
     -7.533  0.0000E+00  0.2960E+03
     -7.275  0.1295E-14  0.2960E+03
     -7.018  0.1061E-08  0.2960E+03
     -6.761  0.2961E-04  0.2960E+03
     -6.504  0.3630E-01  0.2960E+03
     -6.247  0.2282E+01  0.2966E+03
     -5.989  0.9828E+01  0.2991E+03
     -5.732  0.8931E+01  0.3014E+03
     -5.475  0.2243E+02  0.3072E+03
     -5.218  0.3443E+02  0.3160E+03
     -4.961  0.4823E+02  0.3285E+03
     -4.703  0.5363E+02  0.3422E+03
     -4.446  0.3716E+02  0.3518E+03
     -4.189  0.3948E+02  0.3620E+03
     -3.932  0.4151E+02  0.3726E+03
     -3.674  0.4455E+02  0.3841E+03
     -3.417  0.5443E+02  0.3981E+03
     -3.160  0.6130E+02  0.4139E+03
     -2.903  0.6640E+02  0.4309E+03
     -2.646  0.7868E+02  0.4512E+03
     -2.388  0.7927E+02  0.4716E+03
     -2.131  0.5534E+02  0.4858E+03
     -1.874  0.4523E+02  0.4974E+03
     -1.617  0.5110E+02  0.5106E+03
     -1.360  0.6214E+02  0.5266E+03
     -1.102  0.7939E+02  0.5470E+03
     -0.845  0.1090E+03  0.5750E+03
     -0.588  0.1285E+03  0.6081E+03
     -0.331  0.1708E+03  0.6520E+03
     -0.073  0.1637E+03  0.6941E+03
      0.184  0.1304E+03  0.7277E+03
      0.441  0.1071E+03  0.7552E+03
      0.698  0.9608E+02  0.7799E+03
      0.955  0.6985E+02  0.7979E+03
      1.213  0.5355E+02  0.8117E+03
      1.470  0.5629E+02  0.8261E+03
      1.727  0.6476E+02  0.8428E+03
      1.984  0.6600E+02  0.8598E+03
      2.242  0.5117E+02  0.8729E+03
      2.499  0.4173E+02  0.8837E+03
      2.756  0.1600E+02  0.8878E+03
      3.013  0.3454E+01  0.8887E+03
      3.270  0.4664E+01  0.8899E+03
      3.528  0.4952E+01  0.8912E+03
      3.785  0.9646E+01  0.8936E+03
      4.042  0.5739E+01  0.8951E+03
      4.299  0.1032E+02  0.8978E+03
      4.556  0.1801E+02  0.9024E+03
      4.814  0.1740E+02  0.9069E+03
      5.071  0.1044E+02  0.9096E+03
      5.328  0.1134E+02  0.9125E+03
      5.585  0.2310E+02  0.9184E+03
      5.843  0.3774E+02  0.9281E+03
      6.100  0.2432E+02  0.9344E+03
      6.357  0.2482E+02  0.9408E+03
      6.614  0.3600E+02  0.9500E+03
      6.871  0.3166E+02  0.9582E+03
      7.129  0.4013E+02  0.9685E+03
      7.386  0.2628E+02  0.9752E+03
      7.643  0.2893E+01  0.9760E+03
      7.900  0.2521E-01  0.9760E+03
      8.157  0.1142E-04  0.9760E+03
      8.415  0.2258E-09  0.9760E+03
      8.672  0.0000E+00  0.9760E+03
      8.929  0.0000E+00  0.9760E+03
      9.186  0.0000E+00  0.9760E+03
      9.444  0.0000E+00  0.9760E+03
      9.701  0.0000E+00  0.9760E+03
      9.958  0.0000E+00  0.9760E+03
     10.215  0.0000E+00  0.9760E+03
     10.472  0.0000E+00  0.9760E+03
     10.730  0.0000E+00  0.9760E+03
