"Millerite NiS"                         
           1
    10.062820    5.044562    0.000000
     0.000000   11.256463    0.000000
     0.000000    0.000000   21.380538
   Ni   S 
    48    48
Direct configuration=     1
   0.26092069  0.47878037  0.25763722
   0.35488056  0.38482051  0.39496108
   0.44884042  0.29086064  0.53228493
   0.16696082  0.07274025  0.12031337
   0.05611868  0.05147941  0.49600315
   0.27423906  0.33335901  0.08403158
   0.36819893  0.23939914  0.22135543
   0.46215879  0.14543927  0.35867929
   0.00030194  0.37150214  0.22135543
   0.09426180  0.27754227  0.35867929
   0.18822167  0.18358240  0.49600315
   0.40634206  0.46546200  0.08403158
   0.76092069  0.47878037  0.25763722
   0.85488056  0.38482051  0.39496108
   0.94884042  0.29086064  0.53228493
   0.66696082  0.07274025  0.12031337
   0.55611868  0.05147941  0.49600315
   0.77423906  0.33335901  0.08403158
   0.86819893  0.23939914  0.22135543
   0.96215879  0.14543927  0.35867929
   0.50030194  0.37150214  0.22135543
   0.59426180  0.27754227  0.35867929
   0.68822167  0.18358240  0.49600315
   0.90634206  0.46546200  0.08403158
   0.26092069  0.97878037  0.25763722
   0.35488056  0.88482051  0.39496108
   0.44884042  0.79086064  0.53228493
   0.16696082  0.57274025  0.12031337
   0.05611868  0.55147941  0.49600315
   0.27423906  0.83335901  0.08403158
   0.36819893  0.73939914  0.22135543
   0.46215879  0.64543927  0.35867929
   0.00030194  0.87150214  0.22135543
   0.09426180  0.77754227  0.35867929
   0.18822167  0.68358240  0.49600315
   0.40634206  0.96546200  0.08403158
   0.76092069  0.97878037  0.25763722
   0.85488056  0.88482051  0.39496108
   0.94884042  0.79086064  0.53228493
   0.66696082  0.57274025  0.12031337
   0.55611868  0.55147941  0.49600315
   0.77423906  0.83335901  0.08403158
   0.86819893  0.73939914  0.22135543
   0.96215879  0.64543927  0.35867929
   0.50030194  0.87150214  0.22135543
   0.59426180  0.77754227  0.35867929
   0.68822167  0.68358240  0.49600315
   0.90634206  0.96546200  0.08403158
   0.07287763  0.16682345  0.27464771
   0.16683750  0.07286358  0.41197157
   0.38495788  0.35474318  0.00000000
   0.47891775  0.26078331  0.13732385
   0.03023342  0.37768265  0.45817143
   0.43627354  0.47164252  0.32084758
   0.24835381  0.15956227  0.04619986
   0.34231367  0.06560240  0.18352372
   0.08013881  0.49134726  0.04619986
   0.17409868  0.39738739  0.18352372
   0.26805854  0.30342752  0.32084758
   0.36201841  0.20946766  0.45817143
   0.57287763  0.16682345  0.27464771
   0.66683750  0.07286358  0.41197157
   0.88495788  0.35474318  0.00000000
   0.97891775  0.26078331  0.13732385
   0.53023342  0.37768265  0.45817143
   0.93627354  0.47164252  0.32084758
   0.74835381  0.15956227  0.04619986
   0.84231367  0.06560240  0.18352372
   0.58013881  0.49134726  0.04619986
   0.67409868  0.39738739  0.18352372
   0.76805854  0.30342752  0.32084758
   0.86201841  0.20946766  0.45817143
   0.07287763  0.66682345  0.27464771
   0.16683750  0.57286358  0.41197157
   0.38495788  0.85474318  0.00000000
   0.47891775  0.76078331  0.13732385
   0.03023342  0.87768265  0.45817143
   0.43627354  0.97164252  0.32084758
   0.24835381  0.65956227  0.04619986
   0.34231367  0.56560240  0.18352372
   0.08013881  0.99134726  0.04619986
   0.17409868  0.89738739  0.18352372
   0.26805854  0.80342752  0.32084758
   0.36201841  0.70946766  0.45817143
   0.57287763  0.66682345  0.27464771
   0.66683750  0.57286358  0.41197157
   0.88495788  0.85474318  0.00000000
   0.97891775  0.76078331  0.13732385
   0.53023342  0.87768265  0.45817143
   0.93627354  0.97164252  0.32084758
   0.74835381  0.65956227  0.04619986
   0.84231367  0.56560240  0.18352372
   0.58013881  0.99134726  0.04619986
   0.67409868  0.89738739  0.18352372
   0.76805854  0.80342752  0.32084758
   0.86201841  0.70946766  0.45817143
