<?xml version="1.0" encoding="ISO-8859-1"?>
<modeling>
 <generator>
  <i name="program" type="string">vasp </i>
  <i name="version" type="string">6.1.0  </i>
  <i name="subversion" type="string">28Jan20 (build Mar 31 2020 17:42:31) gamma-only                       parallel </i>
  <i name="platform" type="string">LinuxIFC </i>
  <i name="date" type="string">2020 04 12 </i>
  <i name="time" type="string">12:00:53 </i>
 </generator>
 <incar>
  <i type="string" name="SYSTEM">"Millerite NiS"</i>
  <i type="int" name="NSIM">     4</i>
  <i type="int" name="NELM">   100</i>
  <i name="ENCUT">    450.00000000</i>
  <i type="string" name="LREAL">A</i>
  <i type="int" name="ISMEAR">     0</i>
  <i type="int" name="NWRITE">     2</i>
  <i type="logical" name="LWAVE"> F  </i>
  <i type="logical" name="LCHARG"> F  </i>
  <i type="int" name="NCORE">     6</i>
  <i type="int" name="NELM">   100</i>
 </incar>
 <structure name="primitive_cell" >
  <crystal>
   <varray name="basis" >
    <v>      16.88469405       0.00000000       0.00000000 </v>
    <v>       0.00000000       9.57841000       0.00000000 </v>
    <v>       0.00000000       0.00000000      16.65464569 </v>
   </varray>
   <i name="volume">   2693.53123734 </i>
   <varray name="rec_basis" >
    <v>       0.05922524       0.00000000       0.00000000 </v>
    <v>       0.00000000       0.10440146       0.00000000 </v>
    <v>       0.00000000       0.00000000       0.06004331 </v>
   </varray>
  </crystal>
  <varray name="positions" >
   <v>       0.78004630       0.14529696       0.12347080 </v>
   <v>       0.81461426       0.14529696       0.30867699 </v>
   <v>       0.26276233       0.64529696       0.03086770 </v>
   <v>       0.29733028       0.64529696       0.21607389 </v>
   <v>       0.43519032       0.14529696       0.06173540 </v>
   <v>       0.46975828       0.14529696       0.24694159 </v>
   <v>       0.95247430       0.64529696       0.15433850 </v>
   <v>       0.98704225       0.64529696       0.33954469 </v>
   <v>       0.09033433       0.14529696       0.00000000 </v>
   <v>       0.12490229       0.14529696       0.18520619 </v>
   <v>       0.15947025       0.14529696       0.37041239 </v>
   <v>       0.60761831       0.64529696       0.09260310 </v>
   <v>       0.64218627       0.64529696       0.27780929 </v>
   <v>       0.90758277       0.01319396       0.09900450 </v>
   <v>       0.94215073       0.01319396       0.28421070 </v>
   <v>       0.39029880       0.51319396       0.00640140 </v>
   <v>       0.42486675       0.51319396       0.19160760 </v>
   <v>       0.45943471       0.51319396       0.37681380 </v>
   <v>       0.56272679       0.01319396       0.03726910 </v>
   <v>       0.59729475       0.01319396       0.22247530 </v>
   <v>       0.08001077       0.51319396       0.12987220 </v>
   <v>       0.11457872       0.51319396       0.31507840 </v>
   <v>       0.25243876       0.01319396       0.16073990 </v>
   <v>       0.28700672       0.01319396       0.34594610 </v>
   <v>       0.73515478       0.51319396       0.06813680 </v>
   <v>       0.76972274       0.51319396       0.25334300 </v>
   <v>       0.90758277       0.27739996       0.09900450 </v>
   <v>       0.39029880       0.77739996       0.00640140 </v>
   <v>       0.42486675       0.77739996       0.19160760 </v>
   <v>       0.56272679       0.27739996       0.03726910 </v>
   <v>       0.59729475       0.27739996       0.22247530 </v>
   <v>       0.08001077       0.77739996       0.12987220 </v>
   <v>       0.11457872       0.77739996       0.31507840 </v>
   <v>       0.25243876       0.27739996       0.16073990 </v>
   <v>       0.28700672       0.27739996       0.34594610 </v>
   <v>       0.73515478       0.77739996       0.06813680 </v>
   <v>       0.76972274       0.77739996       0.25334300 </v>
   <v>       0.02602916       0.14529696       0.36869923 </v>
   <v>       0.99146120       0.14529696       0.18349304 </v>
   <v>       0.47417722       0.64529696       0.09088994 </v>
   <v>       0.50874518       0.64529696       0.27609614 </v>
   <v>       0.64660522       0.14529696       0.12175764 </v>
   <v>       0.68117317       0.14529696       0.30696383 </v>
   <v>       0.12932124       0.64529696       0.02915454 </v>
   <v>       0.16388920       0.64529696       0.21436074 </v>
   <v>       0.19845715       0.64529696       0.39956693 </v>
   <v>       0.30174923       0.14529696       0.06002224 </v>
   <v>       0.33631719       0.14529696       0.24522844 </v>
   <v>       0.81903321       0.64529696       0.15262534 </v>
   <v>       0.85360117       0.64529696       0.33783153 </v>
   <v>       0.79449310       0.31351196       0.02944130 </v>
   <v>       0.82906105       0.31351196       0.21464750 </v>
   <v>       0.31177707       0.81351196       0.12204440 </v>
   <v>       0.34634503       0.81351196       0.30725060 </v>
   <v>       0.48420507       0.31351196       0.15291210 </v>
   <v>       0.51877302       0.31351196       0.33811830 </v>
   <v>       0.00148905       0.81351196       0.24551520 </v>
   <v>       0.96692109       0.81351196       0.06030900 </v>
   <v>       0.13934908       0.31351196       0.09117670 </v>
   <v>       0.17391704       0.31351196       0.27638290 </v>
   <v>       0.65663306       0.81351196       0.18377980 </v>
   <v>       0.69120102       0.81351196       0.36898599 </v>
   <v>       0.31177707       0.47708196       0.12204440 </v>
   <v>       0.34634503       0.47708196       0.30725060 </v>
   <v>       0.79449310       0.97708196       0.02944130 </v>
   <v>       0.82906105       0.97708196       0.21464750 </v>
   <v>       0.00148905       0.47708196       0.24551520 </v>
   <v>       0.96692109       0.47708196       0.06030900 </v>
   <v>       0.48420507       0.97708196       0.15291210 </v>
   <v>       0.51877302       0.97708196       0.33811830 </v>
   <v>       0.65663306       0.47708196       0.18377980 </v>
   <v>       0.69120102       0.47708196       0.36898599 </v>
   <v>       0.13934908       0.97708196       0.09117670 </v>
   <v>       0.17391704       0.97708196       0.27638290 </v>
  </varray>
 </structure>
 <varray name="primitive_index" >
  <v type="int" >        1 </v>
  <v type="int" >        2 </v>
  <v type="int" >        3 </v>
  <v type="int" >        4 </v>
  <v type="int" >        5 </v>
  <v type="int" >        6 </v>
  <v type="int" >        7 </v>
  <v type="int" >        8 </v>
  <v type="int" >        9 </v>
  <v type="int" >       10 </v>
  <v type="int" >       11 </v>
  <v type="int" >       12 </v>
  <v type="int" >       13 </v>
  <v type="int" >       14 </v>
  <v type="int" >       15 </v>
  <v type="int" >       16 </v>
  <v type="int" >       17 </v>
  <v type="int" >       18 </v>
  <v type="int" >       19 </v>
  <v type="int" >       20 </v>
  <v type="int" >       21 </v>
  <v type="int" >       22 </v>
  <v type="int" >       23 </v>
  <v type="int" >       24 </v>
  <v type="int" >       25 </v>
  <v type="int" >       26 </v>
  <v type="int" >       27 </v>
  <v type="int" >       28 </v>
  <v type="int" >       29 </v>
  <v type="int" >       30 </v>
  <v type="int" >       31 </v>
  <v type="int" >       32 </v>
  <v type="int" >       33 </v>
  <v type="int" >       34 </v>
  <v type="int" >       35 </v>
  <v type="int" >       36 </v>
  <v type="int" >       37 </v>
  <v type="int" >       38 </v>
  <v type="int" >       39 </v>
  <v type="int" >       40 </v>
  <v type="int" >       41 </v>
  <v type="int" >       42 </v>
  <v type="int" >       43 </v>
  <v type="int" >       44 </v>
  <v type="int" >       45 </v>
  <v type="int" >       46 </v>
  <v type="int" >       47 </v>
  <v type="int" >       48 </v>
  <v type="int" >       49 </v>
  <v type="int" >       50 </v>
  <v type="int" >       51 </v>
  <v type="int" >       52 </v>
  <v type="int" >       53 </v>
  <v type="int" >       54 </v>
  <v type="int" >       55 </v>
  <v type="int" >       56 </v>
  <v type="int" >       57 </v>
  <v type="int" >       58 </v>
  <v type="int" >       59 </v>
  <v type="int" >       60 </v>
  <v type="int" >       61 </v>
  <v type="int" >       62 </v>
  <v type="int" >       63 </v>
  <v type="int" >       64 </v>
  <v type="int" >       65 </v>
  <v type="int" >       66 </v>
  <v type="int" >       67 </v>
  <v type="int" >       68 </v>
  <v type="int" >       69 </v>
  <v type="int" >       70 </v>
  <v type="int" >       71 </v>
  <v type="int" >       72 </v>
  <v type="int" >       73 </v>
  <v type="int" >       74 </v>
 </varray>
 <kpoints>
  <generation param="Gamma">
   <v type="int" name="divisions">       1        1        1 </v>
   <v name="usershift">      0.00000000       0.00000000       0.00000000 </v>
   <v name="genvec1">      1.00000000       0.00000000       0.00000000 </v>
   <v name="genvec2">      0.00000000       1.00000000       0.00000000 </v>
   <v name="genvec3">      0.00000000       0.00000000       1.00000000 </v>
   <v name="shift">      0.00000000       0.00000000       0.00000000 </v>
  </generation>
  <varray name="kpointlist" >
   <v>       0.00000000       0.00000000       0.00000000 </v>
  </varray>
  <varray name="weights" >
   <v>       1.00000000 </v>
  </varray>
 </kpoints>
 <parameters>
  <separator name="general" >
   <i type="string" name="SYSTEM">"Millerite NiS"</i>
   <i type="logical" name="LCOMPAT"> F  </i>
  </separator>
  <separator name="electronic" >
   <i type="string" name="PREC">normal</i>
   <i name="ENMAX">    450.00000000</i>
   <i name="ENAUG">    703.44300000</i>
   <i name="EDIFF">      0.00010000</i>
   <i type="int" name="IALGO">    38</i>
   <i type="int" name="IWAVPR">    10</i>
   <i type="int" name="NBANDS">   488</i>
   <i type="int" name="NBANDSLOW">    -1</i>
   <i type="int" name="NBANDSHIGH">    -1</i>
   <i name="NELECT">    814.00000000</i>
   <i type="int" name="TURBO">     0</i>
   <i type="int" name="IRESTART">     0</i>
   <i type="int" name="NREBOOT">     0</i>
   <i type="int" name="NMIN">     0</i>
   <i name="EREF">      0.00000000</i>
   <separator name="electronic smearing" >
    <i type="int" name="ISMEAR">     0</i>
    <i name="SIGMA">      0.20000000</i>
    <i name="KSPACING">      0.50000000</i>
    <i type="logical" name="KGAMMA"> T  </i>
    <i type="logical" name="KBLOWUP"> T  </i>
   </separator>
   <separator name="electronic projectors" >
    <i type="logical" name="LREAL"> T  </i>
    <v name="ROPT">     -0.00050000     -0.00050000</v>
    <i type="int" name="LMAXPAW">  -100</i>
    <i type="int" name="LMAXMIX">     2</i>
    <i type="logical" name="NLSPLINE"> F  </i>
   </separator>
   <separator name="electronic startup" >
    <i type="int" name="ISTART">     0</i>
    <i type="int" name="ICHARG">     2</i>
    <i type="int" name="INIWAV">     1</i>
   </separator>
   <separator name="electronic spin" >
    <i type="int" name="ISPIN">     1</i>
    <i type="logical" name="LNONCOLLINEAR"> F  </i>
    <v name="MAGMOM">      1.00000000      1.00000000      1.00000000      1.00000000      1.00000000      1.00000000      1.00000000      1.00000000      1.00000000      1.00000000      1.00000000      1.00000000      1.00000000      1.00000000      1.00000000      1.00000000      1.00000000      1.00000000      1.00000000      1.00000000
      1.00000000      1.00000000      1.00000000      1.00000000      1.00000000      1.00000000      1.00000000      1.00000000      1.00000000      1.00000000      1.00000000      1.00000000      1.00000000      1.00000000      1.00000000      1.00000000      1.00000000      1.00000000      1.00000000      1.00000000
      1.00000000      1.00000000      1.00000000      1.00000000      1.00000000      1.00000000      1.00000000      1.00000000      1.00000000      1.00000000      1.00000000      1.00000000      1.00000000      1.00000000      1.00000000      1.00000000      1.00000000      1.00000000      1.00000000      1.00000000
      1.00000000      1.00000000      1.00000000      1.00000000      1.00000000      1.00000000      1.00000000      1.00000000      1.00000000      1.00000000      1.00000000      1.00000000      1.00000000      1.00000000</v>
    <i name="NUPDOWN">     -1.00000000</i>
    <i type="logical" name="LSORBIT"> F  </i>
    <v name="SAXIS">      0.00000000      0.00000000      1.00000000</v>
    <i type="logical" name="LSPIRAL"> F  </i>
    <v name="QSPIRAL">      0.00000000      0.00000000      0.00000000</v>
    <i type="logical" name="LZEROZ"> F  </i>
   </separator>
   <separator name="electronic exchange-correlation" >
    <i type="logical" name="LASPH"> F  </i>
    <i type="logical" name="LMETAGGA"> F  </i>
   </separator>
   <separator name="electronic convergence" >
    <i type="int" name="NELM">   100</i>
    <i type="int" name="NELMDL">    -5</i>
    <i type="int" name="NELMIN">     2</i>
    <i name="ENINI">    450.00000000</i>
    <separator name="electronic convergence detail" >
     <i type="logical" name="LDIAG"> T  </i>
     <i type="logical" name="LSUBROT"> F  </i>
     <i name="WEIMIN">      0.00000000</i>
     <i name="EBREAK">      0.00000005</i>
     <i name="DEPER">      0.30000000</i>
     <i type="int" name="NRMM">     4</i>
     <i name="TIME">      0.40000000</i>
    </separator>
   </separator>
   <separator name="electronic mixer" >
    <i name="AMIX">      0.40000000</i>
    <i name="BMIX">      1.00000000</i>
    <i name="AMIN">      0.10000000</i>
    <i name="AMIX_MAG">      1.60000000</i>
    <i name="BMIX_MAG">      1.00000000</i>
    <separator name="electronic mixer details" >
     <i type="int" name="IMIX">     4</i>
     <i type="logical" name="MIXFIRST"> F  </i>
     <i type="int" name="MAXMIX">   -45</i>
     <i name="WC">    100.00000000</i>
     <i type="int" name="INIMIX">     1</i>
     <i type="int" name="MIXPRE">     1</i>
     <i type="int" name="MREMOVE">     5</i>
    </separator>
   </separator>
   <separator name="electronic dipolcorrection" >
    <i type="logical" name="LDIPOL"> F  </i>
    <i type="logical" name="LMONO"> F  </i>
    <i type="int" name="IDIPOL">     0</i>
    <i name="EPSILON">      1.00000000</i>
    <v name="DIPOL">   -100.00000000   -100.00000000   -100.00000000</v>
    <i name="EFIELD">      0.00000000</i>
   </separator>
  </separator>
  <separator name="grids" >
   <i type="int" name="NGX">    90</i>
   <i type="int" name="NGY">    50</i>
   <i type="int" name="NGZ">    90</i>
   <i type="int" name="NGXF">   180</i>
   <i type="int" name="NGYF">   100</i>
   <i type="int" name="NGZF">   180</i>
   <i type="logical" name="ADDGRID"> F  </i>
  </separator>
  <separator name="ionic" >
   <i type="int" name="NSW">     0</i>
   <i type="int" name="IBRION">    -1</i>
   <i type="int" name="MDALGO">     0</i>
   <i type="int" name="ISIF">     2</i>
   <i name="PSTRESS">      0.00000000</i>
   <i name="EDIFFG">      0.00100000</i>
   <i type="int" name="NFREE">     0</i>
   <i name="POTIM">      0.50000000</i>
   <i name="SMASS">     -3.00000000</i>
   <i name="SCALEE">      1.00000000</i>
  </separator>
  <separator name="ionic md" >
   <i name="TEBEG">      0.00010000</i>
   <i name="TEEND">      0.00010000</i>
   <i type="int" name="NBLOCK">     1</i>
   <i type="int" name="KBLOCK">     1</i>
   <i type="int" name="NPACO">   256</i>
   <i name="APACO">     16.00000000</i>
  </separator>
  <separator name="symmetry" >
   <i type="int" name="ISYM">     2</i>
   <i name="SYMPREC">      0.00001000</i>
  </separator>
  <separator name="dos" >
   <i type="int" name="LORBIT">     0</i>
   <v name="RWIGS">     -1.00000000     -1.00000000</v>
   <i type="int" name="NEDOS">   301</i>
   <i name="EMIN">     10.00000000</i>
   <i name="EMAX">    -10.00000000</i>
   <i name="EFERMI">      0.00000000</i>
  </separator>
  <separator name="writing" >
   <i type="int" name="NWRITE">     2</i>
   <i type="logical" name="LWAVE"> F  </i>
   <i type="logical" name="LDOWNSAMPLE"> F  </i>
   <i type="logical" name="LCHARG"> F  </i>
   <i type="logical" name="LPARD"> F  </i>
   <i type="logical" name="LVTOT"> F  </i>
   <i type="logical" name="LVHAR"> F  </i>
   <i type="logical" name="LELF"> F  </i>
   <i type="logical" name="LOPTICS"> F  </i>
   <v name="STM">      0.00000000      0.00000000      0.00000000      0.00000000      0.00000000      0.00000000      0.00000000</v>
  </separator>
  <separator name="performance" >
   <i type="int" name="NPAR">     8</i>
   <i type="int" name="NSIM">     4</i>
   <i type="int" name="NBLK">    -1</i>
   <i type="logical" name="LPLANE"> T  </i>
   <i type="logical" name="LSCALAPACK"> T  </i>
   <i type="logical" name="LSCAAWARE"> F  </i>
   <i type="logical" name="LSCALU"> F  </i>
   <i type="logical" name="LASYNC"> F  </i>
   <i type="logical" name="LORBITALREAL"> F  </i>
  </separator>
  <separator name="miscellaneous" >
   <i type="int" name="IDIOT">     3</i>
   <i type="int" name="PHON_NSTRUCT">    -1</i>
   <i type="logical" name="LMUSIC"> F  </i>
   <v name="POMASS">     58.69000000     32.06600000</v>
   <v name="DARWINR">      0.00000000      0.00000000</v>
   <v name="DARWINV">      1.00000000      1.00000000</v>
   <i type="logical" name="LCORR"> T  </i>
  </separator>
  <i type="logical" name="GGA_COMPAT"> T  </i>
  <i type="logical" name="LBERRY"> F  </i>
  <i type="int" name="ICORELEVEL">     0</i>
  <i type="logical" name="LDAU"> F  </i>
  <i type="int" name="I_CONSTRAINED_M">     0</i>
  <separator name="electronic exchange-correlation" >
   <i type="string" name="GGA">--</i>
   <i type="int" name="VOSKOWN">     0</i>
   <i type="logical" name="LHFCALC"> F  </i>
   <i type="string" name="PRECFOCK"></i>
   <i type="logical" name="LSYMGRAD"> F  </i>
   <i type="logical" name="LHFONE"> F  </i>
   <i type="logical" name="LRHFCALC"> F  </i>
   <i type="logical" name="LTHOMAS"> F  </i>
   <i type="logical" name="LMODELHF"> F  </i>
   <i type="logical" name="LFOCKACE"> F  </i>
   <i name="ENCUT4O">     -1.00000000</i>
   <i type="int" name="EXXOEP">     0</i>
   <i type="int" name="FOURORBIT">     0</i>
   <i name="AEXX">      0.00000000</i>
   <i name="HFALPHA">      0.00000000</i>
   <i name="MCALPHA">      0.00000000</i>
   <i name="ALDAX">      1.00000000</i>
   <i name="AGGAX">      1.00000000</i>
   <i name="ALDAC">      1.00000000</i>
   <i name="AGGAC">      1.00000000</i>
   <i type="int" name="NKREDX">     1</i>
   <i type="int" name="NKREDY">     1</i>
   <i type="int" name="NKREDZ">     1</i>
   <i type="logical" name="SHIFTRED"> F  </i>
   <i type="logical" name="ODDONLY"> F  </i>
   <i type="logical" name="EVENONLY"> F  </i>
   <i type="int" name="LMAXFOCK">     0</i>
   <i type="int" name="NMAXFOCKAE">     0</i>
   <i type="logical" name="LFOCKAEDFT"> F  </i>
   <i name="HFSCREEN">      0.00000000</i>
   <i name="HFSCREENC">      0.00000000</i>
   <i type="int" name="NBANDSGWLOW">     0</i>
  </separator>
  <separator name="vdW DFT" >
   <i type="logical" name="LUSE_VDW"> F  </i>
   <i name="Zab_VDW">     -0.84910000</i>
   <i name="PARAM1">      0.12340000</i>
   <i name="PARAM2">      1.00000000</i>
   <i name="PARAM3">      0.00000000</i>
  </separator>
  <separator name="model GW" >
   <i type="int" name="MODEL_GW">     0</i>
   <i name="MODEL_EPS0">     21.83944246</i>
   <i name="MODEL_ALPHA">      1.00000000</i>
  </separator>
  <separator name="linear response parameters" >
   <i type="logical" name="LEPSILON"> F  </i>
   <i type="logical" name="LRPA"> F  </i>
   <i type="logical" name="LNABLA"> F  </i>
   <i type="logical" name="LVEL"> F  </i>
   <i type="int" name="KINTER">     0</i>
   <i name="CSHIFT">      0.10000000</i>
   <i name="OMEGAMAX">     -1.00000000</i>
   <i name="DEG_THRESHOLD">      0.00200000</i>
   <i name="RTIME">     -0.10000000</i>
   <i name="WPLASMAI">      0.00000000</i>
   <v name="DFIELD">      0.00000000      0.00000000      0.00000000</v>
   <v name="WPLASMA">      0.00000000      0.00000000      0.00000000      0.00000000      0.00000000      0.00000000      0.00000000      0.00000000      0.00000000</v>
  </separator>
  <separator name="orbital magnetization" >
   <i type="logical" name="NUCIND"> F  </i>
   <v name="MAGPOS">      0.00000000      0.00000000      0.00000000</v>
   <i type="logical" name="LNICSALL"> T  </i>
   <i type="logical" name="ORBITALMAG"> F  </i>
   <i type="logical" name="LMAGBLOCH"> F  </i>
   <i type="logical" name="LCHIMAG"> F  </i>
   <i type="logical" name="LGAUGE"> T  </i>
   <i type="int" name="MAGATOM">     0</i>
   <v name="MAGDIPOL">      0.00000000      0.00000000      0.00000000</v>
   <v name="AVECCONST">      0.00000000      0.00000000      0.00000000</v>
  </separator>
  <separator name="response functions" >
   <i type="logical" name="LFINITE_TEMPERATURE"> F  </i>
   <i type="logical" name="LADDER"> F  </i>
   <i type="logical" name="LRPAFORCE"> F  </i>
   <i type="logical" name="LFXC"> F  </i>
   <i type="logical" name="LHARTREE"> T  </i>
   <i type="int" name="IBSE">     0</i>
   <v type="int" name="KPOINT">    -1     0     0     0</v>
   <i type="logical" name="LTCTC"> F  </i>
   <i type="logical" name="LTCTE"> F  </i>
   <i type="logical" name="LTETE"> F  </i>
   <i type="logical" name="LTRIPLET"> F  </i>
   <i type="logical" name="LFXCEPS"> F  </i>
   <i type="logical" name="LFXHEG"> F  </i>
   <i type="int" name="NATURALO">     2</i>
   <i type="logical" name="LHOLEGF"> F  </i>
   <i type="logical" name="L2ORDER"> F  </i>
   <i type="logical" name="LDMP1"> F  </i>
   <i type="logical" name="LMP2LT"> F  </i>
   <i type="logical" name="LSMP2LT"> F  </i>
   <i type="logical" name="LGWLF"> F  </i>
   <i name="ENCUTGW">     -2.00000000</i>
   <i name="ENCUTGWSOFT">     -2.00000000</i>
   <i name="ENCUTLF">     -1.00000000</i>
   <i type="logical" name="LESF_SPLINES"> F  </i>
   <i type="int" name="LMAXMP2">    -1</i>
   <i name="SCISSOR">      0.00000000</i>
   <i type="int" name="NOMEGA">     0</i>
   <i type="int" name="NOMEGAR">     0</i>
   <i type="int" name="NBANDSGW">    -1</i>
   <i type="int" name="NBANDSO">    -1</i>
   <i type="int" name="NBANDSV">    -1</i>
   <i type="int" name="NELM">   100</i>
   <i type="int" name="NELMHF">     1</i>
   <i type="int" name="DIM">     3</i>
   <i type="int" name="IESPILON">     4</i>
   <i type="int" name="ANTIRES">     0</i>
   <i name="OMEGAMAX">    -30.00000000</i>
   <i name="OMEGAMIN">    -30.00000000</i>
   <i name="OMEGATL">   -200.00000000</i>
   <i type="int" name="OMEGAGRID">     0</i>
   <i name="CSHIFT">     -0.10000000</i>
   <i type="logical" name="LSELFENERGY"> F  </i>
   <i type="logical" name="LSPECTRAL"> F  </i>
   <i type="logical" name="LSPECTRALGW"> F  </i>
   <i type="logical" name="LSINGLES"> F  </i>
   <i type="logical" name="LFERMIGW"> F  </i>
   <i type="logical" name="ODDONLYGW"> F  </i>
   <i type="logical" name="EVENONLYGW"> F  </i>
   <i type="int" name="NKREDLFX">     1</i>
   <i type="int" name="NKREDLFY">     1</i>
   <i type="int" name="NKREDLFZ">     1</i>
   <i type="int" name="MAXMEM">  2800</i>
   <i type="int" name="TELESCOPE">     0</i>
   <i type="int" name="NTAUPAR">    -1</i>
   <i type="int" name="NOMEGAPAR">    -1</i>
   <i name="LAMBDA">      1.00000000</i>
  </separator>
  <separator name="External order field" >
   <i name="OFIELD_KAPPA">      0.00000000</i>
   <v name="OFIELD_K">      0.00000000      0.00000000      0.00000000</v>
   <i name="OFIELD_Q6_NEAR">      0.00000000</i>
   <i name="OFIELD_Q6_FAR">      0.00000000</i>
   <i name="OFIELD_A">      0.00000000</i>
  </separator>
 </parameters>
 <atominfo>
  <atoms>      74 </atoms>
  <types>       2 </types>
  <array name="atoms" >
   <dimension dim="1">ion</dimension>
   <field type="string">element</field>
   <field type="int">atomtype</field>
   <set>
    <rc><c>Ni</c><c>   1</c></rc>
    <rc><c>Ni</c><c>   1</c></rc>
    <rc><c>Ni</c><c>   1</c></rc>
    <rc><c>Ni</c><c>   1</c></rc>
    <rc><c>Ni</c><c>   1</c></rc>
    <rc><c>Ni</c><c>   1</c></rc>
    <rc><c>Ni</c><c>   1</c></rc>
    <rc><c>Ni</c><c>   1</c></rc>
    <rc><c>Ni</c><c>   1</c></rc>
    <rc><c>Ni</c><c>   1</c></rc>
    <rc><c>Ni</c><c>   1</c></rc>
    <rc><c>Ni</c><c>   1</c></rc>
    <rc><c>Ni</c><c>   1</c></rc>
    <rc><c>Ni</c><c>   1</c></rc>
    <rc><c>Ni</c><c>   1</c></rc>
    <rc><c>Ni</c><c>   1</c></rc>
    <rc><c>Ni</c><c>   1</c></rc>
    <rc><c>Ni</c><c>   1</c></rc>
    <rc><c>Ni</c><c>   1</c></rc>
    <rc><c>Ni</c><c>   1</c></rc>
    <rc><c>Ni</c><c>   1</c></rc>
    <rc><c>Ni</c><c>   1</c></rc>
    <rc><c>Ni</c><c>   1</c></rc>
    <rc><c>Ni</c><c>   1</c></rc>
    <rc><c>Ni</c><c>   1</c></rc>
    <rc><c>Ni</c><c>   1</c></rc>
    <rc><c>Ni</c><c>   1</c></rc>
    <rc><c>Ni</c><c>   1</c></rc>
    <rc><c>Ni</c><c>   1</c></rc>
    <rc><c>Ni</c><c>   1</c></rc>
    <rc><c>Ni</c><c>   1</c></rc>
    <rc><c>Ni</c><c>   1</c></rc>
    <rc><c>Ni</c><c>   1</c></rc>
    <rc><c>Ni</c><c>   1</c></rc>
    <rc><c>Ni</c><c>   1</c></rc>
    <rc><c>Ni</c><c>   1</c></rc>
    <rc><c>Ni</c><c>   1</c></rc>
    <rc><c>S </c><c>   2</c></rc>
    <rc><c>S </c><c>   2</c></rc>
    <rc><c>S </c><c>   2</c></rc>
    <rc><c>S </c><c>   2</c></rc>
    <rc><c>S </c><c>   2</c></rc>
    <rc><c>S </c><c>   2</c></rc>
    <rc><c>S </c><c>   2</c></rc>
    <rc><c>S </c><c>   2</c></rc>
    <rc><c>S </c><c>   2</c></rc>
    <rc><c>S </c><c>   2</c></rc>
    <rc><c>S </c><c>   2</c></rc>
    <rc><c>S </c><c>   2</c></rc>
    <rc><c>S </c><c>   2</c></rc>
    <rc><c>S </c><c>   2</c></rc>
    <rc><c>S </c><c>   2</c></rc>
    <rc><c>S </c><c>   2</c></rc>
    <rc><c>S </c><c>   2</c></rc>
    <rc><c>S </c><c>   2</c></rc>
    <rc><c>S </c><c>   2</c></rc>
    <rc><c>S </c><c>   2</c></rc>
    <rc><c>S </c><c>   2</c></rc>
    <rc><c>S </c><c>   2</c></rc>
    <rc><c>S </c><c>   2</c></rc>
    <rc><c>S </c><c>   2</c></rc>
    <rc><c>S </c><c>   2</c></rc>
    <rc><c>S </c><c>   2</c></rc>
    <rc><c>S </c><c>   2</c></rc>
    <rc><c>S </c><c>   2</c></rc>
    <rc><c>S </c><c>   2</c></rc>
    <rc><c>S </c><c>   2</c></rc>
    <rc><c>S </c><c>   2</c></rc>
    <rc><c>S </c><c>   2</c></rc>
    <rc><c>S </c><c>   2</c></rc>
    <rc><c>S </c><c>   2</c></rc>
    <rc><c>S </c><c>   2</c></rc>
    <rc><c>S </c><c>   2</c></rc>
    <rc><c>S </c><c>   2</c></rc>
   </set>
  </array>
  <array name="atomtypes" >
   <dimension dim="1">type</dimension>
   <field type="int">atomspertype</field>
   <field type="string">element</field>
   <field>mass</field>
   <field>valence</field>
   <field type="string">pseudopotential</field>
   <set>
    <rc><c>  37</c><c>Ni</c><c>     58.69000000</c><c>     16.00000000</c><c>  PAW_PBE Ni_pv 06Sep2000               </c></rc>
    <rc><c>  37</c><c>S </c><c>     32.06600000</c><c>      6.00000000</c><c>  PAW_PBE S 06Sep2000                   </c></rc>
   </set>
  </array>
 </atominfo>
 <structure name="initialpos" >
  <crystal>
   <varray name="basis" >
    <v>      16.88469405       0.00000000       0.00000000 </v>
    <v>       0.00000000       9.57841000       0.00000000 </v>
    <v>       0.00000000       0.00000000      16.65464569 </v>
   </varray>
   <i name="volume">   2693.53123734 </i>
   <varray name="rec_basis" >
    <v>       0.05922524       0.00000000       0.00000000 </v>
    <v>       0.00000000       0.10440146       0.00000000 </v>
    <v>       0.00000000       0.00000000       0.06004331 </v>
   </varray>
  </crystal>
  <varray name="positions" >
   <v>       0.78004630       0.14529696       0.12347080 </v>
   <v>       0.81461426       0.14529696       0.30867699 </v>
   <v>       0.26276233       0.64529696       0.03086770 </v>
   <v>       0.29733028       0.64529696       0.21607389 </v>
   <v>       0.43519032       0.14529696       0.06173540 </v>
   <v>       0.46975828       0.14529696       0.24694159 </v>
   <v>       0.95247430       0.64529696       0.15433850 </v>
   <v>       0.98704225       0.64529696       0.33954469 </v>
   <v>       0.09033433       0.14529696       0.00000000 </v>
   <v>       0.12490229       0.14529696       0.18520619 </v>
   <v>       0.15947025       0.14529696       0.37041239 </v>
   <v>       0.60761831       0.64529696       0.09260310 </v>
   <v>       0.64218627       0.64529696       0.27780929 </v>
   <v>       0.90758277       0.01319396       0.09900450 </v>
   <v>       0.94215073       0.01319396       0.28421070 </v>
   <v>       0.39029880       0.51319396       0.00640140 </v>
   <v>       0.42486675       0.51319396       0.19160760 </v>
   <v>       0.45943471       0.51319396       0.37681380 </v>
   <v>       0.56272679       0.01319396       0.03726910 </v>
   <v>       0.59729475       0.01319396       0.22247530 </v>
   <v>       0.08001077       0.51319396       0.12987220 </v>
   <v>       0.11457872       0.51319396       0.31507840 </v>
   <v>       0.25243876       0.01319396       0.16073990 </v>
   <v>       0.28700672       0.01319396       0.34594610 </v>
   <v>       0.73515478       0.51319396       0.06813680 </v>
   <v>       0.76972274       0.51319396       0.25334300 </v>
   <v>       0.90758277       0.27739996       0.09900450 </v>
   <v>       0.39029880       0.77739996       0.00640140 </v>
   <v>       0.42486675       0.77739996       0.19160760 </v>
   <v>       0.56272679       0.27739996       0.03726910 </v>
   <v>       0.59729475       0.27739996       0.22247530 </v>
   <v>       0.08001077       0.77739996       0.12987220 </v>
   <v>       0.11457872       0.77739996       0.31507840 </v>
   <v>       0.25243876       0.27739996       0.16073990 </v>
   <v>       0.28700672       0.27739996       0.34594610 </v>
   <v>       0.73515478       0.77739996       0.06813680 </v>
   <v>       0.76972274       0.77739996       0.25334300 </v>
   <v>       0.02602916       0.14529696       0.36869923 </v>
   <v>       0.99146120       0.14529696       0.18349304 </v>
   <v>       0.47417722       0.64529696       0.09088994 </v>
   <v>       0.50874518       0.64529696       0.27609614 </v>
   <v>       0.64660522       0.14529696       0.12175764 </v>
   <v>       0.68117317       0.14529696       0.30696383 </v>
   <v>       0.12932124       0.64529696       0.02915454 </v>
   <v>       0.16388920       0.64529696       0.21436074 </v>
   <v>       0.19845715       0.64529696       0.39956693 </v>
   <v>       0.30174923       0.14529696       0.06002224 </v>
   <v>       0.33631719       0.14529696       0.24522844 </v>
   <v>       0.81903321       0.64529696       0.15262534 </v>
   <v>       0.85360117       0.64529696       0.33783153 </v>
   <v>       0.79449310       0.31351196       0.02944130 </v>
   <v>       0.82906105       0.31351196       0.21464750 </v>
   <v>       0.31177707       0.81351196       0.12204440 </v>
   <v>       0.34634503       0.81351196       0.30725060 </v>
   <v>       0.48420507       0.31351196       0.15291210 </v>
   <v>       0.51877302       0.31351196       0.33811830 </v>
   <v>       0.00148905       0.81351196       0.24551520 </v>
   <v>       0.96692109       0.81351196       0.06030900 </v>
   <v>       0.13934908       0.31351196       0.09117670 </v>
   <v>       0.17391704       0.31351196       0.27638290 </v>
   <v>       0.65663306       0.81351196       0.18377980 </v>
   <v>       0.69120102       0.81351196       0.36898599 </v>
   <v>       0.31177707       0.47708196       0.12204440 </v>
   <v>       0.34634503       0.47708196       0.30725060 </v>
   <v>       0.79449310       0.97708196       0.02944130 </v>
   <v>       0.82906105       0.97708196       0.21464750 </v>
   <v>       0.00148905       0.47708196       0.24551520 </v>
   <v>       0.96692109       0.47708196       0.06030900 </v>
   <v>       0.48420507       0.97708196       0.15291210 </v>
   <v>       0.51877302       0.97708196       0.33811830 </v>
   <v>       0.65663306       0.47708196       0.18377980 </v>
   <v>       0.69120102       0.47708196       0.36898599 </v>
   <v>       0.13934908       0.97708196       0.09117670 </v>
   <v>       0.17391704       0.97708196       0.27638290 </v>
  </varray>
 </structure>
 <calculation>
  <scstep>
   <time name="dav">    2.88    2.89</time>
   <time name="total">    2.94    2.95</time>
   <energy>
    <i name="alphaZ">   1458.83996183 </i>
    <i name="ewald"> 115977.59161003 </i>
    <i name="hartreedc">-240199.57235434 </i>
    <i name="XCdc">   3739.05349981 </i>
    <i name="pawpsdc"> 115860.90926010 </i>
    <i name="pawaedc">-120909.33166199 </i>
    <i name="eentropy">     -0.52851353 </i>
    <i name="bandstr">  -6880.31088608 </i>
    <i name="atom"> 139780.45519414 </i>
    <i name="e_fr_energy">   8827.10610997 </i>
    <i name="e_wo_entrp">   8827.63462350 </i>
    <i name="e_0_energy">   8827.37036673 </i>
   </energy>
  </scstep>
  <scstep>
   <time name="dav">    2.56    2.57</time>
   <time name="total">    2.56    2.57</time>
   <energy>
    <i name="e_fr_energy">    490.94464274 </i>
    <i name="e_wo_entrp">    491.92277228 </i>
    <i name="e_0_energy">    491.43370751 </i>
   </energy>
  </scstep>
  <scstep>
   <time name="dav">    2.77    2.78</time>
   <time name="total">    2.77    2.78</time>
   <energy>
    <i name="e_fr_energy">   -355.28995875 </i>
    <i name="e_wo_entrp">   -353.63170794 </i>
    <i name="e_0_energy">   -354.46083334 </i>
   </energy>
  </scstep>
  <scstep>
   <time name="dav">    2.70    2.71</time>
   <time name="total">    2.70    2.71</time>
   <energy>
    <i name="e_fr_energy">   -405.12089103 </i>
    <i name="e_wo_entrp">   -403.41099376 </i>
    <i name="e_0_energy">   -404.26594239 </i>
   </energy>
  </scstep>
  <scstep>
   <time name="dav">    2.98    2.99</time>
   <time name="total">    3.05    3.06</time>
   <energy>
    <i name="e_fr_energy">   -407.06710795 </i>
    <i name="e_wo_entrp">   -405.37089292 </i>
    <i name="e_0_energy">   -406.21900043 </i>
   </energy>
  </scstep>
  <scstep>
   <time name="dav">    2.81    2.82</time>
   <time name="total">    2.94    2.95</time>
   <energy>
    <i name="e_fr_energy">   -532.65714024 </i>
    <i name="e_wo_entrp">   -531.65470760 </i>
    <i name="e_0_energy">   -532.15592392 </i>
   </energy>
  </scstep>
  <scstep>
   <time name="dav">    2.88    2.89</time>
   <time name="total">    3.01    3.02</time>
   <energy>
    <i name="e_fr_energy">   -385.07719683 </i>
    <i name="e_wo_entrp">   -383.78560962 </i>
    <i name="e_0_energy">   -384.43140322 </i>
   </energy>
  </scstep>
  <scstep>
   <time name="dav">    3.24    3.25</time>
   <time name="total">    3.37    3.38</time>
   <energy>
    <i name="e_fr_energy">   -395.97458435 </i>
    <i name="e_wo_entrp">   -394.55976534 </i>
    <i name="e_0_energy">   -395.26717485 </i>
   </energy>
  </scstep>
  <scstep>
   <time name="dav">    3.12    3.12</time>
   <time name="total">    3.24    3.25</time>
   <energy>
    <i name="e_fr_energy">   -376.44684211 </i>
    <i name="e_wo_entrp">   -375.05162847 </i>
    <i name="e_0_energy">   -375.74923529 </i>
   </energy>
  </scstep>
  <scstep>
   <time name="dav">    3.29    3.30</time>
   <time name="total">    3.42    3.43</time>
   <energy>
    <i name="e_fr_energy">   -367.66438896 </i>
    <i name="e_wo_entrp">   -365.94845828 </i>
    <i name="e_0_energy">   -366.80642362 </i>
   </energy>
  </scstep>
  <scstep>
   <time name="dav">    3.21    3.22</time>
   <time name="total">    3.33    3.34</time>
   <energy>
    <i name="e_fr_energy">   -361.90974962 </i>
    <i name="e_wo_entrp">   -360.38110773 </i>
    <i name="e_0_energy">   -361.14542867 </i>
   </energy>
  </scstep>
  <scstep>
   <time name="dav">    3.21    3.22</time>
   <time name="total">    3.33    3.34</time>
   <energy>
    <i name="e_fr_energy">   -365.41683920 </i>
    <i name="e_wo_entrp">   -364.18860162 </i>
    <i name="e_0_energy">   -364.80272041 </i>
   </energy>
  </scstep>
  <scstep>
   <time name="dav">    3.24    3.25</time>
   <time name="total">    3.37    3.38</time>
   <energy>
    <i name="e_fr_energy">   -362.53953530 </i>
    <i name="e_wo_entrp">   -361.34688884 </i>
    <i name="e_0_energy">   -361.94321207 </i>
   </energy>
  </scstep>
  <scstep>
   <time name="dav">    3.02    3.03</time>
   <time name="total">    3.15    3.16</time>
   <energy>
    <i name="e_fr_energy">   -355.25465124 </i>
    <i name="e_wo_entrp">   -354.00533802 </i>
    <i name="e_0_energy">   -354.62999463 </i>
   </energy>
  </scstep>
  <scstep>
   <time name="dav">    3.21    3.22</time>
   <time name="total">    3.33    3.34</time>
   <energy>
    <i name="e_fr_energy">   -353.51822918 </i>
    <i name="e_wo_entrp">   -352.27781150 </i>
    <i name="e_0_energy">   -352.89802034 </i>
   </energy>
  </scstep>
  <scstep>
   <time name="dav">    3.13    3.14</time>
   <time name="total">    3.25    3.26</time>
   <energy>
    <i name="e_fr_energy">   -352.76115603 </i>
    <i name="e_wo_entrp">   -351.47480386 </i>
    <i name="e_0_energy">   -352.11797994 </i>
   </energy>
  </scstep>
  <scstep>
   <time name="dav">    2.95    2.96</time>
   <time name="total">    3.08    3.09</time>
   <energy>
    <i name="e_fr_energy">   -351.85365392 </i>
    <i name="e_wo_entrp">   -350.63079067 </i>
    <i name="e_0_energy">   -351.24222229 </i>
   </energy>
  </scstep>
  <scstep>
   <time name="dav">    3.19    3.20</time>
   <time name="total">    3.32    3.32</time>
   <energy>
    <i name="e_fr_energy">   -351.48464269 </i>
    <i name="e_wo_entrp">   -350.17993896 </i>
    <i name="e_0_energy">   -350.83229083 </i>
   </energy>
  </scstep>
  <scstep>
   <time name="dav">    3.01    3.02</time>
   <time name="total">    3.14    3.15</time>
   <energy>
    <i name="e_fr_energy">   -351.41415534 </i>
    <i name="e_wo_entrp">   -350.04475097 </i>
    <i name="e_0_energy">   -350.72945316 </i>
   </energy>
  </scstep>
  <scstep>
   <time name="dav">    3.04    3.05</time>
   <time name="total">    3.17    3.18</time>
   <energy>
    <i name="e_fr_energy">   -351.19345614 </i>
    <i name="e_wo_entrp">   -349.81072153 </i>
    <i name="e_0_energy">   -350.50208883 </i>
   </energy>
  </scstep>
  <scstep>
   <time name="dav">    3.02    3.02</time>
   <time name="total">    3.14    3.15</time>
   <energy>
    <i name="e_fr_energy">   -351.10531238 </i>
    <i name="e_wo_entrp">   -349.68358932 </i>
    <i name="e_0_energy">   -350.39445085 </i>
   </energy>
  </scstep>
  <scstep>
   <time name="dav">    3.03    3.04</time>
   <time name="total">    3.16    3.17</time>
   <energy>
    <i name="e_fr_energy">   -351.00510129 </i>
    <i name="e_wo_entrp">   -349.58552767 </i>
    <i name="e_0_energy">   -350.29531448 </i>
   </energy>
  </scstep>
  <scstep>
   <time name="dav">    3.03    3.04</time>
   <time name="total">    3.16    3.17</time>
   <energy>
    <i name="e_fr_energy">   -351.00860645 </i>
    <i name="e_wo_entrp">   -349.57168152 </i>
    <i name="e_0_energy">   -350.29014399 </i>
   </energy>
  </scstep>
  <scstep>
   <time name="dav">    2.93    2.93</time>
   <time name="total">    3.05    3.06</time>
   <energy>
    <i name="e_fr_energy">   -351.05735833 </i>
    <i name="e_wo_entrp">   -349.56684177 </i>
    <i name="e_0_energy">   -350.31210005 </i>
   </energy>
  </scstep>
  <scstep>
   <time name="dav">    3.03    3.04</time>
   <time name="total">    3.16    3.17</time>
   <energy>
    <i name="e_fr_energy">   -351.01234098 </i>
    <i name="e_wo_entrp">   -349.59585118 </i>
    <i name="e_0_energy">   -350.30409608 </i>
   </energy>
  </scstep>
  <scstep>
   <time name="dav">    3.05    3.06</time>
   <time name="total">    3.18    3.18</time>
   <energy>
    <i name="e_fr_energy">   -350.98160444 </i>
    <i name="e_wo_entrp">   -349.55342120 </i>
    <i name="e_0_energy">   -350.26751282 </i>
   </energy>
  </scstep>
  <scstep>
   <time name="dav">    3.10    3.11</time>
   <time name="total">    3.23    3.24</time>
   <energy>
    <i name="e_fr_energy">   -350.96744037 </i>
    <i name="e_wo_entrp">   -349.53336227 </i>
    <i name="e_0_energy">   -350.25040132 </i>
   </energy>
  </scstep>
  <scstep>
   <time name="dav">    3.07    3.07</time>
   <time name="total">    3.20    3.21</time>
   <energy>
    <i name="e_fr_energy">   -350.95670258 </i>
    <i name="e_wo_entrp">   -349.52845621 </i>
    <i name="e_0_energy">   -350.24257940 </i>
   </energy>
  </scstep>
  <scstep>
   <time name="dav">    3.04    3.04</time>
   <time name="total">    3.17    3.17</time>
   <energy>
    <i name="e_fr_energy">   -350.96366037 </i>
    <i name="e_wo_entrp">   -349.51142076 </i>
    <i name="e_0_energy">   -350.23754057 </i>
   </energy>
  </scstep>
  <scstep>
   <time name="dav">    3.05    3.06</time>
   <time name="total">    3.18    3.19</time>
   <energy>
    <i name="e_fr_energy">   -350.94042469 </i>
    <i name="e_wo_entrp">   -349.50831363 </i>
    <i name="e_0_energy">   -350.22436916 </i>
   </energy>
  </scstep>
  <scstep>
   <time name="dav">    3.05    3.06</time>
   <time name="total">    3.18    3.19</time>
   <energy>
    <i name="e_fr_energy">   -350.93242151 </i>
    <i name="e_wo_entrp">   -349.51150755 </i>
    <i name="e_0_energy">   -350.22196453 </i>
   </energy>
  </scstep>
  <scstep>
   <time name="dav">    3.04    3.04</time>
   <time name="total">    3.17    3.17</time>
   <energy>
    <i name="e_fr_energy">   -350.92917263 </i>
    <i name="e_wo_entrp">   -349.51598169 </i>
    <i name="e_0_energy">   -350.22257716 </i>
   </energy>
  </scstep>
  <scstep>
   <time name="dav">    2.92    2.92</time>
   <time name="total">    3.05    3.05</time>
   <energy>
    <i name="e_fr_energy">   -350.92813958 </i>
    <i name="e_wo_entrp">   -349.51521106 </i>
    <i name="e_0_energy">   -350.22167532 </i>
   </energy>
  </scstep>
  <scstep>
   <time name="dav">    2.87    2.88</time>
   <time name="total">    3.00    3.01</time>
   <energy>
    <i name="e_fr_energy">   -350.92789031 </i>
    <i name="e_wo_entrp">   -349.51766339 </i>
    <i name="e_0_energy">   -350.22277685 </i>
   </energy>
  </scstep>
  <scstep>
   <time name="dav">    2.73    2.73</time>
   <time name="total">    2.86    2.86</time>
   <energy>
    <i name="e_fr_energy">   -350.92748052 </i>
    <i name="e_wo_entrp">   -349.52008811 </i>
    <i name="e_0_energy">   -350.22378432 </i>
   </energy>
  </scstep>
  <scstep>
   <time name="dav">    2.62    2.62</time>
   <time name="total">    2.75    2.75</time>
   <energy>
    <i name="e_fr_energy">   -350.92778990 </i>
    <i name="e_wo_entrp">   -349.51970948 </i>
    <i name="e_0_energy">   -350.22374969 </i>
   </energy>
  </scstep>
  <scstep>
   <time name="dav">    2.31    2.31</time>
   <time name="total">    2.44    2.44</time>
   <energy>
    <i name="e_fr_energy">   -350.92811638 </i>
    <i name="e_wo_entrp">   -349.52340733 </i>
    <i name="e_0_energy">   -350.22576185 </i>
   </energy>
  </scstep>
  <scstep>
   <time name="dav">    2.25    2.25</time>
   <time name="total">    2.31    2.31</time>
   <energy>
    <i name="alphaZ">   1458.83996183 </i>
    <i name="ewald"> 115977.59161003 </i>
    <i name="hartreedc">-239517.81599535 </i>
    <i name="XCdc">   3710.36044754 </i>
    <i name="pawpsdc"> 131990.92899147 </i>
    <i name="pawaedc">-137095.36474318 </i>
    <i name="eentropy">     -1.40657280 </i>
    <i name="bandstr"> -16654.51707909 </i>
    <i name="atom"> 139780.45519414 </i>
    <i name="e_fr_energy">   -350.92818541 </i>
    <i name="e_wo_entrp">   -349.52161260 </i>
    <i name="e_0_energy">   -350.22489901 </i>
   </energy>
  </scstep>
  <structure>
   <crystal>
    <varray name="basis" >
     <v>      16.88469405       0.00000000       0.00000000 </v>
     <v>       0.00000000       9.57841000       0.00000000 </v>
     <v>       0.00000000       0.00000000      16.65464569 </v>
    </varray>
    <i name="volume">   2693.53123734 </i>
    <varray name="rec_basis" >
     <v>       0.05922524       0.00000000       0.00000000 </v>
     <v>       0.00000000       0.10440146       0.00000000 </v>
     <v>       0.00000000       0.00000000       0.06004331 </v>
    </varray>
   </crystal>
   <varray name="positions" >
    <v>       0.78004630       0.14529696       0.12347080 </v>
    <v>       0.81461426       0.14529696       0.30867699 </v>
    <v>       0.26276233       0.64529696       0.03086770 </v>
    <v>       0.29733028       0.64529696       0.21607389 </v>
    <v>       0.43519032       0.14529696       0.06173540 </v>
    <v>       0.46975828       0.14529696       0.24694159 </v>
    <v>       0.95247430       0.64529696       0.15433850 </v>
    <v>       0.98704225       0.64529696       0.33954469 </v>
    <v>       0.09033433       0.14529696       0.00000000 </v>
    <v>       0.12490229       0.14529696       0.18520619 </v>
    <v>       0.15947025       0.14529696       0.37041239 </v>
    <v>       0.60761831       0.64529696       0.09260310 </v>
    <v>       0.64218627       0.64529696       0.27780929 </v>
    <v>       0.90758277       0.01319396       0.09900450 </v>
    <v>       0.94215073       0.01319396       0.28421070 </v>
    <v>       0.39029880       0.51319396       0.00640140 </v>
    <v>       0.42486675       0.51319396       0.19160760 </v>
    <v>       0.45943471       0.51319396       0.37681380 </v>
    <v>       0.56272679       0.01319396       0.03726910 </v>
    <v>       0.59729475       0.01319396       0.22247530 </v>
    <v>       0.08001077       0.51319396       0.12987220 </v>
    <v>       0.11457872       0.51319396       0.31507840 </v>
    <v>       0.25243876       0.01319396       0.16073990 </v>
    <v>       0.28700672       0.01319396       0.34594610 </v>
    <v>       0.73515478       0.51319396       0.06813680 </v>
    <v>       0.76972274       0.51319396       0.25334300 </v>
    <v>       0.90758277       0.27739996       0.09900450 </v>
    <v>       0.39029880       0.77739996       0.00640140 </v>
    <v>       0.42486675       0.77739996       0.19160760 </v>
    <v>       0.56272679       0.27739996       0.03726910 </v>
    <v>       0.59729475       0.27739996       0.22247530 </v>
    <v>       0.08001077       0.77739996       0.12987220 </v>
    <v>       0.11457872       0.77739996       0.31507840 </v>
    <v>       0.25243876       0.27739996       0.16073990 </v>
    <v>       0.28700672       0.27739996       0.34594610 </v>
    <v>       0.73515478       0.77739996       0.06813680 </v>
    <v>       0.76972274       0.77739996       0.25334300 </v>
    <v>       0.02602916       0.14529696       0.36869923 </v>
    <v>       0.99146120       0.14529696       0.18349304 </v>
    <v>       0.47417722       0.64529696       0.09088994 </v>
    <v>       0.50874518       0.64529696       0.27609614 </v>
    <v>       0.64660522       0.14529696       0.12175764 </v>
    <v>       0.68117317       0.14529696       0.30696383 </v>
    <v>       0.12932124       0.64529696       0.02915454 </v>
    <v>       0.16388920       0.64529696       0.21436074 </v>
    <v>       0.19845715       0.64529696       0.39956693 </v>
    <v>       0.30174923       0.14529696       0.06002224 </v>
    <v>       0.33631719       0.14529696       0.24522844 </v>
    <v>       0.81903321       0.64529696       0.15262534 </v>
    <v>       0.85360117       0.64529696       0.33783153 </v>
    <v>       0.79449310       0.31351196       0.02944130 </v>
    <v>       0.82906105       0.31351196       0.21464750 </v>
    <v>       0.31177707       0.81351196       0.12204440 </v>
    <v>       0.34634503       0.81351196       0.30725060 </v>
    <v>       0.48420507       0.31351196       0.15291210 </v>
    <v>       0.51877302       0.31351196       0.33811830 </v>
    <v>       0.00148905       0.81351196       0.24551520 </v>
    <v>       0.96692109       0.81351196       0.06030900 </v>
    <v>       0.13934908       0.31351196       0.09117670 </v>
    <v>       0.17391704       0.31351196       0.27638290 </v>
    <v>       0.65663306       0.81351196       0.18377980 </v>
    <v>       0.69120102       0.81351196       0.36898599 </v>
    <v>       0.31177707       0.47708196       0.12204440 </v>
    <v>       0.34634503       0.47708196       0.30725060 </v>
    <v>       0.79449310       0.97708196       0.02944130 </v>
    <v>       0.82906105       0.97708196       0.21464750 </v>
    <v>       0.00148905       0.47708196       0.24551520 </v>
    <v>       0.96692109       0.47708196       0.06030900 </v>
    <v>       0.48420507       0.97708196       0.15291210 </v>
    <v>       0.51877302       0.97708196       0.33811830 </v>
    <v>       0.65663306       0.47708196       0.18377980 </v>
    <v>       0.69120102       0.47708196       0.36898599 </v>
    <v>       0.13934908       0.97708196       0.09117670 </v>
    <v>       0.17391704       0.97708196       0.27638290 </v>
   </varray>
  </structure>
  <varray name="forces" >
   <v>       0.32626199       0.31008252      -0.29967869 </v>
   <v>      -0.91813899       0.08885897      -1.61894204 </v>
   <v>      -0.32556181       0.04500193       1.12869125 </v>
   <v>       0.05749047       0.29874014       0.20097910 </v>
   <v>      -0.33416200       0.01056272       0.85940783 </v>
   <v>      -0.03932917      -0.08943065       0.38989494 </v>
   <v>       0.10474549      -0.03865358       0.07355801 </v>
   <v>      -1.11196893      -0.04413003      -1.66239487 </v>
   <v>       0.77196272       0.01783769       2.23928917 </v>
   <v>      -0.21415393      -0.06937848       0.00967372 </v>
   <v>      -1.04518170      -0.07333603      -1.48569239 </v>
   <v>       0.10015067       0.03217387       0.85565880 </v>
   <v>      -0.00904068      -0.00013778       0.63456084 </v>
   <v>       0.05044710      -0.59925958       0.31287163 </v>
   <v>       0.97335265       0.86395446      -0.46406912 </v>
   <v>       0.00522667       0.64620642       1.70724771 </v>
   <v>       0.03673189      -0.17023853      -0.01139078 </v>
   <v>      -0.01864488      -0.77789509      -2.28320534 </v>
   <v>      -0.27444757       0.50918877       1.64452385 </v>
   <v>       0.00555131       0.15290769       0.36636370 </v>
   <v>      -0.00918160      -0.11514817      -0.18134380 </v>
   <v>       0.83867347       0.73695509      -0.18330195 </v>
   <v>       0.24040086       0.02614047      -0.25370846 </v>
   <v>       0.00237190      -0.34687577      -1.69849967 </v>
   <v>       0.24108847      -0.37858825       0.86958537 </v>
   <v>       0.23817165      -0.21235225       0.30625741 </v>
   <v>      -0.18206932       0.76880734       0.56676913 </v>
   <v>       0.01485562      -0.63954656       1.69696680 </v>
   <v>      -0.23601841       0.20853159       0.30517469 </v>
   <v>      -0.25884860      -0.53562171       1.62523548 </v>
   <v>       0.12215579      -0.05783787       0.17900096 </v>
   <v>       0.08623085       0.24859552      -0.34336567 </v>
   <v>       0.85721727      -0.69838548      -0.11156009 </v>
   <v>       0.28195115       0.01492272      -0.25643218 </v>
   <v>      -0.07540894       0.21288188      -1.54883761 </v>
   <v>       0.19550395       0.32335083       0.94106018 </v>
   <v>       0.20390839       0.03245620       0.38159322 </v>
   <v>      -0.30668229      -0.81763665       0.06736791 </v>
   <v>      -0.55138938      -0.20573660      -0.85930542 </v>
   <v>       0.35195449       0.07946437      -1.59320206 </v>
   <v>      -0.35333185      -0.33518221       0.94081945 </v>
   <v>      -0.49269511       0.02666503      -0.91272872 </v>
   <v>       0.10001999       0.04469251       0.33452510 </v>
   <v>       1.28903528      -0.00199809       0.24294618 </v>
   <v>      -0.12748118       0.01622357       0.10387078 </v>
   <v>      -1.99610853       0.03312881      -1.34139123 </v>
   <v>       1.31927476       0.00223364      -0.08634190 </v>
   <v>       0.01921551      -0.03523314       1.17719718 </v>
   <v>      -0.55078249      -0.01235596      -0.70678414 </v>
   <v>       0.04785894      -0.01421991       0.05784314 </v>
   <v>       0.06876919       0.60556489       0.33727246 </v>
   <v>      -0.10337406      -0.90801849       0.72056553 </v>
   <v>      -0.02443819      -0.19929845      -1.04671776 </v>
   <v>      -0.00309933      -0.09292861       0.12557648 </v>
   <v>       0.06023280      -0.25118083      -0.95223296 </v>
   <v>      -0.11868792      -0.00183384       0.12360467 </v>
   <v>       0.00888167      -0.14290596       0.94666126 </v>
   <v>      -0.02202299       0.57066871       0.38042611 </v>
   <v>      -0.74018796      -0.56645554      -0.60882207 </v>
   <v>       0.11650542      -0.14708138       0.90157873 </v>
   <v>       0.08483251      -0.47927691      -0.68774362 </v>
   <v>       0.20356377      -0.90765601      -1.33260522 </v>
   <v>      -0.06014443       0.16207281      -0.92938621 </v>
   <v>       0.52121213       0.09019322       0.81454359 </v>
   <v>       0.05742751      -0.60420005       0.44503826 </v>
   <v>       0.33380050       0.59956579       1.23894651 </v>
   <v>       0.07425374       0.28572317       0.44596334 </v>
   <v>      -0.05725889      -0.62590595       0.46599467 </v>
   <v>       0.07332014       0.24504319      -0.82269310 </v>
   <v>       0.24762151       0.81043540      -1.36655613 </v>
   <v>       0.12416810       0.44541571      -0.61556851 </v>
   <v>       0.25907474       0.92782916      -1.30129227 </v>
   <v>      -0.72451089       0.52759758      -0.52889858 </v>
   <v>       0.16887899       0.17524596       0.92958740 </v>
  </varray>
  <varray name="stress" >
   <v>     -26.30028017      -0.76773945      -7.95123795 </v>
   <v>      -0.76773968     -25.66165010      -1.76763565 </v>
   <v>      -7.95123793      -1.76763567     -37.90181532 </v>
  </varray>
  <energy>
   <i name="e_fr_energy">   -350.92818541 </i>
   <i name="e_wo_entrp">   -349.52161260 </i>
   <i name="e_0_energy">   -350.22489901 </i>
  </energy>
  <time name="totalsc">  119.10  119.48</time>
  <eigenvalues>
   <array>
    <dimension dim="1">band</dimension>
    <dimension dim="2">kpoint</dimension>
    <dimension dim="3">spin</dimension>
    <field>eigene</field>
    <field>occ</field>
    <set>
     <set comment="spin 1">
      <set comment="kpoint 1">
       <r>  -64.4792    1.0000 </r>
       <r>  -64.4700    1.0000 </r>
       <r>  -64.4639    1.0000 </r>
       <r>  -64.4541    1.0000 </r>
       <r>  -64.4347    1.0000 </r>
       <r>  -64.4206    1.0000 </r>
       <r>  -64.4179    1.0000 </r>
       <r>  -64.4120    1.0000 </r>
       <r>  -64.4041    1.0000 </r>
       <r>  -64.4034    1.0000 </r>
       <r>  -64.4023    1.0000 </r>
       <r>  -64.3902    1.0000 </r>
       <r>  -64.3811    1.0000 </r>
       <r>  -64.3804    1.0000 </r>
       <r>  -64.3562    1.0000 </r>
       <r>  -64.3558    1.0000 </r>
       <r>  -64.3542    1.0000 </r>
       <r>  -64.3533    1.0000 </r>
       <r>  -64.3449    1.0000 </r>
       <r>  -64.3444    1.0000 </r>
       <r>  -64.3414    1.0000 </r>
       <r>  -64.3352    1.0000 </r>
       <r>  -64.3333    1.0000 </r>
       <r>  -64.3199    1.0000 </r>
       <r>  -64.3126    1.0000 </r>
       <r>  -64.3062    1.0000 </r>
       <r>  -64.2936    1.0000 </r>
       <r>  -64.2926    1.0000 </r>
       <r>  -64.2912    1.0000 </r>
       <r>  -64.2881    1.0000 </r>
       <r>  -64.2818    1.0000 </r>
       <r>  -64.2699    1.0000 </r>
       <r>  -64.2631    1.0000 </r>
       <r>  -64.2599    1.0000 </r>
       <r>  -64.2591    1.0000 </r>
       <r>  -64.2174    1.0000 </r>
       <r>  -64.2108    1.0000 </r>
       <r>  -64.2075    1.0000 </r>
       <r>  -64.2066    1.0000 </r>
       <r>  -64.1964    1.0000 </r>
       <r>  -64.1849    1.0000 </r>
       <r>  -64.1845    1.0000 </r>
       <r>  -64.1791    1.0000 </r>
       <r>  -64.1658    1.0000 </r>
       <r>  -64.1547    1.0000 </r>
       <r>  -64.1541    1.0000 </r>
       <r>  -64.1519    1.0000 </r>
       <r>  -64.1392    1.0000 </r>
       <r>  -64.1354    1.0000 </r>
       <r>  -64.1254    1.0000 </r>
       <r>  -64.0999    1.0000 </r>
       <r>  -64.0871    1.0000 </r>
       <r>  -64.0843    1.0000 </r>
       <r>  -64.0709    1.0000 </r>
       <r>  -64.0652    1.0000 </r>
       <r>  -64.0362    1.0000 </r>
       <r>  -64.0235    1.0000 </r>
       <r>  -63.9970    1.0000 </r>
       <r>  -63.9659    1.0000 </r>
       <r>  -63.9378    1.0000 </r>
       <r>  -63.9206    1.0000 </r>
       <r>  -63.9194    1.0000 </r>
       <r>  -63.9090    1.0000 </r>
       <r>  -63.8910    1.0000 </r>
       <r>  -63.8704    1.0000 </r>
       <r>  -63.8422    1.0000 </r>
       <r>  -63.8226    1.0000 </r>
       <r>  -63.8143    1.0000 </r>
       <r>  -63.7920    1.0000 </r>
       <r>  -63.7806    1.0000 </r>
       <r>  -63.7516    1.0000 </r>
       <r>  -63.7461    1.0000 </r>
       <r>  -63.7034    1.0000 </r>
       <r>  -63.6959    1.0000 </r>
       <r>  -63.6799    1.0000 </r>
       <r>  -63.6794    1.0000 </r>
       <r>  -63.6713    1.0000 </r>
       <r>  -63.6695    1.0000 </r>
       <r>  -63.6607    1.0000 </r>
       <r>  -63.6500    1.0000 </r>
       <r>  -63.6431    1.0000 </r>
       <r>  -63.6267    1.0000 </r>
       <r>  -63.6033    1.0000 </r>
       <r>  -63.5903    1.0000 </r>
       <r>  -63.5874    1.0000 </r>
       <r>  -63.5290    1.0000 </r>
       <r>  -63.4824    1.0000 </r>
       <r>  -63.4749    1.0000 </r>
       <r>  -63.4675    1.0000 </r>
       <r>  -63.4461    1.0000 </r>
       <r>  -63.3947    1.0000 </r>
       <r>  -63.3446    1.0000 </r>
       <r>  -63.3371    1.0000 </r>
       <r>  -63.3206    1.0000 </r>
       <r>  -63.3200    1.0000 </r>
       <r>  -63.3109    1.0000 </r>
       <r>  -63.2238    1.0000 </r>
       <r>  -63.2165    1.0000 </r>
       <r>  -63.1920    1.0000 </r>
       <r>  -63.1884    1.0000 </r>
       <r>  -63.1290    1.0000 </r>
       <r>  -63.1043    1.0000 </r>
       <r>  -63.0893    1.0000 </r>
       <r>  -63.0802    1.0000 </r>
       <r>  -63.0741    1.0000 </r>
       <r>  -63.0436    1.0000 </r>
       <r>  -63.0384    1.0000 </r>
       <r>  -63.0195    1.0000 </r>
       <r>  -62.9157    1.0000 </r>
       <r>  -62.8736    1.0000 </r>
       <r>  -62.5546    1.0000 </r>
       <r>  -15.2848    1.0000 </r>
       <r>  -15.0276    1.0000 </r>
       <r>  -14.9126    1.0000 </r>
       <r>  -14.6193    1.0000 </r>
       <r>  -14.4769    1.0000 </r>
       <r>  -14.3934    1.0000 </r>
       <r>  -14.2790    1.0000 </r>
       <r>  -14.1626    1.0000 </r>
       <r>  -14.1215    1.0000 </r>
       <r>  -14.0623    1.0000 </r>
       <r>  -14.0275    1.0000 </r>
       <r>  -13.9498    1.0000 </r>
       <r>  -13.8646    1.0000 </r>
       <r>  -13.8244    1.0000 </r>
       <r>  -13.7276    1.0000 </r>
       <r>  -13.7084    1.0000 </r>
       <r>  -13.6553    1.0000 </r>
       <r>  -13.5983    1.0000 </r>
       <r>  -13.3962    1.0000 </r>
       <r>  -13.3263    1.0000 </r>
       <r>  -13.2850    1.0000 </r>
       <r>  -13.2778    1.0000 </r>
       <r>  -13.1319    1.0000 </r>
       <r>  -13.0728    1.0000 </r>
       <r>  -12.9482    1.0000 </r>
       <r>  -12.8474    1.0000 </r>
       <r>  -12.8137    1.0000 </r>
       <r>  -12.7934    1.0000 </r>
       <r>  -12.7196    1.0000 </r>
       <r>  -12.6251    1.0000 </r>
       <r>  -12.5338    1.0000 </r>
       <r>  -12.5053    1.0000 </r>
       <r>  -12.1591    1.0000 </r>
       <r>  -12.0832    1.0000 </r>
       <r>  -11.8838    1.0000 </r>
       <r>  -11.8401    1.0000 </r>
       <r>  -11.8148    1.0000 </r>
       <r>   -7.0512    1.0000 </r>
       <r>   -6.9884    1.0000 </r>
       <r>   -6.9420    1.0000 </r>
       <r>   -6.8386    1.0000 </r>
       <r>   -6.8241    1.0000 </r>
       <r>   -6.7278    1.0000 </r>
       <r>   -6.5279    1.0000 </r>
       <r>   -6.4804    1.0000 </r>
       <r>   -6.4367    1.0000 </r>
       <r>   -6.4178    1.0000 </r>
       <r>   -6.3777    1.0000 </r>
       <r>   -6.3441    1.0000 </r>
       <r>   -6.2640    1.0000 </r>
       <r>   -6.2118    1.0000 </r>
       <r>   -6.1283    1.0000 </r>
       <r>   -6.0617    1.0000 </r>
       <r>   -6.0516    1.0000 </r>
       <r>   -6.0114    1.0000 </r>
       <r>   -5.9823    1.0000 </r>
       <r>   -5.9569    1.0000 </r>
       <r>   -5.8957    1.0000 </r>
       <r>   -5.8546    1.0000 </r>
       <r>   -5.7818    1.0000 </r>
       <r>   -5.7554    1.0000 </r>
       <r>   -5.6832    1.0000 </r>
       <r>   -5.6553    1.0000 </r>
       <r>   -5.6283    1.0000 </r>
       <r>   -5.6182    1.0000 </r>
       <r>   -5.5921    1.0000 </r>
       <r>   -5.5409    1.0000 </r>
       <r>   -5.5077    1.0000 </r>
       <r>   -5.4615    1.0000 </r>
       <r>   -5.4301    1.0000 </r>
       <r>   -5.3585    1.0000 </r>
       <r>   -5.3274    1.0000 </r>
       <r>   -5.2773    1.0000 </r>
       <r>   -5.2533    1.0000 </r>
       <r>   -5.2006    1.0000 </r>
       <r>   -5.1377    1.0000 </r>
       <r>   -5.0631    1.0000 </r>
       <r>   -5.0098    1.0000 </r>
       <r>   -4.9918    1.0000 </r>
       <r>   -4.9216    1.0000 </r>
       <r>   -4.8779    1.0000 </r>
       <r>   -4.8441    1.0000 </r>
       <r>   -4.8225    1.0000 </r>
       <r>   -4.7458    1.0000 </r>
       <r>   -4.6987    1.0000 </r>
       <r>   -4.6866    1.0000 </r>
       <r>   -4.6366    1.0000 </r>
       <r>   -4.6271    1.0000 </r>
       <r>   -4.5938    1.0000 </r>
       <r>   -4.5582    1.0000 </r>
       <r>   -4.5178    1.0000 </r>
       <r>   -4.4949    1.0000 </r>
       <r>   -4.4781    1.0000 </r>
       <r>   -4.4435    1.0000 </r>
       <r>   -4.3783    1.0000 </r>
       <r>   -4.3735    1.0000 </r>
       <r>   -4.2999    1.0000 </r>
       <r>   -4.2504    1.0000 </r>
       <r>   -4.2144    1.0000 </r>
       <r>   -4.1675    1.0000 </r>
       <r>   -4.1637    1.0000 </r>
       <r>   -4.1149    1.0000 </r>
       <r>   -4.0971    1.0000 </r>
       <r>   -4.0762    1.0000 </r>
       <r>   -4.0505    1.0000 </r>
       <r>   -4.0074    1.0000 </r>
       <r>   -3.9920    1.0000 </r>
       <r>   -3.9638    1.0000 </r>
       <r>   -3.9514    1.0000 </r>
       <r>   -3.9251    1.0000 </r>
       <r>   -3.9059    1.0000 </r>
       <r>   -3.8757    1.0000 </r>
       <r>   -3.8457    1.0000 </r>
       <r>   -3.7999    1.0000 </r>
       <r>   -3.7487    1.0000 </r>
       <r>   -3.7253    1.0000 </r>
       <r>   -3.7083    1.0000 </r>
       <r>   -3.6785    1.0000 </r>
       <r>   -3.6411    1.0000 </r>
       <r>   -3.6042    1.0000 </r>
       <r>   -3.5555    1.0000 </r>
       <r>   -3.5142    1.0000 </r>
       <r>   -3.4868    1.0000 </r>
       <r>   -3.4751    1.0000 </r>
       <r>   -3.4403    1.0000 </r>
       <r>   -3.3996    1.0000 </r>
       <r>   -3.3505    1.0000 </r>
       <r>   -3.3106    1.0000 </r>
       <r>   -3.2907    1.0000 </r>
       <r>   -3.2797    1.0000 </r>
       <r>   -3.2322    1.0000 </r>
       <r>   -3.2140    1.0000 </r>
       <r>   -3.1746    1.0000 </r>
       <r>   -3.1573    1.0000 </r>
       <r>   -3.1032    1.0000 </r>
       <r>   -3.0796    1.0000 </r>
       <r>   -3.0620    1.0000 </r>
       <r>   -2.9971    1.0000 </r>
       <r>   -2.9519    1.0000 </r>
       <r>   -2.9310    1.0000 </r>
       <r>   -2.9006    1.0000 </r>
       <r>   -2.8889    1.0000 </r>
       <r>   -2.8383    1.0000 </r>
       <r>   -2.8016    1.0000 </r>
       <r>   -2.7739    1.0000 </r>
       <r>   -2.7603    1.0000 </r>
       <r>   -2.7085    1.0000 </r>
       <r>   -2.6679    1.0000 </r>
       <r>   -2.6415    1.0000 </r>
       <r>   -2.6221    1.0000 </r>
       <r>   -2.5840    1.0000 </r>
       <r>   -2.5724    1.0000 </r>
       <r>   -2.5462    1.0000 </r>
       <r>   -2.5269    1.0000 </r>
       <r>   -2.5150    1.0000 </r>
       <r>   -2.5014    1.0000 </r>
       <r>   -2.4644    1.0000 </r>
       <r>   -2.4574    1.0000 </r>
       <r>   -2.4311    1.0000 </r>
       <r>   -2.3913    1.0000 </r>
       <r>   -2.3832    1.0000 </r>
       <r>   -2.3657    1.0000 </r>
       <r>   -2.3557    1.0000 </r>
       <r>   -2.3444    1.0000 </r>
       <r>   -2.3087    1.0000 </r>
       <r>   -2.2992    1.0000 </r>
       <r>   -2.2859    1.0000 </r>
       <r>   -2.2659    1.0000 </r>
       <r>   -2.2554    1.0000 </r>
       <r>   -2.2448    1.0000 </r>
       <r>   -2.2389    1.0000 </r>
       <r>   -2.2176    1.0000 </r>
       <r>   -2.2106    1.0000 </r>
       <r>   -2.1882    1.0000 </r>
       <r>   -2.1822    1.0000 </r>
       <r>   -2.1700    1.0000 </r>
       <r>   -2.1483    1.0000 </r>
       <r>   -2.1356    1.0000 </r>
       <r>   -2.1184    1.0000 </r>
       <r>   -2.1074    1.0000 </r>
       <r>   -2.0970    1.0000 </r>
       <r>   -2.0716    1.0000 </r>
       <r>   -2.0630    1.0000 </r>
       <r>   -2.0525    1.0000 </r>
       <r>   -2.0418    1.0000 </r>
       <r>   -2.0292    1.0000 </r>
       <r>   -2.0200    1.0000 </r>
       <r>   -1.9990    1.0000 </r>
       <r>   -1.9870    1.0000 </r>
       <r>   -1.9803    1.0000 </r>
       <r>   -1.9696    1.0000 </r>
       <r>   -1.9560    1.0000 </r>
       <r>   -1.9529    1.0000 </r>
       <r>   -1.9448    1.0000 </r>
       <r>   -1.9239    1.0000 </r>
       <r>   -1.9200    1.0000 </r>
       <r>   -1.9111    1.0000 </r>
       <r>   -1.9018    1.0000 </r>
       <r>   -1.8967    1.0000 </r>
       <r>   -1.8825    1.0000 </r>
       <r>   -1.8617    1.0000 </r>
       <r>   -1.8576    1.0000 </r>
       <r>   -1.8479    1.0000 </r>
       <r>   -1.8445    1.0000 </r>
       <r>   -1.8337    1.0000 </r>
       <r>   -1.8248    1.0000 </r>
       <r>   -1.8028    1.0000 </r>
       <r>   -1.7802    1.0000 </r>
       <r>   -1.7626    1.0000 </r>
       <r>   -1.7558    1.0000 </r>
       <r>   -1.7325    1.0000 </r>
       <r>   -1.7231    1.0000 </r>
       <r>   -1.7092    1.0000 </r>
       <r>   -1.7019    1.0000 </r>
       <r>   -1.6855    1.0000 </r>
       <r>   -1.6829    1.0000 </r>
       <r>   -1.6633    1.0000 </r>
       <r>   -1.6492    1.0000 </r>
       <r>   -1.6355    1.0000 </r>
       <r>   -1.6259    1.0000 </r>
       <r>   -1.6168    1.0000 </r>
       <r>   -1.5953    1.0000 </r>
       <r>   -1.5761    1.0000 </r>
       <r>   -1.5744    1.0000 </r>
       <r>   -1.5518    1.0000 </r>
       <r>   -1.5474    1.0000 </r>
       <r>   -1.5439    1.0000 </r>
       <r>   -1.5294    1.0000 </r>
       <r>   -1.5259    1.0000 </r>
       <r>   -1.4991    1.0000 </r>
       <r>   -1.4952    1.0000 </r>
       <r>   -1.4770    1.0000 </r>
       <r>   -1.4696    1.0000 </r>
       <r>   -1.4630    1.0000 </r>
       <r>   -1.4489    1.0000 </r>
       <r>   -1.4288    1.0000 </r>
       <r>   -1.4115    1.0000 </r>
       <r>   -1.3989    1.0000 </r>
       <r>   -1.3811    1.0000 </r>
       <r>   -1.3623    1.0000 </r>
       <r>   -1.3477    1.0000 </r>
       <r>   -1.3298    1.0000 </r>
       <r>   -1.3179    1.0000 </r>
       <r>   -1.3134    1.0000 </r>
       <r>   -1.2913    1.0000 </r>
       <r>   -1.2784    1.0000 </r>
       <r>   -1.2559    1.0000 </r>
       <r>   -1.2299    1.0000 </r>
       <r>   -1.2108    1.0000 </r>
       <r>   -1.1925    1.0000 </r>
       <r>   -1.1777    1.0000 </r>
       <r>   -1.1612    1.0000 </r>
       <r>   -1.1209    1.0000 </r>
       <r>   -1.1056    1.0000 </r>
       <r>   -1.0930    1.0000 </r>
       <r>   -1.0700    1.0000 </r>
       <r>   -1.0663    1.0000 </r>
       <r>   -1.0547    1.0000 </r>
       <r>   -1.0291    1.0000 </r>
       <r>   -1.0146    1.0000 </r>
       <r>   -1.0041    1.0000 </r>
       <r>   -0.9942    1.0000 </r>
       <r>   -0.9848    1.0000 </r>
       <r>   -0.9612    1.0000 </r>
       <r>   -0.9557    1.0000 </r>
       <r>   -0.9479    1.0000 </r>
       <r>   -0.9262    1.0000 </r>
       <r>   -0.9219    1.0000 </r>
       <r>   -0.9048    1.0000 </r>
       <r>   -0.8831    1.0000 </r>
       <r>   -0.8710    0.9999 </r>
       <r>   -0.8495    0.9999 </r>
       <r>   -0.8249    0.9998 </r>
       <r>   -0.8155    0.9997 </r>
       <r>   -0.7958    0.9995 </r>
       <r>   -0.7754    0.9992 </r>
       <r>   -0.7641    0.9989 </r>
       <r>   -0.7290    0.9976 </r>
       <r>   -0.7199    0.9971 </r>
       <r>   -0.7086    0.9963 </r>
       <r>   -0.7005    0.9956 </r>
       <r>   -0.6687    0.9918 </r>
       <r>   -0.6502    0.9883 </r>
       <r>   -0.6390    0.9857 </r>
       <r>   -0.6311    0.9835 </r>
       <r>   -0.6162    0.9787 </r>
       <r>   -0.5986    0.9715 </r>
       <r>   -0.5900    0.9673 </r>
       <r>   -0.5369    0.9288 </r>
       <r>   -0.5268    0.9185 </r>
       <r>   -0.4868    0.8670 </r>
       <r>   -0.4723    0.8436 </r>
       <r>   -0.4078    0.7100 </r>
       <r>   -0.3957    0.6802 </r>
       <r>   -0.3761    0.6291 </r>
       <r>   -0.3455    0.5451 </r>
       <r>   -0.3214    0.4772 </r>
       <r>   -0.2941    0.4012 </r>
       <r>   -0.2791    0.3606 </r>
       <r>   -0.2307    0.2423 </r>
       <r>   -0.2136    0.2062 </r>
       <r>   -0.1889    0.1600 </r>
       <r>   -0.1291    0.0782 </r>
       <r>   -0.0769    0.0370 </r>
       <r>   -0.0654    0.0309 </r>
       <r>   -0.0362    0.0190 </r>
       <r>    0.0118    0.0079 </r>
       <r>    0.0654    0.0026 </r>
       <r>    0.0846    0.0017 </r>
       <r>    0.0898    0.0015 </r>
       <r>    0.1217    0.0007 </r>
       <r>    0.2300    0.0000 </r>
       <r>    0.2429    0.0000 </r>
       <r>    0.2588    0.0000 </r>
       <r>    0.2842    0.0000 </r>
       <r>    0.3182    0.0000 </r>
       <r>    0.3740    0.0000 </r>
       <r>    0.3902    0.0000 </r>
       <r>    0.3941    0.0000 </r>
       <r>    0.4901    0.0000 </r>
       <r>    0.5015    0.0000 </r>
       <r>    0.5481    0.0000 </r>
       <r>    0.5918    0.0000 </r>
       <r>    0.6297    0.0000 </r>
       <r>    0.6859    0.0000 </r>
       <r>    0.7097    0.0000 </r>
       <r>    0.7564    0.0000 </r>
       <r>    0.7634    0.0000 </r>
       <r>    0.7915    0.0000 </r>
       <r>    0.8176    0.0000 </r>
       <r>    0.8406    0.0000 </r>
       <r>    0.8531    0.0000 </r>
       <r>    0.8615    0.0000 </r>
       <r>    0.8949    0.0000 </r>
       <r>    0.9521    0.0000 </r>
       <r>    0.9665    0.0000 </r>
       <r>    1.1220    0.0000 </r>
       <r>    1.6147    0.0000 </r>
       <r>    1.6417    0.0000 </r>
       <r>    2.2489    0.0000 </r>
       <r>    2.3676    0.0000 </r>
       <r>    2.4347    0.0000 </r>
       <r>    2.4431    0.0000 </r>
       <r>    2.6369    0.0000 </r>
       <r>    2.7448    0.0000 </r>
       <r>    3.1134    0.0000 </r>
       <r>    3.4879    0.0000 </r>
       <r>    3.5602    0.0000 </r>
       <r>    3.7351    0.0000 </r>
       <r>    3.8589    0.0000 </r>
       <r>    3.8766    0.0000 </r>
       <r>    4.0403    0.0000 </r>
       <r>    4.1253    0.0000 </r>
       <r>    4.1770    0.0000 </r>
       <r>    4.2075    0.0000 </r>
       <r>    4.3200    0.0000 </r>
       <r>    4.3476    0.0000 </r>
       <r>    4.4293    0.0000 </r>
       <r>    4.4764    0.0000 </r>
       <r>    4.5486    0.0000 </r>
       <r>    4.6054    0.0000 </r>
       <r>    4.6911    0.0000 </r>
       <r>    4.7527    0.0000 </r>
       <r>    4.7749    0.0000 </r>
       <r>    4.8360    0.0000 </r>
       <r>    4.8504    0.0000 </r>
       <r>    4.9591    0.0000 </r>
       <r>    4.9988    0.0000 </r>
       <r>    5.1177    0.0000 </r>
       <r>    5.1695    0.0000 </r>
       <r>    5.1895    0.0000 </r>
       <r>    5.2181    0.0000 </r>
       <r>    5.2588    0.0000 </r>
       <r>    5.2851    0.0000 </r>
       <r>    5.3335    0.0000 </r>
       <r>    5.3901    0.0000 </r>
       <r>    5.4219    0.0000 </r>
      </set>
     </set>
    </set>
   </array>
  </eigenvalues>
  <separator name="orbital magnetization" >
   <v name="MAGDIPOLOUT">      0.00000000      0.00000000      0.00000000</v>
  </separator>
  <dos>
   <i name="efermi">     -0.32950597 </i>
   <total>
    <array>
     <dimension dim="1">gridpoints</dimension>
     <dimension dim="2">spin</dimension>
     <field>energy</field>
     <field>total</field>
     <field>integrated</field>
     <set>
      <set comment="spin 1">
       <r>   -67.9743     0.0000     0.0000 </r>
       <r>   -67.7180     0.0000     0.0000 </r>
       <r>   -67.4617     0.0000     0.0000 </r>
       <r>   -67.2054     0.0000     0.0000 </r>
       <r>   -66.9491     0.0000     0.0000 </r>
       <r>   -66.6928     0.0000     0.0000 </r>
       <r>   -66.4365     0.0000     0.0000 </r>
       <r>   -66.1802     0.0000     0.0000 </r>
       <r>   -65.9239     0.0000     0.0000 </r>
       <r>   -65.6676     0.0000     0.0000 </r>
       <r>   -65.4113     0.0000     0.0000 </r>
       <r>   -65.1549     0.0000     0.0000 </r>
       <r>   -64.8986     0.0607     0.0156 </r>
       <r>   -64.6423     8.9677     2.3140 </r>
       <r>   -64.3860   115.6227    31.9486 </r>
       <r>   -64.1297   225.4647    89.7361 </r>
       <r>   -63.8734   149.8029   128.1312 </r>
       <r>   -63.6171   122.5700   159.5464 </r>
       <r>   -63.3608    95.5316   184.0315 </r>
       <r>   -63.1045    79.0406   204.2899 </r>
       <r>   -62.8482    51.5659   217.5065 </r>
       <r>   -62.5919    12.5220   220.7159 </r>
       <r>   -62.3356     4.5353   221.8784 </r>
       <r>   -62.0793     0.4716   221.9992 </r>
       <r>   -61.8230     0.0030   222.0000 </r>
       <r>   -61.5667     0.0000   222.0000 </r>
       <r>   -61.3104     0.0000   222.0000 </r>
       <r>   -61.0541     0.0000   222.0000 </r>
       <r>   -60.7978     0.0000   222.0000 </r>
       <r>   -60.5415     0.0000   222.0000 </r>
       <r>   -60.2852     0.0000   222.0000 </r>
       <r>   -60.0289     0.0000   222.0000 </r>
       <r>   -59.7726     0.0000   222.0000 </r>
       <r>   -59.5163     0.0000   222.0000 </r>
       <r>   -59.2600     0.0000   222.0000 </r>
       <r>   -59.0037     0.0000   222.0000 </r>
       <r>   -58.7473     0.0000   222.0000 </r>
       <r>   -58.4910     0.0000   222.0000 </r>
       <r>   -58.2347     0.0000   222.0000 </r>
       <r>   -57.9784     0.0000   222.0000 </r>
       <r>   -57.7221     0.0000   222.0000 </r>
       <r>   -57.4658     0.0000   222.0000 </r>
       <r>   -57.2095     0.0000   222.0000 </r>
       <r>   -56.9532     0.0000   222.0000 </r>
       <r>   -56.6969     0.0000   222.0000 </r>
       <r>   -56.4406     0.0000   222.0000 </r>
       <r>   -56.1843     0.0000   222.0000 </r>
       <r>   -55.9280     0.0000   222.0000 </r>
       <r>   -55.6717     0.0000   222.0000 </r>
       <r>   -55.4154     0.0000   222.0000 </r>
       <r>   -55.1591     0.0000   222.0000 </r>
       <r>   -54.9028     0.0000   222.0000 </r>
       <r>   -54.6465     0.0000   222.0000 </r>
       <r>   -54.3902     0.0000   222.0000 </r>
       <r>   -54.1339     0.0000   222.0000 </r>
       <r>   -53.8776     0.0000   222.0000 </r>
       <r>   -53.6213     0.0000   222.0000 </r>
       <r>   -53.3650     0.0000   222.0000 </r>
       <r>   -53.1087     0.0000   222.0000 </r>
       <r>   -52.8524     0.0000   222.0000 </r>
       <r>   -52.5960     0.0000   222.0000 </r>
       <r>   -52.3397     0.0000   222.0000 </r>
       <r>   -52.0834     0.0000   222.0000 </r>
       <r>   -51.8271     0.0000   222.0000 </r>
       <r>   -51.5708     0.0000   222.0000 </r>
       <r>   -51.3145     0.0000   222.0000 </r>
       <r>   -51.0582     0.0000   222.0000 </r>
       <r>   -50.8019     0.0000   222.0000 </r>
       <r>   -50.5456     0.0000   222.0000 </r>
       <r>   -50.2893     0.0000   222.0000 </r>
       <r>   -50.0330     0.0000   222.0000 </r>
       <r>   -49.7767     0.0000   222.0000 </r>
       <r>   -49.5204     0.0000   222.0000 </r>
       <r>   -49.2641     0.0000   222.0000 </r>
       <r>   -49.0078     0.0000   222.0000 </r>
       <r>   -48.7515     0.0000   222.0000 </r>
       <r>   -48.4952     0.0000   222.0000 </r>
       <r>   -48.2389     0.0000   222.0000 </r>
       <r>   -47.9826     0.0000   222.0000 </r>
       <r>   -47.7263     0.0000   222.0000 </r>
       <r>   -47.4700     0.0000   222.0000 </r>
       <r>   -47.2137     0.0000   222.0000 </r>
       <r>   -46.9574     0.0000   222.0000 </r>
       <r>   -46.7011     0.0000   222.0000 </r>
       <r>   -46.4448     0.0000   222.0000 </r>
       <r>   -46.1884     0.0000   222.0000 </r>
       <r>   -45.9321     0.0000   222.0000 </r>
       <r>   -45.6758     0.0000   222.0000 </r>
       <r>   -45.4195     0.0000   222.0000 </r>
       <r>   -45.1632     0.0000   222.0000 </r>
       <r>   -44.9069     0.0000   222.0000 </r>
       <r>   -44.6506     0.0000   222.0000 </r>
       <r>   -44.3943     0.0000   222.0000 </r>
       <r>   -44.1380     0.0000   222.0000 </r>
       <r>   -43.8817     0.0000   222.0000 </r>
       <r>   -43.6254     0.0000   222.0000 </r>
       <r>   -43.3691     0.0000   222.0000 </r>
       <r>   -43.1128     0.0000   222.0000 </r>
       <r>   -42.8565     0.0000   222.0000 </r>
       <r>   -42.6002     0.0000   222.0000 </r>
       <r>   -42.3439     0.0000   222.0000 </r>
       <r>   -42.0876     0.0000   222.0000 </r>
       <r>   -41.8313     0.0000   222.0000 </r>
       <r>   -41.5750     0.0000   222.0000 </r>
       <r>   -41.3187     0.0000   222.0000 </r>
       <r>   -41.0624     0.0000   222.0000 </r>
       <r>   -40.8061     0.0000   222.0000 </r>
       <r>   -40.5498     0.0000   222.0000 </r>
       <r>   -40.2935     0.0000   222.0000 </r>
       <r>   -40.0371     0.0000   222.0000 </r>
       <r>   -39.7808     0.0000   222.0000 </r>
       <r>   -39.5245     0.0000   222.0000 </r>
       <r>   -39.2682     0.0000   222.0000 </r>
       <r>   -39.0119     0.0000   222.0000 </r>
       <r>   -38.7556     0.0000   222.0000 </r>
       <r>   -38.4993     0.0000   222.0000 </r>
       <r>   -38.2430     0.0000   222.0000 </r>
       <r>   -37.9867     0.0000   222.0000 </r>
       <r>   -37.7304     0.0000   222.0000 </r>
       <r>   -37.4741     0.0000   222.0000 </r>
       <r>   -37.2178     0.0000   222.0000 </r>
       <r>   -36.9615     0.0000   222.0000 </r>
       <r>   -36.7052     0.0000   222.0000 </r>
       <r>   -36.4489     0.0000   222.0000 </r>
       <r>   -36.1926     0.0000   222.0000 </r>
       <r>   -35.9363     0.0000   222.0000 </r>
       <r>   -35.6800     0.0000   222.0000 </r>
       <r>   -35.4237     0.0000   222.0000 </r>
       <r>   -35.1674     0.0000   222.0000 </r>
       <r>   -34.9111     0.0000   222.0000 </r>
       <r>   -34.6548     0.0000   222.0000 </r>
       <r>   -34.3985     0.0000   222.0000 </r>
       <r>   -34.1422     0.0000   222.0000 </r>
       <r>   -33.8859     0.0000   222.0000 </r>
       <r>   -33.6295     0.0000   222.0000 </r>
       <r>   -33.3732     0.0000   222.0000 </r>
       <r>   -33.1169     0.0000   222.0000 </r>
       <r>   -32.8606     0.0000   222.0000 </r>
       <r>   -32.6043     0.0000   222.0000 </r>
       <r>   -32.3480     0.0000   222.0000 </r>
       <r>   -32.0917     0.0000   222.0000 </r>
       <r>   -31.8354     0.0000   222.0000 </r>
       <r>   -31.5791     0.0000   222.0000 </r>
       <r>   -31.3228     0.0000   222.0000 </r>
       <r>   -31.0665     0.0000   222.0000 </r>
       <r>   -30.8102     0.0000   222.0000 </r>
       <r>   -30.5539     0.0000   222.0000 </r>
       <r>   -30.2976     0.0000   222.0000 </r>
       <r>   -30.0413     0.0000   222.0000 </r>
       <r>   -29.7850     0.0000   222.0000 </r>
       <r>   -29.5287     0.0000   222.0000 </r>
       <r>   -29.2724     0.0000   222.0000 </r>
       <r>   -29.0161     0.0000   222.0000 </r>
       <r>   -28.7598     0.0000   222.0000 </r>
       <r>   -28.5035     0.0000   222.0000 </r>
       <r>   -28.2472     0.0000   222.0000 </r>
       <r>   -27.9909     0.0000   222.0000 </r>
       <r>   -27.7346     0.0000   222.0000 </r>
       <r>   -27.4782     0.0000   222.0000 </r>
       <r>   -27.2219     0.0000   222.0000 </r>
       <r>   -26.9656     0.0000   222.0000 </r>
       <r>   -26.7093     0.0000   222.0000 </r>
       <r>   -26.4530     0.0000   222.0000 </r>
       <r>   -26.1967     0.0000   222.0000 </r>
       <r>   -25.9404     0.0000   222.0000 </r>
       <r>   -25.6841     0.0000   222.0000 </r>
       <r>   -25.4278     0.0000   222.0000 </r>
       <r>   -25.1715     0.0000   222.0000 </r>
       <r>   -24.9152     0.0000   222.0000 </r>
       <r>   -24.6589     0.0000   222.0000 </r>
       <r>   -24.4026     0.0000   222.0000 </r>
       <r>   -24.1463     0.0000   222.0000 </r>
       <r>   -23.8900     0.0000   222.0000 </r>
       <r>   -23.6337     0.0000   222.0000 </r>
       <r>   -23.3774     0.0000   222.0000 </r>
       <r>   -23.1211     0.0000   222.0000 </r>
       <r>   -22.8648     0.0000   222.0000 </r>
       <r>   -22.6085     0.0000   222.0000 </r>
       <r>   -22.3522     0.0000   222.0000 </r>
       <r>   -22.0959     0.0000   222.0000 </r>
       <r>   -21.8396     0.0000   222.0000 </r>
       <r>   -21.5833     0.0000   222.0000 </r>
       <r>   -21.3270     0.0000   222.0000 </r>
       <r>   -21.0706     0.0000   222.0000 </r>
       <r>   -20.8143     0.0000   222.0000 </r>
       <r>   -20.5580     0.0000   222.0000 </r>
       <r>   -20.3017     0.0000   222.0000 </r>
       <r>   -20.0454     0.0000   222.0000 </r>
       <r>   -19.7891     0.0000   222.0000 </r>
       <r>   -19.5328     0.0000   222.0000 </r>
       <r>   -19.2765     0.0000   222.0000 </r>
       <r>   -19.0202     0.0000   222.0000 </r>
       <r>   -18.7639     0.0000   222.0000 </r>
       <r>   -18.5076     0.0000   222.0000 </r>
       <r>   -18.2513     0.0000   222.0000 </r>
       <r>   -17.9950     0.0000   222.0000 </r>
       <r>   -17.7387     0.0000   222.0000 </r>
       <r>   -17.4824     0.0000   222.0000 </r>
       <r>   -17.2261     0.0000   222.0000 </r>
       <r>   -16.9698     0.0000   222.0000 </r>
       <r>   -16.7135     0.0000   222.0000 </r>
       <r>   -16.4572     0.0000   222.0000 </r>
       <r>   -16.2009     0.0000   222.0000 </r>
       <r>   -15.9446     0.0000   222.0000 </r>
       <r>   -15.6883     0.0169   222.0043 </r>
       <r>   -15.4320     1.1639   222.3026 </r>
       <r>   -15.1757     6.3028   223.9181 </r>
       <r>   -14.9193    10.2451   226.5439 </r>
       <r>   -14.6630     9.2754   228.9213 </r>
       <r>   -14.4067    14.7033   232.6898 </r>
       <r>   -14.1504    22.9758   238.5786 </r>
       <r>   -13.8941    31.1650   246.5663 </r>
       <r>   -13.6378    31.1142   254.5410 </r>
       <r>   -13.3815    23.7566   260.6299 </r>
       <r>   -13.1252    26.0604   267.3093 </r>
       <r>   -12.8689    25.2341   273.7769 </r>
       <r>   -12.6126    28.8694   281.1762 </r>
       <r>   -12.3563    17.4355   285.6450 </r>
       <r>   -12.1000    10.9784   288.4588 </r>
       <r>   -11.8437    17.4261   292.9252 </r>
       <r>   -11.5874    11.1448   295.7817 </r>
       <r>   -11.3311     0.8477   295.9990 </r>
       <r>   -11.0748     0.0040   296.0000 </r>
       <r>   -10.8185     0.0000   296.0000 </r>
       <r>   -10.5622     0.0000   296.0000 </r>
       <r>   -10.3059     0.0000   296.0000 </r>
       <r>   -10.0496     0.0000   296.0000 </r>
       <r>    -9.7933     0.0000   296.0000 </r>
       <r>    -9.5370     0.0000   296.0000 </r>
       <r>    -9.2807     0.0000   296.0000 </r>
       <r>    -9.0244     0.0000   296.0000 </r>
       <r>    -8.7681     0.0000   296.0000 </r>
       <r>    -8.5117     0.0000   296.0000 </r>
       <r>    -8.2554     0.0000   296.0000 </r>
       <r>    -7.9991     0.0000   296.0000 </r>
       <r>    -7.7428     0.0000   296.0000 </r>
       <r>    -7.4865     0.0103   296.0026 </r>
       <r>    -7.2302     1.3340   296.3446 </r>
       <r>    -6.9739    14.3822   300.0308 </r>
       <r>    -6.7176    24.8796   306.4075 </r>
       <r>    -6.4613    26.6689   313.2428 </r>
       <r>    -6.2050    38.4391   323.0949 </r>
       <r>    -5.9487    43.1966   334.1664 </r>
       <r>    -5.6924    47.7743   346.4112 </r>
       <r>    -5.4361    52.1477   359.7769 </r>
       <r>    -5.1798    44.0999   371.0798 </r>
       <r>    -4.9235    41.0686   381.6059 </r>
       <r>    -4.6672    50.4099   394.5261 </r>
       <r>    -4.4109    58.1459   409.4292 </r>
       <r>    -4.1546    56.7703   423.9796 </r>
       <r>    -3.8983    70.2087   441.9744 </r>
       <r>    -3.6420    64.0402   458.3881 </r>
       <r>    -3.3857    59.7671   473.7067 </r>
       <r>    -3.1294    62.1052   489.6245 </r>
       <r>    -2.8731    60.3715   505.0980 </r>
       <r>    -2.6168    68.9231   522.7632 </r>
       <r>    -2.3604    97.8649   547.8464 </r>
       <r>    -2.1041   136.3231   582.7866 </r>
       <r>    -1.8478   165.3521   625.1670 </r>
       <r>    -1.5915   160.9387   666.4162 </r>
       <r>    -1.3352   144.9739   703.5736 </r>
       <r>    -1.0789   121.5962   734.7392 </r>
       <r>    -0.8226   126.3018   767.1109 </r>
       <r>    -0.5663   109.2389   795.1093 </r>
       <r>    -0.3100    79.0096   815.3597 </r>
       <r>    -0.0537    62.4838   831.3746 </r>
       <r>     0.2026    56.4456   845.8418 </r>
       <r>     0.4589    56.0294   860.2024 </r>
       <r>     0.7152    56.4188   874.6628 </r>
       <r>     0.9715    58.8993   889.7589 </r>
       <r>     1.2278    21.9655   895.3888 </r>
       <r>     1.4841     4.7644   896.6099 </r>
       <r>     1.7404     9.8754   899.1410 </r>
       <r>     1.9967     3.6164   900.0679 </r>
       <r>     2.2530     6.8599   901.8261 </r>
       <r>     2.5093    19.5766   906.8437 </r>
       <r>     2.7656    15.1289   910.7213 </r>
       <r>     3.0219     6.7923   912.4622 </r>
       <r>     3.2782     5.7724   913.9417 </r>
       <r>     3.5345     9.2230   916.3056 </r>
       <r>     3.7908    16.1756   920.4515 </r>
       <r>     4.0472    21.2280   925.8923 </r>
       <r>     4.3035    28.6577   933.2374 </r>
       <r>     4.5598    31.8607   941.4034 </r>
       <r>     4.8161    34.4948   950.2446 </r>
       <r>     5.0724    34.4309   959.0694 </r>
       <r>     5.3287    41.0141   969.5815 </r>
       <r>     5.5850    22.8326   975.4335 </r>
       <r>     5.8413     2.1909   975.9951 </r>
       <r>     6.0976     0.0192   976.0000 </r>
       <r>     6.3539     0.0000   976.0000 </r>
       <r>     6.6102     0.0000   976.0000 </r>
       <r>     6.8665     0.0000   976.0000 </r>
       <r>     7.1228     0.0000   976.0000 </r>
       <r>     7.3791     0.0000   976.0000 </r>
       <r>     7.6354     0.0000   976.0000 </r>
       <r>     7.8917     0.0000   976.0000 </r>
       <r>     8.1480     0.0000   976.0000 </r>
       <r>     8.4043     0.0000   976.0000 </r>
       <r>     8.6606     0.0000   976.0000 </r>
       <r>     8.9169     0.0000   976.0000 </r>
      </set>
     </set>
    </array>
   </total>
  </dos>
 </calculation>
 <structure name="finalpos" >
  <crystal>
   <varray name="basis" >
    <v>      16.88469405       0.00000000       0.00000000 </v>
    <v>       0.00000000       9.57841000       0.00000000 </v>
    <v>       0.00000000       0.00000000      16.65464569 </v>
   </varray>
   <i name="volume">   2693.53123734 </i>
   <varray name="rec_basis" >
    <v>       0.05922524       0.00000000       0.00000000 </v>
    <v>       0.00000000       0.10440146       0.00000000 </v>
    <v>       0.00000000       0.00000000       0.06004331 </v>
   </varray>
  </crystal>
  <varray name="positions" >
   <v>       0.78004630       0.14529696       0.12347080 </v>
   <v>       0.81461426       0.14529696       0.30867699 </v>
   <v>       0.26276233       0.64529696       0.03086770 </v>
   <v>       0.29733028       0.64529696       0.21607389 </v>
   <v>       0.43519032       0.14529696       0.06173540 </v>
   <v>       0.46975828       0.14529696       0.24694159 </v>
   <v>       0.95247430       0.64529696       0.15433850 </v>
   <v>       0.98704225       0.64529696       0.33954469 </v>
   <v>       0.09033433       0.14529696       0.00000000 </v>
   <v>       0.12490229       0.14529696       0.18520619 </v>
   <v>       0.15947025       0.14529696       0.37041239 </v>
   <v>       0.60761831       0.64529696       0.09260310 </v>
   <v>       0.64218627       0.64529696       0.27780929 </v>
   <v>       0.90758277       0.01319396       0.09900450 </v>
   <v>       0.94215073       0.01319396       0.28421070 </v>
   <v>       0.39029880       0.51319396       0.00640140 </v>
   <v>       0.42486675       0.51319396       0.19160760 </v>
   <v>       0.45943471       0.51319396       0.37681380 </v>
   <v>       0.56272679       0.01319396       0.03726910 </v>
   <v>       0.59729475       0.01319396       0.22247530 </v>
   <v>       0.08001077       0.51319396       0.12987220 </v>
   <v>       0.11457872       0.51319396       0.31507840 </v>
   <v>       0.25243876       0.01319396       0.16073990 </v>
   <v>       0.28700672       0.01319396       0.34594610 </v>
   <v>       0.73515478       0.51319396       0.06813680 </v>
   <v>       0.76972274       0.51319396       0.25334300 </v>
   <v>       0.90758277       0.27739996       0.09900450 </v>
   <v>       0.39029880       0.77739996       0.00640140 </v>
   <v>       0.42486675       0.77739996       0.19160760 </v>
   <v>       0.56272679       0.27739996       0.03726910 </v>
   <v>       0.59729475       0.27739996       0.22247530 </v>
   <v>       0.08001077       0.77739996       0.12987220 </v>
   <v>       0.11457872       0.77739996       0.31507840 </v>
   <v>       0.25243876       0.27739996       0.16073990 </v>
   <v>       0.28700672       0.27739996       0.34594610 </v>
   <v>       0.73515478       0.77739996       0.06813680 </v>
   <v>       0.76972274       0.77739996       0.25334300 </v>
   <v>       0.02602916       0.14529696       0.36869923 </v>
   <v>       0.99146120       0.14529696       0.18349304 </v>
   <v>       0.47417722       0.64529696       0.09088994 </v>
   <v>       0.50874518       0.64529696       0.27609614 </v>
   <v>       0.64660522       0.14529696       0.12175764 </v>
   <v>       0.68117317       0.14529696       0.30696383 </v>
   <v>       0.12932124       0.64529696       0.02915454 </v>
   <v>       0.16388920       0.64529696       0.21436074 </v>
   <v>       0.19845715       0.64529696       0.39956693 </v>
   <v>       0.30174923       0.14529696       0.06002224 </v>
   <v>       0.33631719       0.14529696       0.24522844 </v>
   <v>       0.81903321       0.64529696       0.15262534 </v>
   <v>       0.85360117       0.64529696       0.33783153 </v>
   <v>       0.79449310       0.31351196       0.02944130 </v>
   <v>       0.82906105       0.31351196       0.21464750 </v>
   <v>       0.31177707       0.81351196       0.12204440 </v>
   <v>       0.34634503       0.81351196       0.30725060 </v>
   <v>       0.48420507       0.31351196       0.15291210 </v>
   <v>       0.51877302       0.31351196       0.33811830 </v>
   <v>       0.00148905       0.81351196       0.24551520 </v>
   <v>       0.96692109       0.81351196       0.06030900 </v>
   <v>       0.13934908       0.31351196       0.09117670 </v>
   <v>       0.17391704       0.31351196       0.27638290 </v>
   <v>       0.65663306       0.81351196       0.18377980 </v>
   <v>       0.69120102       0.81351196       0.36898599 </v>
   <v>       0.31177707       0.47708196       0.12204440 </v>
   <v>       0.34634503       0.47708196       0.30725060 </v>
   <v>       0.79449310       0.97708196       0.02944130 </v>
   <v>       0.82906105       0.97708196       0.21464750 </v>
   <v>       0.00148905       0.47708196       0.24551520 </v>
   <v>       0.96692109       0.47708196       0.06030900 </v>
   <v>       0.48420507       0.97708196       0.15291210 </v>
   <v>       0.51877302       0.97708196       0.33811830 </v>
   <v>       0.65663306       0.47708196       0.18377980 </v>
   <v>       0.69120102       0.47708196       0.36898599 </v>
   <v>       0.13934908       0.97708196       0.09117670 </v>
   <v>       0.17391704       0.97708196       0.27638290 </v>
  </varray>
 </structure>
</modeling>
