  72  72   0   0
  0.3631948E+02  0.1688469E-08  0.9578410E-09  0.1616909E-08  0.5000000E-15
  1.000000000000000E-004
  CAR 
 "Millerite NiS"                         
      9.26766483    -68.71131197  301     -0.26179263      1.00000000
    -68.711  0.0000E+00  0.0000E+00
    -68.451  0.0000E+00  0.0000E+00
    -68.191  0.0000E+00  0.0000E+00
    -67.932  0.0000E+00  0.0000E+00
    -67.672  0.0000E+00  0.0000E+00
    -67.412  0.0000E+00  0.0000E+00
    -67.152  0.0000E+00  0.0000E+00
    -66.892  0.0000E+00  0.0000E+00
    -66.632  0.0000E+00  0.0000E+00
    -66.372  0.0000E+00  0.0000E+00
    -66.112  0.1193E-09  0.3101E-10
    -65.852  0.7024E-05  0.1826E-05
    -65.592  0.1653E-01  0.4299E-02
    -65.332  0.1990E+01  0.5215E+00
    -65.072  0.2842E+02  0.7908E+01
    -64.812  0.1257E+03  0.4057E+02
    -64.552  0.2079E+03  0.9461E+02
    -64.293  0.2210E+03  0.1520E+03
    -64.033  0.1272E+03  0.1851E+03
    -63.773  0.5999E+02  0.2007E+03
    -63.513  0.4272E+02  0.2118E+03
    -63.253  0.1446E+02  0.2156E+03
    -62.993  0.1701E+01  0.2160E+03
    -62.733  0.2579E-01  0.2160E+03
    -62.473  0.2007E-04  0.2160E+03
    -62.213  0.6197E-09  0.2160E+03
    -61.953  0.8542E-15  0.2160E+03
    -61.693  0.0000E+00  0.2160E+03
    -61.433  0.0000E+00  0.2160E+03
    -61.173  0.0000E+00  0.2160E+03
    -60.913  0.0000E+00  0.2160E+03
    -60.653  0.0000E+00  0.2160E+03
    -60.394  0.0000E+00  0.2160E+03
    -60.134  0.0000E+00  0.2160E+03
    -59.874  0.0000E+00  0.2160E+03
    -59.614  0.0000E+00  0.2160E+03
    -59.354  0.0000E+00  0.2160E+03
    -59.094  0.0000E+00  0.2160E+03
    -58.834  0.0000E+00  0.2160E+03
    -58.574  0.0000E+00  0.2160E+03
    -58.314  0.0000E+00  0.2160E+03
    -58.054  0.0000E+00  0.2160E+03
    -57.794  0.0000E+00  0.2160E+03
    -57.534  0.0000E+00  0.2160E+03
    -57.274  0.0000E+00  0.2160E+03
    -57.014  0.0000E+00  0.2160E+03
    -56.755  0.0000E+00  0.2160E+03
    -56.495  0.0000E+00  0.2160E+03
    -56.235  0.0000E+00  0.2160E+03
    -55.975  0.0000E+00  0.2160E+03
    -55.715  0.0000E+00  0.2160E+03
    -55.455  0.0000E+00  0.2160E+03
    -55.195  0.0000E+00  0.2160E+03
    -54.935  0.0000E+00  0.2160E+03
    -54.675  0.0000E+00  0.2160E+03
    -54.415  0.0000E+00  0.2160E+03
    -54.155  0.0000E+00  0.2160E+03
    -53.895  0.0000E+00  0.2160E+03
    -53.635  0.0000E+00  0.2160E+03
    -53.375  0.0000E+00  0.2160E+03
    -53.116  0.0000E+00  0.2160E+03
    -52.856  0.0000E+00  0.2160E+03
    -52.596  0.0000E+00  0.2160E+03
    -52.336  0.0000E+00  0.2160E+03
    -52.076  0.0000E+00  0.2160E+03
    -51.816  0.0000E+00  0.2160E+03
    -51.556  0.0000E+00  0.2160E+03
    -51.296  0.0000E+00  0.2160E+03
    -51.036  0.0000E+00  0.2160E+03
    -50.776  0.0000E+00  0.2160E+03
    -50.516  0.0000E+00  0.2160E+03
    -50.256  0.0000E+00  0.2160E+03
    -49.996  0.0000E+00  0.2160E+03
    -49.736  0.0000E+00  0.2160E+03
    -49.476  0.0000E+00  0.2160E+03
    -49.217  0.0000E+00  0.2160E+03
    -48.957  0.0000E+00  0.2160E+03
    -48.697  0.0000E+00  0.2160E+03
    -48.437  0.0000E+00  0.2160E+03
    -48.177  0.0000E+00  0.2160E+03
    -47.917  0.0000E+00  0.2160E+03
    -47.657  0.0000E+00  0.2160E+03
    -47.397  0.0000E+00  0.2160E+03
    -47.137  0.0000E+00  0.2160E+03
    -46.877  0.0000E+00  0.2160E+03
    -46.617  0.0000E+00  0.2160E+03
    -46.357  0.0000E+00  0.2160E+03
    -46.097  0.0000E+00  0.2160E+03
    -45.837  0.0000E+00  0.2160E+03
    -45.578  0.0000E+00  0.2160E+03
    -45.318  0.0000E+00  0.2160E+03
    -45.058  0.0000E+00  0.2160E+03
    -44.798  0.0000E+00  0.2160E+03
    -44.538  0.0000E+00  0.2160E+03
    -44.278  0.0000E+00  0.2160E+03
    -44.018  0.0000E+00  0.2160E+03
    -43.758  0.0000E+00  0.2160E+03
    -43.498  0.0000E+00  0.2160E+03
    -43.238  0.0000E+00  0.2160E+03
    -42.978  0.0000E+00  0.2160E+03
    -42.718  0.0000E+00  0.2160E+03
    -42.458  0.0000E+00  0.2160E+03
    -42.198  0.0000E+00  0.2160E+03
    -41.939  0.0000E+00  0.2160E+03
    -41.679  0.0000E+00  0.2160E+03
    -41.419  0.0000E+00  0.2160E+03
    -41.159  0.0000E+00  0.2160E+03
    -40.899  0.0000E+00  0.2160E+03
    -40.639  0.0000E+00  0.2160E+03
    -40.379  0.0000E+00  0.2160E+03
    -40.119  0.0000E+00  0.2160E+03
    -39.859  0.0000E+00  0.2160E+03
    -39.599  0.0000E+00  0.2160E+03
    -39.339  0.0000E+00  0.2160E+03
    -39.079  0.0000E+00  0.2160E+03
    -38.819  0.0000E+00  0.2160E+03
    -38.559  0.0000E+00  0.2160E+03
    -38.300  0.0000E+00  0.2160E+03
    -38.040  0.0000E+00  0.2160E+03
    -37.780  0.0000E+00  0.2160E+03
    -37.520  0.0000E+00  0.2160E+03
    -37.260  0.0000E+00  0.2160E+03
    -37.000  0.0000E+00  0.2160E+03
    -36.740  0.0000E+00  0.2160E+03
    -36.480  0.0000E+00  0.2160E+03
    -36.220  0.0000E+00  0.2160E+03
    -35.960  0.0000E+00  0.2160E+03
    -35.700  0.0000E+00  0.2160E+03
    -35.440  0.0000E+00  0.2160E+03
    -35.180  0.0000E+00  0.2160E+03
    -34.920  0.0000E+00  0.2160E+03
    -34.660  0.0000E+00  0.2160E+03
    -34.401  0.0000E+00  0.2160E+03
    -34.141  0.0000E+00  0.2160E+03
    -33.881  0.0000E+00  0.2160E+03
    -33.621  0.0000E+00  0.2160E+03
    -33.361  0.0000E+00  0.2160E+03
    -33.101  0.0000E+00  0.2160E+03
    -32.841  0.0000E+00  0.2160E+03
    -32.581  0.0000E+00  0.2160E+03
    -32.321  0.0000E+00  0.2160E+03
    -32.061  0.0000E+00  0.2160E+03
    -31.801  0.0000E+00  0.2160E+03
    -31.541  0.0000E+00  0.2160E+03
    -31.281  0.0000E+00  0.2160E+03
    -31.021  0.0000E+00  0.2160E+03
    -30.762  0.0000E+00  0.2160E+03
    -30.502  0.0000E+00  0.2160E+03
    -30.242  0.0000E+00  0.2160E+03
    -29.982  0.0000E+00  0.2160E+03
    -29.722  0.0000E+00  0.2160E+03
    -29.462  0.0000E+00  0.2160E+03
    -29.202  0.0000E+00  0.2160E+03
    -28.942  0.0000E+00  0.2160E+03
    -28.682  0.0000E+00  0.2160E+03
    -28.422  0.0000E+00  0.2160E+03
    -28.162  0.0000E+00  0.2160E+03
    -27.902  0.0000E+00  0.2160E+03
    -27.642  0.0000E+00  0.2160E+03
    -27.382  0.0000E+00  0.2160E+03
    -27.123  0.0000E+00  0.2160E+03
    -26.863  0.0000E+00  0.2160E+03
    -26.603  0.0000E+00  0.2160E+03
    -26.343  0.0000E+00  0.2160E+03
    -26.083  0.0000E+00  0.2160E+03
    -25.823  0.0000E+00  0.2160E+03
    -25.563  0.0000E+00  0.2160E+03
    -25.303  0.0000E+00  0.2160E+03
    -25.043  0.0000E+00  0.2160E+03
    -24.783  0.0000E+00  0.2160E+03
    -24.523  0.0000E+00  0.2160E+03
    -24.263  0.0000E+00  0.2160E+03
    -24.003  0.0000E+00  0.2160E+03
    -23.743  0.0000E+00  0.2160E+03
    -23.484  0.0000E+00  0.2160E+03
    -23.224  0.0000E+00  0.2160E+03
    -22.964  0.0000E+00  0.2160E+03
    -22.704  0.0000E+00  0.2160E+03
    -22.444  0.0000E+00  0.2160E+03
    -22.184  0.0000E+00  0.2160E+03
    -21.924  0.0000E+00  0.2160E+03
    -21.664  0.0000E+00  0.2160E+03
    -21.404  0.0000E+00  0.2160E+03
    -21.144  0.0000E+00  0.2160E+03
    -20.884  0.0000E+00  0.2160E+03
    -20.624  0.0000E+00  0.2160E+03
    -20.364  0.0000E+00  0.2160E+03
    -20.104  0.0000E+00  0.2160E+03
    -19.844  0.0000E+00  0.2160E+03
    -19.585  0.0000E+00  0.2160E+03
    -19.325  0.0000E+00  0.2160E+03
    -19.065  0.0000E+00  0.2160E+03
    -18.805  0.0000E+00  0.2160E+03
    -18.545  0.0000E+00  0.2160E+03
    -18.285  0.0000E+00  0.2160E+03
    -18.025  0.0000E+00  0.2160E+03
    -17.765  0.7816E-13  0.2160E+03
    -17.505  0.2399E-07  0.2160E+03
    -17.245  0.2738E-03  0.2160E+03
    -16.985  0.1260E+00  0.2160E+03
    -16.725  0.2860E+01  0.2168E+03
    -16.465  0.6513E+01  0.2185E+03
    -16.205  0.1016E+02  0.2211E+03
    -15.946  0.7787E+01  0.2231E+03
    -15.686  0.1668E+02  0.2275E+03
    -15.426  0.1573E+02  0.2316E+03
    -15.166  0.1478E+02  0.2354E+03
    -14.906  0.2275E+02  0.2413E+03
    -14.646  0.2691E+02  0.2483E+03
    -14.386  0.2568E+02  0.2550E+03
    -14.126  0.2221E+02  0.2608E+03
    -13.866  0.2127E+02  0.2663E+03
    -13.606  0.3119E+02  0.2744E+03
    -13.346  0.3054E+02  0.2823E+03
    -13.086  0.1364E+02  0.2859E+03
    -12.826  0.4951E+01  0.2872E+03
    -12.566  0.3065E+01  0.2880E+03
    -12.307  0.1570E+00  0.2880E+03
    -12.047  0.3980E-03  0.2880E+03
    -11.787  0.4091E-07  0.2880E+03
    -11.527  0.1572E-12  0.2880E+03
    -11.267  0.0000E+00  0.2880E+03
    -11.007  0.0000E+00  0.2880E+03
    -10.747  0.0000E+00  0.2880E+03
    -10.487  0.0000E+00  0.2880E+03
    -10.227  0.0000E+00  0.2880E+03
     -9.967  0.0000E+00  0.2880E+03
     -9.707  0.0000E+00  0.2880E+03
     -9.447  0.2792E-10  0.2880E+03
     -9.187  0.2046E-05  0.2880E+03
     -8.927  0.5752E-02  0.2880E+03
     -8.667  0.7150E+00  0.2882E+03
     -8.408  0.6303E+01  0.2898E+03
     -8.148  0.1330E+02  0.2933E+03
     -7.888  0.2337E+02  0.2994E+03
     -7.628  0.3350E+02  0.3081E+03
     -7.368  0.3971E+02  0.3184E+03
     -7.108  0.3776E+02  0.3282E+03
     -6.848  0.3334E+02  0.3369E+03
     -6.588  0.3900E+02  0.3470E+03
     -6.328  0.4563E+02  0.3589E+03
     -6.068  0.5383E+02  0.3729E+03
     -5.808  0.5278E+02  0.3866E+03
     -5.548  0.4934E+02  0.3994E+03
     -5.288  0.5497E+02  0.4137E+03
     -5.028  0.7000E+02  0.4319E+03
     -4.769  0.6802E+02  0.4496E+03
     -4.509  0.5436E+02  0.4637E+03
     -4.249  0.4562E+02  0.4756E+03
     -3.989  0.4071E+02  0.4861E+03
     -3.729  0.4951E+02  0.4990E+03
     -3.469  0.5763E+02  0.5140E+03
     -3.209  0.6814E+02  0.5317E+03
     -2.949  0.8300E+02  0.5533E+03
     -2.689  0.9406E+02  0.5777E+03
     -2.429  0.1139E+03  0.6073E+03
     -2.169  0.1300E+03  0.6411E+03
     -1.909  0.1225E+03  0.6730E+03
     -1.649  0.1015E+03  0.6993E+03
     -1.389  0.8710E+02  0.7220E+03
     -1.130  0.7975E+02  0.7427E+03
     -0.870  0.6096E+02  0.7586E+03
     -0.610  0.5230E+02  0.7722E+03
     -0.350  0.5694E+02  0.7870E+03
     -0.090  0.5448E+02  0.8011E+03
      0.170  0.5003E+02  0.8141E+03
      0.430  0.3749E+02  0.8239E+03
      0.690  0.3614E+02  0.8333E+03
      0.950  0.4128E+02  0.8440E+03
      1.210  0.4519E+02  0.8557E+03
      1.470  0.2425E+02  0.8620E+03
      1.730  0.7024E+01  0.8639E+03
      1.990  0.5930E+00  0.8640E+03
      2.250  0.2296E+01  0.8646E+03
      2.509  0.4774E+01  0.8659E+03
      2.769  0.4366E+01  0.8670E+03
      3.029  0.9597E+01  0.8695E+03
      3.289  0.9641E+01  0.8720E+03
      3.549  0.1482E+02  0.8758E+03
      3.809  0.1693E+02  0.8802E+03
      4.069  0.1672E+02  0.8846E+03
      4.329  0.3225E+02  0.8930E+03
      4.589  0.3844E+02  0.9030E+03
      4.849  0.3568E+02  0.9122E+03
      5.109  0.3956E+02  0.9225E+03
      5.369  0.4238E+02  0.9335E+03
      5.629  0.4679E+02  0.9457E+03
      5.889  0.2236E+02  0.9515E+03
      6.149  0.1860E+01  0.9520E+03
      6.408  0.1373E-01  0.9520E+03
      6.668  0.5513E-05  0.9520E+03
      6.928  0.9449E-10  0.9520E+03
      7.188  0.0000E+00  0.9520E+03
      7.448  0.0000E+00  0.9520E+03
      7.708  0.0000E+00  0.9520E+03
      7.968  0.0000E+00  0.9520E+03
      8.228  0.0000E+00  0.9520E+03
      8.488  0.0000E+00  0.9520E+03
      8.748  0.0000E+00  0.9520E+03
      9.008  0.0000E+00  0.9520E+03
      9.268  0.0000E+00  0.9520E+03
