<?xml version="1.0" encoding="ISO-8859-1"?>
<modeling>
 <generator>
  <i name="program" type="string">vasp </i>
  <i name="version" type="string">6.1.0  </i>
  <i name="subversion" type="string">28Jan20 (build Mar 31 2020 17:42:31) gamma-only                       parallel </i>
  <i name="platform" type="string">LinuxIFC </i>
  <i name="date" type="string">2020 04 11 </i>
  <i name="time" type="string">20:08:42 </i>
 </generator>
 <incar>
  <i type="string" name="SYSTEM">"Millerite NiS"</i>
  <i type="int" name="NSIM">     4</i>
  <i type="int" name="NELM">   100</i>
  <i name="ENCUT">    450.00000000</i>
  <i type="string" name="LREAL">A</i>
  <i type="int" name="ISMEAR">     0</i>
  <i type="int" name="NWRITE">     2</i>
  <i type="logical" name="LWAVE"> F  </i>
  <i type="logical" name="LCHARG"> F  </i>
  <i type="int" name="NCORE">     6</i>
  <i type="int" name="NELM">   100</i>
 </incar>
 <structure name="primitive_cell" >
  <crystal>
   <varray name="basis" >
    <v>      11.25646304       0.00000000       0.00000000 </v>
    <v>       0.00000000       9.57841000       0.00000000 </v>
    <v>       0.00000000       0.00000000      17.19249240 </v>
   </varray>
   <i name="volume">   1853.67765028 </i>
   <varray name="rec_basis" >
    <v>       0.08883785       0.00000000       0.00000000 </v>
    <v>       0.00000000       0.10440146       0.00000000 </v>
    <v>       0.00000000       0.00000000       0.05816492 </v>
   </varray>
  </crystal>
  <varray name="positions" >
   <v>       0.43933499       0.46388800       0.16283377 </v>
   <v>       0.49118692       0.46388800       0.34224601 </v>
   <v>       0.16340903       0.96388800       0.07312765 </v>
   <v>       0.21526096       0.96388800       0.25253989 </v>
   <v>       0.43933499       0.19968200       0.16283377 </v>
   <v>       0.49118692       0.19968200       0.34224601 </v>
   <v>       0.16340903       0.69968200       0.07312765 </v>
   <v>       0.21526096       0.69968200       0.25253989 </v>
   <v>       0.13063970       0.33178500       0.13913288 </v>
   <v>       0.18249164       0.33178500       0.31854511 </v>
   <v>       0.35471373       0.83178500       0.04942676 </v>
   <v>       0.40656566       0.83178500       0.22883899 </v>
   <v>       0.45841760       0.83178500       0.40825124 </v>
   <v>       0.93933499       0.46388800       0.16283377 </v>
   <v>       0.99118692       0.46388800       0.34224601 </v>
   <v>       0.66340903       0.96388800       0.07312765 </v>
   <v>       0.71526096       0.96388800       0.25253989 </v>
   <v>       0.93933499       0.19968200       0.16283377 </v>
   <v>       0.99118692       0.19968200       0.34224601 </v>
   <v>       0.66340903       0.69968200       0.07312765 </v>
   <v>       0.71526096       0.69968200       0.25253989 </v>
   <v>       0.63063970       0.33178500       0.13913288 </v>
   <v>       0.68249164       0.33178500       0.31854511 </v>
   <v>       0.85471373       0.83178500       0.04942676 </v>
   <v>       0.90656566       0.83178500       0.22883899 </v>
   <v>       0.95841760       0.83178500       0.40825124 </v>
   <v>       0.05963710       0.16357000       0.05952629 </v>
   <v>       0.11148904       0.16357000       0.23893853 </v>
   <v>       0.16334097       0.16357000       0.41835077 </v>
   <v>       0.33556306       0.66357000       0.14923241 </v>
   <v>       0.38741500       0.66357000       0.32864465 </v>
   <v>       0.05963710       0.50000000       0.05952629 </v>
   <v>       0.11148904       0.50000000       0.23893853 </v>
   <v>       0.16334097       0.50000000       0.41835077 </v>
   <v>       0.33556306       1.00000000       0.14923241 </v>
   <v>       0.38741500       1.00000000       0.32864465 </v>
   <v>       0.36788880       0.33178500       0.26911836 </v>
   <v>       0.04011091       0.83178500       0.00000000 </v>
   <v>       0.09196284       0.83178500       0.17941224 </v>
   <v>       0.61148904       0.16357000       0.23893853 </v>
   <v>       0.66334097       0.16357000       0.41835077 </v>
   <v>       0.83556306       0.66357000       0.14923241 </v>
   <v>       0.88741500       0.66357000       0.32864465 </v>
   <v>       0.61148904       0.50000000       0.23893853 </v>
   <v>       0.66334097       0.50000000       0.41835077 </v>
   <v>       0.83556306       1.00000000       0.14923241 </v>
   <v>       0.88741500       1.00000000       0.32864465 </v>
   <v>       0.81603687       0.33178500       0.08970612 </v>
   <v>       0.86788880       0.33178500       0.26911836 </v>
   <v>       0.54011091       0.83178500       0.00000000 </v>
   <v>       0.59196284       0.83178500       0.17941224 </v>
   <v>       0.64381478       0.83178500       0.35882448 </v>
  </varray>
 </structure>
 <varray name="primitive_index" >
  <v type="int" >        1 </v>
  <v type="int" >        2 </v>
  <v type="int" >        3 </v>
  <v type="int" >        4 </v>
  <v type="int" >        5 </v>
  <v type="int" >        6 </v>
  <v type="int" >        7 </v>
  <v type="int" >        8 </v>
  <v type="int" >        9 </v>
  <v type="int" >       10 </v>
  <v type="int" >       11 </v>
  <v type="int" >       12 </v>
  <v type="int" >       13 </v>
  <v type="int" >       14 </v>
  <v type="int" >       15 </v>
  <v type="int" >       16 </v>
  <v type="int" >       17 </v>
  <v type="int" >       18 </v>
  <v type="int" >       19 </v>
  <v type="int" >       20 </v>
  <v type="int" >       21 </v>
  <v type="int" >       22 </v>
  <v type="int" >       23 </v>
  <v type="int" >       24 </v>
  <v type="int" >       25 </v>
  <v type="int" >       26 </v>
  <v type="int" >       27 </v>
  <v type="int" >       28 </v>
  <v type="int" >       29 </v>
  <v type="int" >       30 </v>
  <v type="int" >       31 </v>
  <v type="int" >       32 </v>
  <v type="int" >       33 </v>
  <v type="int" >       34 </v>
  <v type="int" >       35 </v>
  <v type="int" >       36 </v>
  <v type="int" >       37 </v>
  <v type="int" >       38 </v>
  <v type="int" >       39 </v>
  <v type="int" >       40 </v>
  <v type="int" >       41 </v>
  <v type="int" >       42 </v>
  <v type="int" >       43 </v>
  <v type="int" >       44 </v>
  <v type="int" >       45 </v>
  <v type="int" >       46 </v>
  <v type="int" >       47 </v>
  <v type="int" >       48 </v>
  <v type="int" >       49 </v>
  <v type="int" >       50 </v>
  <v type="int" >       51 </v>
  <v type="int" >       52 </v>
 </varray>
 <kpoints>
  <generation param="Gamma">
   <v type="int" name="divisions">       1        1        1 </v>
   <v name="usershift">      0.00000000       0.00000000       0.00000000 </v>
   <v name="genvec1">      1.00000000       0.00000000       0.00000000 </v>
   <v name="genvec2">      0.00000000       1.00000000       0.00000000 </v>
   <v name="genvec3">      0.00000000       0.00000000       1.00000000 </v>
   <v name="shift">      0.00000000       0.00000000       0.00000000 </v>
  </generation>
  <varray name="kpointlist" >
   <v>       0.00000000       0.00000000       0.00000000 </v>
  </varray>
  <varray name="weights" >
   <v>       1.00000000 </v>
  </varray>
 </kpoints>
 <parameters>
  <separator name="general" >
   <i type="string" name="SYSTEM">"Millerite NiS"</i>
   <i type="logical" name="LCOMPAT"> F  </i>
  </separator>
  <separator name="electronic" >
   <i type="string" name="PREC">normal</i>
   <i name="ENMAX">    450.00000000</i>
   <i name="ENAUG">    703.44300000</i>
   <i name="EDIFF">      0.00010000</i>
   <i type="int" name="IALGO">    38</i>
   <i type="int" name="IWAVPR">    10</i>
   <i type="int" name="NBANDS">   344</i>
   <i type="int" name="NBANDSLOW">    -1</i>
   <i type="int" name="NBANDSHIGH">    -1</i>
   <i name="NELECT">    572.00000000</i>
   <i type="int" name="TURBO">     0</i>
   <i type="int" name="IRESTART">     0</i>
   <i type="int" name="NREBOOT">     0</i>
   <i type="int" name="NMIN">     0</i>
   <i name="EREF">      0.00000000</i>
   <separator name="electronic smearing" >
    <i type="int" name="ISMEAR">     0</i>
    <i name="SIGMA">      0.20000000</i>
    <i name="KSPACING">      0.50000000</i>
    <i type="logical" name="KGAMMA"> T  </i>
    <i type="logical" name="KBLOWUP"> T  </i>
   </separator>
   <separator name="electronic projectors" >
    <i type="logical" name="LREAL"> T  </i>
    <v name="ROPT">     -0.00050000     -0.00050000</v>
    <i type="int" name="LMAXPAW">  -100</i>
    <i type="int" name="LMAXMIX">     2</i>
    <i type="logical" name="NLSPLINE"> F  </i>
   </separator>
   <separator name="electronic startup" >
    <i type="int" name="ISTART">     0</i>
    <i type="int" name="ICHARG">     2</i>
    <i type="int" name="INIWAV">     1</i>
   </separator>
   <separator name="electronic spin" >
    <i type="int" name="ISPIN">     1</i>
    <i type="logical" name="LNONCOLLINEAR"> F  </i>
    <v name="MAGMOM">      1.00000000      1.00000000      1.00000000      1.00000000      1.00000000      1.00000000      1.00000000      1.00000000      1.00000000      1.00000000      1.00000000      1.00000000      1.00000000      1.00000000      1.00000000      1.00000000      1.00000000      1.00000000      1.00000000      1.00000000
      1.00000000      1.00000000      1.00000000      1.00000000      1.00000000      1.00000000      1.00000000      1.00000000      1.00000000      1.00000000      1.00000000      1.00000000      1.00000000      1.00000000      1.00000000      1.00000000      1.00000000      1.00000000      1.00000000      1.00000000
      1.00000000      1.00000000      1.00000000      1.00000000      1.00000000      1.00000000      1.00000000      1.00000000      1.00000000      1.00000000      1.00000000      1.00000000</v>
    <i name="NUPDOWN">     -1.00000000</i>
    <i type="logical" name="LSORBIT"> F  </i>
    <v name="SAXIS">      0.00000000      0.00000000      1.00000000</v>
    <i type="logical" name="LSPIRAL"> F  </i>
    <v name="QSPIRAL">      0.00000000      0.00000000      0.00000000</v>
    <i type="logical" name="LZEROZ"> F  </i>
   </separator>
   <separator name="electronic exchange-correlation" >
    <i type="logical" name="LASPH"> F  </i>
    <i type="logical" name="LMETAGGA"> F  </i>
   </separator>
   <separator name="electronic convergence" >
    <i type="int" name="NELM">   100</i>
    <i type="int" name="NELMDL">    -5</i>
    <i type="int" name="NELMIN">     2</i>
    <i name="ENINI">    450.00000000</i>
    <separator name="electronic convergence detail" >
     <i type="logical" name="LDIAG"> T  </i>
     <i type="logical" name="LSUBROT"> F  </i>
     <i name="WEIMIN">      0.00000000</i>
     <i name="EBREAK">      0.00000007</i>
     <i name="DEPER">      0.30000000</i>
     <i type="int" name="NRMM">     4</i>
     <i name="TIME">      0.40000000</i>
    </separator>
   </separator>
   <separator name="electronic mixer" >
    <i name="AMIX">      0.40000000</i>
    <i name="BMIX">      1.00000000</i>
    <i name="AMIN">      0.10000000</i>
    <i name="AMIX_MAG">      1.60000000</i>
    <i name="BMIX_MAG">      1.00000000</i>
    <separator name="electronic mixer details" >
     <i type="int" name="IMIX">     4</i>
     <i type="logical" name="MIXFIRST"> F  </i>
     <i type="int" name="MAXMIX">   -45</i>
     <i name="WC">    100.00000000</i>
     <i type="int" name="INIMIX">     1</i>
     <i type="int" name="MIXPRE">     1</i>
     <i type="int" name="MREMOVE">     5</i>
    </separator>
   </separator>
   <separator name="electronic dipolcorrection" >
    <i type="logical" name="LDIPOL"> F  </i>
    <i type="logical" name="LMONO"> F  </i>
    <i type="int" name="IDIPOL">     0</i>
    <i name="EPSILON">      1.00000000</i>
    <v name="DIPOL">   -100.00000000   -100.00000000   -100.00000000</v>
    <i name="EFIELD">      0.00000000</i>
   </separator>
  </separator>
  <separator name="grids" >
   <i type="int" name="NGX">    60</i>
   <i type="int" name="NGY">    50</i>
   <i type="int" name="NGZ">    90</i>
   <i type="int" name="NGXF">   120</i>
   <i type="int" name="NGYF">   100</i>
   <i type="int" name="NGZF">   180</i>
   <i type="logical" name="ADDGRID"> F  </i>
  </separator>
  <separator name="ionic" >
   <i type="int" name="NSW">     0</i>
   <i type="int" name="IBRION">    -1</i>
   <i type="int" name="MDALGO">     0</i>
   <i type="int" name="ISIF">     2</i>
   <i name="PSTRESS">      0.00000000</i>
   <i name="EDIFFG">      0.00100000</i>
   <i type="int" name="NFREE">     0</i>
   <i name="POTIM">      0.50000000</i>
   <i name="SMASS">     -3.00000000</i>
   <i name="SCALEE">      1.00000000</i>
  </separator>
  <separator name="ionic md" >
   <i name="TEBEG">      0.00010000</i>
   <i name="TEEND">      0.00010000</i>
   <i type="int" name="NBLOCK">     1</i>
   <i type="int" name="KBLOCK">     1</i>
   <i type="int" name="NPACO">   256</i>
   <i name="APACO">     16.00000000</i>
  </separator>
  <separator name="symmetry" >
   <i type="int" name="ISYM">     2</i>
   <i name="SYMPREC">      0.00001000</i>
  </separator>
  <separator name="dos" >
   <i type="int" name="LORBIT">     0</i>
   <v name="RWIGS">     -1.00000000     -1.00000000</v>
   <i type="int" name="NEDOS">   301</i>
   <i name="EMIN">     10.00000000</i>
   <i name="EMAX">    -10.00000000</i>
   <i name="EFERMI">      0.00000000</i>
  </separator>
  <separator name="writing" >
   <i type="int" name="NWRITE">     2</i>
   <i type="logical" name="LWAVE"> F  </i>
   <i type="logical" name="LDOWNSAMPLE"> F  </i>
   <i type="logical" name="LCHARG"> F  </i>
   <i type="logical" name="LPARD"> F  </i>
   <i type="logical" name="LVTOT"> F  </i>
   <i type="logical" name="LVHAR"> F  </i>
   <i type="logical" name="LELF"> F  </i>
   <i type="logical" name="LOPTICS"> F  </i>
   <v name="STM">      0.00000000      0.00000000      0.00000000      0.00000000      0.00000000      0.00000000      0.00000000</v>
  </separator>
  <separator name="performance" >
   <i type="int" name="NPAR">     8</i>
   <i type="int" name="NSIM">     4</i>
   <i type="int" name="NBLK">    -1</i>
   <i type="logical" name="LPLANE"> T  </i>
   <i type="logical" name="LSCALAPACK"> T  </i>
   <i type="logical" name="LSCAAWARE"> F  </i>
   <i type="logical" name="LSCALU"> F  </i>
   <i type="logical" name="LASYNC"> F  </i>
   <i type="logical" name="LORBITALREAL"> F  </i>
  </separator>
  <separator name="miscellaneous" >
   <i type="int" name="IDIOT">     3</i>
   <i type="int" name="PHON_NSTRUCT">    -1</i>
   <i type="logical" name="LMUSIC"> F  </i>
   <v name="POMASS">     58.69000000     32.06600000</v>
   <v name="DARWINR">      0.00000000      0.00000000</v>
   <v name="DARWINV">      1.00000000      1.00000000</v>
   <i type="logical" name="LCORR"> T  </i>
  </separator>
  <i type="logical" name="GGA_COMPAT"> T  </i>
  <i type="logical" name="LBERRY"> F  </i>
  <i type="int" name="ICORELEVEL">     0</i>
  <i type="logical" name="LDAU"> F  </i>
  <i type="int" name="I_CONSTRAINED_M">     0</i>
  <separator name="electronic exchange-correlation" >
   <i type="string" name="GGA">--</i>
   <i type="int" name="VOSKOWN">     0</i>
   <i type="logical" name="LHFCALC"> F  </i>
   <i type="string" name="PRECFOCK"></i>
   <i type="logical" name="LSYMGRAD"> F  </i>
   <i type="logical" name="LHFONE"> F  </i>
   <i type="logical" name="LRHFCALC"> F  </i>
   <i type="logical" name="LTHOMAS"> F  </i>
   <i type="logical" name="LMODELHF"> F  </i>
   <i type="logical" name="LFOCKACE"> F  </i>
   <i name="ENCUT4O">     -1.00000000</i>
   <i type="int" name="EXXOEP">     0</i>
   <i type="int" name="FOURORBIT">     0</i>
   <i name="AEXX">      0.00000000</i>
   <i name="HFALPHA">      0.00000000</i>
   <i name="MCALPHA">      0.00000000</i>
   <i name="ALDAX">      1.00000000</i>
   <i name="AGGAX">      1.00000000</i>
   <i name="ALDAC">      1.00000000</i>
   <i name="AGGAC">      1.00000000</i>
   <i type="int" name="NKREDX">     1</i>
   <i type="int" name="NKREDY">     1</i>
   <i type="int" name="NKREDZ">     1</i>
   <i type="logical" name="SHIFTRED"> F  </i>
   <i type="logical" name="ODDONLY"> F  </i>
   <i type="logical" name="EVENONLY"> F  </i>
   <i type="int" name="LMAXFOCK">     0</i>
   <i type="int" name="NMAXFOCKAE">     0</i>
   <i type="logical" name="LFOCKAEDFT"> F  </i>
   <i name="HFSCREEN">      0.00000000</i>
   <i name="HFSCREENC">      0.00000000</i>
   <i type="int" name="NBANDSGWLOW">     0</i>
  </separator>
  <separator name="vdW DFT" >
   <i type="logical" name="LUSE_VDW"> F  </i>
   <i name="Zab_VDW">     -0.84910000</i>
   <i name="PARAM1">      0.12340000</i>
   <i name="PARAM2">      1.00000000</i>
   <i name="PARAM3">      0.00000000</i>
  </separator>
  <separator name="model GW" >
   <i type="int" name="MODEL_GW">     0</i>
   <i name="MODEL_EPS0">     21.38858827</i>
   <i name="MODEL_ALPHA">      1.00000000</i>
  </separator>
  <separator name="linear response parameters" >
   <i type="logical" name="LEPSILON"> F  </i>
   <i type="logical" name="LRPA"> F  </i>
   <i type="logical" name="LNABLA"> F  </i>
   <i type="logical" name="LVEL"> F  </i>
   <i type="int" name="KINTER">     0</i>
   <i name="CSHIFT">      0.10000000</i>
   <i name="OMEGAMAX">     -1.00000000</i>
   <i name="DEG_THRESHOLD">      0.00200000</i>
   <i name="RTIME">     -0.10000000</i>
   <i name="WPLASMAI">      0.00000000</i>
   <v name="DFIELD">      0.00000000      0.00000000      0.00000000</v>
   <v name="WPLASMA">      0.00000000      0.00000000      0.00000000      0.00000000      0.00000000      0.00000000      0.00000000      0.00000000      0.00000000</v>
  </separator>
  <separator name="orbital magnetization" >
   <i type="logical" name="NUCIND"> F  </i>
   <v name="MAGPOS">      0.00000000      0.00000000      0.00000000</v>
   <i type="logical" name="LNICSALL"> T  </i>
   <i type="logical" name="ORBITALMAG"> F  </i>
   <i type="logical" name="LMAGBLOCH"> F  </i>
   <i type="logical" name="LCHIMAG"> F  </i>
   <i type="logical" name="LGAUGE"> T  </i>
   <i type="int" name="MAGATOM">     0</i>
   <v name="MAGDIPOL">      0.00000000      0.00000000      0.00000000</v>
   <v name="AVECCONST">      0.00000000      0.00000000      0.00000000</v>
  </separator>
  <separator name="response functions" >
   <i type="logical" name="LFINITE_TEMPERATURE"> F  </i>
   <i type="logical" name="LADDER"> F  </i>
   <i type="logical" name="LRPAFORCE"> F  </i>
   <i type="logical" name="LFXC"> F  </i>
   <i type="logical" name="LHARTREE"> T  </i>
   <i type="int" name="IBSE">     0</i>
   <v type="int" name="KPOINT">    -1     0     0     0</v>
   <i type="logical" name="LTCTC"> F  </i>
   <i type="logical" name="LTCTE"> F  </i>
   <i type="logical" name="LTETE"> F  </i>
   <i type="logical" name="LTRIPLET"> F  </i>
   <i type="logical" name="LFXCEPS"> F  </i>
   <i type="logical" name="LFXHEG"> F  </i>
   <i type="int" name="NATURALO">     2</i>
   <i type="logical" name="LHOLEGF"> F  </i>
   <i type="logical" name="L2ORDER"> F  </i>
   <i type="logical" name="LDMP1"> F  </i>
   <i type="logical" name="LMP2LT"> F  </i>
   <i type="logical" name="LSMP2LT"> F  </i>
   <i type="logical" name="LGWLF"> F  </i>
   <i name="ENCUTGW">     -2.00000000</i>
   <i name="ENCUTGWSOFT">     -2.00000000</i>
   <i name="ENCUTLF">     -1.00000000</i>
   <i type="logical" name="LESF_SPLINES"> F  </i>
   <i type="int" name="LMAXMP2">    -1</i>
   <i name="SCISSOR">      0.00000000</i>
   <i type="int" name="NOMEGA">     0</i>
   <i type="int" name="NOMEGAR">     0</i>
   <i type="int" name="NBANDSGW">    -1</i>
   <i type="int" name="NBANDSO">    -1</i>
   <i type="int" name="NBANDSV">    -1</i>
   <i type="int" name="NELM">   100</i>
   <i type="int" name="NELMHF">     1</i>
   <i type="int" name="DIM">     3</i>
   <i type="int" name="IESPILON">     4</i>
   <i type="int" name="ANTIRES">     0</i>
   <i name="OMEGAMAX">    -30.00000000</i>
   <i name="OMEGAMIN">    -30.00000000</i>
   <i name="OMEGATL">   -200.00000000</i>
   <i type="int" name="OMEGAGRID">     0</i>
   <i name="CSHIFT">     -0.10000000</i>
   <i type="logical" name="LSELFENERGY"> F  </i>
   <i type="logical" name="LSPECTRAL"> F  </i>
   <i type="logical" name="LSPECTRALGW"> F  </i>
   <i type="logical" name="LSINGLES"> F  </i>
   <i type="logical" name="LFERMIGW"> F  </i>
   <i type="logical" name="ODDONLYGW"> F  </i>
   <i type="logical" name="EVENONLYGW"> F  </i>
   <i type="int" name="NKREDLFX">     1</i>
   <i type="int" name="NKREDLFY">     1</i>
   <i type="int" name="NKREDLFZ">     1</i>
   <i type="int" name="MAXMEM">  2800</i>
   <i type="int" name="TELESCOPE">     0</i>
   <i type="int" name="NTAUPAR">    -1</i>
   <i type="int" name="NOMEGAPAR">    -1</i>
   <i name="LAMBDA">      1.00000000</i>
  </separator>
  <separator name="External order field" >
   <i name="OFIELD_KAPPA">      0.00000000</i>
   <v name="OFIELD_K">      0.00000000      0.00000000      0.00000000</v>
   <i name="OFIELD_Q6_NEAR">      0.00000000</i>
   <i name="OFIELD_Q6_FAR">      0.00000000</i>
   <i name="OFIELD_A">      0.00000000</i>
  </separator>
 </parameters>
 <atominfo>
  <atoms>      52 </atoms>
  <types>       2 </types>
  <array name="atoms" >
   <dimension dim="1">ion</dimension>
   <field type="string">element</field>
   <field type="int">atomtype</field>
   <set>
    <rc><c>Ni</c><c>   1</c></rc>
    <rc><c>Ni</c><c>   1</c></rc>
    <rc><c>Ni</c><c>   1</c></rc>
    <rc><c>Ni</c><c>   1</c></rc>
    <rc><c>Ni</c><c>   1</c></rc>
    <rc><c>Ni</c><c>   1</c></rc>
    <rc><c>Ni</c><c>   1</c></rc>
    <rc><c>Ni</c><c>   1</c></rc>
    <rc><c>Ni</c><c>   1</c></rc>
    <rc><c>Ni</c><c>   1</c></rc>
    <rc><c>Ni</c><c>   1</c></rc>
    <rc><c>Ni</c><c>   1</c></rc>
    <rc><c>Ni</c><c>   1</c></rc>
    <rc><c>Ni</c><c>   1</c></rc>
    <rc><c>Ni</c><c>   1</c></rc>
    <rc><c>Ni</c><c>   1</c></rc>
    <rc><c>Ni</c><c>   1</c></rc>
    <rc><c>Ni</c><c>   1</c></rc>
    <rc><c>Ni</c><c>   1</c></rc>
    <rc><c>Ni</c><c>   1</c></rc>
    <rc><c>Ni</c><c>   1</c></rc>
    <rc><c>Ni</c><c>   1</c></rc>
    <rc><c>Ni</c><c>   1</c></rc>
    <rc><c>Ni</c><c>   1</c></rc>
    <rc><c>Ni</c><c>   1</c></rc>
    <rc><c>Ni</c><c>   1</c></rc>
    <rc><c>S </c><c>   2</c></rc>
    <rc><c>S </c><c>   2</c></rc>
    <rc><c>S </c><c>   2</c></rc>
    <rc><c>S </c><c>   2</c></rc>
    <rc><c>S </c><c>   2</c></rc>
    <rc><c>S </c><c>   2</c></rc>
    <rc><c>S </c><c>   2</c></rc>
    <rc><c>S </c><c>   2</c></rc>
    <rc><c>S </c><c>   2</c></rc>
    <rc><c>S </c><c>   2</c></rc>
    <rc><c>S </c><c>   2</c></rc>
    <rc><c>S </c><c>   2</c></rc>
    <rc><c>S </c><c>   2</c></rc>
    <rc><c>S </c><c>   2</c></rc>
    <rc><c>S </c><c>   2</c></rc>
    <rc><c>S </c><c>   2</c></rc>
    <rc><c>S </c><c>   2</c></rc>
    <rc><c>S </c><c>   2</c></rc>
    <rc><c>S </c><c>   2</c></rc>
    <rc><c>S </c><c>   2</c></rc>
    <rc><c>S </c><c>   2</c></rc>
    <rc><c>S </c><c>   2</c></rc>
    <rc><c>S </c><c>   2</c></rc>
    <rc><c>S </c><c>   2</c></rc>
    <rc><c>S </c><c>   2</c></rc>
    <rc><c>S </c><c>   2</c></rc>
   </set>
  </array>
  <array name="atomtypes" >
   <dimension dim="1">type</dimension>
   <field type="int">atomspertype</field>
   <field type="string">element</field>
   <field>mass</field>
   <field>valence</field>
   <field type="string">pseudopotential</field>
   <set>
    <rc><c>  26</c><c>Ni</c><c>     58.69000000</c><c>     16.00000000</c><c>  PAW_PBE Ni_pv 06Sep2000               </c></rc>
    <rc><c>  26</c><c>S </c><c>     32.06600000</c><c>      6.00000000</c><c>  PAW_PBE S 06Sep2000                   </c></rc>
   </set>
  </array>
 </atominfo>
 <structure name="initialpos" >
  <crystal>
   <varray name="basis" >
    <v>      11.25646304       0.00000000       0.00000000 </v>
    <v>       0.00000000       9.57841000       0.00000000 </v>
    <v>       0.00000000       0.00000000      17.19249240 </v>
   </varray>
   <i name="volume">   1853.67765028 </i>
   <varray name="rec_basis" >
    <v>       0.08883785       0.00000000       0.00000000 </v>
    <v>       0.00000000       0.10440146       0.00000000 </v>
    <v>       0.00000000       0.00000000       0.05816492 </v>
   </varray>
  </crystal>
  <varray name="positions" >
   <v>       0.43933499       0.46388800       0.16283377 </v>
   <v>       0.49118692       0.46388800       0.34224601 </v>
   <v>       0.16340903       0.96388800       0.07312765 </v>
   <v>       0.21526096       0.96388800       0.25253989 </v>
   <v>       0.43933499       0.19968200       0.16283377 </v>
   <v>       0.49118692       0.19968200       0.34224601 </v>
   <v>       0.16340903       0.69968200       0.07312765 </v>
   <v>       0.21526096       0.69968200       0.25253989 </v>
   <v>       0.13063970       0.33178500       0.13913288 </v>
   <v>       0.18249164       0.33178500       0.31854511 </v>
   <v>       0.35471373       0.83178500       0.04942676 </v>
   <v>       0.40656566       0.83178500       0.22883899 </v>
   <v>       0.45841760       0.83178500       0.40825124 </v>
   <v>       0.93933499       0.46388800       0.16283377 </v>
   <v>       0.99118692       0.46388800       0.34224601 </v>
   <v>       0.66340903       0.96388800       0.07312765 </v>
   <v>       0.71526096       0.96388800       0.25253989 </v>
   <v>       0.93933499       0.19968200       0.16283377 </v>
   <v>       0.99118692       0.19968200       0.34224601 </v>
   <v>       0.66340903       0.69968200       0.07312765 </v>
   <v>       0.71526096       0.69968200       0.25253989 </v>
   <v>       0.63063970       0.33178500       0.13913288 </v>
   <v>       0.68249164       0.33178500       0.31854511 </v>
   <v>       0.85471373       0.83178500       0.04942676 </v>
   <v>       0.90656566       0.83178500       0.22883899 </v>
   <v>       0.95841760       0.83178500       0.40825124 </v>
   <v>       0.05963710       0.16357000       0.05952629 </v>
   <v>       0.11148904       0.16357000       0.23893853 </v>
   <v>       0.16334097       0.16357000       0.41835077 </v>
   <v>       0.33556306       0.66357000       0.14923241 </v>
   <v>       0.38741500       0.66357000       0.32864465 </v>
   <v>       0.05963710       0.50000000       0.05952629 </v>
   <v>       0.11148904       0.50000000       0.23893853 </v>
   <v>       0.16334097       0.50000000       0.41835077 </v>
   <v>       0.33556306       1.00000000       0.14923241 </v>
   <v>       0.38741500       1.00000000       0.32864465 </v>
   <v>       0.36788880       0.33178500       0.26911836 </v>
   <v>       0.04011091       0.83178500       0.00000000 </v>
   <v>       0.09196284       0.83178500       0.17941224 </v>
   <v>       0.61148904       0.16357000       0.23893853 </v>
   <v>       0.66334097       0.16357000       0.41835077 </v>
   <v>       0.83556306       0.66357000       0.14923241 </v>
   <v>       0.88741500       0.66357000       0.32864465 </v>
   <v>       0.61148904       0.50000000       0.23893853 </v>
   <v>       0.66334097       0.50000000       0.41835077 </v>
   <v>       0.83556306       1.00000000       0.14923241 </v>
   <v>       0.88741500       1.00000000       0.32864465 </v>
   <v>       0.81603687       0.33178500       0.08970612 </v>
   <v>       0.86788880       0.33178500       0.26911836 </v>
   <v>       0.54011091       0.83178500       0.00000000 </v>
   <v>       0.59196284       0.83178500       0.17941224 </v>
   <v>       0.64381478       0.83178500       0.35882448 </v>
  </varray>
 </structure>
 <calculation>
  <scstep>
   <time name="dav">    1.68    1.68</time>
   <time name="total">    1.74    1.74</time>
   <energy>
    <i name="alphaZ">   1046.73971423 </i>
    <i name="ewald">  88104.79181199 </i>
    <i name="hartreedc">-175470.82855564 </i>
    <i name="XCdc">   2628.04813419 </i>
    <i name="pawpsdc">  81415.77407466 </i>
    <i name="pawaedc"> -84963.31414086 </i>
    <i name="eentropy">     -0.41766530 </i>
    <i name="bandstr">  -4730.48708972 </i>
    <i name="atom">  98224.10364994 </i>
    <i name="e_fr_energy">   6254.40993348 </i>
    <i name="e_wo_entrp">   6254.82759878 </i>
    <i name="e_0_energy">   6254.61876613 </i>
   </energy>
  </scstep>
  <scstep>
   <time name="dav">    1.49    1.50</time>
   <time name="total">    1.49    1.50</time>
   <energy>
    <i name="e_fr_energy">    350.32918925 </i>
    <i name="e_wo_entrp">    350.94740152 </i>
    <i name="e_0_energy">    350.63829538 </i>
   </energy>
  </scstep>
  <scstep>
   <time name="dav">    1.59    1.60</time>
   <time name="total">    1.59    1.60</time>
   <energy>
    <i name="e_fr_energy">   -250.56357089 </i>
    <i name="e_wo_entrp">   -249.48170209 </i>
    <i name="e_0_energy">   -250.02263649 </i>
   </energy>
  </scstep>
  <scstep>
   <time name="dav">    1.61    1.61</time>
   <time name="total">    1.61    1.61</time>
   <energy>
    <i name="e_fr_energy">   -287.61218954 </i>
    <i name="e_wo_entrp">   -286.51761306 </i>
    <i name="e_0_energy">   -287.06490130 </i>
   </energy>
  </scstep>
  <scstep>
   <time name="dav">    1.73    1.73</time>
   <time name="total">    1.79    1.80</time>
   <energy>
    <i name="e_fr_energy">   -288.72078978 </i>
    <i name="e_wo_entrp">   -287.61947114 </i>
    <i name="e_0_energy">   -288.17013046 </i>
   </energy>
  </scstep>
  <scstep>
   <time name="dav">    1.58    1.59</time>
   <time name="total">    1.70    1.71</time>
   <energy>
    <i name="e_fr_energy">   -373.28564065 </i>
    <i name="e_wo_entrp">   -372.56998773 </i>
    <i name="e_0_energy">   -372.92781419 </i>
   </energy>
  </scstep>
  <scstep>
   <time name="dav">    1.56    1.57</time>
   <time name="total">    1.68    1.69</time>
   <energy>
    <i name="e_fr_energy">   -272.88701416 </i>
    <i name="e_wo_entrp">   -272.19516849 </i>
    <i name="e_0_energy">   -272.54109132 </i>
   </energy>
  </scstep>
  <scstep>
   <time name="dav">    1.80    1.81</time>
   <time name="total">    1.92    1.93</time>
   <energy>
    <i name="e_fr_energy">   -288.70444393 </i>
    <i name="e_wo_entrp">   -287.78636544 </i>
    <i name="e_0_energy">   -288.24540468 </i>
   </energy>
  </scstep>
  <scstep>
   <time name="dav">    1.76    1.76</time>
   <time name="total">    1.88    1.88</time>
   <energy>
    <i name="e_fr_energy">   -268.42646222 </i>
    <i name="e_wo_entrp">   -267.56086646 </i>
    <i name="e_0_energy">   -267.99366434 </i>
   </energy>
  </scstep>
  <scstep>
   <time name="dav">    1.74    1.75</time>
   <time name="total">    1.86    1.87</time>
   <energy>
    <i name="e_fr_energy">   -257.60770409 </i>
    <i name="e_wo_entrp">   -256.51945387 </i>
    <i name="e_0_energy">   -257.06357898 </i>
   </energy>
  </scstep>
  <scstep>
   <time name="dav">    1.77    1.77</time>
   <time name="total">    1.89    1.89</time>
   <energy>
    <i name="e_fr_energy">   -260.62819178 </i>
    <i name="e_wo_entrp">   -259.55976365 </i>
    <i name="e_0_energy">   -260.09397772 </i>
   </energy>
  </scstep>
  <scstep>
   <time name="dav">    1.77    1.77</time>
   <time name="total">    1.89    1.89</time>
   <energy>
    <i name="e_fr_energy">   -259.92520200 </i>
    <i name="e_wo_entrp">   -259.06015553 </i>
    <i name="e_0_energy">   -259.49267876 </i>
   </energy>
  </scstep>
  <scstep>
   <time name="dav">    1.74    1.74</time>
   <time name="total">    1.85    1.86</time>
   <energy>
    <i name="e_fr_energy">   -256.62061753 </i>
    <i name="e_wo_entrp">   -255.68742881 </i>
    <i name="e_0_energy">   -256.15402317 </i>
   </energy>
  </scstep>
  <scstep>
   <time name="dav">    1.84    1.85</time>
   <time name="total">    1.96    1.97</time>
   <energy>
    <i name="e_fr_energy">   -253.34717379 </i>
    <i name="e_wo_entrp">   -252.20211002 </i>
    <i name="e_0_energy">   -252.77464190 </i>
   </energy>
  </scstep>
  <scstep>
   <time name="dav">    1.81    1.81</time>
   <time name="total">    1.93    1.94</time>
   <energy>
    <i name="e_fr_energy">   -252.55409334 </i>
    <i name="e_wo_entrp">   -251.56161186 </i>
    <i name="e_0_energy">   -252.05785260 </i>
   </energy>
  </scstep>
  <scstep>
   <time name="dav">    1.79    1.80</time>
   <time name="total">    1.91    1.91</time>
   <energy>
    <i name="e_fr_energy">   -251.29208354 </i>
    <i name="e_wo_entrp">   -250.24520086 </i>
    <i name="e_0_energy">   -250.76864220 </i>
   </energy>
  </scstep>
  <scstep>
   <time name="dav">    1.78    1.78</time>
   <time name="total">    1.89    1.90</time>
   <energy>
    <i name="e_fr_energy">   -250.29416933 </i>
    <i name="e_wo_entrp">   -249.34739549 </i>
    <i name="e_0_energy">   -249.82078241 </i>
   </energy>
  </scstep>
  <scstep>
   <time name="dav">    1.75    1.76</time>
   <time name="total">    1.87    1.87</time>
   <energy>
    <i name="e_fr_energy">   -250.39980636 </i>
    <i name="e_wo_entrp">   -249.38467593 </i>
    <i name="e_0_energy">   -249.89224115 </i>
   </energy>
  </scstep>
  <scstep>
   <time name="dav">    1.70    1.71</time>
   <time name="total">    1.82    1.83</time>
   <energy>
    <i name="e_fr_energy">   -250.00221125 </i>
    <i name="e_wo_entrp">   -249.02301508 </i>
    <i name="e_0_energy">   -249.51261316 </i>
   </energy>
  </scstep>
  <scstep>
   <time name="dav">    1.75    1.76</time>
   <time name="total">    1.87    1.87</time>
   <energy>
    <i name="e_fr_energy">   -249.94910890 </i>
    <i name="e_wo_entrp">   -248.94148222 </i>
    <i name="e_0_energy">   -249.44529556 </i>
   </energy>
  </scstep>
  <scstep>
   <time name="dav">    1.81    1.81</time>
   <time name="total">    1.92    1.93</time>
   <energy>
    <i name="e_fr_energy">   -249.88422580 </i>
    <i name="e_wo_entrp">   -248.89380467 </i>
    <i name="e_0_energy">   -249.38901523 </i>
   </energy>
  </scstep>
  <scstep>
   <time name="dav">    1.71    1.71</time>
   <time name="total">    1.83    1.83</time>
   <energy>
    <i name="e_fr_energy">   -249.84050779 </i>
    <i name="e_wo_entrp">   -248.79032981 </i>
    <i name="e_0_energy">   -249.31541880 </i>
   </energy>
  </scstep>
  <scstep>
   <time name="dav">    1.83    1.84</time>
   <time name="total">    1.95    1.96</time>
   <energy>
    <i name="e_fr_energy">   -249.77019881 </i>
    <i name="e_wo_entrp">   -248.74243354 </i>
    <i name="e_0_energy">   -249.25631618 </i>
   </energy>
  </scstep>
  <scstep>
   <time name="dav">    1.74    1.75</time>
   <time name="total">    1.86    1.87</time>
   <energy>
    <i name="e_fr_energy">   -249.75732510 </i>
    <i name="e_wo_entrp">   -248.70969620 </i>
    <i name="e_0_energy">   -249.23351065 </i>
   </energy>
  </scstep>
  <scstep>
   <time name="dav">    1.73    1.74</time>
   <time name="total">    1.85    1.86</time>
   <energy>
    <i name="e_fr_energy">   -249.76834474 </i>
    <i name="e_wo_entrp">   -248.72398619 </i>
    <i name="e_0_energy">   -249.24616546 </i>
   </energy>
  </scstep>
  <scstep>
   <time name="dav">    1.67    1.67</time>
   <time name="total">    1.79    1.79</time>
   <energy>
    <i name="e_fr_energy">   -249.74194742 </i>
    <i name="e_wo_entrp">   -248.69458530 </i>
    <i name="e_0_energy">   -249.21826636 </i>
   </energy>
  </scstep>
  <scstep>
   <time name="dav">    1.77    1.77</time>
   <time name="total">    1.89    1.89</time>
   <energy>
    <i name="e_fr_energy">   -249.74551633 </i>
    <i name="e_wo_entrp">   -248.68915432 </i>
    <i name="e_0_energy">   -249.21733533 </i>
   </energy>
  </scstep>
  <scstep>
   <time name="dav">    1.72    1.72</time>
   <time name="total">    1.84    1.84</time>
   <energy>
    <i name="e_fr_energy">   -249.73726429 </i>
    <i name="e_wo_entrp">   -248.68065885 </i>
    <i name="e_0_energy">   -249.20896157 </i>
   </energy>
  </scstep>
  <scstep>
   <time name="dav">    1.74    1.75</time>
   <time name="total">    1.86    1.87</time>
   <energy>
    <i name="e_fr_energy">   -249.72838750 </i>
    <i name="e_wo_entrp">   -248.68021096 </i>
    <i name="e_0_energy">   -249.20429923 </i>
   </energy>
  </scstep>
  <scstep>
   <time name="dav">    1.75    1.76</time>
   <time name="total">    1.87    1.88</time>
   <energy>
    <i name="e_fr_energy">   -249.72893326 </i>
    <i name="e_wo_entrp">   -248.67985315 </i>
    <i name="e_0_energy">   -249.20439320 </i>
   </energy>
  </scstep>
  <scstep>
   <time name="dav">    1.76    1.76</time>
   <time name="total">    1.88    1.88</time>
   <energy>
    <i name="e_fr_energy">   -249.72694277 </i>
    <i name="e_wo_entrp">   -248.67784007 </i>
    <i name="e_0_energy">   -249.20239142 </i>
   </energy>
  </scstep>
  <scstep>
   <time name="dav">    1.56    1.57</time>
   <time name="total">    1.68    1.69</time>
   <energy>
    <i name="e_fr_energy">   -249.72743658 </i>
    <i name="e_wo_entrp">   -248.67869628 </i>
    <i name="e_0_energy">   -249.20306643 </i>
   </energy>
  </scstep>
  <scstep>
   <time name="dav">    1.39    1.39</time>
   <time name="total">    1.51    1.52</time>
   <energy>
    <i name="e_fr_energy">   -249.72714593 </i>
    <i name="e_wo_entrp">   -248.67869641 </i>
    <i name="e_0_energy">   -249.20292117 </i>
   </energy>
  </scstep>
  <scstep>
   <time name="dav">    1.38    1.39</time>
   <time name="total">    1.50    1.51</time>
   <energy>
    <i name="e_fr_energy">   -249.72751357 </i>
    <i name="e_wo_entrp">   -248.67905638 </i>
    <i name="e_0_energy">   -249.20328497 </i>
   </energy>
  </scstep>
  <scstep>
   <time name="dav">    1.19    1.19</time>
   <time name="total">    1.31    1.31</time>
   <energy>
    <i name="e_fr_energy">   -249.72766779 </i>
    <i name="e_wo_entrp">   -248.67947583 </i>
    <i name="e_0_energy">   -249.20357181 </i>
   </energy>
  </scstep>
  <scstep>
   <time name="dav">    1.00    1.00</time>
   <time name="total">    1.12    1.12</time>
   <energy>
    <i name="e_fr_energy">   -249.72797012 </i>
    <i name="e_wo_entrp">   -248.67969409 </i>
    <i name="e_0_energy">   -249.20383210 </i>
   </energy>
  </scstep>
  <scstep>
   <time name="dav">    0.99    0.99</time>
   <time name="total">    1.11    1.11</time>
   <energy>
    <i name="e_fr_energy">   -249.72807366 </i>
    <i name="e_wo_entrp">   -248.67976111 </i>
    <i name="e_0_energy">   -249.20391738 </i>
   </energy>
  </scstep>
  <scstep>
   <time name="dav">    0.98    0.99</time>
   <time name="total">    1.10    1.11</time>
   <energy>
    <i name="e_fr_energy">   -249.72828756 </i>
    <i name="e_wo_entrp">   -248.68041585 </i>
    <i name="e_0_energy">   -249.20435170 </i>
   </energy>
  </scstep>
  <scstep>
   <time name="dav">    0.98    0.99</time>
   <time name="total">    1.10    1.11</time>
   <energy>
    <i name="e_fr_energy">   -249.72840941 </i>
    <i name="e_wo_entrp">   -248.68021731 </i>
    <i name="e_0_energy">   -249.20431336 </i>
   </energy>
  </scstep>
  <scstep>
   <time name="dav">    1.03    1.04</time>
   <time name="total">    1.15    1.16</time>
   <energy>
    <i name="e_fr_energy">   -249.72888671 </i>
    <i name="e_wo_entrp">   -248.68082978 </i>
    <i name="e_0_energy">   -249.20485825 </i>
   </energy>
  </scstep>
  <scstep>
   <time name="dav">    1.02    1.02</time>
   <time name="total">    1.14    1.14</time>
   <energy>
    <i name="e_fr_energy">   -249.72909877 </i>
    <i name="e_wo_entrp">   -248.68110512 </i>
    <i name="e_0_energy">   -249.20510194 </i>
   </energy>
  </scstep>
  <scstep>
   <time name="dav">    0.98    0.98</time>
   <time name="total">    1.10    1.11</time>
   <energy>
    <i name="e_fr_energy">   -249.72923786 </i>
    <i name="e_wo_entrp">   -248.68107485 </i>
    <i name="e_0_energy">   -249.20515635 </i>
   </energy>
  </scstep>
  <scstep>
   <time name="dav">    0.97    0.97</time>
   <time name="total">    1.02    1.03</time>
   <energy>
    <i name="alphaZ">   1046.73971423 </i>
    <i name="ewald">  88104.79181199 </i>
    <i name="hartreedc">-174911.04888072 </i>
    <i name="XCdc">   2607.70940303 </i>
    <i name="pawpsdc">  92914.49335411 </i>
    <i name="pawaedc"> -96502.68324913 </i>
    <i name="eentropy">     -1.04808171 </i>
    <i name="bandstr"> -11732.78705890 </i>
    <i name="atom">  98224.10364994 </i>
    <i name="e_fr_energy">   -249.72933716 </i>
    <i name="e_wo_entrp">   -248.68125546 </i>
    <i name="e_0_energy">   -249.20529631 </i>
   </energy>
  </scstep>
  <structure>
   <crystal>
    <varray name="basis" >
     <v>      11.25646304       0.00000000       0.00000000 </v>
     <v>       0.00000000       9.57841000       0.00000000 </v>
     <v>       0.00000000       0.00000000      17.19249240 </v>
    </varray>
    <i name="volume">   1853.67765028 </i>
    <varray name="rec_basis" >
     <v>       0.08883785       0.00000000       0.00000000 </v>
     <v>       0.00000000       0.10440146       0.00000000 </v>
     <v>       0.00000000       0.00000000       0.05816492 </v>
    </varray>
   </crystal>
   <varray name="positions" >
    <v>       0.43933499       0.46388800       0.16283377 </v>
    <v>       0.49118692       0.46388800       0.34224601 </v>
    <v>       0.16340903       0.96388800       0.07312765 </v>
    <v>       0.21526096       0.96388800       0.25253989 </v>
    <v>       0.43933499       0.19968200       0.16283377 </v>
    <v>       0.49118692       0.19968200       0.34224601 </v>
    <v>       0.16340903       0.69968200       0.07312765 </v>
    <v>       0.21526096       0.69968200       0.25253989 </v>
    <v>       0.13063970       0.33178500       0.13913288 </v>
    <v>       0.18249164       0.33178500       0.31854511 </v>
    <v>       0.35471373       0.83178500       0.04942676 </v>
    <v>       0.40656566       0.83178500       0.22883899 </v>
    <v>       0.45841760       0.83178500       0.40825124 </v>
    <v>       0.93933499       0.46388800       0.16283377 </v>
    <v>       0.99118692       0.46388800       0.34224601 </v>
    <v>       0.66340903       0.96388800       0.07312765 </v>
    <v>       0.71526096       0.96388800       0.25253989 </v>
    <v>       0.93933499       0.19968200       0.16283377 </v>
    <v>       0.99118692       0.19968200       0.34224601 </v>
    <v>       0.66340903       0.69968200       0.07312765 </v>
    <v>       0.71526096       0.69968200       0.25253989 </v>
    <v>       0.63063970       0.33178500       0.13913288 </v>
    <v>       0.68249164       0.33178500       0.31854511 </v>
    <v>       0.85471373       0.83178500       0.04942676 </v>
    <v>       0.90656566       0.83178500       0.22883899 </v>
    <v>       0.95841760       0.83178500       0.40825124 </v>
    <v>       0.05963710       0.16357000       0.05952629 </v>
    <v>       0.11148904       0.16357000       0.23893853 </v>
    <v>       0.16334097       0.16357000       0.41835077 </v>
    <v>       0.33556306       0.66357000       0.14923241 </v>
    <v>       0.38741500       0.66357000       0.32864465 </v>
    <v>       0.05963710       0.50000000       0.05952629 </v>
    <v>       0.11148904       0.50000000       0.23893853 </v>
    <v>       0.16334097       0.50000000       0.41835077 </v>
    <v>       0.33556306       1.00000000       0.14923241 </v>
    <v>       0.38741500       1.00000000       0.32864465 </v>
    <v>       0.36788880       0.33178500       0.26911836 </v>
    <v>       0.04011091       0.83178500       0.00000000 </v>
    <v>       0.09196284       0.83178500       0.17941224 </v>
    <v>       0.61148904       0.16357000       0.23893853 </v>
    <v>       0.66334097       0.16357000       0.41835077 </v>
    <v>       0.83556306       0.66357000       0.14923241 </v>
    <v>       0.88741500       0.66357000       0.32864465 </v>
    <v>       0.61148904       0.50000000       0.23893853 </v>
    <v>       0.66334097       0.50000000       0.41835077 </v>
    <v>       0.83556306       1.00000000       0.14923241 </v>
    <v>       0.88741500       1.00000000       0.32864465 </v>
    <v>       0.81603687       0.33178500       0.08970612 </v>
    <v>       0.86788880       0.33178500       0.26911836 </v>
    <v>       0.54011091       0.83178500       0.00000000 </v>
    <v>       0.59196284       0.83178500       0.17941224 </v>
    <v>       0.64381478       0.83178500       0.35882448 </v>
   </varray>
  </structure>
  <varray name="forces" >
   <v>       0.16025647       0.14656114       0.86926400 </v>
   <v>       0.50151607       0.50435883      -0.37952807 </v>
   <v>      -0.74407211      -0.26345495       0.31517404 </v>
   <v>       0.29261995       0.42138958      -0.29623385 </v>
   <v>       0.16025647      -0.14656114       0.86926400 </v>
   <v>       0.50151607      -0.50435883      -0.37952807 </v>
   <v>      -0.74407211       0.26345495       0.31517404 </v>
   <v>       0.29261995      -0.42138958      -0.29623385 </v>
   <v>      -0.50161697      -0.00000000       0.12478891 </v>
   <v>      -0.14994430      -0.00000000       1.05329818 </v>
   <v>       0.82230212      -0.00000000       0.94255232 </v>
   <v>      -0.33607957      -0.00000000       0.19812249 </v>
   <v>       0.46379495      -0.00000000      -2.24882914 </v>
   <v>      -0.20860499      -0.04220569      -0.24196196 </v>
   <v>       0.61011081       0.53513553      -0.19792761 </v>
   <v>      -0.17377575      -0.98492220       0.67821294 </v>
   <v>      -0.28091508      -0.12083637       0.25313078 </v>
   <v>      -0.20860499       0.04220569      -0.24196196 </v>
   <v>       0.61011081      -0.53513553      -0.19792761 </v>
   <v>      -0.17377575       0.98492220       0.67821294 </v>
   <v>      -0.28091508       0.12083637       0.25313078 </v>
   <v>       0.59608516      -0.00000000       0.95180663 </v>
   <v>      -0.12216602      -0.00000000       0.71025327 </v>
   <v>       0.85531370      -0.00000000       0.83275444 </v>
   <v>       0.35301117      -0.00000000       0.16325855 </v>
   <v>      -1.08955452      -0.00000000      -1.87943848 </v>
   <v>       0.89129907       0.02134333       0.26540263 </v>
   <v>       0.31409100       0.14083510      -0.13513645 </v>
   <v>      -0.96245203       0.79824778      -1.18693383 </v>
   <v>       0.25957657      -0.43830578      -1.23442696 </v>
   <v>      -0.33622395       0.78910455       0.78339329 </v>
   <v>       0.89129907      -0.02134333       0.26540263 </v>
   <v>       0.31409100      -0.14083510      -0.13513645 </v>
   <v>      -0.96245203      -0.79824778      -1.18693383 </v>
   <v>       0.25957657       0.43830578      -1.23442696 </v>
   <v>      -0.33622395      -0.78910455       0.78339329 </v>
   <v>       0.40025634      -0.00000000      -0.16713412 </v>
   <v>       0.01075258      -0.00000000       0.84142866 </v>
   <v>       0.52413968      -0.00000000       0.94083870 </v>
   <v>      -0.21494614       0.54175094      -0.72815304 </v>
   <v>      -1.03184870       1.10217119      -1.05548903 </v>
   <v>      -0.31698137       0.08456436      -0.98760836 </v>
   <v>       0.52214842       0.87083401       0.87409487 </v>
   <v>      -0.21494614      -0.54175094      -0.72815304 </v>
   <v>      -1.03184870      -1.10217119      -1.05548903 </v>
   <v>      -0.31698137      -0.08456436      -0.98760836 </v>
   <v>       0.52214842      -0.87083401       0.87409487 </v>
   <v>      -0.98813275      -0.00000000       0.53259986 </v>
   <v>       0.27830299      -0.00000000       0.77058396 </v>
   <v>       0.11265465      -0.00000000       0.88988772 </v>
   <v>       0.45784453      -0.00000000      -0.24759595 </v>
   <v>      -0.25056023      -0.00000000       0.40027725 </v>
  </varray>
  <varray name="stress" >
   <v>     -30.58988864       0.00000000     -12.69139833 </v>
   <v>       0.00000000     -30.82749532       0.00000000 </v>
   <v>     -12.69139804       0.00000000     -34.41819367 </v>
  </varray>
  <energy>
   <i name="e_fr_energy">   -249.72933716 </i>
   <i name="e_wo_entrp">   -248.68125546 </i>
   <i name="e_0_energy">   -249.20529631 </i>
  </energy>
  <time name="totalsc">   72.83   73.10</time>
  <eigenvalues>
   <array>
    <dimension dim="1">band</dimension>
    <dimension dim="2">kpoint</dimension>
    <dimension dim="3">spin</dimension>
    <field>eigene</field>
    <field>occ</field>
    <set>
     <set comment="spin 1">
      <set comment="kpoint 1">
       <r>  -64.5254    1.0000 </r>
       <r>  -64.5130    1.0000 </r>
       <r>  -64.5118    1.0000 </r>
       <r>  -64.4850    1.0000 </r>
       <r>  -64.4330    1.0000 </r>
       <r>  -64.4193    1.0000 </r>
       <r>  -64.4166    1.0000 </r>
       <r>  -64.4164    1.0000 </r>
       <r>  -64.4126    1.0000 </r>
       <r>  -64.4061    1.0000 </r>
       <r>  -64.4042    1.0000 </r>
       <r>  -64.4042    1.0000 </r>
       <r>  -64.3993    1.0000 </r>
       <r>  -64.3811    1.0000 </r>
       <r>  -64.3749    1.0000 </r>
       <r>  -64.3571    1.0000 </r>
       <r>  -64.3329    1.0000 </r>
       <r>  -64.3206    1.0000 </r>
       <r>  -64.2532    1.0000 </r>
       <r>  -64.2520    1.0000 </r>
       <r>  -64.2496    1.0000 </r>
       <r>  -64.2444    1.0000 </r>
       <r>  -64.2320    1.0000 </r>
       <r>  -64.2242    1.0000 </r>
       <r>  -64.1973    1.0000 </r>
       <r>  -64.1930    1.0000 </r>
       <r>  -64.1700    1.0000 </r>
       <r>  -64.1573    1.0000 </r>
       <r>  -64.1316    1.0000 </r>
       <r>  -64.1310    1.0000 </r>
       <r>  -64.1144    1.0000 </r>
       <r>  -64.1123    1.0000 </r>
       <r>  -64.1064    1.0000 </r>
       <r>  -64.1012    1.0000 </r>
       <r>  -64.0682    1.0000 </r>
       <r>  -64.0472    1.0000 </r>
       <r>  -64.0079    1.0000 </r>
       <r>  -64.0078    1.0000 </r>
       <r>  -64.0052    1.0000 </r>
       <r>  -63.9987    1.0000 </r>
       <r>  -63.9719    1.0000 </r>
       <r>  -63.9710    1.0000 </r>
       <r>  -63.9603    1.0000 </r>
       <r>  -63.9506    1.0000 </r>
       <r>  -63.9481    1.0000 </r>
       <r>  -63.9457    1.0000 </r>
       <r>  -63.9303    1.0000 </r>
       <r>  -63.9143    1.0000 </r>
       <r>  -63.8860    1.0000 </r>
       <r>  -63.7516    1.0000 </r>
       <r>  -63.7152    1.0000 </r>
       <r>  -63.6773    1.0000 </r>
       <r>  -63.6740    1.0000 </r>
       <r>  -63.6689    1.0000 </r>
       <r>  -63.6538    1.0000 </r>
       <r>  -63.6416    1.0000 </r>
       <r>  -63.6379    1.0000 </r>
       <r>  -63.6375    1.0000 </r>
       <r>  -63.6141    1.0000 </r>
       <r>  -63.5513    1.0000 </r>
       <r>  -63.5340    1.0000 </r>
       <r>  -63.5248    1.0000 </r>
       <r>  -63.5113    1.0000 </r>
       <r>  -63.4988    1.0000 </r>
       <r>  -63.4886    1.0000 </r>
       <r>  -63.4761    1.0000 </r>
       <r>  -63.4703    1.0000 </r>
       <r>  -63.4475    1.0000 </r>
       <r>  -63.4398    1.0000 </r>
       <r>  -63.3909    1.0000 </r>
       <r>  -63.3819    1.0000 </r>
       <r>  -63.3699    1.0000 </r>
       <r>  -63.3343    1.0000 </r>
       <r>  -63.3077    1.0000 </r>
       <r>  -63.2773    1.0000 </r>
       <r>  -63.2449    1.0000 </r>
       <r>  -63.2445    1.0000 </r>
       <r>  -62.7371    1.0000 </r>
       <r>  -15.3524    1.0000 </r>
       <r>  -14.7994    1.0000 </r>
       <r>  -14.7112    1.0000 </r>
       <r>  -14.6919    1.0000 </r>
       <r>  -14.3647    1.0000 </r>
       <r>  -14.1687    1.0000 </r>
       <r>  -14.1040    1.0000 </r>
       <r>  -14.0863    1.0000 </r>
       <r>  -13.9635    1.0000 </r>
       <r>  -13.8730    1.0000 </r>
       <r>  -13.7818    1.0000 </r>
       <r>  -13.7021    1.0000 </r>
       <r>  -13.6256    1.0000 </r>
       <r>  -13.6108    1.0000 </r>
       <r>  -13.2997    1.0000 </r>
       <r>  -13.2485    1.0000 </r>
       <r>  -13.1777    1.0000 </r>
       <r>  -12.9274    1.0000 </r>
       <r>  -12.8187    1.0000 </r>
       <r>  -12.7132    1.0000 </r>
       <r>  -12.6647    1.0000 </r>
       <r>  -12.6527    1.0000 </r>
       <r>  -12.3114    1.0000 </r>
       <r>  -12.2851    1.0000 </r>
       <r>  -11.8879    1.0000 </r>
       <r>  -11.8263    1.0000 </r>
       <r>   -7.1634    1.0000 </r>
       <r>   -7.0022    1.0000 </r>
       <r>   -6.9172    1.0000 </r>
       <r>   -6.8662    1.0000 </r>
       <r>   -6.7396    1.0000 </r>
       <r>   -6.6184    1.0000 </r>
       <r>   -6.4693    1.0000 </r>
       <r>   -6.4104    1.0000 </r>
       <r>   -6.3715    1.0000 </r>
       <r>   -6.2991    1.0000 </r>
       <r>   -6.2372    1.0000 </r>
       <r>   -6.0952    1.0000 </r>
       <r>   -6.0678    1.0000 </r>
       <r>   -6.0011    1.0000 </r>
       <r>   -5.9586    1.0000 </r>
       <r>   -5.8815    1.0000 </r>
       <r>   -5.8728    1.0000 </r>
       <r>   -5.7731    1.0000 </r>
       <r>   -5.7400    1.0000 </r>
       <r>   -5.5573    1.0000 </r>
       <r>   -5.5553    1.0000 </r>
       <r>   -5.4809    1.0000 </r>
       <r>   -5.4460    1.0000 </r>
       <r>   -5.3803    1.0000 </r>
       <r>   -5.3799    1.0000 </r>
       <r>   -5.2558    1.0000 </r>
       <r>   -5.2018    1.0000 </r>
       <r>   -5.1284    1.0000 </r>
       <r>   -5.0689    1.0000 </r>
       <r>   -5.0319    1.0000 </r>
       <r>   -4.9289    1.0000 </r>
       <r>   -4.8581    1.0000 </r>
       <r>   -4.8101    1.0000 </r>
       <r>   -4.7509    1.0000 </r>
       <r>   -4.6985    1.0000 </r>
       <r>   -4.6673    1.0000 </r>
       <r>   -4.6061    1.0000 </r>
       <r>   -4.5330    1.0000 </r>
       <r>   -4.5216    1.0000 </r>
       <r>   -4.4823    1.0000 </r>
       <r>   -4.4022    1.0000 </r>
       <r>   -4.3991    1.0000 </r>
       <r>   -4.3561    1.0000 </r>
       <r>   -4.2321    1.0000 </r>
       <r>   -4.2181    1.0000 </r>
       <r>   -4.1446    1.0000 </r>
       <r>   -4.0842    1.0000 </r>
       <r>   -4.0788    1.0000 </r>
       <r>   -4.0636    1.0000 </r>
       <r>   -3.9987    1.0000 </r>
       <r>   -3.9551    1.0000 </r>
       <r>   -3.8950    1.0000 </r>
       <r>   -3.8724    1.0000 </r>
       <r>   -3.8135    1.0000 </r>
       <r>   -3.7613    1.0000 </r>
       <r>   -3.7598    1.0000 </r>
       <r>   -3.7085    1.0000 </r>
       <r>   -3.6539    1.0000 </r>
       <r>   -3.6382    1.0000 </r>
       <r>   -3.5900    1.0000 </r>
       <r>   -3.5054    1.0000 </r>
       <r>   -3.4586    1.0000 </r>
       <r>   -3.4479    1.0000 </r>
       <r>   -3.3998    1.0000 </r>
       <r>   -3.3713    1.0000 </r>
       <r>   -3.3420    1.0000 </r>
       <r>   -3.2672    1.0000 </r>
       <r>   -3.2102    1.0000 </r>
       <r>   -3.1485    1.0000 </r>
       <r>   -3.1480    1.0000 </r>
       <r>   -3.0298    1.0000 </r>
       <r>   -3.0111    1.0000 </r>
       <r>   -2.9591    1.0000 </r>
       <r>   -2.9276    1.0000 </r>
       <r>   -2.9124    1.0000 </r>
       <r>   -2.9037    1.0000 </r>
       <r>   -2.8208    1.0000 </r>
       <r>   -2.7790    1.0000 </r>
       <r>   -2.7408    1.0000 </r>
       <r>   -2.6841    1.0000 </r>
       <r>   -2.6723    1.0000 </r>
       <r>   -2.6165    1.0000 </r>
       <r>   -2.6151    1.0000 </r>
       <r>   -2.5872    1.0000 </r>
       <r>   -2.5150    1.0000 </r>
       <r>   -2.5043    1.0000 </r>
       <r>   -2.4621    1.0000 </r>
       <r>   -2.4432    1.0000 </r>
       <r>   -2.4352    1.0000 </r>
       <r>   -2.3997    1.0000 </r>
       <r>   -2.3927    1.0000 </r>
       <r>   -2.3526    1.0000 </r>
       <r>   -2.3010    1.0000 </r>
       <r>   -2.2889    1.0000 </r>
       <r>   -2.2698    1.0000 </r>
       <r>   -2.2476    1.0000 </r>
       <r>   -2.2217    1.0000 </r>
       <r>   -2.2072    1.0000 </r>
       <r>   -2.2020    1.0000 </r>
       <r>   -2.1352    1.0000 </r>
       <r>   -2.1154    1.0000 </r>
       <r>   -2.1123    1.0000 </r>
       <r>   -2.0900    1.0000 </r>
       <r>   -2.0552    1.0000 </r>
       <r>   -2.0547    1.0000 </r>
       <r>   -2.0358    1.0000 </r>
       <r>   -2.0231    1.0000 </r>
       <r>   -2.0178    1.0000 </r>
       <r>   -1.9760    1.0000 </r>
       <r>   -1.9731    1.0000 </r>
       <r>   -1.9432    1.0000 </r>
       <r>   -1.9322    1.0000 </r>
       <r>   -1.9197    1.0000 </r>
       <r>   -1.9017    1.0000 </r>
       <r>   -1.8926    1.0000 </r>
       <r>   -1.8872    1.0000 </r>
       <r>   -1.8826    1.0000 </r>
       <r>   -1.8571    1.0000 </r>
       <r>   -1.8483    1.0000 </r>
       <r>   -1.8466    1.0000 </r>
       <r>   -1.8195    1.0000 </r>
       <r>   -1.8043    1.0000 </r>
       <r>   -1.7680    1.0000 </r>
       <r>   -1.7574    1.0000 </r>
       <r>   -1.7442    1.0000 </r>
       <r>   -1.7039    1.0000 </r>
       <r>   -1.6947    1.0000 </r>
       <r>   -1.6664    1.0000 </r>
       <r>   -1.6488    1.0000 </r>
       <r>   -1.6401    1.0000 </r>
       <r>   -1.6056    1.0000 </r>
       <r>   -1.6047    1.0000 </r>
       <r>   -1.5762    1.0000 </r>
       <r>   -1.5508    1.0000 </r>
       <r>   -1.5444    1.0000 </r>
       <r>   -1.5144    1.0000 </r>
       <r>   -1.5017    1.0000 </r>
       <r>   -1.4788    1.0000 </r>
       <r>   -1.4567    1.0000 </r>
       <r>   -1.4437    1.0000 </r>
       <r>   -1.4356    1.0000 </r>
       <r>   -1.4173    1.0000 </r>
       <r>   -1.3914    1.0000 </r>
       <r>   -1.3704    1.0000 </r>
       <r>   -1.3682    1.0000 </r>
       <r>   -1.3400    1.0000 </r>
       <r>   -1.3220    1.0000 </r>
       <r>   -1.3173    1.0000 </r>
       <r>   -1.3016    1.0000 </r>
       <r>   -1.2668    1.0000 </r>
       <r>   -1.2448    1.0000 </r>
       <r>   -1.2381    1.0000 </r>
       <r>   -1.2069    1.0000 </r>
       <r>   -1.2042    1.0000 </r>
       <r>   -1.1752    1.0000 </r>
       <r>   -1.1407    1.0000 </r>
       <r>   -1.1210    1.0000 </r>
       <r>   -1.1082    1.0000 </r>
       <r>   -1.1006    1.0000 </r>
       <r>   -1.0651    1.0000 </r>
       <r>   -1.0615    1.0000 </r>
       <r>   -1.0195    1.0000 </r>
       <r>   -1.0171    1.0000 </r>
       <r>   -0.9913    1.0000 </r>
       <r>   -0.9812    1.0000 </r>
       <r>   -0.9463    1.0000 </r>
       <r>   -0.9445    1.0000 </r>
       <r>   -0.8843    0.9998 </r>
       <r>   -0.8453    0.9995 </r>
       <r>   -0.8213    0.9991 </r>
       <r>   -0.8012    0.9986 </r>
       <r>   -0.7134    0.9908 </r>
       <r>   -0.6997    0.9881 </r>
       <r>   -0.6975    0.9877 </r>
       <r>   -0.6497    0.9718 </r>
       <r>   -0.6268    0.9597 </r>
       <r>   -0.6179    0.9539 </r>
       <r>   -0.5548    0.8920 </r>
       <r>   -0.5017    0.8056 </r>
       <r>   -0.4819    0.7648 </r>
       <r>   -0.4417    0.6690 </r>
       <r>   -0.4087    0.5809 </r>
       <r>   -0.3397    0.3884 </r>
       <r>   -0.3040    0.2960 </r>
       <r>   -0.2968    0.2785 </r>
       <r>   -0.2599    0.1983 </r>
       <r>   -0.2372    0.1566 </r>
       <r>   -0.1702    0.0691 </r>
       <r>   -0.1301    0.0387 </r>
       <r>   -0.0440    0.0088 </r>
       <r>    0.0174    0.0025 </r>
       <r>    0.0392    0.0015 </r>
       <r>    0.1092    0.0003 </r>
       <r>    0.1622    0.0001 </r>
       <r>    0.2014    0.0000 </r>
       <r>    0.2223    0.0000 </r>
       <r>    0.3169    0.0000 </r>
       <r>    0.4045    0.0000 </r>
       <r>    0.4121    0.0000 </r>
       <r>    0.4353    0.0000 </r>
       <r>    0.5085    0.0000 </r>
       <r>    0.6149    0.0000 </r>
       <r>    0.6475    0.0000 </r>
       <r>    0.6668    0.0000 </r>
       <r>    0.7335    0.0000 </r>
       <r>    0.8156    0.0000 </r>
       <r>    0.8381    0.0000 </r>
       <r>    1.0075    0.0000 </r>
       <r>    1.0575    0.0000 </r>
       <r>    1.4779    0.0000 </r>
       <r>    1.8121    0.0000 </r>
       <r>    2.3224    0.0000 </r>
       <r>    2.5257    0.0000 </r>
       <r>    2.8951    0.0000 </r>
       <r>    2.9717    0.0000 </r>
       <r>    3.0070    0.0000 </r>
       <r>    3.0769    0.0000 </r>
       <r>    3.3115    0.0000 </r>
       <r>    3.7340    0.0000 </r>
       <r>    3.7954    0.0000 </r>
       <r>    4.0298    0.0000 </r>
       <r>    4.0743    0.0000 </r>
       <r>    4.3698    0.0000 </r>
       <r>    4.4484    0.0000 </r>
       <r>    4.5866    0.0000 </r>
       <r>    4.6363    0.0000 </r>
       <r>    4.6480    0.0000 </r>
       <r>    4.6701    0.0000 </r>
       <r>    4.7688    0.0000 </r>
       <r>    4.8632    0.0000 </r>
       <r>    4.9398    0.0000 </r>
       <r>    4.9811    0.0000 </r>
       <r>    5.0113    0.0000 </r>
       <r>    5.1059    0.0000 </r>
       <r>    5.1992    0.0000 </r>
       <r>    5.3069    0.0000 </r>
       <r>    5.3563    0.0000 </r>
       <r>    5.3601    0.0000 </r>
       <r>    5.4745    0.0000 </r>
       <r>    5.5567    0.0000 </r>
      </set>
     </set>
    </set>
   </array>
  </eigenvalues>
  <separator name="orbital magnetization" >
   <v name="MAGDIPOLOUT">      0.00000000      0.00000000      0.00000000</v>
  </separator>
  <dos>
   <i name="efermi">     -0.37982243 </i>
   <total>
    <array>
     <dimension dim="1">gridpoints</dimension>
     <dimension dim="2">spin</dimension>
     <field>energy</field>
     <field>total</field>
     <field>integrated</field>
     <set>
      <set comment="spin 1">
       <r>   -68.0295     0.0000     0.0000 </r>
       <r>   -67.7725     0.0000     0.0000 </r>
       <r>   -67.5156     0.0000     0.0000 </r>
       <r>   -67.2586     0.0000     0.0000 </r>
       <r>   -67.0016     0.0000     0.0000 </r>
       <r>   -66.7447     0.0000     0.0000 </r>
       <r>   -66.4877     0.0000     0.0000 </r>
       <r>   -66.2307     0.0000     0.0000 </r>
       <r>   -65.9737     0.0000     0.0000 </r>
       <r>   -65.7168     0.0000     0.0000 </r>
       <r>   -65.4598     0.0000     0.0000 </r>
       <r>   -65.2028     0.0000     0.0000 </r>
       <r>   -64.9459     0.0393     0.0101 </r>
       <r>   -64.6889     5.3638     1.3884 </r>
       <r>   -64.4319    65.2680    18.1602 </r>
       <r>   -64.1750   135.8346    53.0653 </r>
       <r>   -63.9180   131.7495    86.9207 </r>
       <r>   -63.6610    91.7068   110.4864 </r>
       <r>   -63.4041   101.3799   136.5378 </r>
       <r>   -63.1471    59.2110   151.7531 </r>
       <r>   -62.8901     9.6853   154.2419 </r>
       <r>   -62.6332     5.0421   155.5376 </r>
       <r>   -62.3762     1.7579   155.9893 </r>
       <r>   -62.1192     0.0416   156.0000 </r>
       <r>   -61.8623     0.0000   156.0000 </r>
       <r>   -61.6053     0.0000   156.0000 </r>
       <r>   -61.3483     0.0000   156.0000 </r>
       <r>   -61.0914     0.0000   156.0000 </r>
       <r>   -60.8344     0.0000   156.0000 </r>
       <r>   -60.5774     0.0000   156.0000 </r>
       <r>   -60.3205     0.0000   156.0000 </r>
       <r>   -60.0635     0.0000   156.0000 </r>
       <r>   -59.8065     0.0000   156.0000 </r>
       <r>   -59.5496     0.0000   156.0000 </r>
       <r>   -59.2926     0.0000   156.0000 </r>
       <r>   -59.0356     0.0000   156.0000 </r>
       <r>   -58.7787     0.0000   156.0000 </r>
       <r>   -58.5217     0.0000   156.0000 </r>
       <r>   -58.2647     0.0000   156.0000 </r>
       <r>   -58.0077     0.0000   156.0000 </r>
       <r>   -57.7508     0.0000   156.0000 </r>
       <r>   -57.4938     0.0000   156.0000 </r>
       <r>   -57.2368     0.0000   156.0000 </r>
       <r>   -56.9799     0.0000   156.0000 </r>
       <r>   -56.7229     0.0000   156.0000 </r>
       <r>   -56.4659     0.0000   156.0000 </r>
       <r>   -56.2090     0.0000   156.0000 </r>
       <r>   -55.9520     0.0000   156.0000 </r>
       <r>   -55.6950     0.0000   156.0000 </r>
       <r>   -55.4381     0.0000   156.0000 </r>
       <r>   -55.1811     0.0000   156.0000 </r>
       <r>   -54.9241     0.0000   156.0000 </r>
       <r>   -54.6672     0.0000   156.0000 </r>
       <r>   -54.4102     0.0000   156.0000 </r>
       <r>   -54.1532     0.0000   156.0000 </r>
       <r>   -53.8963     0.0000   156.0000 </r>
       <r>   -53.6393     0.0000   156.0000 </r>
       <r>   -53.3823     0.0000   156.0000 </r>
       <r>   -53.1254     0.0000   156.0000 </r>
       <r>   -52.8684     0.0000   156.0000 </r>
       <r>   -52.6114     0.0000   156.0000 </r>
       <r>   -52.3545     0.0000   156.0000 </r>
       <r>   -52.0975     0.0000   156.0000 </r>
       <r>   -51.8405     0.0000   156.0000 </r>
       <r>   -51.5836     0.0000   156.0000 </r>
       <r>   -51.3266     0.0000   156.0000 </r>
       <r>   -51.0696     0.0000   156.0000 </r>
       <r>   -50.8126     0.0000   156.0000 </r>
       <r>   -50.5557     0.0000   156.0000 </r>
       <r>   -50.2987     0.0000   156.0000 </r>
       <r>   -50.0417     0.0000   156.0000 </r>
       <r>   -49.7848     0.0000   156.0000 </r>
       <r>   -49.5278     0.0000   156.0000 </r>
       <r>   -49.2708     0.0000   156.0000 </r>
       <r>   -49.0139     0.0000   156.0000 </r>
       <r>   -48.7569     0.0000   156.0000 </r>
       <r>   -48.4999     0.0000   156.0000 </r>
       <r>   -48.2430     0.0000   156.0000 </r>
       <r>   -47.9860     0.0000   156.0000 </r>
       <r>   -47.7290     0.0000   156.0000 </r>
       <r>   -47.4721     0.0000   156.0000 </r>
       <r>   -47.2151     0.0000   156.0000 </r>
       <r>   -46.9581     0.0000   156.0000 </r>
       <r>   -46.7012     0.0000   156.0000 </r>
       <r>   -46.4442     0.0000   156.0000 </r>
       <r>   -46.1872     0.0000   156.0000 </r>
       <r>   -45.9303     0.0000   156.0000 </r>
       <r>   -45.6733     0.0000   156.0000 </r>
       <r>   -45.4163     0.0000   156.0000 </r>
       <r>   -45.1594     0.0000   156.0000 </r>
       <r>   -44.9024     0.0000   156.0000 </r>
       <r>   -44.6454     0.0000   156.0000 </r>
       <r>   -44.3885     0.0000   156.0000 </r>
       <r>   -44.1315     0.0000   156.0000 </r>
       <r>   -43.8745     0.0000   156.0000 </r>
       <r>   -43.6175     0.0000   156.0000 </r>
       <r>   -43.3606     0.0000   156.0000 </r>
       <r>   -43.1036     0.0000   156.0000 </r>
       <r>   -42.8466     0.0000   156.0000 </r>
       <r>   -42.5897     0.0000   156.0000 </r>
       <r>   -42.3327     0.0000   156.0000 </r>
       <r>   -42.0757     0.0000   156.0000 </r>
       <r>   -41.8188     0.0000   156.0000 </r>
       <r>   -41.5618     0.0000   156.0000 </r>
       <r>   -41.3048     0.0000   156.0000 </r>
       <r>   -41.0479     0.0000   156.0000 </r>
       <r>   -40.7909     0.0000   156.0000 </r>
       <r>   -40.5339     0.0000   156.0000 </r>
       <r>   -40.2770     0.0000   156.0000 </r>
       <r>   -40.0200     0.0000   156.0000 </r>
       <r>   -39.7630     0.0000   156.0000 </r>
       <r>   -39.5061     0.0000   156.0000 </r>
       <r>   -39.2491     0.0000   156.0000 </r>
       <r>   -38.9921     0.0000   156.0000 </r>
       <r>   -38.7352     0.0000   156.0000 </r>
       <r>   -38.4782     0.0000   156.0000 </r>
       <r>   -38.2212     0.0000   156.0000 </r>
       <r>   -37.9643     0.0000   156.0000 </r>
       <r>   -37.7073     0.0000   156.0000 </r>
       <r>   -37.4503     0.0000   156.0000 </r>
       <r>   -37.1934     0.0000   156.0000 </r>
       <r>   -36.9364     0.0000   156.0000 </r>
       <r>   -36.6794     0.0000   156.0000 </r>
       <r>   -36.4225     0.0000   156.0000 </r>
       <r>   -36.1655     0.0000   156.0000 </r>
       <r>   -35.9085     0.0000   156.0000 </r>
       <r>   -35.6515     0.0000   156.0000 </r>
       <r>   -35.3946     0.0000   156.0000 </r>
       <r>   -35.1376     0.0000   156.0000 </r>
       <r>   -34.8806     0.0000   156.0000 </r>
       <r>   -34.6237     0.0000   156.0000 </r>
       <r>   -34.3667     0.0000   156.0000 </r>
       <r>   -34.1097     0.0000   156.0000 </r>
       <r>   -33.8528     0.0000   156.0000 </r>
       <r>   -33.5958     0.0000   156.0000 </r>
       <r>   -33.3388     0.0000   156.0000 </r>
       <r>   -33.0819     0.0000   156.0000 </r>
       <r>   -32.8249     0.0000   156.0000 </r>
       <r>   -32.5679     0.0000   156.0000 </r>
       <r>   -32.3110     0.0000   156.0000 </r>
       <r>   -32.0540     0.0000   156.0000 </r>
       <r>   -31.7970     0.0000   156.0000 </r>
       <r>   -31.5401     0.0000   156.0000 </r>
       <r>   -31.2831     0.0000   156.0000 </r>
       <r>   -31.0261     0.0000   156.0000 </r>
       <r>   -30.7692     0.0000   156.0000 </r>
       <r>   -30.5122     0.0000   156.0000 </r>
       <r>   -30.2552     0.0000   156.0000 </r>
       <r>   -29.9983     0.0000   156.0000 </r>
       <r>   -29.7413     0.0000   156.0000 </r>
       <r>   -29.4843     0.0000   156.0000 </r>
       <r>   -29.2274     0.0000   156.0000 </r>
       <r>   -28.9704     0.0000   156.0000 </r>
       <r>   -28.7134     0.0000   156.0000 </r>
       <r>   -28.4564     0.0000   156.0000 </r>
       <r>   -28.1995     0.0000   156.0000 </r>
       <r>   -27.9425     0.0000   156.0000 </r>
       <r>   -27.6855     0.0000   156.0000 </r>
       <r>   -27.4286     0.0000   156.0000 </r>
       <r>   -27.1716     0.0000   156.0000 </r>
       <r>   -26.9146     0.0000   156.0000 </r>
       <r>   -26.6577     0.0000   156.0000 </r>
       <r>   -26.4007     0.0000   156.0000 </r>
       <r>   -26.1437     0.0000   156.0000 </r>
       <r>   -25.8868     0.0000   156.0000 </r>
       <r>   -25.6298     0.0000   156.0000 </r>
       <r>   -25.3728     0.0000   156.0000 </r>
       <r>   -25.1159     0.0000   156.0000 </r>
       <r>   -24.8589     0.0000   156.0000 </r>
       <r>   -24.6019     0.0000   156.0000 </r>
       <r>   -24.3450     0.0000   156.0000 </r>
       <r>   -24.0880     0.0000   156.0000 </r>
       <r>   -23.8310     0.0000   156.0000 </r>
       <r>   -23.5741     0.0000   156.0000 </r>
       <r>   -23.3171     0.0000   156.0000 </r>
       <r>   -23.0601     0.0000   156.0000 </r>
       <r>   -22.8032     0.0000   156.0000 </r>
       <r>   -22.5462     0.0000   156.0000 </r>
       <r>   -22.2892     0.0000   156.0000 </r>
       <r>   -22.0323     0.0000   156.0000 </r>
       <r>   -21.7753     0.0000   156.0000 </r>
       <r>   -21.5183     0.0000   156.0000 </r>
       <r>   -21.2614     0.0000   156.0000 </r>
       <r>   -21.0044     0.0000   156.0000 </r>
       <r>   -20.7474     0.0000   156.0000 </r>
       <r>   -20.4904     0.0000   156.0000 </r>
       <r>   -20.2335     0.0000   156.0000 </r>
       <r>   -19.9765     0.0000   156.0000 </r>
       <r>   -19.7195     0.0000   156.0000 </r>
       <r>   -19.4626     0.0000   156.0000 </r>
       <r>   -19.2056     0.0000   156.0000 </r>
       <r>   -18.9486     0.0000   156.0000 </r>
       <r>   -18.6917     0.0000   156.0000 </r>
       <r>   -18.4347     0.0000   156.0000 </r>
       <r>   -18.1777     0.0000   156.0000 </r>
       <r>   -17.9208     0.0000   156.0000 </r>
       <r>   -17.6638     0.0000   156.0000 </r>
       <r>   -17.4068     0.0000   156.0000 </r>
       <r>   -17.1499     0.0000   156.0000 </r>
       <r>   -16.8929     0.0000   156.0000 </r>
       <r>   -16.6359     0.0000   156.0000 </r>
       <r>   -16.3790     0.0000   156.0000 </r>
       <r>   -16.1220     0.0000   156.0000 </r>
       <r>   -15.8650     0.0011   156.0003 </r>
       <r>   -15.6081     0.2738   156.0706 </r>
       <r>   -15.3511     3.6457   157.0075 </r>
       <r>   -15.0941     3.7870   157.9806 </r>
       <r>   -14.8372     5.7882   159.4680 </r>
       <r>   -14.5802    14.6314   163.2278 </r>
       <r>   -14.3232     9.6866   165.7169 </r>
       <r>   -14.0663    18.6776   170.5165 </r>
       <r>   -13.8093    23.7640   176.6230 </r>
       <r>   -13.5523    22.5158   182.4089 </r>
       <r>   -13.2953    14.4848   186.1310 </r>
       <r>   -13.0384    15.2996   190.0625 </r>
       <r>   -12.7814    16.5003   194.3025 </r>
       <r>   -12.5244    19.4981   199.3129 </r>
       <r>   -12.2675    11.7761   202.3390 </r>
       <r>   -12.0105     8.3833   204.4932 </r>
       <r>   -11.7535     9.9529   207.0508 </r>
       <r>   -11.4966     3.5950   207.9746 </r>
       <r>   -11.2396     0.0986   208.0000 </r>
       <r>   -10.9826     0.0001   208.0000 </r>
       <r>   -10.7257     0.0000   208.0000 </r>
       <r>   -10.4687     0.0000   208.0000 </r>
       <r>   -10.2117     0.0000   208.0000 </r>
       <r>    -9.9548     0.0000   208.0000 </r>
       <r>    -9.6978     0.0000   208.0000 </r>
       <r>    -9.4408     0.0000   208.0000 </r>
       <r>    -9.1839     0.0000   208.0000 </r>
       <r>    -8.9269     0.0000   208.0000 </r>
       <r>    -8.6699     0.0000   208.0000 </r>
       <r>    -8.4130     0.0000   208.0000 </r>
       <r>    -8.1560     0.0000   208.0000 </r>
       <r>    -7.8990     0.0000   208.0000 </r>
       <r>    -7.6421     0.0028   208.0007 </r>
       <r>    -7.3851     0.4836   208.1250 </r>
       <r>    -7.1281     6.4281   209.7768 </r>
       <r>    -6.8712    17.4746   214.2672 </r>
       <r>    -6.6142    18.8494   219.1109 </r>
       <r>    -6.3572    23.2022   225.0731 </r>
       <r>    -6.1003    27.9917   232.2661 </r>
       <r>    -5.8433    32.7920   240.6926 </r>
       <r>    -5.5863    29.2215   248.2016 </r>
       <r>    -5.3293    33.7586   256.8765 </r>
       <r>    -5.0724    31.5183   264.9756 </r>
       <r>    -4.8154    31.8151   273.1511 </r>
       <r>    -4.5584    39.0015   283.1732 </r>
       <r>    -4.3015    40.9536   293.6970 </r>
       <r>    -4.0445    42.3901   304.5899 </r>
       <r>    -3.7875    47.5237   316.8019 </r>
       <r>    -3.5306    47.2007   328.9310 </r>
       <r>    -3.2736    45.1464   340.5322 </r>
       <r>    -3.0166    42.6872   351.5014 </r>
       <r>    -2.7597    50.3694   364.4447 </r>
       <r>    -2.5027    60.3239   379.9460 </r>
       <r>    -2.2457    77.3541   399.8235 </r>
       <r>    -1.9888   101.8273   425.9899 </r>
       <r>    -1.7318   118.5449   456.4521 </r>
       <r>    -1.4748   108.0690   484.2223 </r>
       <r>    -1.2179   107.7973   511.9228 </r>
       <r>    -0.9609    94.0756   536.0972 </r>
       <r>    -0.7039    68.6166   553.7294 </r>
       <r>    -0.4470    57.2527   568.4415 </r>
       <r>    -0.1900    50.3006   581.3672 </r>
       <r>     0.0670    40.0685   591.6635 </r>
       <r>     0.3239    38.3606   601.5209 </r>
       <r>     0.5809    36.8890   611.0002 </r>
       <r>     0.8379    32.9427   619.4654 </r>
       <r>     1.0948    19.7679   624.5451 </r>
       <r>     1.3518     6.9106   626.3209 </r>
       <r>     1.6088     5.7388   627.7956 </r>
       <r>     1.8658     5.8182   629.2907 </r>
       <r>     2.1227     3.2825   630.1342 </r>
       <r>     2.3797     5.7684   631.6165 </r>
       <r>     2.6367     7.8633   633.6371 </r>
       <r>     2.8936     9.9098   636.1836 </r>
       <r>     3.1506    18.9998   641.0660 </r>
       <r>     3.4076     9.4867   643.5037 </r>
       <r>     3.6645     5.7425   644.9794 </r>
       <r>     3.9215    12.4103   648.1684 </r>
       <r>     4.1785    12.8725   651.4762 </r>
       <r>     4.4354    13.5640   654.9617 </r>
       <r>     4.6924    27.7179   662.0843 </r>
       <r>     4.9494    30.9591   670.0398 </r>
       <r>     5.2063    28.3320   677.3202 </r>
       <r>     5.4633    26.7208   684.1866 </r>
       <r>     5.7203    13.4608   687.6456 </r>
       <r>     5.9772     1.3661   687.9967 </r>
       <r>     6.2342     0.0130   688.0000 </r>
       <r>     6.4912     0.0000   688.0000 </r>
       <r>     6.7481     0.0000   688.0000 </r>
       <r>     7.0051     0.0000   688.0000 </r>
       <r>     7.2621     0.0000   688.0000 </r>
       <r>     7.5190     0.0000   688.0000 </r>
       <r>     7.7760     0.0000   688.0000 </r>
       <r>     8.0330     0.0000   688.0000 </r>
       <r>     8.2899     0.0000   688.0000 </r>
       <r>     8.5469     0.0000   688.0000 </r>
       <r>     8.8039     0.0000   688.0000 </r>
       <r>     9.0608     0.0000   688.0000 </r>
      </set>
     </set>
    </array>
   </total>
  </dos>
 </calculation>
 <structure name="finalpos" >
  <crystal>
   <varray name="basis" >
    <v>      11.25646304       0.00000000       0.00000000 </v>
    <v>       0.00000000       9.57841000       0.00000000 </v>
    <v>       0.00000000       0.00000000      17.19249240 </v>
   </varray>
   <i name="volume">   1853.67765028 </i>
   <varray name="rec_basis" >
    <v>       0.08883785       0.00000000       0.00000000 </v>
    <v>       0.00000000       0.10440146       0.00000000 </v>
    <v>       0.00000000       0.00000000       0.05816492 </v>
   </varray>
  </crystal>
  <varray name="positions" >
   <v>       0.43933499       0.46388800       0.16283377 </v>
   <v>       0.49118692       0.46388800       0.34224601 </v>
   <v>       0.16340903       0.96388800       0.07312765 </v>
   <v>       0.21526096       0.96388800       0.25253989 </v>
   <v>       0.43933499       0.19968200       0.16283377 </v>
   <v>       0.49118692       0.19968200       0.34224601 </v>
   <v>       0.16340903       0.69968200       0.07312765 </v>
   <v>       0.21526096       0.69968200       0.25253989 </v>
   <v>       0.13063970       0.33178500       0.13913288 </v>
   <v>       0.18249164       0.33178500       0.31854511 </v>
   <v>       0.35471373       0.83178500       0.04942676 </v>
   <v>       0.40656566       0.83178500       0.22883899 </v>
   <v>       0.45841760       0.83178500       0.40825124 </v>
   <v>       0.93933499       0.46388800       0.16283377 </v>
   <v>       0.99118692       0.46388800       0.34224601 </v>
   <v>       0.66340903       0.96388800       0.07312765 </v>
   <v>       0.71526096       0.96388800       0.25253989 </v>
   <v>       0.93933499       0.19968200       0.16283377 </v>
   <v>       0.99118692       0.19968200       0.34224601 </v>
   <v>       0.66340903       0.69968200       0.07312765 </v>
   <v>       0.71526096       0.69968200       0.25253989 </v>
   <v>       0.63063970       0.33178500       0.13913288 </v>
   <v>       0.68249164       0.33178500       0.31854511 </v>
   <v>       0.85471373       0.83178500       0.04942676 </v>
   <v>       0.90656566       0.83178500       0.22883899 </v>
   <v>       0.95841760       0.83178500       0.40825124 </v>
   <v>       0.05963710       0.16357000       0.05952629 </v>
   <v>       0.11148904       0.16357000       0.23893853 </v>
   <v>       0.16334097       0.16357000       0.41835077 </v>
   <v>       0.33556306       0.66357000       0.14923241 </v>
   <v>       0.38741500       0.66357000       0.32864465 </v>
   <v>       0.05963710       0.50000000       0.05952629 </v>
   <v>       0.11148904       0.50000000       0.23893853 </v>
   <v>       0.16334097       0.50000000       0.41835077 </v>
   <v>       0.33556306       1.00000000       0.14923241 </v>
   <v>       0.38741500       1.00000000       0.32864465 </v>
   <v>       0.36788880       0.33178500       0.26911836 </v>
   <v>       0.04011091       0.83178500       0.00000000 </v>
   <v>       0.09196284       0.83178500       0.17941224 </v>
   <v>       0.61148904       0.16357000       0.23893853 </v>
   <v>       0.66334097       0.16357000       0.41835077 </v>
   <v>       0.83556306       0.66357000       0.14923241 </v>
   <v>       0.88741500       0.66357000       0.32864465 </v>
   <v>       0.61148904       0.50000000       0.23893853 </v>
   <v>       0.66334097       0.50000000       0.41835077 </v>
   <v>       0.83556306       1.00000000       0.14923241 </v>
   <v>       0.88741500       1.00000000       0.32864465 </v>
   <v>       0.81603687       0.33178500       0.08970612 </v>
   <v>       0.86788880       0.33178500       0.26911836 </v>
   <v>       0.54011091       0.83178500       0.00000000 </v>
   <v>       0.59196284       0.83178500       0.17941224 </v>
   <v>       0.64381478       0.83178500       0.35882448 </v>
  </varray>
 </structure>
</modeling>
