LAMMPS data file via write_data, version 5 Jun 2019, timestep = 24

78 atoms
2 atom types

0.0000000000000000e+00 9.5784099999999999e+00 xlo xhi
0.0000000000000000e+00 1.0403353751099999e+01 ylo yhi
0.0000000000000000e+00 2.0846830137100000e+01 zlo zhi
-4.7892049998999999e+00 0.0000000000000000e+00 0.0000000000000000e+00 xy xz yz

Masses

1 58.71
2 32.06

Atoms # atomic

1 1 4.0284090882906600e+00 4.7018133120885635e+00 2.0641773923078572e+00 0 0 0
2 1 4.0556245202999985e+00 6.3581094339000011e+00 4.1718577447999996e+00 0 0 0
3 1 4.0556245154999999e+00 8.2527059549999997e+00 6.6749723916999981e+00 0 0 0
4 1 4.0315108182765167e+00 1.0113530210570097e+01 8.8797709263811164e+00 0 0 0
5 1 4.0556245202000003e+00 6.8560460700000003e-01 5.8406008426999989e+00 0 0 0
6 1 4.0556245249999989e+00 2.5802011281000001e+00 8.3437154895999992e+00 0 0 0
7 1 3.6006337908851025e+00 4.1942386011691131e+00 1.0054906710902081e+01 0 0 0
8 1 -7.3358047490000011e-01 9.1943618370000006e+00 3.3374861957999999e+00 0 0 0
9 1 -7.3358047500000045e-01 1.6272604994000002e+00 2.5031146468999994e+00 0 0 0
10 1 -7.3358047980000096e-01 3.5218570205000010e+00 5.0062292937999988e+00 0 0 0
11 1 -7.3358047500000145e-01 5.4164535415000001e+00 7.5093439406000000e+00 0 0 0
12 1 -7.4415815642824423e-01 7.3591495534517000e+00 9.7030650608414071e+00 0 0 0
13 1 8.9089498223713690e+00 2.1658788295923062e-01 5.3100420092849865e-01 0 1 0
14 1 5.3209612195098126e+00 6.4734695893160588e-01 1.8623433767235400e+00 0 0 0
15 1 5.3209612212999993e+00 2.7160119593000003e+00 2.9914189132999991e+00 0 0 0
16 1 5.3209612117000002e+00 4.6106084907999998e+00 5.4945335601999989e+00 0 0 0
17 1 5.3209612165000006e+00 6.5052050118000011e+00 7.9976482071000001e+00 0 0 0
18 1 5.3209612215325564e+00 8.3704462110602584e+00 1.0079061053092000e+01 0 0 0
19 1 5.3209612165000024e+00 8.3270018489999997e-01 9.6663913049999977e+00 0 0 0
20 1 5.3175621909482751e-01 5.6205894324822125e+00 2.9284450768255441e+00 0 0 0
21 1 5.3175621649999771e-01 7.4468608938000003e+00 4.6601620111999997e+00 0 0 0
22 1 5.3175622129999744e-01 9.3414574149000007e+00 7.1632766581000000e+00 0 0 0
23 1 5.3175622119999988e-01 1.7743560773000002e+00 6.3289051090999981e+00 0 0 0
24 1 5.3175621649999927e-01 3.6689525984000011e+00 8.8320197559999993e+00 0 0 0
25 1 -4.2574487835000037e+00 1.0283113307300001e+01 3.8257904623000001e+00 0 0 0
26 1 5.3209612161724813e+00 8.3659796238096540e+00 2.5805311585883359e+00 0 0 0
27 1 -2.9921120921000037e+00 8.2527059549999997e+00 6.6749723916999981e+00 0 0 0
28 1 -2.9679983766106601e+00 1.0113530211524058e+01 8.8797709270283907e+00 0 0 0
29 1 6.6135133539634152e+00 4.7018133124699988e+00 2.0641773926440652e+00 0 0 0
30 1 6.5862979126999983e+00 6.3581094339000011e+00 4.1718577447999996e+00 0 0 0
31 1 6.5862979127000001e+00 6.8560460700000003e-01 5.8406008426999989e+00 0 0 0
32 1 6.5862979175000005e+00 2.5802011281000001e+00 8.3437154895999992e+00 0 0 0
33 1 7.0412886403709249e+00 4.1942386014563562e+00 1.0054906713400417e+01 0 0 0
34 1 1.7970929175000001e+00 9.1943618370000006e+00 3.3374861957999999e+00 0 0 0
35 1 1.7970929175000001e+00 1.6272604994000002e+00 2.5031146468999994e+00 0 0 0
36 1 1.7970929126999993e+00 3.5218570205000010e+00 5.0062292937999988e+00 0 0 0
37 1 1.7970929174999997e+00 5.4164535415000001e+00 7.5093439406000000e+00 0 0 0
38 1 1.8076705957405479e+00 7.3591495553451356e+00 9.7030650558027087e+00 0 0 0
39 1 1.7329726139278265e+00 2.1658788082925487e-01 5.3100419990304992e-01 0 1 0
40 2 -2.6462165454000020e+00 6.0272031989999997e+00 6.4865362472000001e+00 0 0 0
41 2 -2.6462165406000024e+00 7.9217997201000019e+00 8.9896508940000004e+00 0 0 0
42 2 6.8957351780225293e+00 2.0908110573171022e+00 1.7759511053857844e+00 0 0 0
43 2 6.9321934593999996e+00 4.1326066779000001e+00 3.9834216002999989e+00 0 0 0
44 2 6.9321934593999996e+00 3.5469838250000008e-01 8.1552793451000003e+00 0 0 0
45 2 6.7280940073117650e+00 2.2025827865151340e+00 1.0351397735982824e+01 0 0 0
46 2 2.1027456384701462e+00 5.1609395780524530e+00 1.6458330545474595e+00 0 0 0
47 2 2.1557686662832904e+00 7.0737098940646144e+00 3.4382772058252171e+00 0 0 0
48 2 2.1429884546999998e+00 8.8634556123999992e+00 5.6521646982000000e+00 0 0 0
49 2 2.1429884594000002e+00 1.2963542644999999e+00 4.8177931491999990e+00 0 0 0
50 2 2.1429884497999994e+00 3.1909507959000010e+00 7.3209077960999993e+00 0 0 0
51 2 1.8910750972326544e+00 5.1959236601720136e+00 9.5749482511913939e+00 0 0 0
52 2 -2.6462165453000028e+00 9.8051114944000002e+00 2.3146785024000001e+00 0 0 0
53 2 5.3175621929888128e-01 1.4008215779012247e+00 9.2495799368166427e+00 0 0 0
54 2 -4.2574487787000042e+00 1.0147001808700002e+01 7.3054051759999998e+00 0 0 0
55 2 5.3209612213000002e+00 6.3578087665999998e+00 2.2991758822000001e+00 0 0 0
56 2 5.3209612164999989e+00 8.2524052877000003e+00 4.8022905290999995e+00 0 0 0
57 2 5.3209612163999997e+00 6.8530395010000000e-01 3.9679189800999990e+00 0 0 0
58 2 5.3209612117000011e+00 2.5799004711000006e+00 6.4710336269999997e+00 0 0 0
59 2 5.3209612164999998e+00 4.4744969921999997e+00 8.9741482738999974e+00 0 0 0
60 2 5.3175622047996418e-01 9.0258743688809382e+00 1.7303189468548781e+00 0 0 0
61 2 5.3175622052440674e-01 1.8187320413855361e+00 8.2446177154272482e-01 0 0 0
62 2 5.3175622130000000e-01 3.5215563531000003e+00 3.1335474311999998e+00 0 0 0
63 2 5.3175621649999782e-01 5.4161528741999998e+00 5.6366620779999979e+00 0 0 0
64 2 5.3175621649999860e-01 7.3107494057000002e+00 8.1397767249000008e+00 0 0 0
65 2 5.3175621919007754e-01 9.0216542100802304e+00 1.0074631733130987e+01 0 0 0
66 2 3.7461872637364455e+00 2.0908110603879946e+00 1.7759511054473485e+00 0 0 0
67 2 3.7097289830999993e+00 4.1326066779000001e+00 3.9834216002999989e+00 0 0 0
68 2 3.7097289782999989e+00 6.0272031989999997e+00 6.4865362472000001e+00 0 0 0
69 2 3.7097289830999993e+00 7.9217997201000019e+00 8.9896508940000004e+00 0 0 0
70 2 3.7097289831000007e+00 3.5469838250000008e-01 8.1552793451000003e+00 0 0 0
71 2 3.9138284250816424e+00 2.2025827864016381e+00 1.0351397735395839e+01 0 0 0
72 2 -1.0392331969550772e+00 5.1609395779430036e+00 1.6458330526792651e+00 0 0 0
73 2 -1.0922562317068205e+00 7.0737098939881298e+00 3.4382772048311865e+00 0 0 0
74 2 -1.0794760217000028e+00 8.8634556123999992e+00 5.6521646982000000e+00 0 0 0
75 2 -1.0794760265000014e+00 3.1909507959000010e+00 7.3209077960999993e+00 0 0 0
76 2 -8.2756266552961499e-01 5.1959236586357163e+00 9.5749482505315999e+00 0 0 0
77 2 8.4989339831000006e+00 1.2963542644999999e+00 4.8177931491999990e+00 0 0 0
78 2 3.7097289783999998e+00 9.8051114944000002e+00 2.3146785024000001e+00 0 0 0

Velocities

1 0.0000000000000000e+00 0.0000000000000000e+00 0.0000000000000000e+00
2 0.0000000000000000e+00 0.0000000000000000e+00 0.0000000000000000e+00
3 0.0000000000000000e+00 0.0000000000000000e+00 0.0000000000000000e+00
4 0.0000000000000000e+00 0.0000000000000000e+00 0.0000000000000000e+00
5 0.0000000000000000e+00 0.0000000000000000e+00 0.0000000000000000e+00
6 0.0000000000000000e+00 0.0000000000000000e+00 0.0000000000000000e+00
7 0.0000000000000000e+00 0.0000000000000000e+00 0.0000000000000000e+00
8 0.0000000000000000e+00 0.0000000000000000e+00 0.0000000000000000e+00
9 0.0000000000000000e+00 0.0000000000000000e+00 0.0000000000000000e+00
10 0.0000000000000000e+00 0.0000000000000000e+00 0.0000000000000000e+00
11 0.0000000000000000e+00 0.0000000000000000e+00 0.0000000000000000e+00
12 0.0000000000000000e+00 0.0000000000000000e+00 0.0000000000000000e+00
13 0.0000000000000000e+00 0.0000000000000000e+00 0.0000000000000000e+00
14 0.0000000000000000e+00 0.0000000000000000e+00 0.0000000000000000e+00
15 0.0000000000000000e+00 0.0000000000000000e+00 0.0000000000000000e+00
16 0.0000000000000000e+00 0.0000000000000000e+00 0.0000000000000000e+00
17 0.0000000000000000e+00 0.0000000000000000e+00 0.0000000000000000e+00
18 0.0000000000000000e+00 0.0000000000000000e+00 0.0000000000000000e+00
19 0.0000000000000000e+00 0.0000000000000000e+00 0.0000000000000000e+00
20 0.0000000000000000e+00 0.0000000000000000e+00 0.0000000000000000e+00
21 0.0000000000000000e+00 0.0000000000000000e+00 0.0000000000000000e+00
22 0.0000000000000000e+00 0.0000000000000000e+00 0.0000000000000000e+00
23 0.0000000000000000e+00 0.0000000000000000e+00 0.0000000000000000e+00
24 0.0000000000000000e+00 0.0000000000000000e+00 0.0000000000000000e+00
25 0.0000000000000000e+00 0.0000000000000000e+00 0.0000000000000000e+00
26 0.0000000000000000e+00 0.0000000000000000e+00 0.0000000000000000e+00
27 0.0000000000000000e+00 0.0000000000000000e+00 0.0000000000000000e+00
28 0.0000000000000000e+00 0.0000000000000000e+00 0.0000000000000000e+00
29 0.0000000000000000e+00 0.0000000000000000e+00 0.0000000000000000e+00
30 0.0000000000000000e+00 0.0000000000000000e+00 0.0000000000000000e+00
31 0.0000000000000000e+00 0.0000000000000000e+00 0.0000000000000000e+00
32 0.0000000000000000e+00 0.0000000000000000e+00 0.0000000000000000e+00
33 0.0000000000000000e+00 0.0000000000000000e+00 0.0000000000000000e+00
34 0.0000000000000000e+00 0.0000000000000000e+00 0.0000000000000000e+00
35 0.0000000000000000e+00 0.0000000000000000e+00 0.0000000000000000e+00
36 0.0000000000000000e+00 0.0000000000000000e+00 0.0000000000000000e+00
37 0.0000000000000000e+00 0.0000000000000000e+00 0.0000000000000000e+00
38 0.0000000000000000e+00 0.0000000000000000e+00 0.0000000000000000e+00
39 0.0000000000000000e+00 0.0000000000000000e+00 0.0000000000000000e+00
40 0.0000000000000000e+00 0.0000000000000000e+00 0.0000000000000000e+00
41 0.0000000000000000e+00 0.0000000000000000e+00 0.0000000000000000e+00
42 0.0000000000000000e+00 0.0000000000000000e+00 0.0000000000000000e+00
43 0.0000000000000000e+00 0.0000000000000000e+00 0.0000000000000000e+00
44 0.0000000000000000e+00 0.0000000000000000e+00 0.0000000000000000e+00
45 0.0000000000000000e+00 0.0000000000000000e+00 0.0000000000000000e+00
46 0.0000000000000000e+00 0.0000000000000000e+00 0.0000000000000000e+00
47 0.0000000000000000e+00 0.0000000000000000e+00 0.0000000000000000e+00
48 0.0000000000000000e+00 0.0000000000000000e+00 0.0000000000000000e+00
49 0.0000000000000000e+00 0.0000000000000000e+00 0.0000000000000000e+00
50 0.0000000000000000e+00 0.0000000000000000e+00 0.0000000000000000e+00
51 0.0000000000000000e+00 0.0000000000000000e+00 0.0000000000000000e+00
52 0.0000000000000000e+00 0.0000000000000000e+00 0.0000000000000000e+00
53 0.0000000000000000e+00 0.0000000000000000e+00 0.0000000000000000e+00
54 0.0000000000000000e+00 0.0000000000000000e+00 0.0000000000000000e+00
55 0.0000000000000000e+00 0.0000000000000000e+00 0.0000000000000000e+00
56 0.0000000000000000e+00 0.0000000000000000e+00 0.0000000000000000e+00
57 0.0000000000000000e+00 0.0000000000000000e+00 0.0000000000000000e+00
58 0.0000000000000000e+00 0.0000000000000000e+00 0.0000000000000000e+00
59 0.0000000000000000e+00 0.0000000000000000e+00 0.0000000000000000e+00
60 0.0000000000000000e+00 0.0000000000000000e+00 0.0000000000000000e+00
61 0.0000000000000000e+00 0.0000000000000000e+00 0.0000000000000000e+00
62 0.0000000000000000e+00 0.0000000000000000e+00 0.0000000000000000e+00
63 0.0000000000000000e+00 0.0000000000000000e+00 0.0000000000000000e+00
64 0.0000000000000000e+00 0.0000000000000000e+00 0.0000000000000000e+00
65 0.0000000000000000e+00 0.0000000000000000e+00 0.0000000000000000e+00
66 0.0000000000000000e+00 0.0000000000000000e+00 0.0000000000000000e+00
67 0.0000000000000000e+00 0.0000000000000000e+00 0.0000000000000000e+00
68 0.0000000000000000e+00 0.0000000000000000e+00 0.0000000000000000e+00
69 0.0000000000000000e+00 0.0000000000000000e+00 0.0000000000000000e+00
70 0.0000000000000000e+00 0.0000000000000000e+00 0.0000000000000000e+00
71 0.0000000000000000e+00 0.0000000000000000e+00 0.0000000000000000e+00
72 0.0000000000000000e+00 0.0000000000000000e+00 0.0000000000000000e+00
73 0.0000000000000000e+00 0.0000000000000000e+00 0.0000000000000000e+00
74 0.0000000000000000e+00 0.0000000000000000e+00 0.0000000000000000e+00
75 0.0000000000000000e+00 0.0000000000000000e+00 0.0000000000000000e+00
76 0.0000000000000000e+00 0.0000000000000000e+00 0.0000000000000000e+00
77 0.0000000000000000e+00 0.0000000000000000e+00 0.0000000000000000e+00
78 0.0000000000000000e+00 0.0000000000000000e+00 0.0000000000000000e+00
