<?xml version="1.0" encoding="ISO-8859-1"?>
<modeling>
 <generator>
  <i name="program" type="string">vasp </i>
  <i name="version" type="string">6.1.0  </i>
  <i name="subversion" type="string">28Jan20 (build Mar 31 2020 17:42:31) gamma-only                       parallel </i>
  <i name="platform" type="string">LinuxIFC </i>
  <i name="date" type="string">2020 04 12 </i>
  <i name="time" type="string">07:04:32 </i>
 </generator>
 <incar>
  <i type="string" name="SYSTEM">"Millerite NiS"</i>
  <i type="int" name="NSIM">     4</i>
  <i type="int" name="NELM">   100</i>
  <i name="ENCUT">    450.00000000</i>
  <i type="string" name="LREAL">A</i>
  <i type="int" name="ISMEAR">     0</i>
  <i type="int" name="NWRITE">     2</i>
  <i type="logical" name="LWAVE"> F  </i>
  <i type="logical" name="LCHARG"> F  </i>
  <i type="int" name="NCORE">     6</i>
  <i type="int" name="NELM">   100</i>
 </incar>
 <structure name="primitive_cell" >
  <crystal>
   <varray name="basis" >
    <v>      10.06282034       5.04456212       0.00000000 </v>
    <v>       0.00000000      11.25646304       0.00000000 </v>
    <v>       0.00000000       0.00000000      22.51995597 </v>
   </varray>
   <i name="volume">   2550.87516496 </i>
   <varray name="rec_basis" >
    <v>       0.09937572       0.00000000       0.00000000 </v>
    <v>      -0.04453504       0.08883785       0.00000000 </v>
    <v>       0.00000000       0.00000000       0.04440506 </v>
   </varray>
  </crystal>
  <varray name="positions" >
   <v>       0.26092069       0.47878037       0.29519774 </v>
   <v>       0.35488056       0.38482051       0.42557357 </v>
   <v>       0.16696082       0.07274025       0.16482191 </v>
   <v>       0.27423906       0.33335901       0.13037583 </v>
   <v>       0.36819893       0.23939914       0.26075166 </v>
   <v>       0.46215879       0.14543927       0.39112749 </v>
   <v>       0.00030194       0.37150214       0.26075166 </v>
   <v>       0.09426180       0.27754227       0.39112749 </v>
   <v>       0.18822167       0.18358240       0.52150332 </v>
   <v>       0.40634206       0.46546200       0.13037583 </v>
   <v>       0.31238219       0.05942188       0.00000000 </v>
   <v>       0.76092069       0.47878037       0.29519774 </v>
   <v>       0.85488056       0.38482051       0.42557357 </v>
   <v>       0.66696082       0.07274025       0.16482191 </v>
   <v>       0.68027919       0.42731887       0.00000000 </v>
   <v>       0.77423906       0.33335901       0.13037583 </v>
   <v>       0.86819893       0.23939914       0.26075166 </v>
   <v>       0.96215879       0.14543927       0.39112749 </v>
   <v>       0.50030194       0.37150214       0.26075166 </v>
   <v>       0.59426180       0.27754227       0.39112749 </v>
   <v>       0.68822167       0.18358240       0.52150332 </v>
   <v>       0.90634206       0.46546200       0.13037583 </v>
   <v>       0.81238219       0.05942188       0.00000000 </v>
   <v>       0.26092069       0.97878037       0.29519774 </v>
   <v>       0.35488056       0.88482051       0.42557357 </v>
   <v>       0.44884042       0.79086064       0.55594940 </v>
   <v>       0.16696082       0.57274025       0.16482191 </v>
   <v>       0.05611868       0.55147941       0.52150332 </v>
   <v>       0.18027919       0.92731887       0.00000000 </v>
   <v>       0.27423906       0.83335901       0.13037583 </v>
   <v>       0.36819893       0.73939914       0.26075166 </v>
   <v>       0.46215879       0.64543927       0.39112749 </v>
   <v>       0.00030194       0.87150214       0.26075166 </v>
   <v>       0.09426180       0.77754227       0.39112749 </v>
   <v>       0.40634206       0.96546200       0.13037583 </v>
   <v>       0.76092069       0.97878037       0.29519774 </v>
   <v>       0.85488056       0.88482051       0.42557357 </v>
   <v>       0.57300096       0.66670012       0.03444608 </v>
   <v>       0.66696082       0.57274025       0.16482191 </v>
   <v>       0.55611868       0.55147941       0.52150332 </v>
   <v>       0.68027919       0.92731887       0.00000000 </v>
   <v>       0.77423906       0.83335901       0.13037583 </v>
   <v>       0.86819893       0.73939914       0.26075166 </v>
   <v>       0.96215879       0.64543927       0.39112749 </v>
   <v>       0.50030194       0.87150214       0.26075166 </v>
   <v>       0.59426180       0.77754227       0.39112749 </v>
   <v>       0.90634206       0.96546200       0.13037583 </v>
   <v>       0.81238219       0.55942188       0.00000000 </v>
   <v>       0.07287763       0.16682345       0.31134756 </v>
   <v>       0.16683750       0.07286358       0.44172340 </v>
   <v>       0.38495788       0.35474318       0.05059591 </v>
   <v>       0.47891775       0.26078331       0.18097173 </v>
   <v>       0.03023342       0.37768265       0.48558574 </v>
   <v>       0.43627354       0.47164252       0.35520991 </v>
   <v>       0.24835381       0.15956227       0.09445824 </v>
   <v>       0.34231367       0.06560240       0.22483408 </v>
   <v>       0.08013881       0.49134726       0.09445824 </v>
   <v>       0.17409868       0.39738739       0.22483408 </v>
   <v>       0.26805854       0.30342752       0.35520991 </v>
   <v>       0.36201841       0.20946766       0.48558574 </v>
   <v>       0.57287763       0.16682345       0.31134756 </v>
   <v>       0.66683750       0.07286358       0.44172340 </v>
   <v>       0.88495788       0.35474318       0.05059591 </v>
   <v>       0.97891775       0.26078331       0.18097173 </v>
   <v>       0.53023342       0.37768265       0.48558574 </v>
   <v>       0.93627354       0.47164252       0.35520991 </v>
   <v>       0.74835381       0.15956227       0.09445824 </v>
   <v>       0.84231367       0.06560240       0.22483408 </v>
   <v>       0.58013881       0.49134726       0.09445824 </v>
   <v>       0.67409868       0.39738739       0.22483408 </v>
   <v>       0.76805854       0.30342752       0.35520991 </v>
   <v>       0.86201841       0.20946766       0.48558574 </v>
   <v>       0.07287763       0.66682345       0.31134756 </v>
   <v>       0.16683750       0.57286358       0.44172340 </v>
   <v>       0.38495788       0.85474318       0.05059591 </v>
   <v>       0.47891775       0.76078331       0.18097173 </v>
   <v>       0.03023342       0.87768265       0.48558574 </v>
   <v>       0.43627354       0.97164252       0.35520991 </v>
   <v>       0.24835381       0.65956227       0.09445824 </v>
   <v>       0.34231367       0.56560240       0.22483408 </v>
   <v>       0.08013881       0.99134726       0.09445824 </v>
   <v>       0.17409868       0.89738739       0.22483408 </v>
   <v>       0.26805854       0.80342752       0.35520991 </v>
   <v>       0.36201841       0.70946766       0.48558574 </v>
   <v>       0.57287763       0.66682345       0.31134756 </v>
   <v>       0.66683750       0.57286358       0.44172340 </v>
   <v>       0.88495788       0.85474318       0.05059591 </v>
   <v>       0.97891775       0.76078331       0.18097173 </v>
   <v>       0.53023342       0.87768265       0.48558574 </v>
   <v>       0.93627354       0.97164252       0.35520991 </v>
   <v>       0.74835381       0.65956227       0.09445824 </v>
   <v>       0.84231367       0.56560240       0.22483408 </v>
   <v>       0.58013881       0.99134726       0.09445824 </v>
   <v>       0.67409868       0.89738739       0.22483408 </v>
   <v>       0.76805854       0.80342752       0.35520991 </v>
   <v>       0.86201841       0.70946766       0.48558574 </v>
  </varray>
 </structure>
 <varray name="primitive_index" >
  <v type="int" >        1 </v>
  <v type="int" >        2 </v>
  <v type="int" >        3 </v>
  <v type="int" >        4 </v>
  <v type="int" >        5 </v>
  <v type="int" >        6 </v>
  <v type="int" >        7 </v>
  <v type="int" >        8 </v>
  <v type="int" >        9 </v>
  <v type="int" >       10 </v>
  <v type="int" >       11 </v>
  <v type="int" >       12 </v>
  <v type="int" >       13 </v>
  <v type="int" >       14 </v>
  <v type="int" >       15 </v>
  <v type="int" >       16 </v>
  <v type="int" >       17 </v>
  <v type="int" >       18 </v>
  <v type="int" >       19 </v>
  <v type="int" >       20 </v>
  <v type="int" >       21 </v>
  <v type="int" >       22 </v>
  <v type="int" >       23 </v>
  <v type="int" >       24 </v>
  <v type="int" >       25 </v>
  <v type="int" >       26 </v>
  <v type="int" >       27 </v>
  <v type="int" >       28 </v>
  <v type="int" >       29 </v>
  <v type="int" >       30 </v>
  <v type="int" >       31 </v>
  <v type="int" >       32 </v>
  <v type="int" >       33 </v>
  <v type="int" >       34 </v>
  <v type="int" >       35 </v>
  <v type="int" >       36 </v>
  <v type="int" >       37 </v>
  <v type="int" >       38 </v>
  <v type="int" >       39 </v>
  <v type="int" >       40 </v>
  <v type="int" >       41 </v>
  <v type="int" >       42 </v>
  <v type="int" >       43 </v>
  <v type="int" >       44 </v>
  <v type="int" >       45 </v>
  <v type="int" >       46 </v>
  <v type="int" >       47 </v>
  <v type="int" >       48 </v>
  <v type="int" >       49 </v>
  <v type="int" >       50 </v>
  <v type="int" >       51 </v>
  <v type="int" >       52 </v>
  <v type="int" >       53 </v>
  <v type="int" >       54 </v>
  <v type="int" >       55 </v>
  <v type="int" >       56 </v>
  <v type="int" >       57 </v>
  <v type="int" >       58 </v>
  <v type="int" >       59 </v>
  <v type="int" >       60 </v>
  <v type="int" >       61 </v>
  <v type="int" >       62 </v>
  <v type="int" >       63 </v>
  <v type="int" >       64 </v>
  <v type="int" >       65 </v>
  <v type="int" >       66 </v>
  <v type="int" >       67 </v>
  <v type="int" >       68 </v>
  <v type="int" >       69 </v>
  <v type="int" >       70 </v>
  <v type="int" >       71 </v>
  <v type="int" >       72 </v>
  <v type="int" >       73 </v>
  <v type="int" >       74 </v>
  <v type="int" >       75 </v>
  <v type="int" >       76 </v>
  <v type="int" >       77 </v>
  <v type="int" >       78 </v>
  <v type="int" >       79 </v>
  <v type="int" >       80 </v>
  <v type="int" >       81 </v>
  <v type="int" >       82 </v>
  <v type="int" >       83 </v>
  <v type="int" >       84 </v>
  <v type="int" >       85 </v>
  <v type="int" >       86 </v>
  <v type="int" >       87 </v>
  <v type="int" >       88 </v>
  <v type="int" >       89 </v>
  <v type="int" >       90 </v>
  <v type="int" >       91 </v>
  <v type="int" >       92 </v>
  <v type="int" >       93 </v>
  <v type="int" >       94 </v>
  <v type="int" >       95 </v>
  <v type="int" >       96 </v>
 </varray>
 <kpoints>
  <generation param="Gamma">
   <v type="int" name="divisions">       1        1        1 </v>
   <v name="usershift">      0.00000000       0.00000000       0.00000000 </v>
   <v name="genvec1">      1.00000000       0.00000000       0.00000000 </v>
   <v name="genvec2">     -0.00000000       1.00000000       0.00000000 </v>
   <v name="genvec3">      0.00000000       0.00000000       1.00000000 </v>
   <v name="shift">      0.00000000       0.00000000       0.00000000 </v>
  </generation>
  <varray name="kpointlist" >
   <v>       0.00000000       0.00000000       0.00000000 </v>
  </varray>
  <varray name="weights" >
   <v>       1.00000000 </v>
  </varray>
 </kpoints>
 <parameters>
  <separator name="general" >
   <i type="string" name="SYSTEM">"Millerite NiS"</i>
   <i type="logical" name="LCOMPAT"> F  </i>
  </separator>
  <separator name="electronic" >
   <i type="string" name="PREC">normal</i>
   <i name="ENMAX">    450.00000000</i>
   <i name="ENAUG">    703.44300000</i>
   <i name="EDIFF">      0.00010000</i>
   <i type="int" name="IALGO">    38</i>
   <i type="int" name="IWAVPR">    10</i>
   <i type="int" name="NBANDS">   640</i>
   <i type="int" name="NBANDSLOW">    -1</i>
   <i type="int" name="NBANDSHIGH">    -1</i>
   <i name="NELECT">   1056.00000000</i>
   <i type="int" name="TURBO">     0</i>
   <i type="int" name="IRESTART">     0</i>
   <i type="int" name="NREBOOT">     0</i>
   <i type="int" name="NMIN">     0</i>
   <i name="EREF">      0.00000000</i>
   <separator name="electronic smearing" >
    <i type="int" name="ISMEAR">     0</i>
    <i name="SIGMA">      0.20000000</i>
    <i name="KSPACING">      0.50000000</i>
    <i type="logical" name="KGAMMA"> T  </i>
    <i type="logical" name="KBLOWUP"> T  </i>
   </separator>
   <separator name="electronic projectors" >
    <i type="logical" name="LREAL"> T  </i>
    <v name="ROPT">     -0.00050000     -0.00050000</v>
    <i type="int" name="LMAXPAW">  -100</i>
    <i type="int" name="LMAXMIX">     2</i>
    <i type="logical" name="NLSPLINE"> F  </i>
   </separator>
   <separator name="electronic startup" >
    <i type="int" name="ISTART">     0</i>
    <i type="int" name="ICHARG">     2</i>
    <i type="int" name="INIWAV">     1</i>
   </separator>
   <separator name="electronic spin" >
    <i type="int" name="ISPIN">     1</i>
    <i type="logical" name="LNONCOLLINEAR"> F  </i>
    <v name="MAGMOM">      1.00000000      1.00000000      1.00000000      1.00000000      1.00000000      1.00000000      1.00000000      1.00000000      1.00000000      1.00000000      1.00000000      1.00000000      1.00000000      1.00000000      1.00000000      1.00000000      1.00000000      1.00000000      1.00000000      1.00000000
      1.00000000      1.00000000      1.00000000      1.00000000      1.00000000      1.00000000      1.00000000      1.00000000      1.00000000      1.00000000      1.00000000      1.00000000      1.00000000      1.00000000      1.00000000      1.00000000      1.00000000      1.00000000      1.00000000      1.00000000
      1.00000000      1.00000000      1.00000000      1.00000000      1.00000000      1.00000000      1.00000000      1.00000000      1.00000000      1.00000000      1.00000000      1.00000000      1.00000000      1.00000000      1.00000000      1.00000000      1.00000000      1.00000000      1.00000000      1.00000000
      1.00000000      1.00000000      1.00000000      1.00000000      1.00000000      1.00000000      1.00000000      1.00000000      1.00000000      1.00000000      1.00000000      1.00000000      1.00000000      1.00000000      1.00000000      1.00000000      1.00000000      1.00000000      1.00000000      1.00000000
      1.00000000      1.00000000      1.00000000      1.00000000      1.00000000      1.00000000      1.00000000      1.00000000      1.00000000      1.00000000      1.00000000      1.00000000      1.00000000      1.00000000      1.00000000      1.00000000</v>
    <i name="NUPDOWN">     -1.00000000</i>
    <i type="logical" name="LSORBIT"> F  </i>
    <v name="SAXIS">      0.00000000      0.00000000      1.00000000</v>
    <i type="logical" name="LSPIRAL"> F  </i>
    <v name="QSPIRAL">      0.00000000      0.00000000      0.00000000</v>
    <i type="logical" name="LZEROZ"> F  </i>
   </separator>
   <separator name="electronic exchange-correlation" >
    <i type="logical" name="LASPH"> F  </i>
    <i type="logical" name="LMETAGGA"> F  </i>
   </separator>
   <separator name="electronic convergence" >
    <i type="int" name="NELM">   100</i>
    <i type="int" name="NELMDL">    -5</i>
    <i type="int" name="NELMIN">     2</i>
    <i name="ENINI">    450.00000000</i>
    <separator name="electronic convergence detail" >
     <i type="logical" name="LDIAG"> T  </i>
     <i type="logical" name="LSUBROT"> F  </i>
     <i name="WEIMIN">      0.00000000</i>
     <i name="EBREAK">      0.00000004</i>
     <i name="DEPER">      0.30000000</i>
     <i type="int" name="NRMM">     4</i>
     <i name="TIME">      0.40000000</i>
    </separator>
   </separator>
   <separator name="electronic mixer" >
    <i name="AMIX">      0.40000000</i>
    <i name="BMIX">      1.00000000</i>
    <i name="AMIN">      0.10000000</i>
    <i name="AMIX_MAG">      1.60000000</i>
    <i name="BMIX_MAG">      1.00000000</i>
    <separator name="electronic mixer details" >
     <i type="int" name="IMIX">     4</i>
     <i type="logical" name="MIXFIRST"> F  </i>
     <i type="int" name="MAXMIX">   -45</i>
     <i name="WC">    100.00000000</i>
     <i type="int" name="INIMIX">     1</i>
     <i type="int" name="MIXPRE">     1</i>
     <i type="int" name="MREMOVE">     5</i>
    </separator>
   </separator>
   <separator name="electronic dipolcorrection" >
    <i type="logical" name="LDIPOL"> F  </i>
    <i type="logical" name="LMONO"> F  </i>
    <i type="int" name="IDIPOL">     0</i>
    <i name="EPSILON">      1.00000000</i>
    <v name="DIPOL">   -100.00000000   -100.00000000   -100.00000000</v>
    <i name="EFIELD">      0.00000000</i>
   </separator>
  </separator>
  <separator name="grids" >
   <i type="int" name="NGX">    60</i>
   <i type="int" name="NGY">    60</i>
   <i type="int" name="NGZ">   120</i>
   <i type="int" name="NGXF">   120</i>
   <i type="int" name="NGYF">   120</i>
   <i type="int" name="NGZF">   240</i>
   <i type="logical" name="ADDGRID"> F  </i>
  </separator>
  <separator name="ionic" >
   <i type="int" name="NSW">     0</i>
   <i type="int" name="IBRION">    -1</i>
   <i type="int" name="MDALGO">     0</i>
   <i type="int" name="ISIF">     2</i>
   <i name="PSTRESS">      0.00000000</i>
   <i name="EDIFFG">      0.00100000</i>
   <i type="int" name="NFREE">     0</i>
   <i name="POTIM">      0.50000000</i>
   <i name="SMASS">     -3.00000000</i>
   <i name="SCALEE">      1.00000000</i>
  </separator>
  <separator name="ionic md" >
   <i name="TEBEG">      0.00010000</i>
   <i name="TEEND">      0.00010000</i>
   <i type="int" name="NBLOCK">     1</i>
   <i type="int" name="KBLOCK">     1</i>
   <i type="int" name="NPACO">   256</i>
   <i name="APACO">     16.00000000</i>
  </separator>
  <separator name="symmetry" >
   <i type="int" name="ISYM">     2</i>
   <i name="SYMPREC">      0.00001000</i>
  </separator>
  <separator name="dos" >
   <i type="int" name="LORBIT">     0</i>
   <v name="RWIGS">     -1.00000000     -1.00000000</v>
   <i type="int" name="NEDOS">   301</i>
   <i name="EMIN">     10.00000000</i>
   <i name="EMAX">    -10.00000000</i>
   <i name="EFERMI">      0.00000000</i>
  </separator>
  <separator name="writing" >
   <i type="int" name="NWRITE">     2</i>
   <i type="logical" name="LWAVE"> F  </i>
   <i type="logical" name="LDOWNSAMPLE"> F  </i>
   <i type="logical" name="LCHARG"> F  </i>
   <i type="logical" name="LPARD"> F  </i>
   <i type="logical" name="LVTOT"> F  </i>
   <i type="logical" name="LVHAR"> F  </i>
   <i type="logical" name="LELF"> F  </i>
   <i type="logical" name="LOPTICS"> F  </i>
   <v name="STM">      0.00000000      0.00000000      0.00000000      0.00000000      0.00000000      0.00000000      0.00000000</v>
  </separator>
  <separator name="performance" >
   <i type="int" name="NPAR">     8</i>
   <i type="int" name="NSIM">     4</i>
   <i type="int" name="NBLK">    -1</i>
   <i type="logical" name="LPLANE"> T  </i>
   <i type="logical" name="LSCALAPACK"> T  </i>
   <i type="logical" name="LSCAAWARE"> F  </i>
   <i type="logical" name="LSCALU"> F  </i>
   <i type="logical" name="LASYNC"> F  </i>
   <i type="logical" name="LORBITALREAL"> F  </i>
  </separator>
  <separator name="miscellaneous" >
   <i type="int" name="IDIOT">     3</i>
   <i type="int" name="PHON_NSTRUCT">    -1</i>
   <i type="logical" name="LMUSIC"> F  </i>
   <v name="POMASS">     58.69000000     32.06600000</v>
   <v name="DARWINR">      0.00000000      0.00000000</v>
   <v name="DARWINV">      1.00000000      1.00000000</v>
   <i type="logical" name="LCORR"> T  </i>
  </separator>
  <i type="logical" name="GGA_COMPAT"> T  </i>
  <i type="logical" name="LBERRY"> F  </i>
  <i type="int" name="ICORELEVEL">     0</i>
  <i type="logical" name="LDAU"> F  </i>
  <i type="int" name="I_CONSTRAINED_M">     0</i>
  <separator name="electronic exchange-correlation" >
   <i type="string" name="GGA">--</i>
   <i type="int" name="VOSKOWN">     0</i>
   <i type="logical" name="LHFCALC"> F  </i>
   <i type="string" name="PRECFOCK"></i>
   <i type="logical" name="LSYMGRAD"> F  </i>
   <i type="logical" name="LHFONE"> F  </i>
   <i type="logical" name="LRHFCALC"> F  </i>
   <i type="logical" name="LTHOMAS"> F  </i>
   <i type="logical" name="LMODELHF"> F  </i>
   <i type="logical" name="LFOCKACE"> F  </i>
   <i name="ENCUT4O">     -1.00000000</i>
   <i type="int" name="EXXOEP">     0</i>
   <i type="int" name="FOURORBIT">     0</i>
   <i name="AEXX">      0.00000000</i>
   <i name="HFALPHA">      0.00000000</i>
   <i name="MCALPHA">      0.00000000</i>
   <i name="ALDAX">      1.00000000</i>
   <i name="AGGAX">      1.00000000</i>
   <i name="ALDAC">      1.00000000</i>
   <i name="AGGAC">      1.00000000</i>
   <i type="int" name="NKREDX">     1</i>
   <i type="int" name="NKREDY">     1</i>
   <i type="int" name="NKREDZ">     1</i>
   <i type="logical" name="SHIFTRED"> F  </i>
   <i type="logical" name="ODDONLY"> F  </i>
   <i type="logical" name="EVENONLY"> F  </i>
   <i type="int" name="LMAXFOCK">     0</i>
   <i type="int" name="NMAXFOCKAE">     0</i>
   <i type="logical" name="LFOCKAEDFT"> F  </i>
   <i name="HFSCREEN">      0.00000000</i>
   <i name="HFSCREENC">      0.00000000</i>
   <i type="int" name="NBANDSGWLOW">     0</i>
  </separator>
  <separator name="vdW DFT" >
   <i type="logical" name="LUSE_VDW"> F  </i>
   <i name="Zab_VDW">     -0.84910000</i>
   <i name="PARAM1">      0.12340000</i>
   <i name="PARAM2">      1.00000000</i>
   <i name="PARAM3">      0.00000000</i>
  </separator>
  <separator name="model GW" >
   <i type="int" name="MODEL_GW">     0</i>
   <i name="MODEL_EPS0">     15.94296978</i>
   <i name="MODEL_ALPHA">      1.00000000</i>
  </separator>
  <separator name="linear response parameters" >
   <i type="logical" name="LEPSILON"> F  </i>
   <i type="logical" name="LRPA"> F  </i>
   <i type="logical" name="LNABLA"> F  </i>
   <i type="logical" name="LVEL"> F  </i>
   <i type="int" name="KINTER">     0</i>
   <i name="CSHIFT">      0.10000000</i>
   <i name="OMEGAMAX">     -1.00000000</i>
   <i name="DEG_THRESHOLD">      0.00200000</i>
   <i name="RTIME">     -0.10000000</i>
   <i name="WPLASMAI">      0.00000000</i>
   <v name="DFIELD">      0.00000000      0.00000000      0.00000000</v>
   <v name="WPLASMA">      0.00000000      0.00000000      0.00000000      0.00000000      0.00000000      0.00000000      0.00000000      0.00000000      0.00000000</v>
  </separator>
  <separator name="orbital magnetization" >
   <i type="logical" name="NUCIND"> F  </i>
   <v name="MAGPOS">      0.00000000      0.00000000      0.00000000</v>
   <i type="logical" name="LNICSALL"> T  </i>
   <i type="logical" name="ORBITALMAG"> F  </i>
   <i type="logical" name="LMAGBLOCH"> F  </i>
   <i type="logical" name="LCHIMAG"> F  </i>
   <i type="logical" name="LGAUGE"> T  </i>
   <i type="int" name="MAGATOM">     0</i>
   <v name="MAGDIPOL">      0.00000000      0.00000000      0.00000000</v>
   <v name="AVECCONST">      0.00000000      0.00000000      0.00000000</v>
  </separator>
  <separator name="response functions" >
   <i type="logical" name="LFINITE_TEMPERATURE"> F  </i>
   <i type="logical" name="LADDER"> F  </i>
   <i type="logical" name="LRPAFORCE"> F  </i>
   <i type="logical" name="LFXC"> F  </i>
   <i type="logical" name="LHARTREE"> T  </i>
   <i type="int" name="IBSE">     0</i>
   <v type="int" name="KPOINT">    -1     0     0     0</v>
   <i type="logical" name="LTCTC"> F  </i>
   <i type="logical" name="LTCTE"> F  </i>
   <i type="logical" name="LTETE"> F  </i>
   <i type="logical" name="LTRIPLET"> F  </i>
   <i type="logical" name="LFXCEPS"> F  </i>
   <i type="logical" name="LFXHEG"> F  </i>
   <i type="int" name="NATURALO">     2</i>
   <i type="logical" name="LHOLEGF"> F  </i>
   <i type="logical" name="L2ORDER"> F  </i>
   <i type="logical" name="LDMP1"> F  </i>
   <i type="logical" name="LMP2LT"> F  </i>
   <i type="logical" name="LSMP2LT"> F  </i>
   <i type="logical" name="LGWLF"> F  </i>
   <i name="ENCUTGW">     -2.00000000</i>
   <i name="ENCUTGWSOFT">     -2.00000000</i>
   <i name="ENCUTLF">     -1.00000000</i>
   <i type="logical" name="LESF_SPLINES"> F  </i>
   <i type="int" name="LMAXMP2">    -1</i>
   <i name="SCISSOR">      0.00000000</i>
   <i type="int" name="NOMEGA">     0</i>
   <i type="int" name="NOMEGAR">     0</i>
   <i type="int" name="NBANDSGW">    -1</i>
   <i type="int" name="NBANDSO">    -1</i>
   <i type="int" name="NBANDSV">    -1</i>
   <i type="int" name="NELM">   100</i>
   <i type="int" name="NELMHF">     1</i>
   <i type="int" name="DIM">     3</i>
   <i type="int" name="IESPILON">     4</i>
   <i type="int" name="ANTIRES">     0</i>
   <i name="OMEGAMAX">    -30.00000000</i>
   <i name="OMEGAMIN">    -30.00000000</i>
   <i name="OMEGATL">   -200.00000000</i>
   <i type="int" name="OMEGAGRID">     0</i>
   <i name="CSHIFT">     -0.10000000</i>
   <i type="logical" name="LSELFENERGY"> F  </i>
   <i type="logical" name="LSPECTRAL"> F  </i>
   <i type="logical" name="LSPECTRALGW"> F  </i>
   <i type="logical" name="LSINGLES"> F  </i>
   <i type="logical" name="LFERMIGW"> F  </i>
   <i type="logical" name="ODDONLYGW"> F  </i>
   <i type="logical" name="EVENONLYGW"> F  </i>
   <i type="int" name="NKREDLFX">     1</i>
   <i type="int" name="NKREDLFY">     1</i>
   <i type="int" name="NKREDLFZ">     1</i>
   <i type="int" name="MAXMEM">  2800</i>
   <i type="int" name="TELESCOPE">     0</i>
   <i type="int" name="NTAUPAR">    -1</i>
   <i type="int" name="NOMEGAPAR">    -1</i>
   <i name="LAMBDA">      1.00000000</i>
  </separator>
  <separator name="External order field" >
   <i name="OFIELD_KAPPA">      0.00000000</i>
   <v name="OFIELD_K">      0.00000000      0.00000000      0.00000000</v>
   <i name="OFIELD_Q6_NEAR">      0.00000000</i>
   <i name="OFIELD_Q6_FAR">      0.00000000</i>
   <i name="OFIELD_A">      0.00000000</i>
  </separator>
 </parameters>
 <atominfo>
  <atoms>      96 </atoms>
  <types>       2 </types>
  <array name="atoms" >
   <dimension dim="1">ion</dimension>
   <field type="string">element</field>
   <field type="int">atomtype</field>
   <set>
    <rc><c>Ni</c><c>   1</c></rc>
    <rc><c>Ni</c><c>   1</c></rc>
    <rc><c>Ni</c><c>   1</c></rc>
    <rc><c>Ni</c><c>   1</c></rc>
    <rc><c>Ni</c><c>   1</c></rc>
    <rc><c>Ni</c><c>   1</c></rc>
    <rc><c>Ni</c><c>   1</c></rc>
    <rc><c>Ni</c><c>   1</c></rc>
    <rc><c>Ni</c><c>   1</c></rc>
    <rc><c>Ni</c><c>   1</c></rc>
    <rc><c>Ni</c><c>   1</c></rc>
    <rc><c>Ni</c><c>   1</c></rc>
    <rc><c>Ni</c><c>   1</c></rc>
    <rc><c>Ni</c><c>   1</c></rc>
    <rc><c>Ni</c><c>   1</c></rc>
    <rc><c>Ni</c><c>   1</c></rc>
    <rc><c>Ni</c><c>   1</c></rc>
    <rc><c>Ni</c><c>   1</c></rc>
    <rc><c>Ni</c><c>   1</c></rc>
    <rc><c>Ni</c><c>   1</c></rc>
    <rc><c>Ni</c><c>   1</c></rc>
    <rc><c>Ni</c><c>   1</c></rc>
    <rc><c>Ni</c><c>   1</c></rc>
    <rc><c>Ni</c><c>   1</c></rc>
    <rc><c>Ni</c><c>   1</c></rc>
    <rc><c>Ni</c><c>   1</c></rc>
    <rc><c>Ni</c><c>   1</c></rc>
    <rc><c>Ni</c><c>   1</c></rc>
    <rc><c>Ni</c><c>   1</c></rc>
    <rc><c>Ni</c><c>   1</c></rc>
    <rc><c>Ni</c><c>   1</c></rc>
    <rc><c>Ni</c><c>   1</c></rc>
    <rc><c>Ni</c><c>   1</c></rc>
    <rc><c>Ni</c><c>   1</c></rc>
    <rc><c>Ni</c><c>   1</c></rc>
    <rc><c>Ni</c><c>   1</c></rc>
    <rc><c>Ni</c><c>   1</c></rc>
    <rc><c>Ni</c><c>   1</c></rc>
    <rc><c>Ni</c><c>   1</c></rc>
    <rc><c>Ni</c><c>   1</c></rc>
    <rc><c>Ni</c><c>   1</c></rc>
    <rc><c>Ni</c><c>   1</c></rc>
    <rc><c>Ni</c><c>   1</c></rc>
    <rc><c>Ni</c><c>   1</c></rc>
    <rc><c>Ni</c><c>   1</c></rc>
    <rc><c>Ni</c><c>   1</c></rc>
    <rc><c>Ni</c><c>   1</c></rc>
    <rc><c>Ni</c><c>   1</c></rc>
    <rc><c>S </c><c>   2</c></rc>
    <rc><c>S </c><c>   2</c></rc>
    <rc><c>S </c><c>   2</c></rc>
    <rc><c>S </c><c>   2</c></rc>
    <rc><c>S </c><c>   2</c></rc>
    <rc><c>S </c><c>   2</c></rc>
    <rc><c>S </c><c>   2</c></rc>
    <rc><c>S </c><c>   2</c></rc>
    <rc><c>S </c><c>   2</c></rc>
    <rc><c>S </c><c>   2</c></rc>
    <rc><c>S </c><c>   2</c></rc>
    <rc><c>S </c><c>   2</c></rc>
    <rc><c>S </c><c>   2</c></rc>
    <rc><c>S </c><c>   2</c></rc>
    <rc><c>S </c><c>   2</c></rc>
    <rc><c>S </c><c>   2</c></rc>
    <rc><c>S </c><c>   2</c></rc>
    <rc><c>S </c><c>   2</c></rc>
    <rc><c>S </c><c>   2</c></rc>
    <rc><c>S </c><c>   2</c></rc>
    <rc><c>S </c><c>   2</c></rc>
    <rc><c>S </c><c>   2</c></rc>
    <rc><c>S </c><c>   2</c></rc>
    <rc><c>S </c><c>   2</c></rc>
    <rc><c>S </c><c>   2</c></rc>
    <rc><c>S </c><c>   2</c></rc>
    <rc><c>S </c><c>   2</c></rc>
    <rc><c>S </c><c>   2</c></rc>
    <rc><c>S </c><c>   2</c></rc>
    <rc><c>S </c><c>   2</c></rc>
    <rc><c>S </c><c>   2</c></rc>
    <rc><c>S </c><c>   2</c></rc>
    <rc><c>S </c><c>   2</c></rc>
    <rc><c>S </c><c>   2</c></rc>
    <rc><c>S </c><c>   2</c></rc>
    <rc><c>S </c><c>   2</c></rc>
    <rc><c>S </c><c>   2</c></rc>
    <rc><c>S </c><c>   2</c></rc>
    <rc><c>S </c><c>   2</c></rc>
    <rc><c>S </c><c>   2</c></rc>
    <rc><c>S </c><c>   2</c></rc>
    <rc><c>S </c><c>   2</c></rc>
    <rc><c>S </c><c>   2</c></rc>
    <rc><c>S </c><c>   2</c></rc>
    <rc><c>S </c><c>   2</c></rc>
    <rc><c>S </c><c>   2</c></rc>
    <rc><c>S </c><c>   2</c></rc>
    <rc><c>S </c><c>   2</c></rc>
   </set>
  </array>
  <array name="atomtypes" >
   <dimension dim="1">type</dimension>
   <field type="int">atomspertype</field>
   <field type="string">element</field>
   <field>mass</field>
   <field>valence</field>
   <field type="string">pseudopotential</field>
   <set>
    <rc><c>  48</c><c>Ni</c><c>     58.69000000</c><c>     16.00000000</c><c>  PAW_PBE Ni_pv 06Sep2000               </c></rc>
    <rc><c>  48</c><c>S </c><c>     32.06600000</c><c>      6.00000000</c><c>  PAW_PBE S 06Sep2000                   </c></rc>
   </set>
  </array>
 </atominfo>
 <structure name="initialpos" >
  <crystal>
   <varray name="basis" >
    <v>      10.06282034       5.04456212       0.00000000 </v>
    <v>       0.00000000      11.25646304       0.00000000 </v>
    <v>       0.00000000       0.00000000      22.51995597 </v>
   </varray>
   <i name="volume">   2550.87516496 </i>
   <varray name="rec_basis" >
    <v>       0.09937572       0.00000000       0.00000000 </v>
    <v>      -0.04453504       0.08883785       0.00000000 </v>
    <v>       0.00000000       0.00000000       0.04440506 </v>
   </varray>
  </crystal>
  <varray name="positions" >
   <v>       0.26092069       0.47878037       0.29519774 </v>
   <v>       0.35488056       0.38482051       0.42557357 </v>
   <v>       0.16696082       0.07274025       0.16482191 </v>
   <v>       0.27423906       0.33335901       0.13037583 </v>
   <v>       0.36819893       0.23939914       0.26075166 </v>
   <v>       0.46215879       0.14543927       0.39112749 </v>
   <v>       0.00030194       0.37150214       0.26075166 </v>
   <v>       0.09426180       0.27754227       0.39112749 </v>
   <v>       0.18822167       0.18358240       0.52150332 </v>
   <v>       0.40634206       0.46546200       0.13037583 </v>
   <v>       0.31238219       0.05942188       0.00000000 </v>
   <v>       0.76092069       0.47878037       0.29519774 </v>
   <v>       0.85488056       0.38482051       0.42557357 </v>
   <v>       0.66696082       0.07274025       0.16482191 </v>
   <v>       0.68027919       0.42731887       0.00000000 </v>
   <v>       0.77423906       0.33335901       0.13037583 </v>
   <v>       0.86819893       0.23939914       0.26075166 </v>
   <v>       0.96215879       0.14543927       0.39112749 </v>
   <v>       0.50030194       0.37150214       0.26075166 </v>
   <v>       0.59426180       0.27754227       0.39112749 </v>
   <v>       0.68822167       0.18358240       0.52150332 </v>
   <v>       0.90634206       0.46546200       0.13037583 </v>
   <v>       0.81238219       0.05942188       0.00000000 </v>
   <v>       0.26092069       0.97878037       0.29519774 </v>
   <v>       0.35488056       0.88482051       0.42557357 </v>
   <v>       0.44884042       0.79086064       0.55594940 </v>
   <v>       0.16696082       0.57274025       0.16482191 </v>
   <v>       0.05611868       0.55147941       0.52150332 </v>
   <v>       0.18027919       0.92731887       0.00000000 </v>
   <v>       0.27423906       0.83335901       0.13037583 </v>
   <v>       0.36819893       0.73939914       0.26075166 </v>
   <v>       0.46215879       0.64543927       0.39112749 </v>
   <v>       0.00030194       0.87150214       0.26075166 </v>
   <v>       0.09426180       0.77754227       0.39112749 </v>
   <v>       0.40634206       0.96546200       0.13037583 </v>
   <v>       0.76092069       0.97878037       0.29519774 </v>
   <v>       0.85488056       0.88482051       0.42557357 </v>
   <v>       0.57300096       0.66670012       0.03444608 </v>
   <v>       0.66696082       0.57274025       0.16482191 </v>
   <v>       0.55611868       0.55147941       0.52150332 </v>
   <v>       0.68027919       0.92731887       0.00000000 </v>
   <v>       0.77423906       0.83335901       0.13037583 </v>
   <v>       0.86819893       0.73939914       0.26075166 </v>
   <v>       0.96215879       0.64543927       0.39112749 </v>
   <v>       0.50030194       0.87150214       0.26075166 </v>
   <v>       0.59426180       0.77754227       0.39112749 </v>
   <v>       0.90634206       0.96546200       0.13037583 </v>
   <v>       0.81238219       0.55942188       0.00000000 </v>
   <v>       0.07287763       0.16682345       0.31134756 </v>
   <v>       0.16683750       0.07286358       0.44172340 </v>
   <v>       0.38495788       0.35474318       0.05059591 </v>
   <v>       0.47891775       0.26078331       0.18097173 </v>
   <v>       0.03023342       0.37768265       0.48558574 </v>
   <v>       0.43627354       0.47164252       0.35520991 </v>
   <v>       0.24835381       0.15956227       0.09445824 </v>
   <v>       0.34231367       0.06560240       0.22483408 </v>
   <v>       0.08013881       0.49134726       0.09445824 </v>
   <v>       0.17409868       0.39738739       0.22483408 </v>
   <v>       0.26805854       0.30342752       0.35520991 </v>
   <v>       0.36201841       0.20946766       0.48558574 </v>
   <v>       0.57287763       0.16682345       0.31134756 </v>
   <v>       0.66683750       0.07286358       0.44172340 </v>
   <v>       0.88495788       0.35474318       0.05059591 </v>
   <v>       0.97891775       0.26078331       0.18097173 </v>
   <v>       0.53023342       0.37768265       0.48558574 </v>
   <v>       0.93627354       0.47164252       0.35520991 </v>
   <v>       0.74835381       0.15956227       0.09445824 </v>
   <v>       0.84231367       0.06560240       0.22483408 </v>
   <v>       0.58013881       0.49134726       0.09445824 </v>
   <v>       0.67409868       0.39738739       0.22483408 </v>
   <v>       0.76805854       0.30342752       0.35520991 </v>
   <v>       0.86201841       0.20946766       0.48558574 </v>
   <v>       0.07287763       0.66682345       0.31134756 </v>
   <v>       0.16683750       0.57286358       0.44172340 </v>
   <v>       0.38495788       0.85474318       0.05059591 </v>
   <v>       0.47891775       0.76078331       0.18097173 </v>
   <v>       0.03023342       0.87768265       0.48558574 </v>
   <v>       0.43627354       0.97164252       0.35520991 </v>
   <v>       0.24835381       0.65956227       0.09445824 </v>
   <v>       0.34231367       0.56560240       0.22483408 </v>
   <v>       0.08013881       0.99134726       0.09445824 </v>
   <v>       0.17409868       0.89738739       0.22483408 </v>
   <v>       0.26805854       0.80342752       0.35520991 </v>
   <v>       0.36201841       0.70946766       0.48558574 </v>
   <v>       0.57287763       0.66682345       0.31134756 </v>
   <v>       0.66683750       0.57286358       0.44172340 </v>
   <v>       0.88495788       0.85474318       0.05059591 </v>
   <v>       0.97891775       0.76078331       0.18097173 </v>
   <v>       0.53023342       0.87768265       0.48558574 </v>
   <v>       0.93627354       0.97164252       0.35520991 </v>
   <v>       0.74835381       0.65956227       0.09445824 </v>
   <v>       0.84231367       0.56560240       0.22483408 </v>
   <v>       0.58013881       0.99134726       0.09445824 </v>
   <v>       0.67409868       0.89738739       0.22483408 </v>
   <v>       0.76805854       0.80342752       0.35520991 </v>
   <v>       0.86201841       0.70946766       0.48558574 </v>
  </varray>
 </structure>
 <calculation>
  <scstep>
   <time name="dav">    3.48    3.49</time>
   <time name="total">    3.56    3.57</time>
   <energy>
    <i name="alphaZ">   2592.50432107 </i>
    <i name="ewald"> 250969.42950266 </i>
    <i name="hartreedc">-414682.23067204 </i>
    <i name="XCdc">   4868.17065893 </i>
    <i name="pawpsdc"> 150306.04444553 </i>
    <i name="pawaedc">-156855.34918313 </i>
    <i name="eentropy">     -0.39650994 </i>
    <i name="bandstr">  -5391.82141846 </i>
    <i name="atom"> 181336.80673834 </i>
    <i name="e_fr_energy">  13143.15788296 </i>
    <i name="e_wo_entrp">  13143.55439290 </i>
    <i name="e_0_energy">  13143.35613793 </i>
   </energy>
  </scstep>
  <scstep>
   <time name="dav">    3.14    3.15</time>
   <time name="total">    3.15    3.16</time>
   <energy>
    <i name="e_fr_energy">    842.29473110 </i>
    <i name="e_wo_entrp">    843.50409992 </i>
    <i name="e_0_energy">    842.89941551 </i>
   </energy>
  </scstep>
  <scstep>
   <time name="dav">    3.31    3.32</time>
   <time name="total">    3.32    3.33</time>
   <energy>
    <i name="e_fr_energy">   -448.30418204 </i>
    <i name="e_wo_entrp">   -446.51720773 </i>
    <i name="e_0_energy">   -447.41069488 </i>
   </energy>
  </scstep>
  <scstep>
   <time name="dav">    3.34    3.35</time>
   <time name="total">    3.35    3.36</time>
   <energy>
    <i name="e_fr_energy">   -533.59558841 </i>
    <i name="e_wo_entrp">   -531.67838431 </i>
    <i name="e_0_energy">   -532.63698636 </i>
   </energy>
  </scstep>
  <scstep>
   <time name="dav">    3.76    3.77</time>
   <time name="total">    3.85    3.86</time>
   <energy>
    <i name="e_fr_energy">   -537.30652989 </i>
    <i name="e_wo_entrp">   -535.41588304 </i>
    <i name="e_0_energy">   -536.36120647 </i>
   </energy>
  </scstep>
  <scstep>
   <time name="dav">    3.41    3.42</time>
   <time name="total">    3.56    3.57</time>
   <energy>
    <i name="e_fr_energy">   -644.71955517 </i>
    <i name="e_wo_entrp">   -643.42575655 </i>
    <i name="e_0_energy">   -644.07265586 </i>
   </energy>
  </scstep>
  <scstep>
   <time name="dav">    3.28    3.29</time>
   <time name="total">    3.43    3.44</time>
   <energy>
    <i name="e_fr_energy">   -493.95412341 </i>
    <i name="e_wo_entrp">   -492.78166659 </i>
    <i name="e_0_energy">   -493.36789500 </i>
   </energy>
  </scstep>
  <scstep>
   <time name="dav">    3.83    3.85</time>
   <time name="total">    3.99    4.01</time>
   <energy>
    <i name="e_fr_energy">   -599.95098795 </i>
    <i name="e_wo_entrp">   -598.63720396 </i>
    <i name="e_0_energy">   -599.29409595 </i>
   </energy>
  </scstep>
  <scstep>
   <time name="dav">    3.64    3.65</time>
   <time name="total">    3.80    3.82</time>
   <energy>
    <i name="e_fr_energy">   -504.73576951 </i>
    <i name="e_wo_entrp">   -503.00515236 </i>
    <i name="e_0_energy">   -503.87046093 </i>
   </energy>
  </scstep>
  <scstep>
   <time name="dav">    3.92    3.93</time>
   <time name="total">    4.08    4.09</time>
   <energy>
    <i name="e_fr_energy">   -496.08618211 </i>
    <i name="e_wo_entrp">   -494.56963642 </i>
    <i name="e_0_energy">   -495.32790926 </i>
   </energy>
  </scstep>
  <scstep>
   <time name="dav">    3.89    3.90</time>
   <time name="total">    4.05    4.06</time>
   <energy>
    <i name="e_fr_energy">   -509.03948596 </i>
    <i name="e_wo_entrp">   -507.50227322 </i>
    <i name="e_0_energy">   -508.27087959 </i>
   </energy>
  </scstep>
  <scstep>
   <time name="dav">    3.74    3.75</time>
   <time name="total">    3.90    3.91</time>
   <energy>
    <i name="e_fr_energy">   -485.98129146 </i>
    <i name="e_wo_entrp">   -484.81899873 </i>
    <i name="e_0_energy">   -485.40014510 </i>
   </energy>
  </scstep>
  <scstep>
   <time name="dav">    3.59    3.60</time>
   <time name="total">    3.74    3.75</time>
   <energy>
    <i name="e_fr_energy">   -476.52473245 </i>
    <i name="e_wo_entrp">   -475.32004322 </i>
    <i name="e_0_energy">   -475.92238784 </i>
   </energy>
  </scstep>
  <scstep>
   <time name="dav">    3.78    3.79</time>
   <time name="total">    3.93    3.94</time>
   <energy>
    <i name="e_fr_energy">   -477.17647250 </i>
    <i name="e_wo_entrp">   -475.99150191 </i>
    <i name="e_0_energy">   -476.58398721 </i>
   </energy>
  </scstep>
  <scstep>
   <time name="dav">    3.56    3.57</time>
   <time name="total">    3.72    3.73</time>
   <energy>
    <i name="e_fr_energy">   -473.24546963 </i>
    <i name="e_wo_entrp">   -472.00510222 </i>
    <i name="e_0_energy">   -472.62528592 </i>
   </energy>
  </scstep>
  <scstep>
   <time name="dav">    3.75    3.76</time>
   <time name="total">    3.91    3.92</time>
   <energy>
    <i name="e_fr_energy">   -472.72829988 </i>
    <i name="e_wo_entrp">   -471.51118155 </i>
    <i name="e_0_energy">   -472.11974071 </i>
   </energy>
  </scstep>
  <scstep>
   <time name="dav">    3.76    3.77</time>
   <time name="total">    3.92    3.93</time>
   <energy>
    <i name="e_fr_energy">   -471.78928952 </i>
    <i name="e_wo_entrp">   -470.56301237 </i>
    <i name="e_0_energy">   -471.17615095 </i>
   </energy>
  </scstep>
  <scstep>
   <time name="dav">    3.79    3.80</time>
   <time name="total">    3.95    3.96</time>
   <energy>
    <i name="e_fr_energy">   -471.31418143 </i>
    <i name="e_wo_entrp">   -470.07071925 </i>
    <i name="e_0_energy">   -470.69245034 </i>
   </energy>
  </scstep>
  <scstep>
   <time name="dav">    3.99    4.00</time>
   <time name="total">    4.13    4.14</time>
   <energy>
    <i name="e_fr_energy">   -470.51156826 </i>
    <i name="e_wo_entrp">   -469.19667385 </i>
    <i name="e_0_energy">   -469.85412105 </i>
   </energy>
  </scstep>
  <scstep>
   <time name="dav">    3.79    3.80</time>
   <time name="total">    3.94    3.95</time>
   <energy>
    <i name="e_fr_energy">   -470.25689399 </i>
    <i name="e_wo_entrp">   -468.91379003 </i>
    <i name="e_0_energy">   -469.58534201 </i>
   </energy>
  </scstep>
  <scstep>
   <time name="dav">    3.76    3.77</time>
   <time name="total">    3.91    3.92</time>
   <energy>
    <i name="e_fr_energy">   -470.12698577 </i>
    <i name="e_wo_entrp">   -468.74916852 </i>
    <i name="e_0_energy">   -469.43807715 </i>
   </energy>
  </scstep>
  <scstep>
   <time name="dav">    3.59    3.60</time>
   <time name="total">    3.75    3.76</time>
   <energy>
    <i name="e_fr_energy">   -470.05310293 </i>
    <i name="e_wo_entrp">   -468.66544377 </i>
    <i name="e_0_energy">   -469.35927335 </i>
   </energy>
  </scstep>
  <scstep>
   <time name="dav">    4.02    4.03</time>
   <time name="total">    4.18    4.20</time>
   <energy>
    <i name="e_fr_energy">   -470.00248779 </i>
    <i name="e_wo_entrp">   -468.56977581 </i>
    <i name="e_0_energy">   -469.28613180 </i>
   </energy>
  </scstep>
  <scstep>
   <time name="dav">    3.67    3.68</time>
   <time name="total">    3.83    3.84</time>
   <energy>
    <i name="e_fr_energy">   -469.93701556 </i>
    <i name="e_wo_entrp">   -468.47584094 </i>
    <i name="e_0_energy">   -469.20642825 </i>
   </energy>
  </scstep>
  <scstep>
   <time name="dav">    3.69    3.70</time>
   <time name="total">    3.85    3.86</time>
   <energy>
    <i name="e_fr_energy">   -469.93589791 </i>
    <i name="e_wo_entrp">   -468.47677586 </i>
    <i name="e_0_energy">   -469.20633688 </i>
   </energy>
  </scstep>
  <scstep>
   <time name="dav">    3.61    3.61</time>
   <time name="total">    3.76    3.77</time>
   <energy>
    <i name="e_fr_energy">   -469.88919452 </i>
    <i name="e_wo_entrp">   -468.41336519 </i>
    <i name="e_0_energy">   -469.15127986 </i>
   </energy>
  </scstep>
  <scstep>
   <time name="dav">    3.71    3.72</time>
   <time name="total">    3.87    3.88</time>
   <energy>
    <i name="e_fr_energy">   -469.90307499 </i>
    <i name="e_wo_entrp">   -468.42602838 </i>
    <i name="e_0_energy">   -469.16455168 </i>
   </energy>
  </scstep>
  <scstep>
   <time name="dav">    3.66    3.67</time>
   <time name="total">    3.82    3.83</time>
   <energy>
    <i name="e_fr_energy">   -469.89226486 </i>
    <i name="e_wo_entrp">   -468.42222442 </i>
    <i name="e_0_energy">   -469.15724464 </i>
   </energy>
  </scstep>
  <scstep>
   <time name="dav">    3.67    3.68</time>
   <time name="total">    3.83    3.84</time>
   <energy>
    <i name="e_fr_energy">   -469.88372360 </i>
    <i name="e_wo_entrp">   -468.41133778 </i>
    <i name="e_0_energy">   -469.14753069 </i>
   </energy>
  </scstep>
  <scstep>
   <time name="dav">    3.73    3.74</time>
   <time name="total">    3.89    3.90</time>
   <energy>
    <i name="e_fr_energy">   -469.88272225 </i>
    <i name="e_wo_entrp">   -468.41625124 </i>
    <i name="e_0_energy">   -469.14948675 </i>
   </energy>
  </scstep>
  <scstep>
   <time name="dav">    3.45    3.46</time>
   <time name="total">    3.61    3.62</time>
   <energy>
    <i name="e_fr_energy">   -469.87811272 </i>
    <i name="e_wo_entrp">   -468.41089669 </i>
    <i name="e_0_energy">   -469.14450470 </i>
   </energy>
  </scstep>
  <scstep>
   <time name="dav">    3.66    3.67</time>
   <time name="total">    3.82    3.83</time>
   <energy>
    <i name="e_fr_energy">   -469.87838788 </i>
    <i name="e_wo_entrp">   -468.40455929 </i>
    <i name="e_0_energy">   -469.14147358 </i>
   </energy>
  </scstep>
  <scstep>
   <time name="dav">    3.69    3.70</time>
   <time name="total">    3.85    3.86</time>
   <energy>
    <i name="e_fr_energy">   -469.87770472 </i>
    <i name="e_wo_entrp">   -468.41357333 </i>
    <i name="e_0_energy">   -469.14563902 </i>
   </energy>
  </scstep>
  <scstep>
   <time name="dav">    3.23    3.24</time>
   <time name="total">    3.39    3.40</time>
   <energy>
    <i name="e_fr_energy">   -469.87802788 </i>
    <i name="e_wo_entrp">   -468.40487242 </i>
    <i name="e_0_energy">   -469.14145015 </i>
   </energy>
  </scstep>
  <scstep>
   <time name="dav">    2.93    2.94</time>
   <time name="total">    3.09    3.10</time>
   <energy>
    <i name="e_fr_energy">   -469.87797347 </i>
    <i name="e_wo_entrp">   -468.41302257 </i>
    <i name="e_0_energy">   -469.14549802 </i>
   </energy>
  </scstep>
  <scstep>
   <time name="dav">    2.66    2.67</time>
   <time name="total">    2.82    2.83</time>
   <energy>
    <i name="e_fr_energy">   -469.87831045 </i>
    <i name="e_wo_entrp">   -468.41310018 </i>
    <i name="e_0_energy">   -469.14570531 </i>
   </energy>
  </scstep>
  <scstep>
   <time name="dav">    2.44    2.44</time>
   <time name="total">    2.60    2.61</time>
   <energy>
    <i name="e_fr_energy">   -469.87851481 </i>
    <i name="e_wo_entrp">   -468.40861013 </i>
    <i name="e_0_energy">   -469.14356247 </i>
   </energy>
  </scstep>
  <scstep>
   <time name="dav">    2.42    2.43</time>
   <time name="total">    2.58    2.59</time>
   <energy>
    <i name="e_fr_energy">   -469.87894219 </i>
    <i name="e_wo_entrp">   -468.41008218 </i>
    <i name="e_0_energy">   -469.14451219 </i>
   </energy>
  </scstep>
  <scstep>
   <time name="dav">    2.16    2.17</time>
   <time name="total">    2.32    2.33</time>
   <energy>
    <i name="e_fr_energy">   -469.87952116 </i>
    <i name="e_wo_entrp">   -468.41055330 </i>
    <i name="e_0_energy">   -469.14503723 </i>
   </energy>
  </scstep>
  <scstep>
   <time name="dav">    2.42    2.43</time>
   <time name="total">    2.58    2.58</time>
   <energy>
    <i name="e_fr_energy">   -469.88018234 </i>
    <i name="e_wo_entrp">   -468.41066031 </i>
    <i name="e_0_energy">   -469.14542132 </i>
   </energy>
  </scstep>
  <scstep>
   <time name="dav">    2.41    2.41</time>
   <time name="total">    2.57    2.58</time>
   <energy>
    <i name="e_fr_energy">   -469.88089065 </i>
    <i name="e_wo_entrp">   -468.41132956 </i>
    <i name="e_0_energy">   -469.14611010 </i>
   </energy>
  </scstep>
  <scstep>
   <time name="dav">    2.15    2.15</time>
   <time name="total">    2.31    2.31</time>
   <energy>
    <i name="e_fr_energy">   -469.88122872 </i>
    <i name="e_wo_entrp">   -468.41129517 </i>
    <i name="e_0_energy">   -469.14626195 </i>
   </energy>
  </scstep>
  <scstep>
   <time name="dav">    2.14    2.14</time>
   <time name="total">    2.30    2.30</time>
   <energy>
    <i name="e_fr_energy">   -469.88151721 </i>
    <i name="e_wo_entrp">   -468.41156127 </i>
    <i name="e_0_energy">   -469.14653924 </i>
   </energy>
  </scstep>
  <scstep>
   <time name="dav">    2.25    2.25</time>
   <time name="total">    2.41    2.41</time>
   <energy>
    <i name="e_fr_energy">   -469.88230972 </i>
    <i name="e_wo_entrp">   -468.41247038 </i>
    <i name="e_0_energy">   -469.14739005 </i>
   </energy>
  </scstep>
  <scstep>
   <time name="dav">    2.22    2.23</time>
   <time name="total">    2.38    2.39</time>
   <energy>
    <i name="e_fr_energy">   -469.88289687 </i>
    <i name="e_wo_entrp">   -468.41317301 </i>
    <i name="e_0_energy">   -469.14803494 </i>
   </energy>
  </scstep>
  <scstep>
   <time name="dav">    2.23    2.23</time>
   <time name="total">    2.39    2.40</time>
   <energy>
    <i name="e_fr_energy">   -469.88336162 </i>
    <i name="e_wo_entrp">   -468.41439595 </i>
    <i name="e_0_energy">   -469.14887879 </i>
   </energy>
  </scstep>
  <scstep>
   <time name="dav">    2.13    2.14</time>
   <time name="total">    2.29    2.30</time>
   <energy>
    <i name="e_fr_energy">   -469.88347289 </i>
    <i name="e_wo_entrp">   -468.41442377 </i>
    <i name="e_0_energy">   -469.14894833 </i>
   </energy>
  </scstep>
  <scstep>
   <time name="dav">    2.12    2.12</time>
   <time name="total">    2.28    2.28</time>
   <energy>
    <i name="e_fr_energy">   -469.88370577 </i>
    <i name="e_wo_entrp">   -468.41442475 </i>
    <i name="e_0_energy">   -469.14906526 </i>
   </energy>
  </scstep>
  <scstep>
   <time name="dav">    2.10    2.11</time>
   <time name="total">    2.27    2.27</time>
   <energy>
    <i name="e_fr_energy">   -469.88382166 </i>
    <i name="e_wo_entrp">   -468.41464914 </i>
    <i name="e_0_energy">   -469.14923540 </i>
   </energy>
  </scstep>
  <scstep>
   <time name="dav">    2.12    2.12</time>
   <time name="total">    2.28    2.29</time>
   <energy>
    <i name="e_fr_energy">   -469.88392861 </i>
    <i name="e_wo_entrp">   -468.41480113 </i>
    <i name="e_0_energy">   -469.14936487 </i>
   </energy>
  </scstep>
  <scstep>
   <time name="dav">    2.13    2.13</time>
   <time name="total">    2.20    2.20</time>
   <energy>
    <i name="alphaZ">   2592.50432107 </i>
    <i name="ewald"> 250969.42950266 </i>
    <i name="hartreedc">-413958.20664443 </i>
    <i name="XCdc">   4829.21075000 </i>
    <i name="pawpsdc"> 174126.59318864 </i>
    <i name="pawaedc">-180752.53368374 </i>
    <i name="eentropy">     -1.46937081 </i>
    <i name="bandstr"> -19612.21877847 </i>
    <i name="atom"> 181336.80673834 </i>
    <i name="e_fr_energy">   -469.88397674 </i>
    <i name="e_wo_entrp">   -468.41460593 </i>
    <i name="e_0_energy">   -469.14929133 </i>
   </energy>
  </scstep>
  <structure>
   <crystal>
    <varray name="basis" >
     <v>      10.06282034       5.04456212       0.00000000 </v>
     <v>       0.00000000      11.25646304       0.00000000 </v>
     <v>       0.00000000       0.00000000      22.51995597 </v>
    </varray>
    <i name="volume">   2550.87516496 </i>
    <varray name="rec_basis" >
     <v>       0.09937572       0.00000000       0.00000000 </v>
     <v>      -0.04453504       0.08883785       0.00000000 </v>
     <v>       0.00000000       0.00000000       0.04440506 </v>
    </varray>
   </crystal>
   <varray name="positions" >
    <v>       0.26092069       0.47878037       0.29519774 </v>
    <v>       0.35488056       0.38482051       0.42557357 </v>
    <v>       0.16696082       0.07274025       0.16482191 </v>
    <v>       0.27423906       0.33335901       0.13037583 </v>
    <v>       0.36819893       0.23939914       0.26075166 </v>
    <v>       0.46215879       0.14543927       0.39112749 </v>
    <v>       0.00030194       0.37150214       0.26075166 </v>
    <v>       0.09426180       0.27754227       0.39112749 </v>
    <v>       0.18822167       0.18358240       0.52150332 </v>
    <v>       0.40634206       0.46546200       0.13037583 </v>
    <v>       0.31238219       0.05942188       0.00000000 </v>
    <v>       0.76092069       0.47878037       0.29519774 </v>
    <v>       0.85488056       0.38482051       0.42557357 </v>
    <v>       0.66696082       0.07274025       0.16482191 </v>
    <v>       0.68027919       0.42731887       0.00000000 </v>
    <v>       0.77423906       0.33335901       0.13037583 </v>
    <v>       0.86819893       0.23939914       0.26075166 </v>
    <v>       0.96215879       0.14543927       0.39112749 </v>
    <v>       0.50030194       0.37150214       0.26075166 </v>
    <v>       0.59426180       0.27754227       0.39112749 </v>
    <v>       0.68822167       0.18358240       0.52150332 </v>
    <v>       0.90634206       0.46546200       0.13037583 </v>
    <v>       0.81238219       0.05942188       0.00000000 </v>
    <v>       0.26092069       0.97878037       0.29519774 </v>
    <v>       0.35488056       0.88482051       0.42557357 </v>
    <v>       0.44884042       0.79086064       0.55594940 </v>
    <v>       0.16696082       0.57274025       0.16482191 </v>
    <v>       0.05611868       0.55147941       0.52150332 </v>
    <v>       0.18027919       0.92731887       0.00000000 </v>
    <v>       0.27423906       0.83335901       0.13037583 </v>
    <v>       0.36819893       0.73939914       0.26075166 </v>
    <v>       0.46215879       0.64543927       0.39112749 </v>
    <v>       0.00030194       0.87150214       0.26075166 </v>
    <v>       0.09426180       0.77754227       0.39112749 </v>
    <v>       0.40634206       0.96546200       0.13037583 </v>
    <v>       0.76092069       0.97878037       0.29519774 </v>
    <v>       0.85488056       0.88482051       0.42557357 </v>
    <v>       0.57300096       0.66670012       0.03444608 </v>
    <v>       0.66696082       0.57274025       0.16482191 </v>
    <v>       0.55611868       0.55147941       0.52150332 </v>
    <v>       0.68027919       0.92731887       0.00000000 </v>
    <v>       0.77423906       0.83335901       0.13037583 </v>
    <v>       0.86819893       0.73939914       0.26075166 </v>
    <v>       0.96215879       0.64543927       0.39112749 </v>
    <v>       0.50030194       0.87150214       0.26075166 </v>
    <v>       0.59426180       0.77754227       0.39112749 </v>
    <v>       0.90634206       0.96546200       0.13037583 </v>
    <v>       0.81238219       0.55942188       0.00000000 </v>
    <v>       0.07287763       0.16682345       0.31134756 </v>
    <v>       0.16683750       0.07286358       0.44172340 </v>
    <v>       0.38495788       0.35474318       0.05059591 </v>
    <v>       0.47891775       0.26078331       0.18097173 </v>
    <v>       0.03023342       0.37768265       0.48558574 </v>
    <v>       0.43627354       0.47164252       0.35520991 </v>
    <v>       0.24835381       0.15956227       0.09445824 </v>
    <v>       0.34231367       0.06560240       0.22483408 </v>
    <v>       0.08013881       0.49134726       0.09445824 </v>
    <v>       0.17409868       0.39738739       0.22483408 </v>
    <v>       0.26805854       0.30342752       0.35520991 </v>
    <v>       0.36201841       0.20946766       0.48558574 </v>
    <v>       0.57287763       0.16682345       0.31134756 </v>
    <v>       0.66683750       0.07286358       0.44172340 </v>
    <v>       0.88495788       0.35474318       0.05059591 </v>
    <v>       0.97891775       0.26078331       0.18097173 </v>
    <v>       0.53023342       0.37768265       0.48558574 </v>
    <v>       0.93627354       0.47164252       0.35520991 </v>
    <v>       0.74835381       0.15956227       0.09445824 </v>
    <v>       0.84231367       0.06560240       0.22483408 </v>
    <v>       0.58013881       0.49134726       0.09445824 </v>
    <v>       0.67409868       0.39738739       0.22483408 </v>
    <v>       0.76805854       0.30342752       0.35520991 </v>
    <v>       0.86201841       0.20946766       0.48558574 </v>
    <v>       0.07287763       0.66682345       0.31134756 </v>
    <v>       0.16683750       0.57286358       0.44172340 </v>
    <v>       0.38495788       0.85474318       0.05059591 </v>
    <v>       0.47891775       0.76078331       0.18097173 </v>
    <v>       0.03023342       0.87768265       0.48558574 </v>
    <v>       0.43627354       0.97164252       0.35520991 </v>
    <v>       0.24835381       0.65956227       0.09445824 </v>
    <v>       0.34231367       0.56560240       0.22483408 </v>
    <v>       0.08013881       0.99134726       0.09445824 </v>
    <v>       0.17409868       0.89738739       0.22483408 </v>
    <v>       0.26805854       0.80342752       0.35520991 </v>
    <v>       0.36201841       0.70946766       0.48558574 </v>
    <v>       0.57287763       0.66682345       0.31134756 </v>
    <v>       0.66683750       0.57286358       0.44172340 </v>
    <v>       0.88495788       0.85474318       0.05059591 </v>
    <v>       0.97891775       0.76078331       0.18097173 </v>
    <v>       0.53023342       0.87768265       0.48558574 </v>
    <v>       0.93627354       0.97164252       0.35520991 </v>
    <v>       0.74835381       0.65956227       0.09445824 </v>
    <v>       0.84231367       0.56560240       0.22483408 </v>
    <v>       0.58013881       0.99134726       0.09445824 </v>
    <v>       0.67409868       0.89738739       0.22483408 </v>
    <v>       0.76805854       0.80342752       0.35520991 </v>
    <v>       0.86201841       0.70946766       0.48558574 </v>
   </varray>
  </structure>
  <varray name="forces" >
   <v>       0.23340777      -0.19082515      -0.11685657 </v>
   <v>      -0.27308859      -0.10161510       0.35409725 </v>
   <v>      -0.12289351       0.09526649      -0.35189677 </v>
   <v>      -0.03990188      -0.12489337      -0.48566437 </v>
   <v>      -0.01215059       0.18900923       0.03211382 </v>
   <v>       0.07661808       0.01470286       0.41077927 </v>
   <v>      -0.10340290      -0.06048310       0.04021657 </v>
   <v>       0.07504352      -0.15399461       0.08358298 </v>
   <v>      -0.09049954       0.81261739      -2.17932549 </v>
   <v>      -0.04922768       0.12028649      -0.48848125 </v>
   <v>      -0.05618481      -1.06163630       1.94542344 </v>
   <v>       0.15611175      -0.14122826      -0.08959422 </v>
   <v>      -0.28789393      -0.13653114       0.29879173 </v>
   <v>      -0.17583999       0.10801549      -0.33140079 </v>
   <v>       0.82628968       0.58534661       1.80305877 </v>
   <v>      -0.05255632      -0.03653987      -0.23399456 </v>
   <v>      -0.02000867       0.14095560       0.08215263 </v>
   <v>       0.03583662       0.07187063       0.38847383 </v>
   <v>      -0.14103649      -0.12376934       0.03780769 </v>
   <v>       0.06660367      -0.16705414       0.12535689 </v>
   <v>      -0.07673034       0.85377571      -2.18844870 </v>
   <v>       0.18989733       0.30129233      -0.25456446 </v>
   <v>      -0.11371891      -1.03664335       1.98168179 </v>
   <v>       0.09765338      -0.05288721      -0.09542083 </v>
   <v>       0.22799708       0.09076632       0.45350143 </v>
   <v>       0.40188765      -0.15037429      -2.48822490 </v>
   <v>      -0.20246424       0.13758911      -0.35249263 </v>
   <v>      -0.85426134      -0.12795209      -2.10081420 </v>
   <v>       0.65377778       0.65686866       1.95232730 </v>
   <v>      -0.28212064      -0.41402977      -0.11511867 </v>
   <v>      -0.00626611       0.10995871       0.01476409 </v>
   <v>       0.33023694       0.06481960       0.25294724 </v>
   <v>      -0.13044852      -0.02696804      -0.01130235 </v>
   <v>      -0.05522453       0.00694135       0.68541662 </v>
   <v>       0.06608916       0.25644756      -0.09408028 </v>
   <v>       0.16882025      -0.07986129      -0.09927139 </v>
   <v>       0.40635704       0.05552421       0.68691625 </v>
   <v>       0.22135715       0.13200504       0.77803518 </v>
   <v>      -0.11335512       0.07143667      -0.20195544 </v>
   <v>      -0.75753025       0.11025712      -1.81154178 </v>
   <v>       0.80522684       0.43096984       1.93921108 </v>
   <v>      -0.28089483       0.00634969      -0.22528904 </v>
   <v>      -0.01483718       0.10643362      -0.02426158 </v>
   <v>       0.11395128       0.04015416       0.34341801 </v>
   <v>      -0.12874253      -0.08178230       0.03584447 </v>
   <v>       0.05110238      -0.33695347       0.51707189 </v>
   <v>      -0.02983301       0.23057871      -0.22605762 </v>
   <v>      -0.43926954      -0.83237774       1.80458932 </v>
   <v>      -0.05746240      -0.00462078       0.21499415 </v>
   <v>      -0.20103684       0.26062120       0.71565457 </v>
   <v>      -0.09089814       0.02274201       0.69636458 </v>
   <v>      -0.01351070       0.04196852      -0.33336670 </v>
   <v>       0.42270102      -0.10050794       0.77548731 </v>
   <v>       0.01199884      -0.08023442       0.19163744 </v>
   <v>       0.40925888       0.12602513      -0.60288914 </v>
   <v>       0.00327381      -0.04319150       0.03288881 </v>
   <v>       0.07829308      -0.21659844       0.51081911 </v>
   <v>      -0.02499825       0.02410804      -0.19922559 </v>
   <v>       0.08578704       0.03902001       0.07192871 </v>
   <v>      -0.05677849      -0.01510720       0.14490837 </v>
   <v>      -0.04877765      -0.03232347       0.20724431 </v>
   <v>      -0.11920895       0.29030422       0.71621581 </v>
   <v>      -0.87928761       0.44782896      -1.62609963 </v>
   <v>       0.09654479      -0.07215726      -0.13434789 </v>
   <v>       0.45237846      -0.20596053       0.74517470 </v>
   <v>      -0.00990730      -0.11847589       0.14240271 </v>
   <v>       0.34430574       0.10462125      -0.65575675 </v>
   <v>       0.02202234       0.01462888      -0.00972656 </v>
   <v>      -0.24470940      -0.00340231      -0.91979941 </v>
   <v>       0.01798717      -0.07093795       0.01080375 </v>
   <v>       0.10677187       0.08911201       0.06872060 </v>
   <v>      -0.08862629      -0.04309514       0.15777241 </v>
   <v>       0.00229823       0.06769831       0.24030076 </v>
   <v>      -0.27257457      -0.04612619       0.74938639 </v>
   <v>       0.05346970      -0.01303282      -1.87138582 </v>
   <v>      -0.05680944       0.06250519      -0.13297323 </v>
   <v>      -0.50855588      -0.57522573      -1.23939618 </v>
   <v>       0.11114919      -0.00955599       0.07405162 </v>
   <v>       0.23063333       0.03060812       0.51670616 </v>
   <v>      -0.01937638       0.02450837      -0.20037391 </v>
   <v>       0.17625796      -0.44310769      -0.72875423 </v>
   <v>      -0.00302998      -0.00560420       0.06936247 </v>
   <v>       0.08033333      -0.07572841       0.16684697 </v>
   <v>       0.36067533       0.51233346       0.95039331 </v>
   <v>      -0.01722630       0.12470045       0.08931354 </v>
   <v>      -0.07038109      -0.10289531       0.67745859 </v>
   <v>      -0.78476583       0.54071248      -1.62196007 </v>
   <v>      -0.03564008       0.00540080      -0.28621663 </v>
   <v>      -0.85443397      -0.66154774       0.53428644 </v>
   <v>       0.07850025      -0.10289590       0.16906765 </v>
   <v>       0.01165228       0.09049562      -0.90522563 </v>
   <v>       0.07346693       0.03386324       0.03288334 </v>
   <v>       0.06315765      -0.32363047      -0.60636639 </v>
   <v>      -0.01890192      -0.06659069      -0.00799475 </v>
   <v>       0.08599284      -0.03176825       0.21626790 </v>
   <v>       0.80410403       0.14867671      -0.28900565 </v>
  </varray>
  <varray name="stress" >
   <v>     -15.87696067       0.69358975      -5.03968020 </v>
   <v>       0.69358997     -16.14946336       3.60594178 </v>
   <v>      -5.03968007       3.60594212     -35.91655177 </v>
  </varray>
  <energy>
   <i name="e_fr_energy">   -469.88397674 </i>
   <i name="e_wo_entrp">   -468.41460593 </i>
   <i name="e_0_energy">   -469.14929133 </i>
  </energy>
  <time name="totalsc">  172.85  173.35</time>
  <eigenvalues>
   <array>
    <dimension dim="1">band</dimension>
    <dimension dim="2">kpoint</dimension>
    <dimension dim="3">spin</dimension>
    <field>eigene</field>
    <field>occ</field>
    <set>
     <set comment="spin 1">
      <set comment="kpoint 1">
       <r>  -62.3220    1.0000 </r>
       <r>  -62.3118    1.0000 </r>
       <r>  -62.3101    1.0000 </r>
       <r>  -62.3009    1.0000 </r>
       <r>  -62.3007    1.0000 </r>
       <r>  -62.3001    1.0000 </r>
       <r>  -62.2916    1.0000 </r>
       <r>  -62.2913    1.0000 </r>
       <r>  -62.2895    1.0000 </r>
       <r>  -62.2882    1.0000 </r>
       <r>  -62.2860    1.0000 </r>
       <r>  -62.2858    1.0000 </r>
       <r>  -62.2824    1.0000 </r>
       <r>  -62.2786    1.0000 </r>
       <r>  -62.2765    1.0000 </r>
       <r>  -62.2740    1.0000 </r>
       <r>  -62.2705    1.0000 </r>
       <r>  -62.2686    1.0000 </r>
       <r>  -62.2682    1.0000 </r>
       <r>  -62.2642    1.0000 </r>
       <r>  -62.2600    1.0000 </r>
       <r>  -62.2596    1.0000 </r>
       <r>  -62.2577    1.0000 </r>
       <r>  -62.2576    1.0000 </r>
       <r>  -62.2570    1.0000 </r>
       <r>  -62.2567    1.0000 </r>
       <r>  -62.2527    1.0000 </r>
       <r>  -62.2523    1.0000 </r>
       <r>  -62.2513    1.0000 </r>
       <r>  -62.2498    1.0000 </r>
       <r>  -62.2488    1.0000 </r>
       <r>  -62.2481    1.0000 </r>
       <r>  -62.2459    1.0000 </r>
       <r>  -62.2445    1.0000 </r>
       <r>  -62.2405    1.0000 </r>
       <r>  -62.2391    1.0000 </r>
       <r>  -62.2385    1.0000 </r>
       <r>  -62.2363    1.0000 </r>
       <r>  -62.2335    1.0000 </r>
       <r>  -62.2330    1.0000 </r>
       <r>  -62.2316    1.0000 </r>
       <r>  -62.2308    1.0000 </r>
       <r>  -62.2295    1.0000 </r>
       <r>  -62.2278    1.0000 </r>
       <r>  -62.2270    1.0000 </r>
       <r>  -62.2257    1.0000 </r>
       <r>  -62.2220    1.0000 </r>
       <r>  -62.2212    1.0000 </r>
       <r>  -62.2197    1.0000 </r>
       <r>  -62.2181    1.0000 </r>
       <r>  -62.2163    1.0000 </r>
       <r>  -62.2153    1.0000 </r>
       <r>  -62.2151    1.0000 </r>
       <r>  -62.2105    1.0000 </r>
       <r>  -62.2091    1.0000 </r>
       <r>  -62.2069    1.0000 </r>
       <r>  -62.2067    1.0000 </r>
       <r>  -62.2060    1.0000 </r>
       <r>  -62.2034    1.0000 </r>
       <r>  -62.2022    1.0000 </r>
       <r>  -62.2005    1.0000 </r>
       <r>  -62.1973    1.0000 </r>
       <r>  -62.1965    1.0000 </r>
       <r>  -62.1934    1.0000 </r>
       <r>  -62.1912    1.0000 </r>
       <r>  -62.1906    1.0000 </r>
       <r>  -62.1895    1.0000 </r>
       <r>  -62.1839    1.0000 </r>
       <r>  -62.1802    1.0000 </r>
       <r>  -62.1792    1.0000 </r>
       <r>  -62.1741    1.0000 </r>
       <r>  -62.1596    1.0000 </r>
       <r>  -62.1355    1.0000 </r>
       <r>  -62.1256    1.0000 </r>
       <r>  -62.1163    1.0000 </r>
       <r>  -62.1141    1.0000 </r>
       <r>  -62.1134    1.0000 </r>
       <r>  -62.0979    1.0000 </r>
       <r>  -62.0897    1.0000 </r>
       <r>  -62.0854    1.0000 </r>
       <r>  -62.0747    1.0000 </r>
       <r>  -62.0723    1.0000 </r>
       <r>  -62.0640    1.0000 </r>
       <r>  -62.0635    1.0000 </r>
       <r>  -62.0623    1.0000 </r>
       <r>  -62.0600    1.0000 </r>
       <r>  -62.0537    1.0000 </r>
       <r>  -62.0487    1.0000 </r>
       <r>  -62.0482    1.0000 </r>
       <r>  -62.0463    1.0000 </r>
       <r>  -62.0449    1.0000 </r>
       <r>  -62.0421    1.0000 </r>
       <r>  -62.0416    1.0000 </r>
       <r>  -62.0407    1.0000 </r>
       <r>  -62.0350    1.0000 </r>
       <r>  -62.0275    1.0000 </r>
       <r>  -62.0261    1.0000 </r>
       <r>  -62.0177    1.0000 </r>
       <r>  -62.0143    1.0000 </r>
       <r>  -61.9965    1.0000 </r>
       <r>  -61.9920    1.0000 </r>
       <r>  -61.9875    1.0000 </r>
       <r>  -61.9868    1.0000 </r>
       <r>  -61.9812    1.0000 </r>
       <r>  -61.9802    1.0000 </r>
       <r>  -61.9765    1.0000 </r>
       <r>  -61.9761    1.0000 </r>
       <r>  -61.9662    1.0000 </r>
       <r>  -61.6721    1.0000 </r>
       <r>  -61.5938    1.0000 </r>
       <r>  -61.5935    1.0000 </r>
       <r>  -61.5857    1.0000 </r>
       <r>  -61.5544    1.0000 </r>
       <r>  -61.5094    1.0000 </r>
       <r>  -61.5000    1.0000 </r>
       <r>  -61.4952    1.0000 </r>
       <r>  -61.4911    1.0000 </r>
       <r>  -61.4870    1.0000 </r>
       <r>  -61.4286    1.0000 </r>
       <r>  -61.4258    1.0000 </r>
       <r>  -61.4180    1.0000 </r>
       <r>  -61.4160    1.0000 </r>
       <r>  -61.3389    1.0000 </r>
       <r>  -61.2957    1.0000 </r>
       <r>  -61.2413    1.0000 </r>
       <r>  -61.0952    1.0000 </r>
       <r>  -61.0807    1.0000 </r>
       <r>  -61.0268    1.0000 </r>
       <r>  -61.0001    1.0000 </r>
       <r>  -60.9931    1.0000 </r>
       <r>  -60.9908    1.0000 </r>
       <r>  -60.9895    1.0000 </r>
       <r>  -60.9802    1.0000 </r>
       <r>  -60.9581    1.0000 </r>
       <r>  -60.9520    1.0000 </r>
       <r>  -60.9365    1.0000 </r>
       <r>  -60.9291    1.0000 </r>
       <r>  -60.9232    1.0000 </r>
       <r>  -60.8757    1.0000 </r>
       <r>  -60.8692    1.0000 </r>
       <r>  -60.7978    1.0000 </r>
       <r>  -60.7605    1.0000 </r>
       <r>  -60.7602    1.0000 </r>
       <r>  -60.7091    1.0000 </r>
       <r>  -13.6131    1.0000 </r>
       <r>  -13.0152    1.0000 </r>
       <r>  -12.9034    1.0000 </r>
       <r>  -12.8766    1.0000 </r>
       <r>  -12.8268    1.0000 </r>
       <r>  -12.6675    1.0000 </r>
       <r>  -12.6049    1.0000 </r>
       <r>  -12.5245    1.0000 </r>
       <r>  -12.4121    1.0000 </r>
       <r>  -12.3643    1.0000 </r>
       <r>  -12.3275    1.0000 </r>
       <r>  -12.2111    1.0000 </r>
       <r>  -12.1727    1.0000 </r>
       <r>  -12.0768    1.0000 </r>
       <r>  -11.9903    1.0000 </r>
       <r>  -11.9570    1.0000 </r>
       <r>  -11.9221    1.0000 </r>
       <r>  -11.8934    1.0000 </r>
       <r>  -11.8663    1.0000 </r>
       <r>  -11.8376    1.0000 </r>
       <r>  -11.7621    1.0000 </r>
       <r>  -11.7014    1.0000 </r>
       <r>  -11.6752    1.0000 </r>
       <r>  -11.6651    1.0000 </r>
       <r>  -11.6414    1.0000 </r>
       <r>  -11.6174    1.0000 </r>
       <r>  -11.5248    1.0000 </r>
       <r>  -11.4999    1.0000 </r>
       <r>  -11.4602    1.0000 </r>
       <r>  -11.4520    1.0000 </r>
       <r>  -11.3674    1.0000 </r>
       <r>  -11.3381    1.0000 </r>
       <r>  -11.3304    1.0000 </r>
       <r>  -11.3167    1.0000 </r>
       <r>  -11.2749    1.0000 </r>
       <r>  -11.0912    1.0000 </r>
       <r>  -11.0797    1.0000 </r>
       <r>  -11.0305    1.0000 </r>
       <r>  -11.0135    1.0000 </r>
       <r>  -10.9874    1.0000 </r>
       <r>  -10.9684    1.0000 </r>
       <r>  -10.7525    1.0000 </r>
       <r>  -10.6341    1.0000 </r>
       <r>  -10.5982    1.0000 </r>
       <r>  -10.5218    1.0000 </r>
       <r>  -10.3887    1.0000 </r>
       <r>  -10.1050    1.0000 </r>
       <r>   -9.9002    1.0000 </r>
       <r>   -5.4238    1.0000 </r>
       <r>   -5.3908    1.0000 </r>
       <r>   -5.3821    1.0000 </r>
       <r>   -5.3451    1.0000 </r>
       <r>   -5.3154    1.0000 </r>
       <r>   -5.2931    1.0000 </r>
       <r>   -4.9611    1.0000 </r>
       <r>   -4.8551    1.0000 </r>
       <r>   -4.8209    1.0000 </r>
       <r>   -4.6824    1.0000 </r>
       <r>   -4.6568    1.0000 </r>
       <r>   -4.6192    1.0000 </r>
       <r>   -4.5899    1.0000 </r>
       <r>   -4.5453    1.0000 </r>
       <r>   -4.5205    1.0000 </r>
       <r>   -4.4660    1.0000 </r>
       <r>   -4.4515    1.0000 </r>
       <r>   -4.4082    1.0000 </r>
       <r>   -4.3533    1.0000 </r>
       <r>   -4.3370    1.0000 </r>
       <r>   -4.3150    1.0000 </r>
       <r>   -4.2852    1.0000 </r>
       <r>   -4.2794    1.0000 </r>
       <r>   -4.2556    1.0000 </r>
       <r>   -4.2484    1.0000 </r>
       <r>   -4.2255    1.0000 </r>
       <r>   -4.1565    1.0000 </r>
       <r>   -4.0949    1.0000 </r>
       <r>   -4.0356    1.0000 </r>
       <r>   -3.9988    1.0000 </r>
       <r>   -3.9452    1.0000 </r>
       <r>   -3.9179    1.0000 </r>
       <r>   -3.8826    1.0000 </r>
       <r>   -3.8580    1.0000 </r>
       <r>   -3.8421    1.0000 </r>
       <r>   -3.8072    1.0000 </r>
       <r>   -3.7674    1.0000 </r>
       <r>   -3.7153    1.0000 </r>
       <r>   -3.6864    1.0000 </r>
       <r>   -3.5645    1.0000 </r>
       <r>   -3.5468    1.0000 </r>
       <r>   -3.5243    1.0000 </r>
       <r>   -3.5126    1.0000 </r>
       <r>   -3.4618    1.0000 </r>
       <r>   -3.4489    1.0000 </r>
       <r>   -3.3984    1.0000 </r>
       <r>   -3.3553    1.0000 </r>
       <r>   -3.3102    1.0000 </r>
       <r>   -3.2770    1.0000 </r>
       <r>   -3.2708    1.0000 </r>
       <r>   -3.2314    1.0000 </r>
       <r>   -3.1860    1.0000 </r>
       <r>   -3.1463    1.0000 </r>
       <r>   -3.0991    1.0000 </r>
       <r>   -3.0964    1.0000 </r>
       <r>   -3.0326    1.0000 </r>
       <r>   -3.0196    1.0000 </r>
       <r>   -2.9818    1.0000 </r>
       <r>   -2.9646    1.0000 </r>
       <r>   -2.9529    1.0000 </r>
       <r>   -2.9157    1.0000 </r>
       <r>   -2.8822    1.0000 </r>
       <r>   -2.8622    1.0000 </r>
       <r>   -2.8536    1.0000 </r>
       <r>   -2.8514    1.0000 </r>
       <r>   -2.8322    1.0000 </r>
       <r>   -2.7998    1.0000 </r>
       <r>   -2.7868    1.0000 </r>
       <r>   -2.7579    1.0000 </r>
       <r>   -2.7526    1.0000 </r>
       <r>   -2.7195    1.0000 </r>
       <r>   -2.6874    1.0000 </r>
       <r>   -2.6624    1.0000 </r>
       <r>   -2.6399    1.0000 </r>
       <r>   -2.6213    1.0000 </r>
       <r>   -2.5920    1.0000 </r>
       <r>   -2.5635    1.0000 </r>
       <r>   -2.5189    1.0000 </r>
       <r>   -2.5047    1.0000 </r>
       <r>   -2.4980    1.0000 </r>
       <r>   -2.4732    1.0000 </r>
       <r>   -2.4421    1.0000 </r>
       <r>   -2.4312    1.0000 </r>
       <r>   -2.4196    1.0000 </r>
       <r>   -2.4070    1.0000 </r>
       <r>   -2.3503    1.0000 </r>
       <r>   -2.3308    1.0000 </r>
       <r>   -2.3071    1.0000 </r>
       <r>   -2.2945    1.0000 </r>
       <r>   -2.2905    1.0000 </r>
       <r>   -2.2704    1.0000 </r>
       <r>   -2.2638    1.0000 </r>
       <r>   -2.2118    1.0000 </r>
       <r>   -2.2095    1.0000 </r>
       <r>   -2.1864    1.0000 </r>
       <r>   -2.1695    1.0000 </r>
       <r>   -2.1399    1.0000 </r>
       <r>   -2.1269    1.0000 </r>
       <r>   -2.0970    1.0000 </r>
       <r>   -2.0877    1.0000 </r>
       <r>   -2.0686    1.0000 </r>
       <r>   -2.0611    1.0000 </r>
       <r>   -2.0451    1.0000 </r>
       <r>   -2.0333    1.0000 </r>
       <r>   -2.0180    1.0000 </r>
       <r>   -2.0020    1.0000 </r>
       <r>   -1.9750    1.0000 </r>
       <r>   -1.9684    1.0000 </r>
       <r>   -1.9489    1.0000 </r>
       <r>   -1.9266    1.0000 </r>
       <r>   -1.8925    1.0000 </r>
       <r>   -1.8373    1.0000 </r>
       <r>   -1.8323    1.0000 </r>
       <r>   -1.7838    1.0000 </r>
       <r>   -1.7719    1.0000 </r>
       <r>   -1.7302    1.0000 </r>
       <r>   -1.7138    1.0000 </r>
       <r>   -1.6650    1.0000 </r>
       <r>   -1.6341    1.0000 </r>
       <r>   -1.6174    1.0000 </r>
       <r>   -1.5822    1.0000 </r>
       <r>   -1.5387    1.0000 </r>
       <r>   -1.5210    1.0000 </r>
       <r>   -1.4962    1.0000 </r>
       <r>   -1.4737    1.0000 </r>
       <r>   -1.4442    1.0000 </r>
       <r>   -1.4009    1.0000 </r>
       <r>   -1.3708    1.0000 </r>
       <r>   -1.3385    1.0000 </r>
       <r>   -1.2992    1.0000 </r>
       <r>   -1.2570    1.0000 </r>
       <r>   -1.2410    1.0000 </r>
       <r>   -1.1829    1.0000 </r>
       <r>   -1.1514    1.0000 </r>
       <r>   -1.0854    1.0000 </r>
       <r>   -1.0711    1.0000 </r>
       <r>   -1.0437    1.0000 </r>
       <r>   -1.0211    1.0000 </r>
       <r>   -1.0075    1.0000 </r>
       <r>   -0.9876    1.0000 </r>
       <r>   -0.9594    1.0000 </r>
       <r>   -0.9504    1.0000 </r>
       <r>   -0.9385    1.0000 </r>
       <r>   -0.9204    1.0000 </r>
       <r>   -0.8831    1.0000 </r>
       <r>   -0.8611    1.0000 </r>
       <r>   -0.8259    1.0000 </r>
       <r>   -0.7755    1.0000 </r>
       <r>   -0.7437    1.0000 </r>
       <r>   -0.7065    1.0000 </r>
       <r>   -0.6836    1.0000 </r>
       <r>   -0.6666    1.0000 </r>
       <r>   -0.6116    1.0000 </r>
       <r>   -0.5904    1.0000 </r>
       <r>   -0.5786    1.0000 </r>
       <r>   -0.5635    1.0000 </r>
       <r>   -0.5464    1.0000 </r>
       <r>   -0.5173    1.0000 </r>
       <r>   -0.5031    1.0000 </r>
       <r>   -0.4954    1.0000 </r>
       <r>   -0.4809    1.0000 </r>
       <r>   -0.4636    1.0000 </r>
       <r>   -0.4583    1.0000 </r>
       <r>   -0.4533    1.0000 </r>
       <r>   -0.4492    1.0000 </r>
       <r>   -0.4226    1.0000 </r>
       <r>   -0.4197    1.0000 </r>
       <r>   -0.4069    1.0000 </r>
       <r>   -0.3922    1.0000 </r>
       <r>   -0.3802    1.0000 </r>
       <r>   -0.3525    1.0000 </r>
       <r>   -0.3446    1.0000 </r>
       <r>   -0.3425    1.0000 </r>
       <r>   -0.3311    1.0000 </r>
       <r>   -0.3055    1.0000 </r>
       <r>   -0.2946    1.0000 </r>
       <r>   -0.2753    1.0000 </r>
       <r>   -0.2678    1.0000 </r>
       <r>   -0.2653    1.0000 </r>
       <r>   -0.2554    1.0000 </r>
       <r>   -0.2530    1.0000 </r>
       <r>   -0.2213    1.0000 </r>
       <r>   -0.2130    1.0000 </r>
       <r>   -0.1948    1.0000 </r>
       <r>   -0.1880    1.0000 </r>
       <r>   -0.1695    1.0000 </r>
       <r>   -0.1523    1.0000 </r>
       <r>   -0.1356    1.0000 </r>
       <r>   -0.1091    1.0000 </r>
       <r>   -0.1010    1.0000 </r>
       <r>   -0.0840    1.0000 </r>
       <r>   -0.0716    1.0000 </r>
       <r>   -0.0365    1.0000 </r>
       <r>   -0.0224    1.0000 </r>
       <r>   -0.0176    1.0000 </r>
       <r>   -0.0066    1.0000 </r>
       <r>    0.0071    1.0000 </r>
       <r>    0.0139    1.0000 </r>
       <r>    0.0194    1.0000 </r>
       <r>    0.0254    1.0000 </r>
       <r>    0.0277    1.0000 </r>
       <r>    0.0361    1.0000 </r>
       <r>    0.0482    1.0000 </r>
       <r>    0.0566    1.0000 </r>
       <r>    0.0637    1.0000 </r>
       <r>    0.0708    1.0000 </r>
       <r>    0.0767    1.0000 </r>
       <r>    0.0880    1.0000 </r>
       <r>    0.0913    1.0000 </r>
       <r>    0.0995    1.0000 </r>
       <r>    0.1017    1.0000 </r>
       <r>    0.1129    1.0000 </r>
       <r>    0.1272    1.0000 </r>
       <r>    0.1362    1.0000 </r>
[...]
       <r>   -57.8502     0.0000   288.0000 </r>
       <r>   -57.5927     0.0000   288.0000 </r>
       <r>   -57.3351     0.0000   288.0000 </r>
       <r>   -57.0776     0.0000   288.0000 </r>
       <r>   -56.8201     0.0000   288.0000 </r>
       <r>   -56.5625     0.0000   288.0000 </r>
       <r>   -56.3050     0.0000   288.0000 </r>
       <r>   -56.0474     0.0000   288.0000 </r>
       <r>   -55.7899     0.0000   288.0000 </r>
       <r>   -55.5324     0.0000   288.0000 </r>
       <r>   -55.2748     0.0000   288.0000 </r>
       <r>   -55.0173     0.0000   288.0000 </r>
       <r>   -54.7598     0.0000   288.0000 </r>
       <r>   -54.5022     0.0000   288.0000 </r>
       <r>   -54.2447     0.0000   288.0000 </r>
       <r>   -53.9872     0.0000   288.0000 </r>
       <r>   -53.7296     0.0000   288.0000 </r>
       <r>   -53.4721     0.0000   288.0000 </r>
       <r>   -53.2145     0.0000   288.0000 </r>
       <r>   -52.9570     0.0000   288.0000 </r>
       <r>   -52.6995     0.0000   288.0000 </r>
       <r>   -52.4419     0.0000   288.0000 </r>
       <r>   -52.1844     0.0000   288.0000 </r>
       <r>   -51.9269     0.0000   288.0000 </r>
       <r>   -51.6693     0.0000   288.0000 </r>
       <r>   -51.4118     0.0000   288.0000 </r>
       <r>   -51.1542     0.0000   288.0000 </r>
       <r>   -50.8967     0.0000   288.0000 </r>
       <r>   -50.6392     0.0000   288.0000 </r>
       <r>   -50.3816     0.0000   288.0000 </r>
       <r>   -50.1241     0.0000   288.0000 </r>
       <r>   -49.8666     0.0000   288.0000 </r>
       <r>   -49.6090     0.0000   288.0000 </r>
       <r>   -49.3515     0.0000   288.0000 </r>
       <r>   -49.0939     0.0000   288.0000 </r>
       <r>   -48.8364     0.0000   288.0000 </r>
       <r>   -48.5789     0.0000   288.0000 </r>
       <r>   -48.3213     0.0000   288.0000 </r>
       <r>   -48.0638     0.0000   288.0000 </r>
       <r>   -47.8063     0.0000   288.0000 </r>
       <r>   -47.5487     0.0000   288.0000 </r>
       <r>   -47.2912     0.0000   288.0000 </r>
       <r>   -47.0336     0.0000   288.0000 </r>
       <r>   -46.7761     0.0000   288.0000 </r>
       <r>   -46.5186     0.0000   288.0000 </r>
       <r>   -46.2610     0.0000   288.0000 </r>
       <r>   -46.0035     0.0000   288.0000 </r>
       <r>   -45.7460     0.0000   288.0000 </r>
       <r>   -45.4884     0.0000   288.0000 </r>
       <r>   -45.2309     0.0000   288.0000 </r>
       <r>   -44.9734     0.0000   288.0000 </r>
       <r>   -44.7158     0.0000   288.0000 </r>
       <r>   -44.4583     0.0000   288.0000 </r>
       <r>   -44.2007     0.0000   288.0000 </r>
       <r>   -43.9432     0.0000   288.0000 </r>
       <r>   -43.6857     0.0000   288.0000 </r>
       <r>   -43.4281     0.0000   288.0000 </r>
       <r>   -43.1706     0.0000   288.0000 </r>
       <r>   -42.9131     0.0000   288.0000 </r>
       <r>   -42.6555     0.0000   288.0000 </r>
       <r>   -42.3980     0.0000   288.0000 </r>
       <r>   -42.1404     0.0000   288.0000 </r>
       <r>   -41.8829     0.0000   288.0000 </r>
       <r>   -41.6254     0.0000   288.0000 </r>
       <r>   -41.3678     0.0000   288.0000 </r>
       <r>   -41.1103     0.0000   288.0000 </r>
       <r>   -40.8528     0.0000   288.0000 </r>
       <r>   -40.5952     0.0000   288.0000 </r>
       <r>   -40.3377     0.0000   288.0000 </r>
       <r>   -40.0801     0.0000   288.0000 </r>
       <r>   -39.8226     0.0000   288.0000 </r>
       <r>   -39.5651     0.0000   288.0000 </r>
       <r>   -39.3075     0.0000   288.0000 </r>
       <r>   -39.0500     0.0000   288.0000 </r>
       <r>   -38.7925     0.0000   288.0000 </r>
       <r>   -38.5349     0.0000   288.0000 </r>
       <r>   -38.2774     0.0000   288.0000 </r>
       <r>   -38.0198     0.0000   288.0000 </r>
       <r>   -37.7623     0.0000   288.0000 </r>
       <r>   -37.5048     0.0000   288.0000 </r>
       <r>   -37.2472     0.0000   288.0000 </r>
       <r>   -36.9897     0.0000   288.0000 </r>
       <r>   -36.7322     0.0000   288.0000 </r>
       <r>   -36.4746     0.0000   288.0000 </r>
       <r>   -36.2171     0.0000   288.0000 </r>
       <r>   -35.9596     0.0000   288.0000 </r>
       <r>   -35.7020     0.0000   288.0000 </r>
       <r>   -35.4445     0.0000   288.0000 </r>
       <r>   -35.1869     0.0000   288.0000 </r>
       <r>   -34.9294     0.0000   288.0000 </r>
       <r>   -34.6719     0.0000   288.0000 </r>
       <r>   -34.4143     0.0000   288.0000 </r>
       <r>   -34.1568     0.0000   288.0000 </r>
       <r>   -33.8993     0.0000   288.0000 </r>
       <r>   -33.6417     0.0000   288.0000 </r>
       <r>   -33.3842     0.0000   288.0000 </r>
       <r>   -33.1266     0.0000   288.0000 </r>
       <r>   -32.8691     0.0000   288.0000 </r>
       <r>   -32.6116     0.0000   288.0000 </r>
       <r>   -32.3540     0.0000   288.0000 </r>
       <r>   -32.0965     0.0000   288.0000 </r>
       <r>   -31.8390     0.0000   288.0000 </r>
       <r>   -31.5814     0.0000   288.0000 </r>
       <r>   -31.3239     0.0000   288.0000 </r>
       <r>   -31.0663     0.0000   288.0000 </r>
       <r>   -30.8088     0.0000   288.0000 </r>
       <r>   -30.5513     0.0000   288.0000 </r>
       <r>   -30.2937     0.0000   288.0000 </r>
       <r>   -30.0362     0.0000   288.0000 </r>
       <r>   -29.7787     0.0000   288.0000 </r>
       <r>   -29.5211     0.0000   288.0000 </r>
       <r>   -29.2636     0.0000   288.0000 </r>
       <r>   -29.0060     0.0000   288.0000 </r>
       <r>   -28.7485     0.0000   288.0000 </r>
       <r>   -28.4910     0.0000   288.0000 </r>
       <r>   -28.2334     0.0000   288.0000 </r>
       <r>   -27.9759     0.0000   288.0000 </r>
       <r>   -27.7184     0.0000   288.0000 </r>
       <r>   -27.4608     0.0000   288.0000 </r>
       <r>   -27.2033     0.0000   288.0000 </r>
       <r>   -26.9458     0.0000   288.0000 </r>
       <r>   -26.6882     0.0000   288.0000 </r>
       <r>   -26.4307     0.0000   288.0000 </r>
       <r>   -26.1731     0.0000   288.0000 </r>
       <r>   -25.9156     0.0000   288.0000 </r>
       <r>   -25.6581     0.0000   288.0000 </r>
       <r>   -25.4005     0.0000   288.0000 </r>
       <r>   -25.1430     0.0000   288.0000 </r>
       <r>   -24.8855     0.0000   288.0000 </r>
       <r>   -24.6279     0.0000   288.0000 </r>
       <r>   -24.3704     0.0000   288.0000 </r>
       <r>   -24.1128     0.0000   288.0000 </r>
       <r>   -23.8553     0.0000   288.0000 </r>
       <r>   -23.5978     0.0000   288.0000 </r>
       <r>   -23.3402     0.0000   288.0000 </r>
       <r>   -23.0827     0.0000   288.0000 </r>
       <r>   -22.8252     0.0000   288.0000 </r>
       <r>   -22.5676     0.0000   288.0000 </r>
       <r>   -22.3101     0.0000   288.0000 </r>
       <r>   -22.0525     0.0000   288.0000 </r>
       <r>   -21.7950     0.0000   288.0000 </r>
       <r>   -21.5375     0.0000   288.0000 </r>
       <r>   -21.2799     0.0000   288.0000 </r>
       <r>   -21.0224     0.0000   288.0000 </r>
       <r>   -20.7649     0.0000   288.0000 </r>
       <r>   -20.5073     0.0000   288.0000 </r>
       <r>   -20.2498     0.0000   288.0000 </r>
       <r>   -19.9922     0.0000   288.0000 </r>
       <r>   -19.7347     0.0000   288.0000 </r>
       <r>   -19.4772     0.0000   288.0000 </r>
       <r>   -19.2196     0.0000   288.0000 </r>
       <r>   -18.9621     0.0000   288.0000 </r>
       <r>   -18.7046     0.0000   288.0000 </r>
       <r>   -18.4470     0.0000   288.0000 </r>
       <r>   -18.1895     0.0000   288.0000 </r>
       <r>   -17.9320     0.0000   288.0000 </r>
       <r>   -17.6744     0.0000   288.0000 </r>
       <r>   -17.4169     0.0000   288.0000 </r>
       <r>   -17.1593     0.0000   288.0000 </r>
       <r>   -16.9018     0.0000   288.0000 </r>
       <r>   -16.6443     0.0000   288.0000 </r>
       <r>   -16.3867     0.0000   288.0000 </r>
       <r>   -16.1292     0.0000   288.0000 </r>
       <r>   -15.8717     0.0000   288.0000 </r>
       <r>   -15.6141     0.0000   288.0000 </r>
       <r>   -15.3566     0.0000   288.0000 </r>
       <r>   -15.0990     0.0000   288.0000 </r>
       <r>   -14.8415     0.0000   288.0000 </r>
       <r>   -14.5840     0.0000   288.0000 </r>
       <r>   -14.3264     0.0000   288.0000 </r>
       <r>   -14.0689     0.0049   288.0013 </r>
       <r>   -13.8114     0.6198   288.1609 </r>
       <r>   -13.5538     4.5198   289.3249 </r>
       <r>   -13.2963     2.7422   290.0311 </r>
       <r>   -13.0387     6.1024   291.6027 </r>
       <r>   -12.7812    20.8961   296.9843 </r>
       <r>   -12.5237    23.2615   302.9750 </r>
       <r>   -12.2661    27.1027   309.9549 </r>
       <r>   -12.0086    32.0227   318.2019 </r>
       <r>   -11.7511    46.6790   330.2235 </r>
       <r>   -11.4935    52.3228   343.6986 </r>
       <r>   -11.2360    47.5199   355.9367 </r>
       <r>   -10.9784    37.6239   365.6263 </r>
       <r>   -10.7209    24.9513   372.0522 </r>
       <r>   -10.4634    20.4531   377.3196 </r>
       <r>   -10.2058    11.4828   380.2769 </r>
       <r>    -9.9483     8.4930   382.4641 </r>
       <r>    -9.6908     5.4124   383.8580 </r>
       <r>    -9.4332     0.5476   383.9990 </r>
       <r>    -9.1757     0.0037   384.0000 </r>
       <r>    -8.9182     0.0000   384.0000 </r>
       <r>    -8.6606     0.0000   384.0000 </r>
       <r>    -8.4031     0.0000   384.0000 </r>
       <r>    -8.1455     0.0000   384.0000 </r>
       <r>    -7.8880     0.0000   384.0000 </r>
       <r>    -7.6305     0.0000   384.0000 </r>
       <r>    -7.3729     0.0000   384.0000 </r>
       <r>    -7.1154     0.0000   384.0000 </r>
       <r>    -6.8579     0.0000   384.0000 </r>
       <r>    -6.6003     0.0000   384.0000 </r>
       <r>    -6.3428     0.0000   384.0000 </r>
       <r>    -6.0852     0.0000   384.0000 </r>
       <r>    -5.8277     0.0350   384.0090 </r>
       <r>    -5.5702     3.5449   384.9220 </r>
       <r>    -5.3126    25.4113   391.4663 </r>
       <r>    -5.0551    19.6705   396.5322 </r>
       <r>    -4.7976    19.0990   401.4509 </r>
       <r>    -4.5400    40.9972   412.0092 </r>
       <r>    -4.2825    61.7579   427.9142 </r>
       <r>    -4.0249    56.0141   442.3399 </r>
       <r>    -3.7674    52.1786   455.7778 </r>
       <r>    -3.5099    49.9320   468.6372 </r>
       <r>    -3.2523    56.6386   483.2237 </r>
       <r>    -2.9948    65.5081   500.0945 </r>
       <r>    -2.7373    86.2970   522.3192 </r>
       <r>    -2.4797    87.2352   544.7855 </r>
       <r>    -2.2222    96.6512   569.6768 </r>
       <r>    -1.9646   103.4154   596.3101 </r>
       <r>    -1.7071    78.7447   616.5898 </r>
       <r>    -1.4496    66.1124   633.6162 </r>
       <r>    -1.1920    60.2663   649.1370 </r>
       <r>    -0.9345    71.3118   667.5024 </r>
       <r>    -0.6770    76.5386   687.2140 </r>
       <r>    -0.4194   115.0948   716.8551 </r>
       <r>    -0.1619   149.7005   755.4086 </r>
       <r>     0.0956   189.6333   804.2462 </r>
       <r>     0.3532   238.8938   865.7702 </r>
       <r>     0.6107   190.3040   914.7806 </r>
       <r>     0.8683   148.4696   953.0170 </r>
       <r>     1.1258   132.9840   987.2653 </r>
       <r>     1.3833   120.9228  1018.4074 </r>
       <r>     1.6409   100.9722  1044.4115 </r>
       <r>     1.8984    75.8953  1063.9574 </r>
       <r>     2.1559    63.1885  1080.2308 </r>
       <r>     2.4135    68.5350  1097.8811 </r>
       <r>     2.6710    90.5164  1121.1924 </r>
       <r>     2.9286    85.0046  1143.0843 </r>
       <r>     3.1861    45.5642  1154.8188 </r>
       <r>     3.4436    17.5171  1159.3301 </r>
       <r>     3.7012     8.3914  1161.4912 </r>
       <r>     3.9587     4.6408  1162.6864 </r>
       <r>     4.2162    13.5633  1166.1794 </r>
       <r>     4.4738    13.3678  1169.6221 </r>
       <r>     4.7313    12.6973  1172.8922 </r>
       <r>     4.9889    10.7224  1175.6536 </r>
       <r>     5.2464    12.8333  1178.9586 </r>
       <r>     5.5039    16.2427  1183.1417 </r>
       <r>     5.7615    17.2096  1187.5738 </r>
       <r>     6.0190    20.8881  1192.9533 </r>
       <r>     6.2765    33.5627  1201.5969 </r>
       <r>     6.5341    32.4086  1209.9433 </r>
       <r>     6.7916    39.8015  1220.1937 </r>
       <r>     7.0492    41.0346  1230.7616 </r>
       <r>     7.3067    50.6388  1243.8030 </r>
       <r>     7.5642    56.4158  1258.3322 </r>
       <r>     7.8218    56.0357  1272.7634 </r>
       <r>     8.0793    25.9721  1279.4522 </r>
       <r>     8.3368     2.1112  1279.9959 </r>
       <r>     8.5944     0.0158  1280.0000 </r>
       <r>     8.8519     0.0000  1280.0000 </r>
       <r>     9.1094     0.0000  1280.0000 </r>
       <r>     9.3670     0.0000  1280.0000 </r>
       <r>     9.6245     0.0000  1280.0000 </r>
       <r>     9.8821     0.0000  1280.0000 </r>
       <r>    10.1396     0.0000  1280.0000 </r>
       <r>    10.3971     0.0000  1280.0000 </r>
       <r>    10.6547     0.0000  1280.0000 </r>
       <r>    10.9122     0.0000  1280.0000 </r>
       <r>    11.1697     0.0000  1280.0000 </r>
       <r>    11.4273     0.0000  1280.0000 </r>
      </set>
     </set>
    </array>
   </total>
  </dos>
 </calculation>
 <structure name="finalpos" >
  <crystal>
   <varray name="basis" >
    <v>      10.06282034       5.04456212       0.00000000 </v>
    <v>       0.00000000      11.25646304       0.00000000 </v>
    <v>       0.00000000       0.00000000      22.51995597 </v>
   </varray>
   <i name="volume">   2550.87516496 </i>
   <varray name="rec_basis" >
    <v>       0.09937572       0.00000000       0.00000000 </v>
    <v>      -0.04453504       0.08883785       0.00000000 </v>
    <v>       0.00000000       0.00000000       0.04440506 </v>
   </varray>
  </crystal>
  <varray name="positions" >
   <v>       0.26092069       0.47878037       0.29519774 </v>
   <v>       0.35488056       0.38482051       0.42557357 </v>
   <v>       0.16696082       0.07274025       0.16482191 </v>
   <v>       0.27423906       0.33335901       0.13037583 </v>
   <v>       0.36819893       0.23939914       0.26075166 </v>
   <v>       0.46215879       0.14543927       0.39112749 </v>
   <v>       0.00030194       0.37150214       0.26075166 </v>
   <v>       0.09426180       0.27754227       0.39112749 </v>
   <v>       0.18822167       0.18358240       0.52150332 </v>
   <v>       0.40634206       0.46546200       0.13037583 </v>
   <v>       0.31238219       0.05942188       0.00000000 </v>
   <v>       0.76092069       0.47878037       0.29519774 </v>
   <v>       0.85488056       0.38482051       0.42557357 </v>
   <v>       0.66696082       0.07274025       0.16482191 </v>
   <v>       0.68027919       0.42731887       0.00000000 </v>
   <v>       0.77423906       0.33335901       0.13037583 </v>
   <v>       0.86819893       0.23939914       0.26075166 </v>
   <v>       0.96215879       0.14543927       0.39112749 </v>
   <v>       0.50030194       0.37150214       0.26075166 </v>
   <v>       0.59426180       0.27754227       0.39112749 </v>
   <v>       0.68822167       0.18358240       0.52150332 </v>
   <v>       0.90634206       0.46546200       0.13037583 </v>
   <v>       0.81238219       0.05942188       0.00000000 </v>
   <v>       0.26092069       0.97878037       0.29519774 </v>
   <v>       0.35488056       0.88482051       0.42557357 </v>
   <v>       0.44884042       0.79086064       0.55594940 </v>
   <v>       0.16696082       0.57274025       0.16482191 </v>
   <v>       0.05611868       0.55147941       0.52150332 </v>
   <v>       0.18027919       0.92731887       0.00000000 </v>
   <v>       0.27423906       0.83335901       0.13037583 </v>
   <v>       0.36819893       0.73939914       0.26075166 </v>
   <v>       0.46215879       0.64543927       0.39112749 </v>
   <v>       0.00030194       0.87150214       0.26075166 </v>
   <v>       0.09426180       0.77754227       0.39112749 </v>
   <v>       0.40634206       0.96546200       0.13037583 </v>
   <v>       0.76092069       0.97878037       0.29519774 </v>
   <v>       0.85488056       0.88482051       0.42557357 </v>
   <v>       0.57300096       0.66670012       0.03444608 </v>
   <v>       0.66696082       0.57274025       0.16482191 </v>
   <v>       0.55611868       0.55147941       0.52150332 </v>
   <v>       0.68027919       0.92731887       0.00000000 </v>
   <v>       0.77423906       0.83335901       0.13037583 </v>
   <v>       0.86819893       0.73939914       0.26075166 </v>
   <v>       0.96215879       0.64543927       0.39112749 </v>
   <v>       0.50030194       0.87150214       0.26075166 </v>
   <v>       0.59426180       0.77754227       0.39112749 </v>
   <v>       0.90634206       0.96546200       0.13037583 </v>
   <v>       0.81238219       0.55942188       0.00000000 </v>
   <v>       0.07287763       0.16682345       0.31134756 </v>
   <v>       0.16683750       0.07286358       0.44172340 </v>
   <v>       0.38495788       0.35474318       0.05059591 </v>
   <v>       0.47891775       0.26078331       0.18097173 </v>
   <v>       0.03023342       0.37768265       0.48558574 </v>
   <v>       0.43627354       0.47164252       0.35520991 </v>
   <v>       0.24835381       0.15956227       0.09445824 </v>
   <v>       0.34231367       0.06560240       0.22483408 </v>
   <v>       0.08013881       0.49134726       0.09445824 </v>
   <v>       0.17409868       0.39738739       0.22483408 </v>
   <v>       0.26805854       0.30342752       0.35520991 </v>
   <v>       0.36201841       0.20946766       0.48558574 </v>
   <v>       0.57287763       0.16682345       0.31134756 </v>
   <v>       0.66683750       0.07286358       0.44172340 </v>
   <v>       0.88495788       0.35474318       0.05059591 </v>
   <v>       0.97891775       0.26078331       0.18097173 </v>
   <v>       0.53023342       0.37768265       0.48558574 </v>
   <v>       0.93627354       0.47164252       0.35520991 </v>
   <v>       0.74835381       0.15956227       0.09445824 </v>
   <v>       0.84231367       0.06560240       0.22483408 </v>
   <v>       0.58013881       0.49134726       0.09445824 </v>
   <v>       0.67409868       0.39738739       0.22483408 </v>
   <v>       0.76805854       0.30342752       0.35520991 </v>
   <v>       0.86201841       0.20946766       0.48558574 </v>
   <v>       0.07287763       0.66682345       0.31134756 </v>
   <v>       0.16683750       0.57286358       0.44172340 </v>
   <v>       0.38495788       0.85474318       0.05059591 </v>
   <v>       0.47891775       0.76078331       0.18097173 </v>
   <v>       0.03023342       0.87768265       0.48558574 </v>
   <v>       0.43627354       0.97164252       0.35520991 </v>
   <v>       0.24835381       0.65956227       0.09445824 </v>
   <v>       0.34231367       0.56560240       0.22483408 </v>
   <v>       0.08013881       0.99134726       0.09445824 </v>
   <v>       0.17409868       0.89738739       0.22483408 </v>
   <v>       0.26805854       0.80342752       0.35520991 </v>
   <v>       0.36201841       0.70946766       0.48558574 </v>
   <v>       0.57287763       0.66682345       0.31134756 </v>
   <v>       0.66683750       0.57286358       0.44172340 </v>
   <v>       0.88495788       0.85474318       0.05059591 </v>
   <v>       0.97891775       0.76078331       0.18097173 </v>
   <v>       0.53023342       0.87768265       0.48558574 </v>
   <v>       0.93627354       0.97164252       0.35520991 </v>
   <v>       0.74835381       0.65956227       0.09445824 </v>
   <v>       0.84231367       0.56560240       0.22483408 </v>
   <v>       0.58013881       0.99134726       0.09445824 </v>
   <v>       0.67409868       0.89738739       0.22483408 </v>
   <v>       0.76805854       0.80342752       0.35520991 </v>
   <v>       0.86201841       0.70946766       0.48558574 </v>
  </varray>
 </structure>
</modeling>
