"Millerite NiS"                         
           1
    11.235110    3.690579    0.000000
     0.000000   11.825737    0.000000
     0.000000    0.000000   17.000539
   Ni   S 
    36    36
Direct configuration=     1
   0.28750269  0.33040305  0.00000000
   0.42408820  0.19381754  0.14723737
   0.06067372  0.05723203  0.29447474
   0.11612079  0.13388797  0.06943538
   0.25270629  0.49730245  0.21667274
   0.38929180  0.36071694  0.36391011
   0.41960569  0.46250605  0.00000000
   0.05619121  0.32592054  0.14723737
   0.19277672  0.18933503  0.29447474
   0.78750269  0.33040305  0.00000000
   0.92408820  0.19381754  0.14723737
   0.56067372  0.05723203  0.29447474
   0.61612079  0.13388797  0.06943538
   0.75270629  0.49730245  0.21667274
   0.88929180  0.36071694  0.36391011
   0.91960569  0.46250605  0.00000000
   0.55619121  0.32592054  0.14723737
   0.69277672  0.18933503  0.29447474
   0.28750269  0.83040305  0.00000000
   0.42408820  0.69381754  0.14723737
   0.06067372  0.55723203  0.29447474
   0.11612079  0.63388797  0.06943538
   0.25270629  0.99730245  0.21667274
   0.38929180  0.86071694  0.36391011
   0.41960569  0.96250605  0.00000000
   0.05619121  0.82592054  0.14723737
   0.19277672  0.68933503  0.29447474
   0.78750269  0.83040305  0.00000000
   0.92408820  0.69381754  0.14723737
   0.56067372  0.55723203  0.29447474
   0.61612079  0.63388797  0.06943538
   0.75270629  0.99730245  0.21667274
   0.88929180  0.86071694  0.36391011
   0.91960569  0.96250605  0.00000000
   0.55619121  0.82592054  0.14723737
   0.69277672  0.68933503  0.29447474
   0.10473973  0.31348402  0.01823849
   0.24132524  0.17689851  0.16547586
   0.37791074  0.04031301  0.31271323
   0.36021265  0.38979609  0.11730862
   0.49679816  0.25321058  0.26454599
   0.13338368  0.11662508  0.41178336
   0.43652472  0.14526903  0.01823849
   0.07311024  0.00868352  0.16547586
   0.20969575  0.37209800  0.31271323
   0.60473973  0.31348402  0.01823849
   0.74132524  0.17689851  0.16547586
   0.87791074  0.04031301  0.31271323
   0.86021265  0.38979609  0.11730862
   0.99679816  0.25321058  0.26454599
   0.63338368  0.11662508  0.41178336
   0.93652472  0.14526903  0.01823849
   0.57311024  0.00868352  0.16547586
   0.70969575  0.37209800  0.31271323
   0.10473973  0.81348402  0.01823849
   0.24132524  0.67689851  0.16547586
   0.37791074  0.54031301  0.31271323
   0.36021265  0.88979609  0.11730862
   0.49679816  0.75321058  0.26454599
   0.13338368  0.61662508  0.41178336
   0.43652472  0.64526903  0.01823849
   0.07311024  0.50868352  0.16547586
   0.20969575  0.87209800  0.31271323
   0.60473973  0.81348402  0.01823849
   0.74132524  0.67689851  0.16547586
   0.87791074  0.54031301  0.31271323
   0.86021265  0.88979609  0.11730862
   0.99679816  0.75321058  0.26454599
   0.63338368  0.61662508  0.41178336
   0.93652472  0.64526903  0.01823849
   0.57311024  0.50868352  0.16547586
   0.70969575  0.87209800  0.31271323
