  74  74   0   0
  0.3540023E+02  0.1688469E-08  0.9578410E-09  0.1619762E-08  0.5000000E-15
  1.000000000000000E-004
  CAR 
 "Millerite NiS"                         
      9.10235141    -67.90688164  301     -0.24831185      1.00000000
    -67.907  0.0000E+00  0.0000E+00
    -67.650  0.0000E+00  0.0000E+00
    -67.393  0.0000E+00  0.0000E+00
    -67.137  0.0000E+00  0.0000E+00
    -66.880  0.0000E+00  0.0000E+00
    -66.623  0.0000E+00  0.0000E+00
    -66.367  0.0000E+00  0.0000E+00
    -66.110  0.0000E+00  0.0000E+00
    -65.853  0.0000E+00  0.0000E+00
    -65.597  0.0000E+00  0.0000E+00
    -65.340  0.4062E-09  0.1043E-09
    -65.083  0.2270E-04  0.5826E-05
    -64.827  0.6099E-01  0.1566E-01
    -64.570  0.9462E+01  0.2445E+01
    -64.313  0.1178E+03  0.3268E+02
    -64.056  0.2208E+03  0.8937E+02
    -63.800  0.1866E+03  0.1373E+03
    -63.543  0.1473E+03  0.1751E+03
    -63.286  0.8790E+02  0.1977E+03
    -63.030  0.4398E+02  0.2089E+03
    -62.773  0.3417E+02  0.2177E+03
    -62.516  0.1181E+02  0.2207E+03
    -62.260  0.4463E+01  0.2219E+03
    -62.003  0.4344E+00  0.2220E+03
    -61.746  0.2582E-02  0.2220E+03
    -61.489  0.6984E-06  0.2220E+03
    -61.233  0.7776E-11  0.2220E+03
    -60.976  0.0000E+00  0.2220E+03
    -60.719  0.0000E+00  0.2220E+03
    -60.463  0.0000E+00  0.2220E+03
    -60.206  0.0000E+00  0.2220E+03
    -59.949  0.0000E+00  0.2220E+03
    -59.693  0.0000E+00  0.2220E+03
    -59.436  0.0000E+00  0.2220E+03
    -59.179  0.0000E+00  0.2220E+03
    -58.922  0.0000E+00  0.2220E+03
    -58.666  0.0000E+00  0.2220E+03
    -58.409  0.0000E+00  0.2220E+03
    -58.152  0.0000E+00  0.2220E+03
    -57.896  0.0000E+00  0.2220E+03
    -57.639  0.0000E+00  0.2220E+03
    -57.382  0.0000E+00  0.2220E+03
    -57.126  0.0000E+00  0.2220E+03
    -56.869  0.0000E+00  0.2220E+03
    -56.612  0.0000E+00  0.2220E+03
    -56.355  0.0000E+00  0.2220E+03
    -56.099  0.0000E+00  0.2220E+03
    -55.842  0.0000E+00  0.2220E+03
    -55.585  0.0000E+00  0.2220E+03
    -55.329  0.0000E+00  0.2220E+03
    -55.072  0.0000E+00  0.2220E+03
    -54.815  0.0000E+00  0.2220E+03
    -54.559  0.0000E+00  0.2220E+03
    -54.302  0.0000E+00  0.2220E+03
    -54.045  0.0000E+00  0.2220E+03
    -53.789  0.0000E+00  0.2220E+03
    -53.532  0.0000E+00  0.2220E+03
    -53.275  0.0000E+00  0.2220E+03
    -53.018  0.0000E+00  0.2220E+03
    -52.762  0.0000E+00  0.2220E+03
    -52.505  0.0000E+00  0.2220E+03
    -52.248  0.0000E+00  0.2220E+03
    -51.992  0.0000E+00  0.2220E+03
    -51.735  0.0000E+00  0.2220E+03
    -51.478  0.0000E+00  0.2220E+03
    -51.222  0.0000E+00  0.2220E+03
    -50.965  0.0000E+00  0.2220E+03
    -50.708  0.0000E+00  0.2220E+03
    -50.451  0.0000E+00  0.2220E+03
    -50.195  0.0000E+00  0.2220E+03
    -49.938  0.0000E+00  0.2220E+03
    -49.681  0.0000E+00  0.2220E+03
    -49.425  0.0000E+00  0.2220E+03
    -49.168  0.0000E+00  0.2220E+03
    -48.911  0.0000E+00  0.2220E+03
    -48.655  0.0000E+00  0.2220E+03
    -48.398  0.0000E+00  0.2220E+03
    -48.141  0.0000E+00  0.2220E+03
    -47.884  0.0000E+00  0.2220E+03
    -47.628  0.0000E+00  0.2220E+03
    -47.371  0.0000E+00  0.2220E+03
    -47.114  0.0000E+00  0.2220E+03
    -46.858  0.0000E+00  0.2220E+03
    -46.601  0.0000E+00  0.2220E+03
    -46.344  0.0000E+00  0.2220E+03
    -46.088  0.0000E+00  0.2220E+03
    -45.831  0.0000E+00  0.2220E+03
    -45.574  0.0000E+00  0.2220E+03
    -45.318  0.0000E+00  0.2220E+03
    -45.061  0.0000E+00  0.2220E+03
    -44.804  0.0000E+00  0.2220E+03
    -44.547  0.0000E+00  0.2220E+03
    -44.291  0.0000E+00  0.2220E+03
    -44.034  0.0000E+00  0.2220E+03
    -43.777  0.0000E+00  0.2220E+03
    -43.521  0.0000E+00  0.2220E+03
    -43.264  0.0000E+00  0.2220E+03
    -43.007  0.0000E+00  0.2220E+03
    -42.751  0.0000E+00  0.2220E+03
    -42.494  0.0000E+00  0.2220E+03
    -42.237  0.0000E+00  0.2220E+03
    -41.980  0.0000E+00  0.2220E+03
    -41.724  0.0000E+00  0.2220E+03
    -41.467  0.0000E+00  0.2220E+03
    -41.210  0.0000E+00  0.2220E+03
    -40.954  0.0000E+00  0.2220E+03
    -40.697  0.0000E+00  0.2220E+03
    -40.440  0.0000E+00  0.2220E+03
    -40.184  0.0000E+00  0.2220E+03
    -39.927  0.0000E+00  0.2220E+03
    -39.670  0.0000E+00  0.2220E+03
    -39.413  0.0000E+00  0.2220E+03
    -39.157  0.0000E+00  0.2220E+03
    -38.900  0.0000E+00  0.2220E+03
    -38.643  0.0000E+00  0.2220E+03
    -38.387  0.0000E+00  0.2220E+03
    -38.130  0.0000E+00  0.2220E+03
    -37.873  0.0000E+00  0.2220E+03
    -37.617  0.0000E+00  0.2220E+03
    -37.360  0.0000E+00  0.2220E+03
    -37.103  0.0000E+00  0.2220E+03
    -36.846  0.0000E+00  0.2220E+03
    -36.590  0.0000E+00  0.2220E+03
    -36.333  0.0000E+00  0.2220E+03
    -36.076  0.0000E+00  0.2220E+03
    -35.820  0.0000E+00  0.2220E+03
    -35.563  0.0000E+00  0.2220E+03
    -35.306  0.0000E+00  0.2220E+03
    -35.050  0.0000E+00  0.2220E+03
    -34.793  0.0000E+00  0.2220E+03
    -34.536  0.0000E+00  0.2220E+03
    -34.280  0.0000E+00  0.2220E+03
    -34.023  0.0000E+00  0.2220E+03
    -33.766  0.0000E+00  0.2220E+03
    -33.509  0.0000E+00  0.2220E+03
    -33.253  0.0000E+00  0.2220E+03
    -32.996  0.0000E+00  0.2220E+03
    -32.739  0.0000E+00  0.2220E+03
    -32.483  0.0000E+00  0.2220E+03
    -32.226  0.0000E+00  0.2220E+03
    -31.969  0.0000E+00  0.2220E+03
    -31.713  0.0000E+00  0.2220E+03
    -31.456  0.0000E+00  0.2220E+03
    -31.199  0.0000E+00  0.2220E+03
    -30.942  0.0000E+00  0.2220E+03
    -30.686  0.0000E+00  0.2220E+03
    -30.429  0.0000E+00  0.2220E+03
    -30.172  0.0000E+00  0.2220E+03
    -29.916  0.0000E+00  0.2220E+03
    -29.659  0.0000E+00  0.2220E+03
    -29.402  0.0000E+00  0.2220E+03
    -29.146  0.0000E+00  0.2220E+03
    -28.889  0.0000E+00  0.2220E+03
    -28.632  0.0000E+00  0.2220E+03
    -28.375  0.0000E+00  0.2220E+03
    -28.119  0.0000E+00  0.2220E+03
    -27.862  0.0000E+00  0.2220E+03
    -27.605  0.0000E+00  0.2220E+03
    -27.349  0.0000E+00  0.2220E+03
    -27.092  0.0000E+00  0.2220E+03
    -26.835  0.0000E+00  0.2220E+03
    -26.579  0.0000E+00  0.2220E+03
    -26.322  0.0000E+00  0.2220E+03
    -26.065  0.0000E+00  0.2220E+03
    -25.809  0.0000E+00  0.2220E+03
    -25.552  0.0000E+00  0.2220E+03
    -25.295  0.0000E+00  0.2220E+03
    -25.038  0.0000E+00  0.2220E+03
    -24.782  0.0000E+00  0.2220E+03
    -24.525  0.0000E+00  0.2220E+03
    -24.268  0.0000E+00  0.2220E+03
    -24.012  0.0000E+00  0.2220E+03
    -23.755  0.0000E+00  0.2220E+03
    -23.498  0.0000E+00  0.2220E+03
    -23.242  0.0000E+00  0.2220E+03
    -22.985  0.0000E+00  0.2220E+03
    -22.728  0.0000E+00  0.2220E+03
    -22.471  0.0000E+00  0.2220E+03
    -22.215  0.0000E+00  0.2220E+03
    -21.958  0.0000E+00  0.2220E+03
    -21.701  0.0000E+00  0.2220E+03
    -21.445  0.0000E+00  0.2220E+03
    -21.188  0.0000E+00  0.2220E+03
    -20.931  0.0000E+00  0.2220E+03
    -20.675  0.0000E+00  0.2220E+03
    -20.418  0.0000E+00  0.2220E+03
    -20.161  0.0000E+00  0.2220E+03
    -19.904  0.0000E+00  0.2220E+03
    -19.648  0.0000E+00  0.2220E+03
    -19.391  0.0000E+00  0.2220E+03
    -19.134  0.0000E+00  0.2220E+03
    -18.878  0.0000E+00  0.2220E+03
    -18.621  0.0000E+00  0.2220E+03
    -18.364  0.0000E+00  0.2220E+03
    -18.108  0.0000E+00  0.2220E+03
    -17.851  0.0000E+00  0.2220E+03
    -17.594  0.0000E+00  0.2220E+03
    -17.337  0.0000E+00  0.2220E+03
    -17.081  0.0000E+00  0.2220E+03
    -16.824  0.0000E+00  0.2220E+03
    -16.567  0.0000E+00  0.2220E+03
    -16.311  0.2106E-12  0.2220E+03
    -16.054  0.4492E-07  0.2220E+03
    -15.797  0.3883E-03  0.2220E+03
    -15.541  0.1476E+00  0.2220E+03
    -15.284  0.3138E+01  0.2228E+03
    -15.027  0.9002E+01  0.2252E+03
    -14.771  0.1020E+02  0.2278E+03
    -14.514  0.1066E+02  0.2305E+03
    -14.257  0.1961E+02  0.2355E+03
    -14.000  0.2795E+02  0.2427E+03
    -13.744  0.3270E+02  0.2511E+03
    -13.487  0.2932E+02  0.2586E+03
    -13.230  0.1676E+02  0.2629E+03
    -12.974  0.1901E+02  0.2678E+03
    -12.717  0.2925E+02  0.2753E+03
    -12.460  0.3147E+02  0.2834E+03
    -12.204  0.2340E+02  0.2894E+03
    -11.947  0.1220E+02  0.2925E+03
    -11.690  0.1001E+02  0.2951E+03
    -11.433  0.3319E+01  0.2960E+03
    -11.177  0.1390E+00  0.2960E+03
    -10.920  0.3425E-03  0.2960E+03
    -10.663  0.3749E-07  0.2960E+03
    -10.407  0.1661E-12  0.2960E+03
    -10.150  0.0000E+00  0.2960E+03
     -9.893  0.0000E+00  0.2960E+03
     -9.637  0.0000E+00  0.2960E+03
     -9.380  0.0000E+00  0.2960E+03
     -9.123  0.0000E+00  0.2960E+03
     -8.866  0.0000E+00  0.2960E+03
     -8.610  0.0000E+00  0.2960E+03
     -8.353  0.0000E+00  0.2960E+03
     -8.096  0.5233E-13  0.2960E+03
     -7.840  0.1615E-07  0.2960E+03
     -7.583  0.2156E-03  0.2960E+03
     -7.326  0.1438E+00  0.2960E+03
     -7.070  0.6116E+01  0.2976E+03
     -6.813  0.2399E+02  0.3038E+03
     -6.556  0.2167E+02  0.3093E+03
     -6.299  0.3623E+02  0.3186E+03
     -6.043  0.4267E+02  0.3296E+03
     -5.786  0.4491E+02  0.3411E+03
     -5.529  0.5269E+02  0.3546E+03
     -5.273  0.4910E+02  0.3672E+03
     -5.016  0.3943E+02  0.3774E+03
     -4.759  0.4393E+02  0.3886E+03
     -4.503  0.5701E+02  0.4033E+03
     -4.246  0.5475E+02  0.4173E+03
     -3.989  0.5803E+02  0.4322E+03
     -3.733  0.7309E+02  0.4510E+03
     -3.476  0.6085E+02  0.4666E+03
     -3.219  0.6302E+02  0.4828E+03
     -2.962  0.6550E+02  0.4996E+03
     -2.706  0.7137E+02  0.5179E+03
     -2.449  0.8153E+02  0.5388E+03
     -2.192  0.1142E+03  0.5682E+03
     -1.936  0.1440E+03  0.6051E+03
     -1.679  0.1672E+03  0.6481E+03
     -1.422  0.1631E+03  0.6899E+03
     -1.166  0.1399E+03  0.7258E+03
     -0.909  0.1114E+03  0.7544E+03
     -0.652  0.1075E+03  0.7820E+03
     -0.395  0.8637E+02  0.8042E+03
     -0.139  0.6353E+02  0.8205E+03
      0.118  0.5951E+02  0.8358E+03
      0.375  0.5655E+02  0.8503E+03
      0.631  0.5590E+02  0.8647E+03
      0.888  0.6139E+02  0.8804E+03
      1.145  0.4912E+02  0.8930E+03
      1.401  0.1129E+02  0.8959E+03
      1.658  0.3360E+01  0.8968E+03
      1.915  0.5404E+01  0.8982E+03
      2.172  0.9025E+01  0.9005E+03
      2.428  0.5784E+01  0.9020E+03
      2.685  0.3448E+01  0.9029E+03
      2.942  0.6139E+01  0.9044E+03
      3.198  0.9919E+01  0.9070E+03
      3.455  0.1706E+02  0.9114E+03
      3.712  0.2035E+02  0.9166E+03
      3.968  0.1575E+02  0.9206E+03
      4.225  0.2667E+02  0.9275E+03
      4.482  0.3193E+02  0.9357E+03
      4.738  0.2655E+02  0.9425E+03
      4.995  0.3043E+02  0.9503E+03
      5.252  0.4018E+02  0.9606E+03
      5.509  0.3989E+02  0.9708E+03
      5.765  0.1847E+02  0.9756E+03
      6.022  0.1595E+01  0.9760E+03
      6.279  0.1354E-01  0.9760E+03
      6.535  0.6937E-05  0.9760E+03
      6.792  0.1615E-09  0.9760E+03
      7.049  0.0000E+00  0.9760E+03
      7.305  0.0000E+00  0.9760E+03
      7.562  0.0000E+00  0.9760E+03
      7.819  0.0000E+00  0.9760E+03
      8.076  0.0000E+00  0.9760E+03
      8.332  0.0000E+00  0.9760E+03
      8.589  0.0000E+00  0.9760E+03
      8.846  0.0000E+00  0.9760E+03
      9.102  0.0000E+00  0.9760E+03
