  74  74   0   0
  0.3639907E+02  0.1688469E-08  0.9578410E-09  0.1665465E-08  0.5000000E-15
  1.000000000000000E-004
  CAR 
 "Millerite NiS"                         
      9.19929890    -68.58786736  301     -0.16698586      1.00000000
    -68.588  0.0000E+00  0.0000E+00
    -68.329  0.0000E+00  0.0000E+00
    -68.069  0.0000E+00  0.0000E+00
    -67.810  0.0000E+00  0.0000E+00
    -67.551  0.0000E+00  0.0000E+00
    -67.291  0.0000E+00  0.0000E+00
    -67.032  0.0000E+00  0.0000E+00
    -66.773  0.0000E+00  0.0000E+00
    -66.514  0.0000E+00  0.0000E+00
    -66.254  0.0000E+00  0.0000E+00
    -65.995  0.1164E-09  0.3019E-10
    -65.736  0.6940E-05  0.1800E-05
    -65.476  0.1895E-01  0.4917E-02
    -65.217  0.3059E+01  0.7980E+00
    -64.958  0.4537E+02  0.1256E+02
    -64.699  0.1401E+03  0.4890E+02
    -64.439  0.2122E+03  0.1039E+03
    -64.180  0.2071E+03  0.1576E+03
    -63.921  0.1311E+03  0.1916E+03
    -63.661  0.7118E+02  0.2101E+03
    -63.402  0.3862E+02  0.2201E+03
    -63.143  0.7104E+01  0.2219E+03
    -62.883  0.1955E+00  0.2220E+03
    -62.624  0.3619E-03  0.2220E+03
    -62.365  0.3022E-07  0.2220E+03
    -62.106  0.9934E-13  0.2220E+03
    -61.846  0.0000E+00  0.2220E+03
    -61.587  0.0000E+00  0.2220E+03
    -61.328  0.0000E+00  0.2220E+03
    -61.068  0.0000E+00  0.2220E+03
    -60.809  0.0000E+00  0.2220E+03
    -60.550  0.0000E+00  0.2220E+03
    -60.291  0.0000E+00  0.2220E+03
    -60.031  0.0000E+00  0.2220E+03
    -59.772  0.0000E+00  0.2220E+03
    -59.513  0.0000E+00  0.2220E+03
    -59.253  0.0000E+00  0.2220E+03
    -58.994  0.0000E+00  0.2220E+03
    -58.735  0.0000E+00  0.2220E+03
    -58.476  0.0000E+00  0.2220E+03
    -58.216  0.0000E+00  0.2220E+03
    -57.957  0.0000E+00  0.2220E+03
    -57.698  0.0000E+00  0.2220E+03
    -57.438  0.0000E+00  0.2220E+03
    -57.179  0.0000E+00  0.2220E+03
    -56.920  0.0000E+00  0.2220E+03
    -56.661  0.0000E+00  0.2220E+03
    -56.401  0.0000E+00  0.2220E+03
    -56.142  0.0000E+00  0.2220E+03
    -55.883  0.0000E+00  0.2220E+03
    -55.623  0.0000E+00  0.2220E+03
    -55.364  0.0000E+00  0.2220E+03
    -55.105  0.0000E+00  0.2220E+03
    -54.845  0.0000E+00  0.2220E+03
    -54.586  0.0000E+00  0.2220E+03
    -54.327  0.0000E+00  0.2220E+03
    -54.068  0.0000E+00  0.2220E+03
    -53.808  0.0000E+00  0.2220E+03
    -53.549  0.0000E+00  0.2220E+03
    -53.290  0.0000E+00  0.2220E+03
    -53.030  0.0000E+00  0.2220E+03
    -52.771  0.0000E+00  0.2220E+03
    -52.512  0.0000E+00  0.2220E+03
    -52.253  0.0000E+00  0.2220E+03
    -51.993  0.0000E+00  0.2220E+03
    -51.734  0.0000E+00  0.2220E+03
    -51.475  0.0000E+00  0.2220E+03
    -51.215  0.0000E+00  0.2220E+03
    -50.956  0.0000E+00  0.2220E+03
    -50.697  0.0000E+00  0.2220E+03
    -50.438  0.0000E+00  0.2220E+03
    -50.178  0.0000E+00  0.2220E+03
    -49.919  0.0000E+00  0.2220E+03
    -49.660  0.0000E+00  0.2220E+03
    -49.400  0.0000E+00  0.2220E+03
    -49.141  0.0000E+00  0.2220E+03
    -48.882  0.0000E+00  0.2220E+03
    -48.622  0.0000E+00  0.2220E+03
    -48.363  0.0000E+00  0.2220E+03
    -48.104  0.0000E+00  0.2220E+03
    -47.845  0.0000E+00  0.2220E+03
    -47.585  0.0000E+00  0.2220E+03
    -47.326  0.0000E+00  0.2220E+03
    -47.067  0.0000E+00  0.2220E+03
    -46.807  0.0000E+00  0.2220E+03
    -46.548  0.0000E+00  0.2220E+03
    -46.289  0.0000E+00  0.2220E+03
    -46.030  0.0000E+00  0.2220E+03
    -45.770  0.0000E+00  0.2220E+03
    -45.511  0.0000E+00  0.2220E+03
    -45.252  0.0000E+00  0.2220E+03
    -44.992  0.0000E+00  0.2220E+03
    -44.733  0.0000E+00  0.2220E+03
    -44.474  0.0000E+00  0.2220E+03
    -44.215  0.0000E+00  0.2220E+03
    -43.955  0.0000E+00  0.2220E+03
    -43.696  0.0000E+00  0.2220E+03
    -43.437  0.0000E+00  0.2220E+03
    -43.177  0.0000E+00  0.2220E+03
    -42.918  0.0000E+00  0.2220E+03
    -42.659  0.0000E+00  0.2220E+03
    -42.400  0.0000E+00  0.2220E+03
    -42.140  0.0000E+00  0.2220E+03
    -41.881  0.0000E+00  0.2220E+03
    -41.622  0.0000E+00  0.2220E+03
    -41.362  0.0000E+00  0.2220E+03
    -41.103  0.0000E+00  0.2220E+03
    -40.844  0.0000E+00  0.2220E+03
    -40.584  0.0000E+00  0.2220E+03
    -40.325  0.0000E+00  0.2220E+03
    -40.066  0.0000E+00  0.2220E+03
    -39.807  0.0000E+00  0.2220E+03
    -39.547  0.0000E+00  0.2220E+03
    -39.288  0.0000E+00  0.2220E+03
    -39.029  0.0000E+00  0.2220E+03
    -38.769  0.0000E+00  0.2220E+03
    -38.510  0.0000E+00  0.2220E+03
    -38.251  0.0000E+00  0.2220E+03
    -37.992  0.0000E+00  0.2220E+03
    -37.732  0.0000E+00  0.2220E+03
    -37.473  0.0000E+00  0.2220E+03
    -37.214  0.0000E+00  0.2220E+03
    -36.954  0.0000E+00  0.2220E+03
    -36.695  0.0000E+00  0.2220E+03
    -36.436  0.0000E+00  0.2220E+03
    -36.177  0.0000E+00  0.2220E+03
    -35.917  0.0000E+00  0.2220E+03
    -35.658  0.0000E+00  0.2220E+03
    -35.399  0.0000E+00  0.2220E+03
    -35.139  0.0000E+00  0.2220E+03
    -34.880  0.0000E+00  0.2220E+03
    -34.621  0.0000E+00  0.2220E+03
    -34.362  0.0000E+00  0.2220E+03
    -34.102  0.0000E+00  0.2220E+03
    -33.843  0.0000E+00  0.2220E+03
    -33.584  0.0000E+00  0.2220E+03
    -33.324  0.0000E+00  0.2220E+03
    -33.065  0.0000E+00  0.2220E+03
    -32.806  0.0000E+00  0.2220E+03
    -32.546  0.0000E+00  0.2220E+03
    -32.287  0.0000E+00  0.2220E+03
    -32.028  0.0000E+00  0.2220E+03
    -31.769  0.0000E+00  0.2220E+03
    -31.509  0.0000E+00  0.2220E+03
    -31.250  0.0000E+00  0.2220E+03
    -30.991  0.0000E+00  0.2220E+03
    -30.731  0.0000E+00  0.2220E+03
    -30.472  0.0000E+00  0.2220E+03
    -30.213  0.0000E+00  0.2220E+03
    -29.954  0.0000E+00  0.2220E+03
    -29.694  0.0000E+00  0.2220E+03
    -29.435  0.0000E+00  0.2220E+03
    -29.176  0.0000E+00  0.2220E+03
    -28.916  0.0000E+00  0.2220E+03
    -28.657  0.0000E+00  0.2220E+03
    -28.398  0.0000E+00  0.2220E+03
    -28.139  0.0000E+00  0.2220E+03
    -27.879  0.0000E+00  0.2220E+03
    -27.620  0.0000E+00  0.2220E+03
    -27.361  0.0000E+00  0.2220E+03
    -27.101  0.0000E+00  0.2220E+03
    -26.842  0.0000E+00  0.2220E+03
    -26.583  0.0000E+00  0.2220E+03
    -26.324  0.0000E+00  0.2220E+03
    -26.064  0.0000E+00  0.2220E+03
    -25.805  0.0000E+00  0.2220E+03
    -25.546  0.0000E+00  0.2220E+03
    -25.286  0.0000E+00  0.2220E+03
    -25.027  0.0000E+00  0.2220E+03
    -24.768  0.0000E+00  0.2220E+03
    -24.508  0.0000E+00  0.2220E+03
    -24.249  0.0000E+00  0.2220E+03
    -23.990  0.0000E+00  0.2220E+03
    -23.731  0.0000E+00  0.2220E+03
    -23.471  0.0000E+00  0.2220E+03
    -23.212  0.0000E+00  0.2220E+03
    -22.953  0.0000E+00  0.2220E+03
    -22.693  0.0000E+00  0.2220E+03
    -22.434  0.0000E+00  0.2220E+03
    -22.175  0.0000E+00  0.2220E+03
    -21.916  0.0000E+00  0.2220E+03
    -21.656  0.0000E+00  0.2220E+03
    -21.397  0.0000E+00  0.2220E+03
    -21.138  0.0000E+00  0.2220E+03
    -20.878  0.0000E+00  0.2220E+03
    -20.619  0.0000E+00  0.2220E+03
    -20.360  0.0000E+00  0.2220E+03
    -20.101  0.0000E+00  0.2220E+03
    -19.841  0.0000E+00  0.2220E+03
    -19.582  0.0000E+00  0.2220E+03
    -19.323  0.0000E+00  0.2220E+03
    -19.063  0.0000E+00  0.2220E+03
    -18.804  0.0000E+00  0.2220E+03
    -18.545  0.0000E+00  0.2220E+03
    -18.285  0.0000E+00  0.2220E+03
    -18.026  0.0000E+00  0.2220E+03
    -17.767  0.2757E-11  0.2220E+03
    -17.508  0.3523E-06  0.2220E+03
    -17.248  0.1730E-02  0.2220E+03
    -16.989  0.3611E+00  0.2221E+03
    -16.730  0.4302E+01  0.2232E+03
    -16.470  0.7209E+01  0.2251E+03
    -16.211  0.6891E+01  0.2269E+03
    -15.952  0.8773E+01  0.2291E+03
    -15.693  0.1116E+02  0.2320E+03
    -15.433  0.2227E+02  0.2378E+03
    -15.174  0.1798E+02  0.2425E+03
    -14.915  0.2232E+02  0.2483E+03
    -14.655  0.2540E+02  0.2548E+03
    -14.396  0.2927E+02  0.2624E+03
    -14.137  0.3258E+02  0.2709E+03
    -13.878  0.2128E+02  0.2764E+03
    -13.618  0.1904E+02  0.2813E+03
    -13.359  0.1846E+02  0.2861E+03
    -13.100  0.1946E+02  0.2912E+03
    -12.840  0.1341E+02  0.2946E+03
    -12.581  0.5011E+01  0.2959E+03
    -12.322  0.2180E+00  0.2960E+03
    -12.063  0.5587E-03  0.2960E+03
    -11.803  0.6359E-07  0.2960E+03
    -11.544  0.2826E-12  0.2960E+03
    -11.285  0.0000E+00  0.2960E+03
    -11.025  0.0000E+00  0.2960E+03
    -10.766  0.0000E+00  0.2960E+03
    -10.507  0.0000E+00  0.2960E+03
    -10.247  0.0000E+00  0.2960E+03
     -9.988  0.0000E+00  0.2960E+03
     -9.729  0.0000E+00  0.2960E+03
     -9.470  0.5684E-10  0.2960E+03
     -9.210  0.3469E-05  0.2960E+03
     -8.951  0.8598E-02  0.2960E+03
     -8.692  0.1036E+01  0.2963E+03
     -8.432  0.9087E+01  0.2986E+03
     -8.173  0.1616E+02  0.3028E+03
     -7.914  0.2531E+02  0.3094E+03
     -7.655  0.3042E+02  0.3173E+03
     -7.395  0.3331E+02  0.3259E+03
     -7.136  0.4079E+02  0.3365E+03
     -6.877  0.3643E+02  0.3459E+03
     -6.617  0.4098E+02  0.3566E+03
     -6.358  0.4290E+02  0.3677E+03
     -6.099  0.5034E+02  0.3807E+03
     -5.840  0.5257E+02  0.3944E+03
     -5.580  0.6019E+02  0.4100E+03
     -5.321  0.6192E+02  0.4260E+03
     -5.062  0.6569E+02  0.4431E+03
     -4.802  0.5508E+02  0.4573E+03
     -4.543  0.4706E+02  0.4695E+03
     -4.284  0.4700E+02  0.4817E+03
     -4.025  0.4487E+02  0.4934E+03
     -3.765  0.5512E+02  0.5077E+03
     -3.506  0.5959E+02  0.5231E+03
     -3.247  0.6978E+02  0.5412E+03
     -2.987  0.7867E+02  0.5616E+03
     -2.728  0.9335E+02  0.5858E+03
     -2.469  0.1058E+03  0.6132E+03
     -2.209  0.1141E+03  0.6428E+03
     -1.950  0.1209E+03  0.6742E+03
     -1.691  0.1146E+03  0.7039E+03
     -1.432  0.9956E+02  0.7297E+03
     -1.172  0.8471E+02  0.7517E+03
     -0.913  0.7225E+02  0.7704E+03
     -0.654  0.5896E+02  0.7857E+03
     -0.394  0.5827E+02  0.8008E+03
     -0.135  0.5776E+02  0.8158E+03
      0.124  0.5448E+02  0.8299E+03
      0.383  0.4684E+02  0.8421E+03
      0.643  0.4166E+02  0.8529E+03
      0.902  0.3836E+02  0.8628E+03
      1.161  0.4039E+02  0.8733E+03
      1.421  0.2866E+02  0.8807E+03
      1.680  0.2116E+02  0.8862E+03
      1.939  0.7823E+01  0.8882E+03
      2.198  0.5206E+01  0.8896E+03
      2.458  0.2505E+01  0.8902E+03
      2.717  0.5664E+01  0.8917E+03
      2.976  0.1192E+02  0.8948E+03
      3.236  0.1282E+02  0.8981E+03
      3.495  0.1579E+02  0.9022E+03
      3.754  0.1859E+02  0.9070E+03
      4.013  0.1875E+02  0.9119E+03
      4.273  0.2420E+02  0.9182E+03
      4.532  0.3000E+02  0.9259E+03
      4.791  0.3864E+02  0.9360E+03
      5.051  0.4661E+02  0.9480E+03
      5.310  0.4545E+02  0.9598E+03
      5.569  0.3930E+02  0.9700E+03
      5.829  0.2097E+02  0.9754E+03
      6.088  0.2106E+01  0.9760E+03
      6.347  0.1680E-01  0.9760E+03
      6.606  0.6864E-05  0.9760E+03
      6.866  0.1189E-09  0.9760E+03
      7.125  0.0000E+00  0.9760E+03
      7.384  0.0000E+00  0.9760E+03
      7.644  0.0000E+00  0.9760E+03
      7.903  0.0000E+00  0.9760E+03
      8.162  0.0000E+00  0.9760E+03
      8.421  0.0000E+00  0.9760E+03
      8.681  0.0000E+00  0.9760E+03
      8.940  0.0000E+00  0.9760E+03
      9.199  0.0000E+00  0.9760E+03
