 vasp.5.4.4.18Apr17-6-g9f103f2a35 (build Aug 13 2019 17:33:20) gamma-only       
  
 executed on             LinuxIFC date 2020.05.11  21:09:24
 running on   12 total cores
 distrk:  each k-point on   12 cores,    1 groups
 distr:  one band on NCORES_PER_BAND=   6 cores,    2 groups


--------------------------------------------------------------------------------------------------------


 INCAR:
 POTCAR:    PAW_PBE Ni_pv 06Sep2000               
 POTCAR:    PAW_PBE S 06Sep2000                   
 POTCAR:    PAW_PBE Ni_pv 06Sep2000               
   VRHFIN =Ni:                                                                  
   LEXCH  = PE                                                                  
   EATOM  =  3501.1230 eV,  257.3253 Ry                                         
                                                                                
   TITEL  = PAW_PBE Ni_pv 06Sep2000                                             
   LULTRA =        F    use ultrasoft PP ?                                      
   IUNSCR =        1    unscreen: 0-lin 1-nonlin 2-no                           
   RPACOR =    1.500    partial core radius                                     
   POMASS =   58.690; ZVAL   =   16.000    mass and valenz                      
   RCORE  =    2.000    outmost cutoff radius                                   
   RWIGS  =    2.000; RWIGS  =    1.058    wigner-seitz radius (au A)           
   ENMAX  =  367.986; ENMIN  =  275.989 eV                                      
   RCLOC  =    1.301    cutoff for local pot                                    
   LCOR   =        T    correct aug charges                                     
   LPAW   =        T    paw PP                                                  
   EAUG   =  703.443                                                            
   DEXC   =    0.000                                                            
   RMAX   =    2.041    core radius for proj-oper                               
   RAUG   =    1.300    factor for augmentation sphere                          
   RDEP   =    2.103    radius for radial grids                                 
   RDEPT  =    1.618    core radius for aug-charge                              
                                                                                
   Atomic configuration                                                         
    8 entries                                                                   
     n  l   j            E        occ.                                          
     1  0  0.50     -8206.4253   2.0000                                         
     2  0  0.50      -976.1748   2.0000                                         
     2  1  1.50      -839.0571   6.0000                                         
     3  0  0.50      -105.9991   2.0000                                         
     3  1  1.50       -66.4603   6.0000                                         
     3  2  2.50        -4.6458   9.0000                                         
     4  0  0.50        -4.4926   1.0000                                         
     4  3  2.50        -1.3606   0.0000                                         
   Description                                                                  
     l       E           TYP  RCUT    TYP  RCUT                                 
     1    -66.4602962     23  1.700                                             
     1     -1.3605826     23  1.700                                             
     2     -4.6457867     23  2.000                                             
     2     -6.0063693     23  2.000                                             
     0     -4.4925576     23  1.900                                             
     0     16.3626226     23  1.900                                             
  local pseudopotential read in
  partial core-charges read in
  partial kinetic energy density read in
  atomic valenz-charges read in
  non local Contribution for L=           1  read in
    real space projection operators read in
  non local Contribution for L=           1  read in
    real space projection operators read in
  non local Contribution for L=           2  read in
    real space projection operators read in
  non local Contribution for L=           2  read in
    real space projection operators read in
  non local Contribution for L=           0  read in
    real space projection operators read in
  non local Contribution for L=           0  read in
    real space projection operators read in
    PAW grid and wavefunctions read in
 
   number of l-projection  operators is LMAX  =           6
   number of lm-projection operators is LMMAX =          18
 
 POTCAR:    PAW_PBE S 06Sep2000                   
   VRHFIN =S : s2p4                                                             
   LEXCH  = PE                                                                  
   EATOM  =   276.8230 eV,   20.3459 Ry                                         
                                                                                
   TITEL  = PAW_PBE S 06Sep2000                                                 
   LULTRA =        F    use ultrasoft PP ?                                      
   IUNSCR =        1    unscreen: 0-lin 1-nonlin 2-no                           
   RPACOR =    1.500    partial core radius                                     
   POMASS =   32.066; ZVAL   =    6.000    mass and valenz                      
   RCORE  =    1.900    outmost cutoff radius                                   
   RWIGS  =    2.200; RWIGS  =    1.164    wigner-seitz radius (au A)           
   ENMAX  =  258.689; ENMIN  =  194.016 eV                                      
   ICORE  =        2    local potential                                         
   LCOR   =        T    correct aug charges                                     
   LPAW   =        T    paw PP                                                  
   EAUG   =  335.092                                                            
   DEXC   =    0.000                                                            
   RMAX   =    1.942    core radius for proj-oper                               
   RAUG   =    1.300    factor for augmentation sphere                          
   RDEP   =    1.954    radius for radial grids                                 
   RDEPT  =    1.744    core radius for aug-charge                              
                                                                                
   Atomic configuration                                                         
    6 entries                                                                   
     n  l   j            E        occ.                                          
     1  0  0.50     -2405.8406   2.0000                                         
     2  0  0.50      -211.7007   2.0000                                         
     2  1  1.50      -156.4958   6.0000                                         
     3  0  0.50       -17.2562   2.0000                                         
     3  1  0.50        -7.0085   4.0000                                         
     3  2  1.50        -6.8029   0.0000                                         
   Description                                                                  
     l       E           TYP  RCUT    TYP  RCUT                                 
     0    -17.2561641     23  1.900                                             
     0    -15.8743224     23  1.900                                             
     1     -7.0085400     23  1.900                                             
     1     -2.7779785     23  1.900                                             
     2     -6.8029130     23  1.900                                             
  local pseudopotential read in
  partial core-charges read in
  partial kinetic energy density read in
  atomic valenz-charges read in
  non local Contribution for L=           0  read in
    real space projection operators read in
  non local Contribution for L=           0  read in
    real space projection operators read in
  non local Contribution for L=           1  read in
    real space projection operators read in
  non local Contribution for L=           1  read in
    real space projection operators read in
    PAW grid and wavefunctions read in
 
   number of l-projection  operators is LMAX  =           4
   number of lm-projection operators is LMMAX =           8
 
 Optimization of the real space projectors (new method)

 maximal supplied QI-value         = 18.90
 optimisation between [QCUT,QGAM] = [ 10.77, 21.73] = [ 32.49,132.25] Ry 
 Optimized for a Real-space Cutoff    1.38 Angstroem

   l    n(q)    QCUT    max X(q) W(low)/X(q) W(high)/X(q)  e(spline) 
   1      8    10.771     2.836    0.40E-04    0.29E-04    0.12E-06
   1      8    10.771     4.023    0.10E-03    0.48E-04    0.29E-06
   2      8    10.771    73.368    0.42E-03    0.97E-04    0.44E-06
   2      8    10.771    69.010    0.42E-03    0.99E-04    0.45E-06
   0      9    10.771    54.797    0.10E-03    0.56E-04    0.74E-07
   0      9    10.771    24.266    0.89E-04    0.49E-04    0.67E-07
 Optimization of the real space projectors (new method)

 maximal supplied QI-value         = 19.84
 optimisation between [QCUT,QGAM] = [ 10.71, 21.63] = [ 32.15,130.99] Ry 
 Optimized for a Real-space Cutoff    1.19 Angstroem

   l    n(q)    QCUT    max X(q) W(low)/X(q) W(high)/X(q)  e(spline) 
   0      8    10.715   187.594    0.41E-03    0.53E-04    0.66E-07
   0      8    10.715   164.243    0.41E-03    0.53E-04    0.65E-07
   1      7    10.715    67.533    0.19E-03    0.59E-03    0.68E-07
   1      7    10.715    50.729    0.19E-03    0.58E-03    0.67E-07
  PAW_PBE Ni_pv 06Sep2000               :
 energy of atom  1       EATOM=-3501.1230
 kinetic energy error for atom=    0.0925 (will be added to EATOM!!)
  PAW_PBE S 06Sep2000                   :
 energy of atom  2       EATOM= -276.8230
 kinetic energy error for atom=    0.0033 (will be added to EATOM!!)
 
 
 POSCAR: Type_036 Type_136                       
  positions in cartesian coordinates
  No initial velocities read in
 exchange correlation table for  LEXCH =        8
   RHO(1)=    0.500       N(1)  =     2000
   RHO(2)=  100.500       N(2)  =     4000
 


--------------------------------------------------------------------------------------------------------


 ion  position               nearest neighbor table
   1  0.767  0.144  0.156-  41 2.12  64 2.14  49 2.16  42 2.17  63 2.25  50 2.26   2 2.41
   2  0.831  0.153  0.289-  50 2.03  64 2.07  42 2.27   1 2.41  37 2.61
   3  0.233  0.646  0.087-  43 2.02  51 2.15  61 2.15   4 2.35  44 2.37
   4  0.297  0.645  0.216-  62 2.15  52 2.15  44 2.25  51 2.26  61 2.26   3 2.35  27 2.53  16 2.53

   5  0.391  0.150  0.127-  45 2.04  46 2.14  53 2.25  67 2.32   6 2.37  29 2.45
   6  0.470  0.145  0.248-  68 2.12  54 2.12  46 2.25  53 2.26  67 2.26   5 2.37  30 2.53  19 2.53

   7  0.952  0.645  0.152-  66 1.99  56 2.11  47 2.22  55 2.36  65 2.36  31 2.53  20 2.53
   8  0.969  0.645  0.314-  65 2.02  55 2.03  48 2.05
   9  0.125  0.145  0.184-  57 2.10  71 2.12  38 2.17  10 2.31  58 2.36  72 2.36  33 2.53  22 2.53

  10  0.101  0.146  0.325-  37 2.06  58 2.16  72 2.17   9 2.31
  11  0.570  0.651  0.161-  39 2.01  59 2.16  40 2.16  69 2.20  12 2.28
  12  0.642  0.645  0.280-  70 2.04  60 2.04  69 2.09  40 2.25  59 2.26  11 2.28  36 2.53  24 2.53

  13  0.897  0.026  0.105-  49 2.06  63 2.11  38 2.14  64 2.16  56 2.16  14 2.47
  14  0.958  0.019  0.245-  37 2.05  38 2.09  55 2.11  64 2.26  13 2.47  25 2.50
  15  0.395  0.512  0.035-  61 1.99  39 2.03  26 2.42
  16  0.425  0.513  0.191-  62 2.13  53 2.25  39 2.26  61 2.26  40 2.36  17 2.40  27 2.53   4 2.53

  17  0.470  0.456  0.327-  54 1.99  62 2.06  40 2.09  16 2.40
  18  0.600  0.934  0.089-  59 2.13  41 2.23  67 2.24  19 2.29  29 2.42
  19  0.597  0.013  0.223-  68 2.06  59 2.25  67 2.26  41 2.26  42 2.29  18 2.29   6 2.53  30 2.53

  20  0.080  0.513  0.127-  66 2.01  43 2.08  57 2.10  44 2.36  65 2.36   7 2.53  31 2.53
  21  0.113  0.501  0.290-  65 2.02  44 2.04  58 2.09
  22  0.252  0.013  0.159-  45 2.07  71 2.08  51 2.25  46 2.36  72 2.36  23 2.49   9 2.53  33 2.53

  23  0.293  0.972  0.305-  52 2.03  72 2.05  46 2.05  22 2.49
  24  0.770  0.513  0.254-  70 2.01  48 2.09  50 2.10  69 2.24  47 2.39  12 2.53  36 2.53
  25  0.949  0.277  0.223-  37 2.07  38 2.09  50 2.12  65 2.14  14 2.50
  26  0.390  0.765  0.032-  51 1.98  39 2.03  15 2.42
  27  0.425  0.777  0.191-  52 2.13  67 2.25  39 2.26  51 2.26  40 2.36  28 2.40  16 2.53   4 2.53

  28  0.470  0.835  0.327-  68 1.99  52 2.07  40 2.09  27 2.40
  29  0.530  0.154  0.085-  53 2.02  41 2.04  67 2.14  18 2.42   5 2.45
  30  0.597  0.277  0.223-  54 2.04  69 2.19  42 2.21  53 2.26  41 2.26   6 2.53  19 2.53
  31  0.080  0.777  0.127-  43 2.05  71 2.10  56 2.13  44 2.36  55 2.36   7 2.53  20 2.53
  32  0.113  0.789  0.291-  55 2.03  44 2.04  72 2.08
  33  0.252  0.277  0.159-  45 2.07  57 2.09  61 2.25  46 2.36  58 2.36  34 2.49   9 2.53  22 2.53

  34  0.293  0.319  0.305-  62 2.02  46 2.05  58 2.05  33 2.49
  35  0.765  0.869  0.118-  63 2.04  64 2.16  59 2.17  47 2.19  36 2.37
  36  0.770  0.777  0.254-  60 2.03  47 2.09  48 2.11  64 2.25  59 2.26  35 2.37  12 2.53  24 2.53

  37  0.980  0.172  0.330-  14 2.05  10 2.06  25 2.07   2 2.61
  38  0.002  0.133  0.145-  25 2.09  14 2.09  13 2.14   9 2.17
  39  0.474  0.645  0.087-  11 2.01  26 2.03  15 2.03  27 2.26  16 2.26
  40  0.509  0.645  0.278-  17 2.09  28 2.09  11 2.16  12 2.25  27 2.36  16 2.36
  41  0.647  0.145  0.119-  29 2.04   1 2.12  18 2.23  30 2.26  19 2.26  42 2.57
  42  0.698  0.153  0.269-   1 2.17  30 2.21   2 2.27  19 2.29  41 2.57
  43  0.123  0.647  0.037-   3 2.02  31 2.05  20 2.08
  44  0.164  0.645  0.214-  21 2.04  32 2.04   4 2.25  31 2.36  20 2.36   3 2.37
  45  0.286  0.145  0.064-   5 2.04  33 2.07  22 2.07
  46  0.336  0.145  0.246-  34 2.05  23 2.05   5 2.14   6 2.25  33 2.36  22 2.36
  47  0.822  0.673  0.155-  36 2.09  35 2.19   7 2.22  24 2.39  48 2.70
  48  0.848  0.643  0.318-   8 2.05  24 2.09  36 2.11  47 2.70
  49  0.850  0.211  0.062-  13 2.06  63 2.08   1 2.16  50 2.79
  50  0.826  0.328  0.218-   2 2.03  24 2.10  25 2.12   1 2.26  49 2.79
  51  0.312  0.814  0.119-  26 1.98   3 2.15  22 2.25   4 2.26  27 2.26
  52  0.353  0.790  0.299-  23 2.03  28 2.07  27 2.13   4 2.15  62 2.77
  53  0.484  0.314  0.151-  29 2.02  16 2.25   5 2.25  30 2.26   6 2.26
  54  0.533  0.280  0.329-  17 1.99  30 2.04   6 2.12  68 2.57
  55  0.001  0.814  0.246-  32 2.03   8 2.03  14 2.11   7 2.36  31 2.36  56 2.64
  56  0.964  0.836  0.088-   7 2.11  31 2.13  13 2.16  55 2.64
  57  0.141  0.324  0.110-  33 2.09   9 2.10  20 2.10  58 2.78
  58  0.174  0.314  0.278-  34 2.05  21 2.09  10 2.16   9 2.36  33 2.36  57 2.78
  59  0.657  0.814  0.183-  18 2.13  11 2.16  35 2.17  19 2.25  36 2.26  12 2.26  60 2.78
  60  0.693  0.797  0.350-  36 2.03  12 2.04  70 2.76  59 2.78
  61  0.312  0.477  0.119-  15 1.99   3 2.15  33 2.25   4 2.26  16 2.26
  62  0.353  0.501  0.299-  34 2.02  17 2.06  16 2.13   4 2.15  52 2.77
  63  0.790  0.026  0.038-  35 2.04  49 2.08  13 2.11   1 2.25
  64  0.829  0.977  0.214-   2 2.07   1 2.14  13 2.16  35 2.16  36 2.25  14 2.26
  65  0.001  0.477  0.246-   8 2.02  21 2.02  25 2.14   7 2.36  20 2.36
  66  0.978  0.508  0.064-   7 1.99  20 2.01
  67  0.484  0.977  0.151-  29 2.14  18 2.24  27 2.25  19 2.26   6 2.26   5 2.32
  68  0.532  0.012  0.330-  28 1.99  19 2.06   6 2.12  54 2.57
  69  0.651  0.481  0.195-  12 2.09  30 2.19  11 2.20  24 2.24  70 2.72
  70  0.700  0.509  0.355-  24 2.01  12 2.04  69 2.72  60 2.76
  71  0.142  0.966  0.110-  22 2.08  31 2.10   9 2.12  72 2.78
  72  0.174  0.977  0.278-  23 2.05  32 2.08  10 2.17   9 2.36  22 2.36  71 2.78
 
  LATTYP: Found a simple orthorhombic cell.
 ALAT       =     9.5784100000
 B/A-ratio  =     1.6880763216
 C/A-ratio  =     1.7627867312
  
  Lattice vectors:
  
 A1 = (   0.0000000000,   9.5784100000,   0.0000000000)
 A2 = (   0.0000000000,   0.0000000000, -16.1690871197)
 A3 = ( -16.8846940542,   0.0000000000,   0.0000000000)


Analysis of symmetry for initial positions (statically):
=====================================================================
 Subroutine PRICEL returns:
 Original cell was already a primitive cell.
 

 Routine SETGRP: Setting up the symmetry group for a 
 simple orthorhombic supercell.


 Subroutine GETGRP returns: Found  1 space group operations
 (whereof  1 operations were pure point group operations)
 out of a pool of  8 trial point group operations.


The static configuration has the point symmetry C_1 .


Analysis of symmetry for dynamics (positions and initial velocities):
=====================================================================
 Subroutine PRICEL returns:
 Original cell was already a primitive cell.
 

 Routine SETGRP: Setting up the symmetry group for a 
 simple orthorhombic supercell.


 Subroutine GETGRP returns: Found  1 space group operations
 (whereof  1 operations were pure point group operations)
 out of a pool of  8 trial point group operations.


The dynamic configuration has the point symmetry C_1 .


 Subroutine INISYM returns: Found  1 space group operations
 (whereof  1 operations are pure point group operations),
 and found     1 'primitive' translations

 
 
 KPOINTS: gamma-point-only calculation. no periodi

Automatic generation of k-mesh.
Space group operators:
 irot       det(A)        alpha          n_x          n_y          n_z        tau_x        tau_y        tau_z
    1     1.000000     0.000000     1.000000     0.000000     0.000000     0.000000     0.000000     0.000000
 
 Subroutine IBZKPT returns following result:
 ===========================================
 
 Found      1 irreducible k-points:
 
 Following reciprocal coordinates:
            Coordinates               Weight
  0.000000  0.000000  0.000000      1.000000
 
 Following cartesian coordinates:
            Coordinates               Weight
  0.000000  0.000000  0.000000      1.000000
 


--------------------------------------------------------------------------------------------------------




 Dimension of arrays:
   k-points           NKPTS =      1   k-points in BZ     NKDIM =      1   number of bands    NBANDS=    476
   number of dos      NEDOS =    301   number of ions     NIONS =     72
   non local maximal  LDIM  =      6   non local SUM 2l+1 LMDIM =     18
   total plane-waves  NPLWV = 378000
   max r-space proj   IRMAX =   1644   max aug-charges    IRDMAX=   4753
   dimension x,y,z NGX =    90 NGY =   50 NGZ =   84
   dimension x,y,z NGXF=   180 NGYF=  100 NGZF=  168
   support grid    NGXF=   180 NGYF=  100 NGZF=  168
   ions per type =              36  36
   NGX,Y,Z   is equivalent  to a cutoff of   8.86,  8.68,  8.64 a.u.
   NGXF,Y,Z  is equivalent  to a cutoff of  17.72, 17.36, 17.27 a.u.

 SYSTEM =  "Millerite NiS"                         
 POSCAR =  Type_036 Type_136                       

 Startparameter for this run:
   NWRITE =      2    write-flag & timer
   PREC   = normal    normal or accurate (medium, high low for compatibility)
   ISTART =      0    job   : 0-new  1-cont  2-samecut
   ICHARG =      2    charge: 1-file 2-atom 10-const
   ISPIN  =      1    spin polarized calculation?
   LNONCOLLINEAR =      F non collinear calculations
   LSORBIT =      F    spin-orbit coupling
   INIWAV =      1    electr: 0-lowe 1-rand  2-diag
   LASPH  =      F    aspherical Exc in radial PAW
   METAGGA=      F    non-selfconsistent MetaGGA calc.

 Electronic Relaxation 1
   ENCUT  =  450.0 eV  33.07 Ry    5.75 a.u.  29.20 16.57 27.97*2*pi/ulx,y,z
   ENINI  =  450.0     initial cutoff
   ENAUG  =  703.4 eV  augmentation charge cutoff
   NELM   =    100;   NELMIN=  2; NELMDL= -5     # of ELM steps 
   EDIFF  = 0.1E-03   stopping-criterion for ELM
   LREAL  =      T    real-space projection
   NLSPLINE    = F    spline interpolate recip. space projectors
   LCOMPAT=      F    compatible to vasp.4.4
   GGA_COMPAT  = T    GGA compatible to vasp.4.4-vasp.4.6
   LMAXPAW     = -100 max onsite density
   LMAXMIX     =    2 max onsite mixed and CHGCAR
   VOSKOWN=      0    Vosko Wilk Nusair interpolation
   ROPT   =   -0.00050  -0.00050
 Ionic relaxation
   EDIFFG = 0.1E-02   stopping-criterion for IOM
   NSW    =      0    number of steps for IOM
   NBLOCK =      1;   KBLOCK =      1    inner block; outer block 
   IBRION =     -1    ionic relax: 0-MD 1-quasi-New 2-CG
   NFREE  =      0    steps in history (QN), initial steepest desc. (CG)
   ISIF   =      2    stress and relaxation
   IWAVPR =     10    prediction:  0-non 1-charg 2-wave 3-comb
   ISYM   =      2    0-nonsym 1-usesym 2-fastsym
   LCORR  =      T    Harris-Foulkes like correction to forces

   POTIM  = 0.5000    time-step for ionic-motion
   TEIN   =    0.0    initial temperature
   TEBEG  =    0.0;   TEEND  =   0.0 temperature during run
   SMASS  =  -3.00    Nose mass-parameter (am)
   estimated Nose-frequenzy (Omega)   =  0.10E-29 period in steps =****** mass=  -0.652E-26a.u.
   SCALEE = 1.0000    scale energy and forces
   NPACO  =    256;   APACO  = 16.0  distance and # of slots for P.C.
   PSTRESS=    0.0 pullay stress

  Mass of Ions in am
   POMASS =  58.69 32.07
  Ionic Valenz
   ZVAL   =  16.00  6.00
  Atomic Wigner-Seitz radii
   RWIGS  =  -1.00 -1.00
  virtual crystal weights 
   VCA    =   1.00  1.00
   NELECT =     792.0000    total number of electrons
   NUPDOWN=      -1.0000    fix difference up-down

 DOS related values:
   EMIN   =  10.00;   EMAX   =-10.00  energy-range for DOS
   EFERMI =   0.00
   ISMEAR =     0;   SIGMA  =   0.20  broadening in eV -4-tet -1-fermi 0-gaus

 Electronic relaxation 2 (details)
   IALGO  =     38    algorithm
   LDIAG  =      T    sub-space diagonalisation (order eigenvalues)
   LSUBROT=      F    optimize rotation matrix (better conditioning)
   TURBO    =      0    0=normal 1=particle mesh
   IRESTART =      0    0=no restart 2=restart with 2 vectors
   NREBOOT  =      0    no. of reboots
   NMIN     =      0    reboot dimension
   EREF     =   0.00    reference energy to select bands
   IMIX   =      4    mixing-type and parameters
     AMIX     =   0.40;   BMIX     =  1.00
     AMIX_MAG =   1.60;   BMIX_MAG =  1.00
     AMIN     =   0.10
     WC   =   100.;   INIMIX=   1;  MIXPRE=   1;  MAXMIX= -45

 Intra band minimization:
   WEIMIN = 0.0000     energy-eigenvalue tresh-hold
   EBREAK =  0.53E-07  absolut break condition
   DEPER  =   0.30     relativ break condition  

   TIME   =   0.40     timestep for ELM

  volume/ion in A,a.u.               =      36.32       245.10
  Fermi-wavevector in a.u.,A,eV,Ry     =   1.099409  2.077581 16.445356  1.208700
  Thomas-Fermi vector in A             =   2.235803
 
 Write flags
   LWAVE        =      F    write WAVECAR
   LDOWNSAMPLE  =      F    k-point downsampling of WAVECAR
   LCHARG       =      F    write CHGCAR
   LVTOT        =      F    write LOCPOT, total local potential
   LVHAR        =      F    write LOCPOT, Hartree potential only
   LELF         =      F    write electronic localiz. function (ELF)
   LORBIT       =      0    0 simple, 1 ext, 2 COOP (PROOUT), +10 PAW based schemes


 Dipole corrections
   LMONO  =      F    monopole corrections only (constant potential shift)
   LDIPOL =      F    correct potential (dipole corrections)
   IDIPOL =      0    1-x, 2-y, 3-z, 4-all directions 
   EPSILON=  1.0000000 bulk dielectric constant

 Exchange correlation treatment:
   GGA     =    --    GGA type
   LEXCH   =     8    internal setting for exchange type
   VOSKOWN=      0    Vosko Wilk Nusair interpolation
   LHFCALC =     F    Hartree Fock is set to
   LHFONE  =     F    Hartree Fock one center treatment
   AEXX    =    0.0000 exact exchange contribution

 Linear response parameters
   LEPSILON=     F    determine dielectric tensor
   LRPA    =     F    only Hartree local field effects (RPA)
   LNABLA  =     F    use nabla operator in PAW spheres
   LVEL    =     F    velocity operator in full k-point grid
   LINTERFAST=   F  fast interpolation
   KINTER  =     0    interpolate to denser k-point grid
   CSHIFT  =0.1000    complex shift for real part using Kramers Kronig
   OMEGAMAX=  -1.0    maximum frequency
   DEG_THRESHOLD= 0.2000000E-02 threshold for treating states as degnerate
   RTIME   =   -0.100 relaxation time in fs
  (WPLASMAI=    0.000 imaginary part of plasma frequency in eV, 0.658/RTIME)
   DFIELD  = 0.0000000 0.0000000 0.0000000 field for delta impulse in time
 
 Orbital magnetization related:
   ORBITALMAG=     F  switch on orbital magnetization
   LCHIMAG   =     F  perturbation theory with respect to B field
   DQ        =  0.001000  dq finite difference perturbation B field
   LLRAUG    =     F  two centre corrections for induced B field



--------------------------------------------------------------------------------------------------------


 Static calculation
 charge density and potential will be updated during run
 non-spin polarized calculation
 Variant of blocked Davidson
 Davidson routine will perform the subspace rotation
 perform sub-space diagonalisation
    after iterative eigenvector-optimisation
 modified Broyden-mixing scheme, WC =      100.0
 initial mixing is a Kerker type mixing with AMIX =  0.4000 and BMIX =      1.0000
 Hartree-type preconditioning will be used
 using additional bands           80
 real space projection scheme for non local part
 use partial core corrections
 calculate Harris-corrections to forces 
   (improved forces if not selfconsistent)
 use gradient corrections 
 use of overlap-Matrix (Vanderbilt PP)
 Gauss-broadening in eV      SIGMA  =   0.20


--------------------------------------------------------------------------------------------------------


  energy-cutoff  :      450.00
  volume of cell :     2615.00
      direct lattice vectors                 reciprocal lattice vectors
    16.884694054  0.000000000  0.000000000     0.059225237  0.000000000  0.000000000
     0.000000000  9.578410000  0.000000000     0.000000000  0.104401461  0.000000000
     0.000000000  0.000000000 16.169087120     0.000000000  0.000000000  0.061846411

  length of vectors
    16.884694054  9.578410000 16.169087120     0.059225237  0.104401461  0.061846411


 
 k-points in units of 2pi/SCALE and weight: gamma-point-only calculation. no periodi
   0.00000000  0.00000000  0.00000000       1.000
 
 k-points in reciprocal lattice and weights: gamma-point-only calculation. no periodi
   0.00000000  0.00000000  0.00000000       1.000
 
 position of ions in fractional coordinates (direct lattice) 
   0.76711442  0.14405388  0.15552309
   0.83091012  0.15258332  0.28893992
   0.23327315  0.64566646  0.08708579
   0.29733029  0.64529695  0.21596896
   0.39088740  0.15027287  0.12668453
   0.46975828  0.14529695  0.24776362
   0.95247430  0.64529695  0.15237965
   0.96886555  0.64477015  0.31414828
   0.12490229  0.14529695  0.18417431
   0.10120552  0.14594706  0.32514806
   0.57029929  0.65109913  0.16050500
   0.64218627  0.64529695  0.27955828
   0.89713102  0.02611157  0.10540997
   0.95767980  0.01934728  0.24471553
   0.39476016  0.51232906  0.03464168
   0.42486676  0.51319395  0.19076795
   0.46992295  0.45613761  0.32718150
   0.60035240  0.93362282  0.08876168
   0.59729475  0.01319395  0.22256260
   0.08001077  0.51319395  0.12717863
   0.11271469  0.50149988  0.29043650
   0.25243876  0.01319395  0.15897329
   0.29262076  0.97197296  0.30511136
   0.76972274  0.51319395  0.25435726
   0.94857946  0.27742910  0.22347739
   0.38998277  0.76509836  0.03238812
   0.42486676  0.77739995  0.19076795
   0.47013177  0.83479541  0.32707335
   0.53014117  0.15365501  0.08508063
   0.59729475  0.27739995  0.22256260
   0.08001077  0.77739995  0.12717863
   0.11291210  0.78912686  0.29073675
   0.25243876  0.27739995  0.15897329
   0.29274325  0.31892534  0.30485156
   0.76459981  0.86903527  0.11838306
   0.76972274  0.77739995  0.25435726
   0.98014040  0.17205425  0.33000989
   0.00218157  0.13289529  0.14452410
   0.47417723  0.64529695  0.08702573
   0.50874518  0.64529695  0.27779368
   0.64660522  0.14529695  0.11882039
   0.69811828  0.15299025  0.26851927
   0.12348041  0.64726238  0.03703016
   0.16388920  0.64529695  0.21420436
   0.28620802  0.14531001  0.06436307
   0.33631719  0.14529695  0.24599902
   0.82165374  0.67267916  0.15461033
   0.84753567  0.64310287  0.31847220
   0.85040286  0.21118364  0.06214382
   0.82626223  0.32781717  0.21807279
   0.31177708  0.81351195  0.11911576
   0.35348772  0.79007242  0.29925423
   0.48420507  0.31351195  0.15091042
   0.53254470  0.27987260  0.32910641
   0.00148905  0.81351195  0.24629439
   0.96446798  0.83612588  0.08800113
   0.14080656  0.32358293  0.11002934
   0.17391704  0.31351195  0.27808905
   0.65663306  0.81351195  0.18270508
   0.69298877  0.79734169  0.35006126
   0.31177708  0.47708195  0.11911576
   0.35345432  0.50100427  0.29930009
   0.79031315  0.02576672  0.03769228
   0.82906105  0.97708195  0.21449973
   0.00148905  0.47708195  0.24629439
   0.97759552  0.50825590  0.06360116
   0.48420507  0.97708195  0.15091042
   0.53220152  0.01177902  0.32998166
   0.65105855  0.48078456  0.19544367
   0.70013131  0.50932078  0.35500973
   0.14184787  0.96555310  0.10972645
   0.17391704  0.97708195  0.27808905
 
 position of ions in cartesian coordinates  (Angst):
  12.95249225  1.37980715  2.51466646
  14.02966308  1.46150562  4.67189478
   3.93874585  6.18445808  1.40809778
   5.02033090  6.18091880  3.49202101
   6.60001409  1.43937514  2.04837325
   7.93172480  1.39171380  4.00611161
  16.08223715  6.18091880  2.46383984
  16.35899838  6.17587285  5.07949098
   2.10893700  1.39171380  2.97793043
   1.70882420  1.39794075  5.25734723
   9.62932897  6.23649444  2.59521937
  10.84311871  6.18091880  4.52020220
  15.14778272  0.25010728  1.70438300
  16.17013045  0.18531617  3.95682669
   6.66540451  4.90729776  0.56012435
   7.17374517  4.91558210  3.08454355
   7.93450518  4.36907300  5.29022622
  10.13676656  8.94262211  1.43519534
  10.08513906  0.12637710  3.59863415
   1.35095736  4.91558210  2.05636238
   1.90315298  4.80357150  4.69609309
   4.26235126  0.12637710  2.57045296
   4.94081198  9.30995552  4.93337216
  12.99653297  4.91558210  4.11272474
  16.01647392  2.65732962  3.61342536
   6.58473980  7.32842577  0.52368631
   7.17374517  7.44625549  3.08454355
   7.93803117  7.99601274  5.28847750
   8.95127150  1.47177071  1.37567611
  10.08513906  2.65705049  3.59863415
   1.35095736  7.44625549  2.05636238
   1.90648618  7.55858064  4.70094785
   4.26235126  2.65705049  2.57045296
   4.94288027  3.05479763  4.92917136
  12.91003394  8.32397614  1.91414606
  12.99653297  7.44625549  4.11272474
  16.54937087  1.64800619  5.33595873
   0.03683516  1.27292556  2.33682281
   8.00633741  6.18091880  1.40712661
   8.59000678  6.18091880  4.49167018
  10.91773131  1.39171380  1.92121721
  11.78751363  1.46540335  4.34171141
   2.08492897  6.19974446  0.59874380
   2.76721897  6.18091880  3.46348899
   4.83253483  1.39183886  1.04069202
   5.67861288  1.39171380  3.97757959
  13.87337201  6.44319683  2.49990789
  14.31038046  6.15990296  5.14940467
  14.35879205  2.02280353  1.00480887
  13.95118498  3.13996722  3.52603795
   5.26426054  7.79215104  1.92599312
   5.96853207  7.56763757  4.83866772
   8.17565445  3.00294604  2.44008371
   8.99185426  2.68073448  5.32135021
   0.02514210  7.79215104  3.98235548
  16.28474676  8.00875651  1.42289791
   2.37747572  3.09940998  1.77907395
   2.93653601  3.00294604  4.49644608
  11.08704836  7.79215104  2.95417429
  11.70090336  7.63726559  5.66017098
   5.26426054  4.56968656  1.92599312
   5.96796807  4.79882430  4.83940927
  13.34419577  0.24680419  0.60944982
  13.99844227  9.35889156  3.46826489
   0.02514210  4.56968656  3.98235548
  16.50640119  4.86828340  1.02837273
   8.17565445  9.35889156  2.44008371
   8.98605985  0.11282431  5.33550226
  10.99292442  4.60515160  3.16014573
  11.82150298  4.87848329  5.74018333
   2.39505781  9.24846348  1.77417648
   2.93653601  9.35889156  4.49644608
 


--------------------------------------------------------------------------------------------------------


 use parallel FFT for orbitals z direction half grid
 k-point  1 :   0.0000 0.0000 0.0000  plane waves:   28369

 maximum and minimum number of plane-waves per node :      4733     4722

 maximum number of plane-waves:     28369
 maximum index in each direction: 
   IXMAX=   29   IYMAX=   16   IZMAX=   27
   IXMIN=  -29   IYMIN=  -16   IZMIN=    0


 real space projection operators:
  total allocation   :      10075.84 KBytes
  max/ min on nodes  :       1687.03       1666.45


 parallel 3D FFT for wavefunctions:
    minimum data exchange during FFTs selected (reduces bandwidth)
 parallel 3D FFT for charge:
    minimum data exchange during FFTs selected (reduces bandwidth)


 total amount of memory used by VASP MPI-rank0    77182. kBytes
=======================================================================

   base      :      30000. kBytes
   nonlr-proj:       2073. kBytes
   fftplans  :       9935. kBytes
   grid      :      16773. kBytes
   one-center:         93. kBytes
   wavefun   :      18308. kBytes
 
     INWAV:  cpu time    0.0000: real time    0.0000
 Broyden mixing: mesh for mixing (old mesh)
   NGX = 59   NGY = 33   NGZ = 55
  (NGX  =180   NGY  =100   NGZ  =168)
  gives a total of 107085 points

 initial charge density was supplied:
 charge density of overlapping atoms calculated
 number of electron     792.0000000 magnetization 
 keeping initial charge density in first step


--------------------------------------------------------------------------------------------------------


 Maximum index for non-local projection operator          266
 Maximum index for augmentation-charges          428 (set IRDMAX)


--------------------------------------------------------------------------------------------------------


 First call to EWALD:  gamma=   0.129
 Maximum number of real-space cells 2x 4x 2
 Maximum number of reciprocal cells 3x 2x 3

    FEWALD:  cpu time    0.0059: real time    0.0059


--------------------------------------- Iteration      1(   1)  ---------------------------------------


    POTLOK:  cpu time    0.3849: real time    0.3849
    SETDIJ:  cpu time    0.0365: real time    0.0365
     EDDAV:  cpu time    8.4278: real time    8.4301
       DOS:  cpu time    0.0015: real time    0.0015
    --------------------------------------------
      LOOP:  cpu time    8.8508: real time    8.8531

 eigenvalue-minimisations  :  1176
 total energy-change (2. order) : 0.8889617E+04  (-0.5059599E+05)
 number of electron     792.0000000 magnetization 
 augmentation part      792.0000000 magnetization 

 Free energy of the ion-electron system (eV)
  ---------------------------------------------------
  alpha Z        PSCENC =      1422.52235994
  Ewald energy   TEWEN  =    150855.09386941
  -Hartree energ DENC   =   -271165.13788863
  -exchange      EXHF   =         0.00000000
  -V(xc)+E(xc)   XCENC  =      3681.30985779
  PAW double counting   =    112729.53333415  -117641.51188735
  entropy T*S    EENTRO =        -0.48344167
  eigenvalues    EBANDS =     -6994.31414667
  atomic energy  EATOM  =    136002.60505376
  Solvation  Ediel_sol  =         0.00000000
  ---------------------------------------------------
  free energy    TOTEN  =      8889.61711073 eV

  energy without entropy =     8890.10055241  energy(sigma->0) =     8889.85883157


--------------------------------------------------------------------------------------------------------




--------------------------------------- Iteration      1(   2)  ---------------------------------------


     EDDAV:  cpu time    7.5245: real time    7.5258
       DOS:  cpu time    0.0012: real time    0.0012
    --------------------------------------------
      LOOP:  cpu time    7.5257: real time    7.5270

 eigenvalue-minimisations  :  1028
 total energy-change (2. order) :-0.8416852E+04  (-0.8127351E+04)
 number of electron     792.0000000 magnetization 
 augmentation part      792.0000000 magnetization 

 Free energy of the ion-electron system (eV)
  ---------------------------------------------------
  alpha Z        PSCENC =      1422.52235994
  Ewald energy   TEWEN  =    150855.09386941
  -Hartree energ DENC   =   -271165.13788863
  -exchange      EXHF   =         0.00000000
  -V(xc)+E(xc)   XCENC  =      3681.30985779
  PAW double counting   =    112729.53333415  -117641.51188735
  entropy T*S    EENTRO =        -0.79496713
  eigenvalues    EBANDS =    -15410.85416107
  atomic energy  EATOM  =    136002.60505376
  Solvation  Ediel_sol  =         0.00000000
  ---------------------------------------------------
  free energy    TOTEN  =       472.76557088 eV

  energy without entropy =      473.56053801  energy(sigma->0) =      473.16305444


--------------------------------------------------------------------------------------------------------




--------------------------------------- Iteration      1(   3)  ---------------------------------------


     EDDAV:  cpu time    8.2088: real time    8.2112
       DOS:  cpu time    0.0012: real time    0.0011
    --------------------------------------------
      LOOP:  cpu time    8.2100: real time    8.2124

 eigenvalue-minimisations  :  1112
 total energy-change (2. order) :-0.8181663E+03  (-0.7874433E+03)
 number of electron     792.0000000 magnetization 
 augmentation part      792.0000000 magnetization 

 Free energy of the ion-electron system (eV)
  ---------------------------------------------------
  alpha Z        PSCENC =      1422.52235994
  Ewald energy   TEWEN  =    150855.09386941
  -Hartree energ DENC   =   -271165.13788863
  -exchange      EXHF   =         0.00000000
  -V(xc)+E(xc)   XCENC  =      3681.30985779
  PAW double counting   =    112729.53333415  -117641.51188735
  entropy T*S    EENTRO =        -1.17668504
  eigenvalues    EBANDS =    -16228.63871944
  atomic energy  EATOM  =    136002.60505376
  Solvation  Ediel_sol  =         0.00000000
  ---------------------------------------------------
  free energy    TOTEN  =      -345.40070540 eV

  energy without entropy =     -344.22402036  energy(sigma->0) =     -344.81236288


--------------------------------------------------------------------------------------------------------




--------------------------------------- Iteration      1(   4)  ---------------------------------------


     EDDAV:  cpu time    7.8423: real time    7.8438
       DOS:  cpu time    0.0011: real time    0.0011
    --------------------------------------------
      LOOP:  cpu time    7.8434: real time    7.8449

 eigenvalue-minimisations  :  1088
 total energy-change (2. order) :-0.4123515E+02  (-0.4077735E+02)
 number of electron     792.0000000 magnetization 
 augmentation part      792.0000000 magnetization 

 Free energy of the ion-electron system (eV)
  ---------------------------------------------------
  alpha Z        PSCENC =      1422.52235994
  Ewald energy   TEWEN  =    150855.09386941
  -Hartree energ DENC   =   -271165.13788863
  -exchange      EXHF   =         0.00000000
  -V(xc)+E(xc)   XCENC  =      3681.30985779
  PAW double counting   =    112729.53333415  -117641.51188735
  entropy T*S    EENTRO =        -1.18296731
  eigenvalues    EBANDS =    -16269.86758547
  atomic energy  EATOM  =    136002.60505376
  Solvation  Ediel_sol  =         0.00000000
  ---------------------------------------------------
  free energy    TOTEN  =      -386.63585371 eV

  energy without entropy =     -385.45288639  energy(sigma->0) =     -386.04437005


--------------------------------------------------------------------------------------------------------




--------------------------------------- Iteration      1(   5)  ---------------------------------------


     EDDAV:  cpu time    8.7735: real time    8.7750
       DOS:  cpu time    0.0013: real time    0.0013
    CHARGE:  cpu time    0.2645: real time    0.2645
    MIXING:  cpu time    0.0092: real time    0.0092
    --------------------------------------------
      LOOP:  cpu time    9.0486: real time    9.0501

 eigenvalue-minimisations  :  1192
 total energy-change (2. order) :-0.1609859E+01  (-0.1607649E+01)
 number of electron     791.9997998 magnetization 
 augmentation part      286.7105909 magnetization 

 Broyden mixing:
  rms(total) = 0.98647E+01    rms(broyden)= 0.98573E+01
  rms(prec ) = 0.10369E+02
  weight for this iteration     100.00

 Free energy of the ion-electron system (eV)
  ---------------------------------------------------
  alpha Z        PSCENC =      1422.52235994
  Ewald energy   TEWEN  =    150855.09386941
  -Hartree energ DENC   =   -271165.13788863
  -exchange      EXHF   =         0.00000000
  -V(xc)+E(xc)   XCENC  =      3681.30985779
  PAW double counting   =    112729.53333415  -117641.51188735
  entropy T*S    EENTRO =        -1.18149972
  eigenvalues    EBANDS =    -16271.47891247
  atomic energy  EATOM  =    136002.60505376
  Solvation  Ediel_sol  =         0.00000000
  ---------------------------------------------------
  free energy    TOTEN  =      -388.24571312 eV

  energy without entropy =     -387.06421340  energy(sigma->0) =     -387.65496326


--------------------------------------------------------------------------------------------------------




--------------------------------------- Iteration      1(   6)  ---------------------------------------


    POTLOK:  cpu time    0.3093: real time    0.3094
    SETDIJ:  cpu time    0.0172: real time    0.0172
     EDDAV:  cpu time    8.6262: real time    8.6277
       DOS:  cpu time    0.0013: real time    0.0013
    CHARGE:  cpu time    0.2589: real time    0.2589
    MIXING:  cpu time    0.0102: real time    0.0103
    --------------------------------------------
      LOOP:  cpu time    9.2232: real time    9.2249

 eigenvalue-minimisations  :  1184
 total energy-change (2. order) :-0.6503917E+02  (-0.9425825E+02)
 number of electron     791.9997548 magnetization 
 augmentation part      347.6141031 magnetization 

 Broyden mixing:
  rms(total) = 0.15727E+02    rms(broyden)= 0.15725E+02
  rms(prec ) = 0.16430E+02
  weight for this iteration     100.00

 eigenvalues of (default mixing * dielectric matrix)
  average eigenvalue GAMMA=   0.2378
  0.2378

 Free energy of the ion-electron system (eV)
  ---------------------------------------------------
  alpha Z        PSCENC =      1422.52235994
  Ewald energy   TEWEN  =    150855.09386941
  -Hartree energ DENC   =   -268594.42590344
  -exchange      EXHF   =         0.00000000
  -V(xc)+E(xc)   XCENC  =      3608.82926714
  PAW double counting   =    118052.63140341  -122737.05137695
  entropy T*S    EENTRO =        -0.79209832
  eigenvalues    EBANDS =    -19062.69746151
  atomic energy  EATOM  =    136002.60505376
  Solvation  Ediel_sol  =         0.00000000
  ---------------------------------------------------
  free energy    TOTEN  =      -453.28488657 eV

  energy without entropy =     -452.49278825  energy(sigma->0) =     -452.88883741


--------------------------------------------------------------------------------------------------------




--------------------------------------- Iteration      1(   7)  ---------------------------------------


    POTLOK:  cpu time    0.3104: real time    0.3109
    SETDIJ:  cpu time    0.0170: real time    0.0170
     EDDAV:  cpu time    7.7753: real time    7.7771
       DOS:  cpu time    0.0014: real time    0.0014
    CHARGE:  cpu time    0.2573: real time    0.2574
    MIXING:  cpu time    0.0099: real time    0.0099
    --------------------------------------------
      LOOP:  cpu time    8.3714: real time    8.3737

 eigenvalue-minimisations  :  1080
 total energy-change (2. order) : 0.9882433E+02  (-0.1850349E+02)
 number of electron     791.9997665 magnetization 
 augmentation part      329.7112826 magnetization 

 Broyden mixing:
  rms(total) = 0.65908E+01    rms(broyden)= 0.65900E+01
  rms(prec ) = 0.69336E+01
  weight for this iteration     100.00

 eigenvalues of (default mixing * dielectric matrix)
  average eigenvalue GAMMA=   0.6108
  0.7541  0.4675

 Free energy of the ion-electron system (eV)
  ---------------------------------------------------
  alpha Z        PSCENC =      1422.52235994
  Ewald energy   TEWEN  =    150855.09386941
  -Hartree energ DENC   =   -269696.97693354
  -exchange      EXHF   =         0.00000000
  -V(xc)+E(xc)   XCENC  =      3636.34526616
  PAW double counting   =    122817.71865561  -127648.67173113
  entropy T*S    EENTRO =        -0.95889084
  eigenvalues    EBANDS =    -17742.13820661
  atomic energy  EATOM  =    136002.60505376
  Solvation  Ediel_sol  =         0.00000000
  ---------------------------------------------------
  free energy    TOTEN  =      -354.46055724 eV

  energy without entropy =     -353.50166641  energy(sigma->0) =     -353.98111183


--------------------------------------------------------------------------------------------------------




--------------------------------------- Iteration      1(   8)  ---------------------------------------


    POTLOK:  cpu time    0.3126: real time    0.3126
    SETDIJ:  cpu time    0.0170: real time    0.0170
     EDDAV:  cpu time    9.3301: real time    9.3316
       DOS:  cpu time    0.0012: real time    0.0012
    CHARGE:  cpu time    0.2600: real time    0.2601
    MIXING:  cpu time    0.0104: real time    0.0104
    --------------------------------------------
      LOOP:  cpu time    9.9314: real time    9.9330

 eigenvalue-minimisations  :  1320
 total energy-change (2. order) :-0.1507738E+02  (-0.2115149E+02)
 number of electron     791.9997921 magnetization 
 augmentation part      303.7674108 magnetization 

 Broyden mixing:
  rms(total) = 0.10001E+02    rms(broyden)= 0.99986E+01
  rms(prec ) = 0.11600E+02
  weight for this iteration     100.00

 eigenvalues of (default mixing * dielectric matrix)
  average eigenvalue GAMMA=   0.5217
  0.9700  0.4056  0.1895

 Free energy of the ion-electron system (eV)
  ---------------------------------------------------
  alpha Z        PSCENC =      1422.52235994
  Ewald energy   TEWEN  =    150855.09386941
  -Hartree energ DENC   =   -270681.67222648
  -exchange      EXHF   =         0.00000000
  -V(xc)+E(xc)   XCENC  =      3660.91613882
  PAW double counting   =    132156.15526432  -137121.79839265
  entropy T*S    EENTRO =        -0.96836176
  eigenvalues    EBANDS =    -16662.39163911
  atomic energy  EATOM  =    136002.60505376
  Solvation  Ediel_sol  =         0.00000000
  ---------------------------------------------------
  free energy    TOTEN  =      -369.53793376 eV

  energy without entropy =     -368.56957200  energy(sigma->0) =     -369.05375288


--------------------------------------------------------------------------------------------------------




--------------------------------------- Iteration      1(   9)  ---------------------------------------


    POTLOK:  cpu time    0.3136: real time    0.3137
    SETDIJ:  cpu time    0.0168: real time    0.0168
     EDDAV:  cpu time    8.9132: real time    8.9153
       DOS:  cpu time    0.0012: real time    0.0012
    CHARGE:  cpu time    0.2594: real time    0.2595
    MIXING:  cpu time    0.0110: real time    0.0110
    --------------------------------------------
      LOOP:  cpu time    9.5152: real time    9.5175

 eigenvalue-minimisations  :  1232
 total energy-change (2. order) : 0.1441853E+02  (-0.1133361E+02)
 number of electron     791.9997880 magnetization 
 augmentation part      304.3352807 magnetization 

 Broyden mixing:
  rms(total) = 0.48655E+01    rms(broyden)= 0.48620E+01
  rms(prec ) = 0.54279E+01
  weight for this iteration     100.00

 eigenvalues of (default mixing * dielectric matrix)
  average eigenvalue GAMMA=   0.6585
  1.6580  0.4217  0.4217  0.1325

 Free energy of the ion-electron system (eV)
  ---------------------------------------------------
  alpha Z        PSCENC =      1422.52235994
  Ewald energy   TEWEN  =    150855.09386941
  -Hartree energ DENC   =   -270670.38107030
  -exchange      EXHF   =         0.00000000
  -V(xc)+E(xc)   XCENC  =      3660.16465006
  PAW double counting   =    134364.01094197  -139341.34564871
  entropy T*S    EENTRO =        -1.07895938
  eigenvalues    EBANDS =    -16646.71060546
  atomic energy  EATOM  =    136002.60505376
  Solvation  Ediel_sol  =         0.00000000
  ---------------------------------------------------
  free energy    TOTEN  =      -355.11940870 eV

  energy without entropy =     -354.04044932  energy(sigma->0) =     -354.57992901


--------------------------------------------------------------------------------------------------------




--------------------------------------- Iteration      1(  10)  ---------------------------------------


    POTLOK:  cpu time    0.3127: real time    0.3127
    SETDIJ:  cpu time    0.0168: real time    0.0168
     EDDAV:  cpu time    9.3457: real time    9.3475
       DOS:  cpu time    0.0012: real time    0.0012
    CHARGE:  cpu time    0.2568: real time    0.2568
    MIXING:  cpu time    0.0112: real time    0.0112
    --------------------------------------------
      LOOP:  cpu time    9.9445: real time    9.9463

 eigenvalue-minimisations  :  1328
 total energy-change (2. order) :-0.2176188E+02  (-0.7131031E+01)
 number of electron     791.9997712 magnetization 
 augmentation part      302.1476330 magnetization 

 Broyden mixing:
  rms(total) = 0.10830E+02    rms(broyden)= 0.10828E+02
  rms(prec ) = 0.13414E+02
  weight for this iteration     100.00

 eigenvalues of (default mixing * dielectric matrix)
  average eigenvalue GAMMA=   0.6413
  2.0750  0.4411  0.4411  0.1246  0.1246

 Free energy of the ion-electron system (eV)
  ---------------------------------------------------
  alpha Z        PSCENC =      1422.52235994
  Ewald energy   TEWEN  =    150855.09386941
  -Hartree energ DENC   =   -270566.00952242
  -exchange      EXHF   =         0.00000000
  -V(xc)+E(xc)   XCENC  =      3657.33312456
  PAW double counting   =    139259.43036238  -144259.43557818
  entropy T*S    EENTRO =        -1.08891477
  eigenvalues    EBANDS =    -16747.33203866
  atomic energy  EATOM  =    136002.60505376
  Solvation  Ediel_sol  =         0.00000000
  ---------------------------------------------------
  free energy    TOTEN  =      -376.88128398 eV

  energy without entropy =     -375.79236922  energy(sigma->0) =     -376.33682660


--------------------------------------------------------------------------------------------------------




--------------------------------------- Iteration      1(  11)  ---------------------------------------


    POTLOK:  cpu time    0.3138: real time    0.3141
    SETDIJ:  cpu time    0.0181: real time    0.0181
     EDDAV:  cpu time    9.0157: real time    9.0224
       DOS:  cpu time    0.0030: real time    0.0030
    CHARGE:  cpu time    0.2550: real time    0.2550
    MIXING:  cpu time    0.0115: real time    0.0115
    --------------------------------------------
      LOOP:  cpu time    9.6172: real time    9.6241

 eigenvalue-minimisations  :  1304
 total energy-change (2. order) : 0.2347549E+02  (-0.5695549E+01)
 number of electron     791.9997821 magnetization 
 augmentation part      310.1542566 magnetization 

 Broyden mixing:
  rms(total) = 0.47008E+01    rms(broyden)= 0.46971E+01
  rms(prec ) = 0.55890E+01
  weight for this iteration     100.00

 eigenvalues of (default mixing * dielectric matrix)
  average eigenvalue GAMMA=   0.5938
  2.2110  0.4419  0.4419  0.2255  0.1466  0.0960

 Free energy of the ion-electron system (eV)
  ---------------------------------------------------
  alpha Z        PSCENC =      1422.52235994
  Ewald energy   TEWEN  =    150855.09386941
  -Hartree energ DENC   =   -270440.73053173
  -exchange      EXHF   =         0.00000000
  -V(xc)+E(xc)   XCENC  =      3653.31832034
  PAW double counting   =    142394.28098338  -147401.85771749
  entropy T*S    EENTRO =        -0.92061032
  eigenvalues    EBANDS =    -16837.71752000
  atomic energy  EATOM  =    136002.60505376
  Solvation  Ediel_sol  =         0.00000000
  ---------------------------------------------------
  free energy    TOTEN  =      -353.40579272 eV

  energy without entropy =     -352.48518240  energy(sigma->0) =     -352.94548756


--------------------------------------------------------------------------------------------------------




--------------------------------------- Iteration      1(  12)  ---------------------------------------


    POTLOK:  cpu time    0.3211: real time    0.3212
    SETDIJ:  cpu time    0.0347: real time    0.0347
     EDDAV:  cpu time    9.2887: real time    9.2906
       DOS:  cpu time    0.0035: real time    0.0035
    CHARGE:  cpu time    0.2532: real time    0.2532
    MIXING:  cpu time    0.0121: real time    0.0121
    --------------------------------------------
      LOOP:  cpu time    9.9133: real time    9.9153

 eigenvalue-minimisations  :  1304
 total energy-change (2. order) : 0.5752534E+01  (-0.3017237E+01)
 number of electron     791.9997842 magnetization 
 augmentation part      311.8768482 magnetization 

 Broyden mixing:
  rms(total) = 0.33460E+01    rms(broyden)= 0.33436E+01
  rms(prec ) = 0.39684E+01
  weight for this iteration     100.00

 eigenvalues of (default mixing * dielectric matrix)
  average eigenvalue GAMMA=   0.5859
  2.2706  0.4966  0.4784  0.4784  0.1502  0.1136  0.1136

 Free energy of the ion-electron system (eV)
  ---------------------------------------------------
  alpha Z        PSCENC =      1422.52235994
  Ewald energy   TEWEN  =    150855.09386941
  -Hartree energ DENC   =   -270420.72042710
  -exchange      EXHF   =         0.00000000
  -V(xc)+E(xc)   XCENC  =      3652.44898375
  PAW double counting   =    143293.51807160  -148305.45121355
  entropy T*S    EENTRO =        -0.95623754
  eigenvalues    EBANDS =    -16846.71371910
  atomic energy  EATOM  =    136002.60505376
  Solvation  Ediel_sol  =         0.00000000
  ---------------------------------------------------
  free energy    TOTEN  =      -347.65325883 eV

  energy without entropy =     -346.69702130  energy(sigma->0) =     -347.17514006


--------------------------------------------------------------------------------------------------------




--------------------------------------- Iteration      1(  13)  ---------------------------------------


    POTLOK:  cpu time    0.3149: real time    0.3149
    SETDIJ:  cpu time    0.0168: real time    0.0168
     EDDAV:  cpu time    9.1867: real time    9.1889
       DOS:  cpu time    0.0036: real time    0.0036
    CHARGE:  cpu time    0.2575: real time    0.2575
    MIXING:  cpu time    0.0132: real time    0.0132
    --------------------------------------------
      LOOP:  cpu time    9.7927: real time    9.7949

 eigenvalue-minimisations  :  1296
 total energy-change (2. order) : 0.3774226E+01  (-0.1580237E+01)
 number of electron     791.9997815 magnetization 
 augmentation part      312.2886587 magnetization 

 Broyden mixing:
  rms(total) = 0.30225E+01    rms(broyden)= 0.30212E+01
  rms(prec ) = 0.35783E+01
  weight for this iteration     100.00

 eigenvalues of (default mixing * dielectric matrix)
  average eigenvalue GAMMA=   0.5447
  2.2084  0.6268  0.4873  0.4873  0.1580  0.1395  0.1395  0.1104

 Free energy of the ion-electron system (eV)
  ---------------------------------------------------
  alpha Z        PSCENC =      1422.52235994
  Ewald energy   TEWEN  =    150855.09386941
  -Hartree energ DENC   =   -270433.40371240
  -exchange      EXHF   =         0.00000000
  -V(xc)+E(xc)   XCENC  =      3652.45892574
  PAW double counting   =    143490.60695588  -148505.41074980
  entropy T*S    EENTRO =        -1.03373542
  eigenvalues    EBANDS =    -16827.31800007
  atomic energy  EATOM  =    136002.60505376
  Solvation  Ediel_sol  =         0.00000000
  ---------------------------------------------------
  free energy    TOTEN  =      -343.87903296 eV

  energy without entropy =     -342.84529755  energy(sigma->0) =     -343.36216525


--------------------------------------------------------------------------------------------------------




--------------------------------------- Iteration      1(  14)  ---------------------------------------


    POTLOK:  cpu time    0.3138: real time    0.3138
    SETDIJ:  cpu time    0.0169: real time    0.0169
     EDDAV:  cpu time    9.2044: real time    9.2063
       DOS:  cpu time    0.0038: real time    0.0038
    CHARGE:  cpu time    0.2578: real time    0.2578
    MIXING:  cpu time    0.0135: real time    0.0135
    --------------------------------------------
      LOOP:  cpu time    9.8101: real time    9.8121

 eigenvalue-minimisations  :  1296
 total energy-change (2. order) : 0.2488016E+01  (-0.1377700E+01)
 number of electron     791.9997821 magnetization 
 augmentation part      312.7457628 magnetization 

 Broyden mixing:
  rms(total) = 0.20485E+01    rms(broyden)= 0.20477E+01
  rms(prec ) = 0.24940E+01
  weight for this iteration     100.00

 eigenvalues of (default mixing * dielectric matrix)
  average eigenvalue GAMMA=   0.5170
  2.1752  0.5548  0.5548  0.4274  0.4274  0.1459  0.1459  0.1109  0.1109

 Free energy of the ion-electron system (eV)
  ---------------------------------------------------
  alpha Z        PSCENC =      1422.52235994
  Ewald energy   TEWEN  =    150855.09386941
  -Hartree energ DENC   =   -270444.80265044
  -exchange      EXHF   =         0.00000000
  -V(xc)+E(xc)   XCENC  =      3652.43947865
  PAW double counting   =    143101.84984216  -148114.12788911
  entropy T*S    EENTRO =        -1.05086441
  eigenvalues    EBANDS =    -16815.92021717
  atomic energy  EATOM  =    136002.60505376
  Solvation  Ediel_sol  =         0.00000000
  ---------------------------------------------------
  free energy    TOTEN  =      -341.39101722 eV

  energy without entropy =     -340.34015281  energy(sigma->0) =     -340.86558502


--------------------------------------------------------------------------------------------------------




--------------------------------------- Iteration      1(  15)  ---------------------------------------


    POTLOK:  cpu time    0.3146: real time    0.3146
    SETDIJ:  cpu time    0.0168: real time    0.0168
     EDDAV:  cpu time    9.3139: real time    9.3155
       DOS:  cpu time    0.0040: real time    0.0040
    CHARGE:  cpu time    0.2661: real time    0.2662
    MIXING:  cpu time    0.0139: real time    0.0139
    --------------------------------------------
      LOOP:  cpu time    9.9293: real time    9.9310

 eigenvalue-minimisations  :  1320
 total energy-change (2. order) : 0.1197406E+01  (-0.3153253E+00)
 number of electron     791.9997822 magnetization 
 augmentation part      312.5385529 magnetization 

 Broyden mixing:
  rms(total) = 0.15072E+01    rms(broyden)= 0.15065E+01
  rms(prec ) = 0.17524E+01
  weight for this iteration     100.00

 eigenvalues of (default mixing * dielectric matrix)
  average eigenvalue GAMMA=   0.5286
  2.1584  0.7535  0.7535  0.4521  0.4521  0.1749  0.1749  0.1159  0.1159  0.1347

 Free energy of the ion-electron system (eV)
  ---------------------------------------------------
  alpha Z        PSCENC =      1422.52235994
  Ewald energy   TEWEN  =    150855.09386941
  -Hartree energ DENC   =   -270465.09263448
  -exchange      EXHF   =         0.00000000
  -V(xc)+E(xc)   XCENC  =      3652.72901164
  PAW double counting   =    142815.97038807  -147826.93682178
  entropy T*S    EENTRO =        -1.01417648
  eigenvalues    EBANDS =    -16796.07066146
  atomic energy  EATOM  =    136002.60505376
  Solvation  Ediel_sol  =         0.00000000
  ---------------------------------------------------
  free energy    TOTEN  =      -340.19361138 eV

  energy without entropy =     -339.17943491  energy(sigma->0) =     -339.68652314


--------------------------------------------------------------------------------------------------------




--------------------------------------- Iteration      1(  16)  ---------------------------------------


    POTLOK:  cpu time    0.3165: real time    0.3167
    SETDIJ:  cpu time    0.0168: real time    0.0168
     EDDAV:  cpu time    9.0005: real time    9.0022
       DOS:  cpu time    0.0012: real time    0.0012
    CHARGE:  cpu time    0.2532: real time    0.2532
    MIXING:  cpu time    0.0150: real time    0.0150
    --------------------------------------------
      LOOP:  cpu time    9.6033: real time    9.6052

 eigenvalue-minimisations  :  1304
 total energy-change (2. order) : 0.4224048E+00  (-0.1858610E+00)
 number of electron     791.9997819 magnetization 
 augmentation part      312.4639824 magnetization 

 Broyden mixing:
  rms(total) = 0.14059E+01    rms(broyden)= 0.14053E+01
  rms(prec ) = 0.17859E+01
  weight for this iteration     100.00

 eigenvalues of (default mixing * dielectric matrix)
  average eigenvalue GAMMA=   0.5156
  2.1463  0.8516  0.8516  0.4514  0.4514  0.2625  0.1651  0.1360  0.1360  0.1097
  0.1097

 Free energy of the ion-electron system (eV)
  ---------------------------------------------------
  alpha Z        PSCENC =      1422.52235994
  Ewald energy   TEWEN  =    150855.09386941
  -Hartree energ DENC   =   -270473.47057161
  -exchange      EXHF   =         0.00000000
  -V(xc)+E(xc)   XCENC  =      3653.02778753
  PAW double counting   =    142598.37131019  -147607.50106524
  entropy T*S    EENTRO =        -1.03763187
  eigenvalues    EBANDS =    -16789.38231868
  atomic energy  EATOM  =    136002.60505376
  Solvation  Ediel_sol  =         0.00000000
  ---------------------------------------------------
  free energy    TOTEN  =      -339.77120657 eV

  energy without entropy =     -338.73357470  energy(sigma->0) =     -339.25239064


--------------------------------------------------------------------------------------------------------




--------------------------------------- Iteration      1(  17)  ---------------------------------------


    POTLOK:  cpu time    0.3139: real time    0.3139
    SETDIJ:  cpu time    0.0207: real time    0.0207
     EDDAV:  cpu time    9.1929: real time    9.1951
       DOS:  cpu time    0.0018: real time    0.0018
    CHARGE:  cpu time    0.2555: real time    0.2555
    MIXING:  cpu time    0.0151: real time    0.0151
    --------------------------------------------
      LOOP:  cpu time    9.7999: real time    9.8021

 eigenvalue-minimisations  :  1296
 total energy-change (2. order) : 0.4927819E+00  (-0.1016244E+00)
 number of electron     791.9997817 magnetization 
 augmentation part      312.2188757 magnetization 

 Broyden mixing:
  rms(total) = 0.11016E+01    rms(broyden)= 0.11013E+01
  rms(prec ) = 0.13224E+01
  weight for this iteration     100.00

 eigenvalues of (default mixing * dielectric matrix)
  average eigenvalue GAMMA=   0.5318
  2.1380  1.0130  1.0130  0.4613  0.4613  0.4280  0.2112  0.1518  0.1518  0.1125
  0.1125  0.1274

 Free energy of the ion-electron system (eV)
  ---------------------------------------------------
  alpha Z        PSCENC =      1422.52235994
  Ewald energy   TEWEN  =    150855.09386941
  -Hartree energ DENC   =   -270487.25862521
  -exchange      EXHF   =         0.00000000
  -V(xc)+E(xc)   XCENC  =      3653.17272329
  PAW double counting   =    142397.34180272  -147404.20097984
  entropy T*S    EENTRO =        -1.03894173
  eigenvalues    EBANDS =    -16777.51568702
  atomic energy  EATOM  =    136002.60505376
  Solvation  Ediel_sol  =         0.00000000
  ---------------------------------------------------
  free energy    TOTEN  =      -339.27842470 eV

  energy without entropy =     -338.23948297  energy(sigma->0) =     -338.75895383


--------------------------------------------------------------------------------------------------------




--------------------------------------- Iteration      1(  18)  ---------------------------------------


    POTLOK:  cpu time    0.3150: real time    0.3150
    SETDIJ:  cpu time    0.0168: real time    0.0168
     EDDAV:  cpu time    9.3554: real time    9.3569
       DOS:  cpu time    0.0011: real time    0.0011
    CHARGE:  cpu time    0.2549: real time    0.2549
    MIXING:  cpu time    0.0168: real time    0.0168
    --------------------------------------------
      LOOP:  cpu time    9.9600: real time    9.9615

 eigenvalue-minimisations  :  1312
 total energy-change (2. order) : 0.3546805E+00  (-0.5525113E-01)
 number of electron     791.9997815 magnetization 
 augmentation part      311.9304244 magnetization 

 Broyden mixing:
  rms(total) = 0.90374E+00    rms(broyden)= 0.90354E+00
  rms(prec ) = 0.10825E+01
  weight for this iteration     100.00

 eigenvalues of (default mixing * dielectric matrix)
  average eigenvalue GAMMA=   0.5404
  2.1487  1.1623  1.1623  0.4800  0.4800  0.4238  0.3260  0.1898  0.1457  0.1457
  0.1118  0.1118  0.1374

 Free energy of the ion-electron system (eV)
  ---------------------------------------------------
  alpha Z        PSCENC =      1422.52235994
  Ewald energy   TEWEN  =    150855.09386941
  -Hartree energ DENC   =   -270504.55553896
  -exchange      EXHF   =         0.00000000
  -V(xc)+E(xc)   XCENC  =      3653.29806754
  PAW double counting   =    142159.08439652  -147162.97800867
  entropy T*S    EENTRO =        -1.06369953
  eigenvalues    EBANDS =    -16762.93024419
  atomic energy  EATOM  =    136002.60505376
  Solvation  Ediel_sol  =         0.00000000
  ---------------------------------------------------
  free energy    TOTEN  =      -338.92374418 eV

  energy without entropy =     -337.86004465  energy(sigma->0) =     -338.39189442


--------------------------------------------------------------------------------------------------------




--------------------------------------- Iteration      1(  19)  ---------------------------------------


    POTLOK:  cpu time    0.3153: real time    0.3153
    SETDIJ:  cpu time    0.0168: real time    0.0167
     EDDAV:  cpu time    9.1813: real time    9.1828
       DOS:  cpu time    0.0011: real time    0.0011
    CHARGE:  cpu time    0.2539: real time    0.2539
    MIXING:  cpu time    0.0176: real time    0.0176
    --------------------------------------------
      LOOP:  cpu time    9.7859: real time    9.7874

 eigenvalue-minimisations  :  1296
 total energy-change (2. order) : 0.1290152E+00  (-0.4367792E-01)
 number of electron     791.9997818 magnetization 
 augmentation part      311.9301587 magnetization 

 Broyden mixing:
  rms(total) = 0.79075E+00    rms(broyden)= 0.79053E+00
  rms(prec ) = 0.93023E+00
  weight for this iteration     100.00

 eigenvalues of (default mixing * dielectric matrix)
  average eigenvalue GAMMA=   0.5700
  2.1554  1.3897  1.3897  0.5625  0.5625  0.4504  0.4504  0.2062  0.1655  0.1474
  0.1474  0.1120  0.1120  0.1290

 Free energy of the ion-electron system (eV)
  ---------------------------------------------------
  alpha Z        PSCENC =      1422.52235994
  Ewald energy   TEWEN  =    150855.09386941
  -Hartree energ DENC   =   -270512.33576541
  -exchange      EXHF   =         0.00000000
  -V(xc)+E(xc)   XCENC  =      3653.23953075
  PAW double counting   =    141995.73819399  -146996.91674365
  entropy T*S    EENTRO =        -1.06926419
  eigenvalues    EBANDS =    -16757.67196362
  atomic energy  EATOM  =    136002.60505376
  Solvation  Ediel_sol  =         0.00000000
  ---------------------------------------------------
  free energy    TOTEN  =      -338.79472902 eV

  energy without entropy =     -337.72546483  energy(sigma->0) =     -338.26009692


--------------------------------------------------------------------------------------------------------




--------------------------------------- Iteration      1(  20)  ---------------------------------------


    POTLOK:  cpu time    0.3178: real time    0.3179
    SETDIJ:  cpu time    0.0168: real time    0.0168
     EDDAV:  cpu time    8.9894: real time    8.9906
       DOS:  cpu time    0.0012: real time    0.0012
    CHARGE:  cpu time    0.3722: real time    0.3722
    MIXING:  cpu time    0.0180: real time    0.0180
    --------------------------------------------
      LOOP:  cpu time    9.7154: real time    9.7168

 eigenvalue-minimisations  :  1288
 total energy-change (2. order) : 0.2073290E+00  (-0.2349832E-01)
 number of electron     791.9997815 magnetization 
 augmentation part      312.0375987 magnetization 

 Broyden mixing:
  rms(total) = 0.58688E+00    rms(broyden)= 0.58674E+00
  rms(prec ) = 0.68557E+00
  weight for this iteration     100.00

 eigenvalues of (default mixing * dielectric matrix)
  average eigenvalue GAMMA=   0.5829
  2.1489  1.5544  1.5544  0.6444  0.6444  0.4545  0.4545  0.2683  0.2013  0.1651
  0.1491  0.1491  0.1120  0.1120  0.1315

 Free energy of the ion-electron system (eV)
  ---------------------------------------------------
  alpha Z        PSCENC =      1422.52235994
  Ewald energy   TEWEN  =    150855.09386941
  -Hartree energ DENC   =   -270523.01578425
  -exchange      EXHF   =         0.00000000
  -V(xc)+E(xc)   XCENC  =      3653.22035880
  PAW double counting   =    141737.72176677  -146735.47057855
  entropy T*S    EENTRO =        -1.08663871
  eigenvalues    EBANDS =    -16750.17780714
  atomic energy  EATOM  =    136002.60505376
  Solvation  Ediel_sol  =         0.00000000
  ---------------------------------------------------
  free energy    TOTEN  =      -338.58739999 eV

  energy without entropy =     -337.50076127  energy(sigma->0) =     -338.04408063


--------------------------------------------------------------------------------------------------------




--------------------------------------- Iteration      1(  21)  ---------------------------------------


    POTLOK:  cpu time    0.3200: real time    0.3202
    SETDIJ:  cpu time    0.0168: real time    0.0168
     EDDAV:  cpu time    9.0104: real time    9.0119
       DOS:  cpu time    0.0014: real time    0.0014
    CHARGE:  cpu time    0.2667: real time    0.2679
    MIXING:  cpu time    0.0192: real time    0.0192
    --------------------------------------------
      LOOP:  cpu time    9.6344: real time    9.6373

 eigenvalue-minimisations  :  1312
 total energy-change (2. order) : 0.9991351E-01  (-0.1972971E-01)
 number of electron     791.9997812 magnetization 
 augmentation part      312.0187850 magnetization 

 Broyden mixing:
  rms(total) = 0.48246E+00    rms(broyden)= 0.48229E+00
  rms(prec ) = 0.56172E+00
  weight for this iteration     100.00

 eigenvalues of (default mixing * dielectric matrix)
  average eigenvalue GAMMA=   0.6071
  2.1381  1.7292  1.7292  0.8014  0.8014  0.4617  0.4617  0.3946  0.2134  0.1808
  0.1120  0.1120  0.1475  0.1475  0.1302  0.1523

 Free energy of the ion-electron system (eV)
  ---------------------------------------------------
  alpha Z        PSCENC =      1422.52235994
  Ewald energy   TEWEN  =    150855.09386941
  -Hartree energ DENC   =   -270537.05614273
  -exchange      EXHF   =         0.00000000
  -V(xc)+E(xc)   XCENC  =      3653.27969537
  PAW double counting   =    141487.01680745  -146481.98034578
  entropy T*S    EENTRO =        -1.08754050
  eigenvalues    EBANDS =    -16738.88124340
  atomic energy  EATOM  =    136002.60505376
  Solvation  Ediel_sol  =         0.00000000
  ---------------------------------------------------
  free energy    TOTEN  =      -338.48748648 eV

  energy without entropy =     -337.39994598  energy(sigma->0) =     -337.94371623


--------------------------------------------------------------------------------------------------------




--------------------------------------- Iteration      1(  22)  ---------------------------------------


    POTLOK:  cpu time    0.3232: real time    0.3232
    SETDIJ:  cpu time    0.0173: real time    0.0173
     EDDAV:  cpu time    9.2095: real time    9.2141
       DOS:  cpu time    0.0012: real time    0.0012
    CHARGE:  cpu time    0.2585: real time    0.2585
    MIXING:  cpu time    0.0196: real time    0.0196
    --------------------------------------------
      LOOP:  cpu time    9.8293: real time    9.8339

 eigenvalue-minimisations  :  1296
 total energy-change (2. order) : 0.9711208E-01  (-0.1972999E-01)
 number of electron     791.9997811 magnetization 
 augmentation part      311.9831607 magnetization 

 Broyden mixing:
  rms(total) = 0.29632E+00    rms(broyden)= 0.29600E+00
  rms(prec ) = 0.34143E+00
  weight for this iteration     100.00

 eigenvalues of (default mixing * dielectric matrix)
  average eigenvalue GAMMA=   0.6079
  2.1162  1.7509  1.7509  0.9254  0.9254  0.4660  0.4660  0.4601  0.2998  0.1998
  0.1120  0.1120  0.1478  0.1478  0.1716  0.1302  0.1527

 Free energy of the ion-electron system (eV)
  ---------------------------------------------------
  alpha Z        PSCENC =      1422.52235994
  Ewald energy   TEWEN  =    150855.09386941
  -Hartree energ DENC   =   -270560.41288722
  -exchange      EXHF   =         0.00000000
  -V(xc)+E(xc)   XCENC  =      3653.34452191
  PAW double counting   =    141134.87969417  -146125.93792723
  entropy T*S    EENTRO =        -1.09989723
  eigenvalues    EBANDS =    -16719.38516191
  atomic energy  EATOM  =    136002.60505376
  Solvation  Ediel_sol  =         0.00000000
  ---------------------------------------------------
  free energy    TOTEN  =      -338.39037440 eV

  energy without entropy =     -337.29047717  energy(sigma->0) =     -337.84042579


--------------------------------------------------------------------------------------------------------




--------------------------------------- Iteration      1(  23)  ---------------------------------------


    POTLOK:  cpu time    0.3208: real time    0.3208
    SETDIJ:  cpu time    0.0169: real time    0.0170
     EDDAV:  cpu time    9.2405: real time    9.2422
       DOS:  cpu time    0.0013: real time    0.0012
    CHARGE:  cpu time    0.2598: real time    0.2599
    MIXING:  cpu time    0.0198: real time    0.0199
    --------------------------------------------
      LOOP:  cpu time    9.8591: real time    9.8609

 eigenvalue-minimisations  :  1304
 total energy-change (2. order) : 0.3062262E-02  (-0.1539021E-01)
 number of electron     791.9997808 magnetization 
 augmentation part      311.9757100 magnetization 

 Broyden mixing:
  rms(total) = 0.27932E+00    rms(broyden)= 0.27912E+00
  rms(prec ) = 0.33655E+00
  weight for this iteration     100.00

 eigenvalues of (default mixing * dielectric matrix)
  average eigenvalue GAMMA=   0.6065
  2.0252  1.5716  1.5716  1.2177  1.2177  0.6145  0.4720  0.4720  0.4110  0.2055
  0.1890  0.1120  0.1120  0.1483  0.1483  0.1597  0.1299  0.1383

 Free energy of the ion-electron system (eV)
  ---------------------------------------------------
  alpha Z        PSCENC =      1422.52235994
  Ewald energy   TEWEN  =    150855.09386941
  -Hartree energ DENC   =   -270571.93161572
  -exchange      EXHF   =         0.00000000
  -V(xc)+E(xc)   XCENC  =      3653.37438694
  PAW double counting   =    140985.27881034  -145974.91345986
  entropy T*S    EENTRO =        -1.11027963
  eigenvalues    EBANDS =    -16709.30643733
  atomic energy  EATOM  =    136002.60505376
  Solvation  Ediel_sol  =         0.00000000
  ---------------------------------------------------
  free energy    TOTEN  =      -338.38731214 eV

  energy without entropy =     -337.27703252  energy(sigma->0) =     -337.83217233


--------------------------------------------------------------------------------------------------------




--------------------------------------- Iteration      1(  24)  ---------------------------------------


    POTLOK:  cpu time    0.3190: real time    0.3190
    SETDIJ:  cpu time    0.0169: real time    0.0169
     EDDAV:  cpu time    9.1359: real time    9.1373
       DOS:  cpu time    0.0013: real time    0.0013
    CHARGE:  cpu time    0.2593: real time    0.2594
    MIXING:  cpu time    0.0205: real time    0.0205
    --------------------------------------------
      LOOP:  cpu time    9.7528: real time    9.7543

 eigenvalue-minimisations  :  1280
 total energy-change (2. order) : 0.2036530E-01  (-0.1011087E-01)
 number of electron     791.9997809 magnetization 
 augmentation part      312.0698658 magnetization 

 Broyden mixing:
  rms(total) = 0.20234E+00    rms(broyden)= 0.20218E+00
  rms(prec ) = 0.23547E+00
  weight for this iteration     100.00

 eigenvalues of (default mixing * dielectric matrix)
  average eigenvalue GAMMA=   0.6004
  1.8888  1.8888  1.3672  1.3672  1.2305  0.6901  0.4712  0.4712  0.4336  0.2592
  0.2212  0.1120  0.1120  0.1479  0.1479  0.1667  0.1667  0.1292  0.1369

 Free energy of the ion-electron system (eV)
  ---------------------------------------------------
  alpha Z        PSCENC =      1422.52235994
  Ewald energy   TEWEN  =    150855.09386941
  -Hartree energ DENC   =   -270583.99706632
  -exchange      EXHF   =         0.00000000
  -V(xc)+E(xc)   XCENC  =      3653.39871027
  PAW double counting   =    140854.01550107  -145842.80697318
  entropy T*S    EENTRO =        -1.10147402
  eigenvalues    EBANDS =    -16698.09692777
  atomic energy  EATOM  =    136002.60505376
  Solvation  Ediel_sol  =         0.00000000
  ---------------------------------------------------
  free energy    TOTEN  =      -338.36694684 eV

  energy without entropy =     -337.26547282  energy(sigma->0) =     -337.81620983


--------------------------------------------------------------------------------------------------------




--------------------------------------- Iteration      1(  25)  ---------------------------------------


    POTLOK:  cpu time    0.3187: real time    0.3187
    SETDIJ:  cpu time    0.0168: real time    0.0168
     EDDAV:  cpu time    8.5096: real time    8.5115
       DOS:  cpu time    0.0014: real time    0.0014
    CHARGE:  cpu time    0.2597: real time    0.2597
    MIXING:  cpu time    0.0217: real time    0.0217
    --------------------------------------------
      LOOP:  cpu time    9.1278: real time    9.1298

 eigenvalue-minimisations  :  1200
 total energy-change (2. order) : 0.1103453E-01  (-0.5324273E-02)
 number of electron     791.9997809 magnetization 
 augmentation part      312.1352407 magnetization 

 Broyden mixing:
  rms(total) = 0.15513E+00    rms(broyden)= 0.15503E+00
  rms(prec ) = 0.17865E+00
  weight for this iteration     100.00

 eigenvalues of (default mixing * dielectric matrix)
  average eigenvalue GAMMA=   0.6545
  2.6354  2.1463  1.5380  1.5380  0.8314  0.8314  0.7252  0.4673  0.4673  0.3905
  0.2177  0.1934  0.1120  0.1120  0.1480  0.1480  0.1705  0.1545  0.1291  0.1341

 Free energy of the ion-electron system (eV)
  ---------------------------------------------------
  alpha Z        PSCENC =      1422.52235994
  Ewald energy   TEWEN  =    150855.09386941
  -Hartree energ DENC   =   -270587.85744582
  -exchange      EXHF   =         0.00000000
  -V(xc)+E(xc)   XCENC  =      3653.38711304
  PAW double counting   =    140836.21414153  -145825.06108729
  entropy T*S    EENTRO =        -1.10672922
  eigenvalues    EBANDS =    -16694.15318766
  atomic energy  EATOM  =    136002.60505376
  Solvation  Ediel_sol  =         0.00000000
  ---------------------------------------------------
  free energy    TOTEN  =      -338.35591231 eV

  energy without entropy =     -337.24918309  energy(sigma->0) =     -337.80254770


--------------------------------------------------------------------------------------------------------




[...]
    FORCOR:  cpu time    0.4272: real time    0.4273
    FORHAR:  cpu time    0.1845: real time    0.1845
    MIXING:  cpu time    0.0822: real time    0.0822
    OFIELD:  cpu time    0.0001: real time    0.0001

  FORCE on cell =-STRESS in cart. coord.  units (eV):
  Direction    XX          YY          ZZ          XY          YZ          ZX
  --------------------------------------------------------------------------------------
  Alpha Z  1422.52236  1422.52236  1422.52236
  Ewald  200553.47256198299.15038************  -676.40318  -197.69304  1022.82708
  Hartree233934.54819232926.59889************  -447.75729  -203.03969   682.52294
  E(xc)   -5053.05287 -5054.84746 -5064.01225    -0.30468     0.11195     0.94203
  Local  ************************431572.67846  1119.16205   406.43080 -1679.43193
  n-local  -588.59235  -596.97093  -610.42483    -6.37935     1.42859     1.92459
  augment  5765.43051  5787.37171  5812.44034     5.23556    -0.02306   -12.22304
  Kinetic 11060.61098 11094.06283 11226.63553     1.66124    -3.01070   -15.46187
  Fock        0.00000     0.00000     0.00000     0.00000     0.00000     0.00000
  -------------------------------------------------------------------------------------
  Total     122.36862   119.68326   135.22789    -4.78565     4.20486     1.09980
  in kB      74.97363    73.32834    82.85233    -2.93211     2.57626     0.67383
  external pressure =       77.05 kB  Pullay stress =        0.00 kB


 VOLUME and BASIS-vectors are now :
 -----------------------------------------------------------------------------
  energy-cutoff  :      450.00
  volume of cell :     2615.00
      direct lattice vectors                 reciprocal lattice vectors
    16.884694054  0.000000000  0.000000000     0.059225237  0.000000000  0.000000000
     0.000000000  9.578410000  0.000000000     0.000000000  0.104401461  0.000000000
     0.000000000  0.000000000 16.169087120     0.000000000  0.000000000  0.061846411

  length of vectors
    16.884694054  9.578410000 16.169087120     0.059225237  0.104401461  0.061846411


 FORCES acting on ions
    electron-ion (+dipol)            ewald-force                    non-local-force                 convergence-correction
 -----------------------------------------------------------------------------------------------
   0.177E+03 -.810E+03 0.139E+04   -.181E+03 0.815E+03 -.139E+04   0.372E+01 -.401E+01 -.118E+01   0.170E-01 -.157E-01 -.673E-02
   0.274E+03 -.197E+03 -.299E+04   -.273E+03 0.199E+03 0.299E+04   -.587E+00 -.233E+01 -.101E+01   0.183E-02 -.129E-01 -.187E-01
   0.464E+03 0.280E+02 0.301E+04   -.466E+03 -.280E+02 -.301E+04   0.312E+01 -.549E-01 0.566E+01   0.125E-01 -.510E-02 -.127E-01
   0.609E+03 0.178E+02 -.111E+04   -.610E+03 -.177E+02 0.111E+04   0.172E+01 -.802E-01 -.220E+01   0.315E-02 -.872E-02 0.480E-02
   0.962E+02 -.447E+02 0.233E+04   -.971E+02 0.449E+02 -.234E+04   0.126E+01 -.369E+00 0.802E+01   0.820E-02 0.800E-02 -.122E-01
   0.127E+03 -.859E+02 -.184E+04   -.129E+03 0.864E+02 0.184E+04   0.214E+01 -.422E+00 -.548E+01   0.185E-02 0.117E-01 -.624E-02
   0.937E+03 0.289E+03 0.145E+04   -.943E+03 -.290E+03 -.145E+04   0.467E+01 0.219E+01 0.469E+01   -.239E-01 0.108E-01 -.159E-02
   0.430E+03 0.827E+02 -.316E+04   -.432E+03 -.825E+02 0.316E+04   0.212E+01 -.277E+00 0.438E+00   -.144E-01 0.376E-02 -.322E-02
   0.631E+03 -.673E+02 0.862E+03   -.633E+03 0.675E+02 -.864E+03   0.222E+01 -.539E+00 0.204E+01   -.178E-01 0.170E-02 -.106E-02
   0.237E+03 -.291E+02 -.345E+04   -.239E+03 0.300E+02 0.345E+04   0.235E+01 -.112E+01 0.239E+01   -.155E-01 0.521E-03 0.334E-02
   -.777E+03 0.410E+03 0.173E+04   0.779E+03 -.412E+03 -.173E+04   -.228E+01 0.159E+01 0.382E+01   0.190E-01 -.599E-02 0.415E-02
   -.160E+03 0.187E+03 -.221E+04   0.156E+03 -.186E+03 0.222E+04   0.281E+01 -.510E+00 -.707E+01   0.179E-01 -.476E-02 0.643E-02
   -.373E+03 -.239E+02 0.283E+04   0.381E+03 0.184E+02 -.283E+04   -.645E+01 0.376E+01 0.211E+01   -.106E-01 -.666E-02 0.113E-01
   0.311E+02 0.406E+03 -.146E+04   -.284E+02 -.410E+03 0.146E+04   -.380E+01 0.293E+01 -.300E+01   -.228E-01 -.619E-02 -.180E-01
   -.280E+03 0.707E+03 0.394E+04   0.278E+03 -.703E+03 -.394E+04   0.287E+01 -.464E+01 -.212E+01   0.388E-02 -.193E-02 -.979E-02
   -.342E+03 0.498E+03 0.245E+03   0.342E+03 -.501E+03 -.246E+03   0.110E+01 0.280E+01 -.540E+00   0.112E-01 -.174E-01 0.274E-03
   -.292E+03 0.128E+03 -.352E+04   0.295E+03 -.131E+03 0.352E+04   -.334E+01 0.428E+01 0.986E+00   0.133E-01 -.328E-02 0.101E-01
   -.463E+03 0.480E+03 0.340E+04   0.463E+03 -.477E+03 -.340E+04   0.173E+00 -.274E+01 -.147E+01   0.150E-01 0.576E-02 -.105E-02
   -.704E+03 0.164E+03 -.119E+04   0.707E+03 -.166E+03 0.120E+04   -.150E+01 0.327E+01 -.488E+01   0.188E-01 0.101E-02 -.202E-02
   0.348E+03 0.672E+03 0.204E+04   -.347E+03 -.677E+03 -.204E+04   0.219E+00 0.542E+01 0.377E+01   -.186E-01 -.782E-02 -.136E-02
   0.437E+02 0.189E+03 -.275E+04   -.432E+02 -.191E+03 0.275E+04   -.113E+00 0.265E+01 -.301E+00   -.101E-01 -.586E-02 0.957E-02
   0.259E+03 0.352E+03 0.134E+04   -.259E+03 -.356E+03 -.134E+04   0.858E+00 0.290E+01 0.407E+01   0.108E-01 0.965E-02 -.406E-02
   0.121E+03 0.872E+02 -.318E+04   -.120E+03 -.909E+02 0.318E+04   -.107E+01 0.410E+01 0.171E+01   0.547E-02 0.690E-02 0.820E-02
   -.401E+03 0.609E+03 -.900E+03   0.403E+03 -.613E+03 0.899E+03   -.190E+01 0.445E+01 -.104E+01   -.587E-02 0.779E-02 0.253E-02
   0.187E+03 -.692E+03 -.302E+03   -.185E+03 0.697E+03 0.301E+03   -.200E+01 -.337E+01 0.104E+01   -.125E-01 -.173E-01 -.687E-02
   -.135E+03 -.607E+03 0.398E+04   0.133E+03 0.603E+03 -.398E+04   0.219E+01 0.406E+01 -.210E+01   0.495E-02 -.796E-02 -.160E-01
   -.185E+03 -.401E+03 0.213E+03   0.184E+03 0.404E+03 -.214E+03   0.107E+01 -.291E+01 -.656E+00   0.916E-02 0.155E-02 -.548E-02
   -.226E+03 -.923E+02 -.360E+04   0.228E+03 0.955E+02 0.360E+04   -.315E+01 -.399E+01 0.842E+00   0.125E-01 -.336E-02 0.152E-01
   -.391E+03 -.542E+03 0.355E+04   0.389E+03 0.542E+03 -.356E+04   0.117E+01 -.244E+00 0.489E+01   -.282E-02 0.557E-02 -.398E-02
   -.883E+03 -.657E+03 -.586E+03   0.885E+03 0.662E+03 0.587E+03   -.152E+01 -.497E+01 -.341E+01   0.930E-02 0.859E-02 0.154E-03
   0.242E+03 -.508E+03 0.207E+04   -.242E+03 0.512E+03 -.208E+04   -.509E+00 -.427E+01 0.533E+01   -.299E-01 0.109E-01 -.469E-02
   -.537E+01 -.134E+03 -.279E+04   0.599E+01 0.136E+03 0.279E+04   -.362E+00 -.225E+01 -.738E+00   -.177E-01 0.473E-03 0.670E-02
   0.291E+03 -.378E+03 0.134E+04   -.291E+03 0.382E+03 -.134E+04   0.108E+01 -.298E+01 0.424E+01   0.127E-01 0.429E-03 -.471E-02
   0.117E+03 -.998E+02 -.317E+04   -.116E+03 0.104E+03 0.317E+04   -.119E+01 -.416E+01 0.169E+01   0.752E-02 -.619E-03 0.174E-02
   -.844E+02 0.623E+03 0.257E+04   0.822E+02 -.628E+03 -.257E+04   0.176E+01 0.428E+01 0.397E+01   0.184E-01 0.969E-02 0.750E-02
   -.431E+03 -.147E+03 -.161E+04   0.433E+03 0.150E+03 0.162E+04   -.151E+01 -.263E+01 -.687E+01   0.285E-02 0.345E-02 -.929E-02
   0.149E+03 -.112E+03 -.145E+04   -.148E+03 0.113E+03 0.146E+04   -.148E+01 -.123E+01 -.207E+01   -.379E-02 -.568E-02 -.441E-02
   -.778E+02 -.134E+03 0.910E+03   0.786E+02 0.137E+03 -.915E+03   0.344E+00 -.192E+01 0.295E+01   -.146E-01 -.844E-02 -.759E-03
   -.469E+03 0.675E+02 0.120E+04   0.472E+03 -.677E+02 -.120E+04   -.174E+01 0.200E+00 0.167E+01   -.101E-02 -.392E-02 -.852E-02
   -.185E+03 0.409E+02 -.917E+03   0.186E+03 -.410E+02 0.923E+03   0.579E+00 0.265E+00 -.439E+01   0.738E-02 -.752E-02 0.764E-02
   -.343E+03 -.335E+03 0.996E+03   0.344E+03 0.337E+03 -.100E+04   -.169E+01 -.202E+01 0.249E+01   0.458E-02 0.496E-03 -.220E-03
   -.107E+03 -.957E+02 -.963E+03   0.106E+03 0.953E+02 0.968E+03   0.537E+00 -.556E-01 -.240E+01   0.377E-02 0.275E-03 -.350E-02
   0.171E+03 0.117E+02 0.165E+04   -.171E+03 -.107E+02 -.166E+04   -.599E+00 -.985E+00 0.238E+01   -.416E-02 -.138E-03 -.733E-02
   -.585E+02 0.115E+02 -.229E+03   0.581E+02 -.115E+02 0.233E+03   0.218E+01 -.827E-01 -.373E+01   -.243E-02 -.403E-02 0.465E-02
   0.156E+03 -.979E-01 0.161E+04   -.157E+03 0.637E-01 -.162E+04   0.104E+01 -.418E-02 0.189E+01   0.677E-02 0.299E-02 -.862E-03
   -.466E+02 -.256E+01 -.634E+03   0.476E+02 0.269E+01 0.640E+03   0.422E-01 -.137E+00 -.478E+01   0.243E-02 0.211E-02 -.217E-02
   -.171E+02 0.328E+03 0.761E+03   0.161E+02 -.330E+03 -.765E+03   0.123E+01 0.814E+00 0.195E+01   -.254E-02 0.634E-02 0.242E-02
   -.626E+02 0.487E+02 -.121E+04   0.640E+02 -.487E+02 0.121E+04   -.500E+00 0.735E-01 -.283E+01   -.567E-02 0.169E-02 -.457E-02
   -.427E+02 -.487E+03 0.136E+04   0.448E+02 0.493E+03 -.136E+04   -.215E+01 -.333E+01 0.693E+00   0.876E-03 -.976E-02 0.594E-02
   0.667E+02 -.309E+03 0.115E+02   -.655E+02 0.312E+03 -.118E+02   -.126E+01 -.163E+01 -.158E+00   -.402E-02 -.250E-04 -.290E-02
   0.195E+03 -.267E+03 0.766E+03   -.196E+03 0.269E+03 -.769E+03   -.614E+00 -.590E+00 0.318E+01   0.384E-02 0.157E-02 -.746E-02
   0.200E+03 0.725E+02 -.123E+04   -.201E+03 -.717E+02 0.123E+04   0.116E+00 -.392E+00 -.280E+01   0.228E-03 0.123E-02 0.686E-02
   -.155E+03 -.287E+03 0.618E+03   0.155E+03 0.290E+03 -.619E+03   -.777E+00 -.113E+01 0.148E+01   0.110E-02 -.275E-02 -.357E-02
   -.242E+03 0.409E+02 -.146E+04   0.244E+03 -.388E+02 0.146E+04   -.146E+01 -.180E+01 -.165E+01   0.109E-02 0.870E-02 0.204E-02
   0.208E+03 -.128E+03 -.495E+03   -.209E+03 0.130E+03 0.497E+03   -.329E+00 -.110E+01 -.162E+01   -.133E-01 0.699E-02 -.191E-02
   0.137E+03 -.404E+02 0.124E+04   -.138E+03 0.404E+02 -.125E+04   0.847E+00 -.883E-01 0.320E+01   -.128E-01 0.860E-02 0.240E-02
   0.235E+03 0.236E+02 0.113E+04   -.236E+03 -.245E+02 -.113E+04   0.411E+00 0.815E+00 0.405E+01   -.709E-03 -.235E-02 -.240E-02
   0.125E+03 -.100E+03 -.851E+03   -.125E+03 0.102E+03 0.854E+03   -.345E+00 -.217E+01 -.173E+01   -.192E-02 0.204E-02 0.195E-02
   -.157E+03 0.111E+03 0.221E+03   0.156E+03 -.109E+03 -.221E+03   0.717E+00 -.607E+00 -.918E+00   0.112E-01 -.121E-02 0.170E-02
   -.669E+02 -.241E+03 -.152E+04   0.657E+02 0.244E+03 0.152E+04   0.583E+00 -.197E+01 -.270E+00   0.293E-02 -.341E-02 -.395E-02
   0.197E+03 0.258E+03 0.771E+03   -.198E+03 -.261E+03 -.774E+03   -.407E+00 0.799E+00 0.313E+01   0.652E-02 -.481E-02 -.622E-02
   0.191E+03 -.648E+02 -.123E+04   -.192E+03 0.638E+02 0.123E+04   0.575E-01 0.524E+00 -.270E+01   0.715E-02 -.410E-02 0.505E-02
   0.627E+02 -.724E+02 0.163E+04   -.669E+02 0.684E+02 -.164E+04   0.289E+01 0.361E+01 0.482E+01   0.675E-02 -.251E-02 0.103E-01
   -.163E+02 0.173E+03 -.367E+03   0.176E+02 -.174E+03 0.371E+03   -.411E+00 -.490E+00 -.116E+01   0.400E-02 -.218E-02 -.962E-02
   0.262E+03 0.205E+03 -.447E+03   -.263E+03 -.206E+03 0.449E+03   -.683E+00 -.137E+00 -.185E+01   -.384E-02 0.123E-02 0.217E-02
   0.377E+03 0.272E+03 0.142E+04   -.379E+03 -.274E+03 -.142E+04   0.943E+00 0.274E+00 0.625E+00   -.778E-02 -.104E-03 -.132E-02
   0.734E+02 0.165E+03 0.554E+03   -.758E+02 -.168E+03 -.555E+03   0.178E+01 0.228E+01 -.484E+00   0.183E-02 0.707E-02 -.583E-02
   -.219E+03 -.807E+02 -.150E+04   0.221E+03 0.787E+02 0.150E+04   -.107E+01 0.172E+01 -.188E+01   0.391E-02 -.636E-03 0.362E-02
   -.260E+03 0.208E+03 0.412E+03   0.260E+03 -.210E+03 -.416E+03   0.208E+00 0.336E+00 0.229E+01   0.440E-02 0.866E-03 0.428E-02
   -.778E+02 0.262E+03 -.149E+04   0.772E+02 -.265E+03 0.150E+04   0.326E-01 0.237E+01 -.142E+01   0.743E-04 0.212E-02 -.336E-02
   0.194E+03 -.387E+02 0.113E+04   -.194E+03 0.395E+02 -.114E+04   0.417E-01 -.631E+00 0.435E+01   -.537E-02 0.288E-02 -.379E-02
   0.112E+03 0.908E+02 -.859E+03   -.112E+03 -.922E+02 0.862E+03   -.326E+00 0.182E+01 -.160E+01   -.118E-02 0.258E-02 0.311E-02
 -----------------------------------------------------------------------------------------------
   -.619E+01 0.681E+01 -.183E+02   -.682E-12 0.237E-11 -.546E-11   0.607E+01 -.679E+01 0.184E+02   0.307E-01 -.271E-01 -.783E-01
 
 
 POSITION                                       TOTAL-FORCE (eV/Angst)
 -----------------------------------------------------------------------------------
     12.95249      1.37981      2.51467        -0.129323      1.107330     -0.427756
     14.02966      1.46151      4.67189         0.201603     -0.240284      1.887229
      3.93875      6.18446      1.40810         0.579626     -0.034423     -0.072874
      5.02033      6.18092      3.49202         0.215920      0.005171      0.016249
      6.60001      1.43938      2.04837         0.407993     -0.098444     -0.063366
      7.93172      1.39171      4.00611        -0.191473      0.047904     -0.368778
     16.08224      6.18092      2.46384        -0.578815      1.245011      2.158824
     16.35900      6.17587      5.07949         0.322010     -0.034087      0.687846
      2.10894      1.39171      2.97793         0.228591     -0.315062      0.224587
      1.70882      1.39794      5.25735         0.541456     -0.246483      0.915542
      9.62933      6.23649      2.59522         0.339623      0.048723     -0.881069
     10.84312      6.18092      4.52020        -0.899825      0.272488     -0.169359
     15.14778      0.25011      1.70438         1.939385     -1.746320     -0.309658
     16.17013      0.18532      3.95683        -1.158195     -0.643363      0.126461
      6.66540      4.90730      0.56012         0.393159     -0.386532     -1.047708
      7.17375      4.91558      3.08454         0.333120     -0.086266     -1.250953
      7.93451      4.36907      5.29023        -0.396803      0.773798      0.950057
     10.13677      8.94262      1.43520         0.242412     -0.554475     -1.010953
     10.08514      0.12638      3.59863         1.093898      0.580406      0.268177
      1.35096      4.91558      2.05636         0.985109     -0.003247      2.288083
      1.90315      4.80357      4.69609         0.358321      0.429636      1.153196
      4.26235      0.12638      2.57045         0.747988     -0.857015      1.058817
      4.94081      9.30996      4.93337        -0.033755      0.356283      0.738197
     12.99653      4.91558      4.11272         0.479053      0.207395     -2.756219
     16.01647      2.65733      3.61343        -0.084186      1.135184      0.057470
      6.58474      7.32843      0.52369         0.259788      0.300136     -1.198656
      7.17375      7.44626      3.08454         0.222647     -0.004667     -1.321581
      7.93803      7.99601      5.28848        -0.460194     -0.750082      0.840394
      8.95127      1.47177      1.37568        -0.340415     -0.240030     -1.571164
     10.08514      2.65705      3.59863         1.087058      0.205650     -1.654389
      1.35096      7.44626      2.05636        -0.050586      0.568918      2.029236
      1.90649      7.55858      4.70095         0.241529     -0.451398      1.178835
      4.26235      2.65705      2.57045         0.566915      0.915551      1.033976
      4.94288      3.05480      4.92917        -0.113676     -0.304681      0.768035
     12.91003      8.32398      1.91415        -0.388443     -0.655741     -0.153464
     12.99653      7.44626      4.11272         1.088344      0.548117     -0.410979
     16.54937      1.64801      5.33596        -0.089606      0.371834      3.116610
      0.03684      1.27293      2.33682         1.179222      0.978083     -1.364419
      8.00634      6.18092      1.40713         1.056262     -0.078267     -2.105882
      8.59001      6.18092      4.49167         1.237261      0.111533      1.431674
     10.91773      1.39171      1.92122        -0.440263      0.166538     -2.338653
     11.78751      1.46540      4.34171         0.010927     -0.447189      2.276445
      2.08493      6.19974      0.59874        -0.162324     -0.015314     -4.164002
      2.76722      6.18092      3.46349         1.749022      0.003676     -0.359927
      4.83253      1.39184      1.04069         0.285573     -0.035323     -3.781835
      5.67861      1.39171      3.97758         0.950054     -0.011112      1.160490
     13.87337      6.44320      2.49991         0.296198     -1.760198     -2.020598
     14.31038      6.15990      5.14940         0.891442      0.059458      2.606360
     14.35879      2.02280      1.00481        -0.045757      2.326915     -1.605079
     13.95118      3.13997      3.52604        -0.023947      1.396372     -0.429468
      5.26426      7.79215      1.92599        -1.415488      1.308955      0.178835
      5.96853      7.56764      4.83867        -1.112704      0.426102      2.050470
      8.17565      3.00295      2.44008        -1.043853      1.588745      0.020549
      8.99185      2.68073      5.32135         0.074511      0.286414      2.962944
      0.02514      7.79215      3.98236        -0.631593      1.258000      0.528782
     16.28475      8.00876      1.42290        -0.317064     -0.091319     -2.988648
      2.37748      3.09941      1.77907        -0.606411     -0.077755     -2.615502
      2.93654      3.00295      4.49645        -0.740113     -0.532004      1.182399
     11.08705      7.79215      2.95417        -0.820730      0.869417     -0.667848
     11.70090      7.63727      5.66017        -0.572298      1.382585      3.702285
      5.26426      4.56969      1.92599        -1.517009     -1.247906      0.034084
      5.96797      4.79882      4.83941        -1.143356     -0.479652      2.030175
     13.34420      0.24680      0.60945        -1.282259     -0.405888     -3.921220
     13.99844      9.35889      3.46826         0.925496     -1.658939      2.550052
      0.02514      4.56969      3.98236        -1.110091     -1.677512     -0.685443
     16.50640      4.86828      1.02837        -1.667850     -2.115033     -3.289946
      8.17565      9.35889      2.44008        -0.636812     -0.830372     -0.994195
      8.98606      0.11282      5.33550         0.375131     -0.292432      2.812633
     10.99292      4.60515      3.16015         0.055631     -1.332096     -1.472874
     11.82150      4.87848      5.74018        -0.528295     -1.172960      3.857056
      2.39506      9.24846      1.77418        -0.583536      0.190190     -2.636815
      2.93654      9.35889      4.49645        -0.645231      0.441353      1.228228
 -----------------------------------------------------------------------------------
    total drift:                               -0.090225     -0.005836      0.008802


--------------------------------------------------------------------------------------------------------



  FREE ENERGIE OF THE ION-ELECTRON SYSTEM (eV)
  ---------------------------------------------------
  free  energy   TOTEN  =      -338.34878990 eV

  energy  without entropy=     -337.25030585  energy(sigma->0) =     -337.79954788
 


--------------------------------------------------------------------------------------------------------


    POTLOK:  cpu time    0.3352: real time    0.3356


--------------------------------------------------------------------------------------------------------


     LOOP+:  cpu time  379.7063: real time  379.7919
    4ORBIT:  cpu time    0.0000: real time    0.0000

 total amount of memory used by VASP MPI-rank0    77182. kBytes
=======================================================================

   base      :      30000. kBytes
   nonlr-proj:       2073. kBytes
   fftplans  :       9935. kBytes
   grid      :      16773. kBytes
   one-center:         93. kBytes
   wavefun   :      18308. kBytes
 
  
  
 General timing and accounting informations for this job:
 ========================================================
  
                  Total CPU time used (sec):      382.899
                            User time (sec):      382.513
                          System time (sec):        0.386
                         Elapsed time (sec):      383.228
  
                   Maximum memory used (kb):      220152.
                   Average memory used (kb):           0.
  
                          Minor page faults:       117145
                          Major page faults:            0
                 Voluntary context switches:          128
