  96  96   0   0
  0.2657162E+02  0.1125646E-08  0.1125646E-08  0.2251996E-08  0.5000000E-15
  1.000000000000000E-004
  CAR 
 "Millerite NiS"                         
     11.41969081    -66.57795911  301      1.64446500      1.00000000
    -66.578  0.0000E+00  0.0000E+00
    -66.318  0.0000E+00  0.0000E+00
    -66.058  0.0000E+00  0.0000E+00
    -65.798  0.0000E+00  0.0000E+00
    -65.538  0.0000E+00  0.0000E+00
    -65.278  0.0000E+00  0.0000E+00
    -65.018  0.0000E+00  0.0000E+00
    -64.758  0.0000E+00  0.0000E+00
    -64.498  0.0000E+00  0.0000E+00
    -64.238  0.0000E+00  0.0000E+00
    -63.978  0.9781E-10  0.2543E-10
    -63.718  0.5892E-05  0.1532E-05
    -63.458  0.1584E-01  0.4121E-02
    -63.198  0.2745E+01  0.7177E+00
    -62.938  0.5321E+02  0.1455E+02
    -62.678  0.1921E+03  0.6450E+02
    -62.418  0.3141E+03  0.1462E+03
    -62.158  0.3294E+03  0.2318E+03
    -61.898  0.1342E+03  0.2667E+03
    -61.638  0.5236E+02  0.2803E+03
    -61.378  0.2131E+02  0.2859E+03
    -61.118  0.7330E+01  0.2878E+03
    -60.858  0.8801E+00  0.2880E+03
    -60.598  0.8547E-02  0.2880E+03
    -60.338  0.3726E-05  0.2880E+03
    -60.078  0.6246E-10  0.2880E+03
    -59.818  0.0000E+00  0.2880E+03
    -59.558  0.0000E+00  0.2880E+03
    -59.298  0.0000E+00  0.2880E+03
    -59.038  0.0000E+00  0.2880E+03
    -58.778  0.0000E+00  0.2880E+03
    -58.518  0.0000E+00  0.2880E+03
    -58.258  0.0000E+00  0.2880E+03
    -57.998  0.0000E+00  0.2880E+03
    -57.738  0.0000E+00  0.2880E+03
    -57.478  0.0000E+00  0.2880E+03
    -57.218  0.0000E+00  0.2880E+03
    -56.958  0.0000E+00  0.2880E+03
    -56.698  0.0000E+00  0.2880E+03
    -56.438  0.0000E+00  0.2880E+03
    -56.178  0.0000E+00  0.2880E+03
    -55.918  0.0000E+00  0.2880E+03
    -55.658  0.0000E+00  0.2880E+03
    -55.398  0.0000E+00  0.2880E+03
    -55.138  0.0000E+00  0.2880E+03
    -54.878  0.0000E+00  0.2880E+03
    -54.618  0.0000E+00  0.2880E+03
    -54.358  0.0000E+00  0.2880E+03
    -54.098  0.0000E+00  0.2880E+03
    -53.838  0.0000E+00  0.2880E+03
    -53.578  0.0000E+00  0.2880E+03
    -53.318  0.0000E+00  0.2880E+03
    -53.058  0.0000E+00  0.2880E+03
    -52.798  0.0000E+00  0.2880E+03
    -52.538  0.0000E+00  0.2880E+03
    -52.278  0.0000E+00  0.2880E+03
    -52.018  0.0000E+00  0.2880E+03
    -51.758  0.0000E+00  0.2880E+03
    -51.498  0.0000E+00  0.2880E+03
    -51.238  0.0000E+00  0.2880E+03
    -50.978  0.0000E+00  0.2880E+03
    -50.718  0.0000E+00  0.2880E+03
    -50.458  0.0000E+00  0.2880E+03
    -50.198  0.0000E+00  0.2880E+03
    -49.938  0.0000E+00  0.2880E+03
    -49.678  0.0000E+00  0.2880E+03
    -49.418  0.0000E+00  0.2880E+03
    -49.158  0.0000E+00  0.2880E+03
    -48.898  0.0000E+00  0.2880E+03
    -48.638  0.0000E+00  0.2880E+03
    -48.379  0.0000E+00  0.2880E+03
    -48.119  0.0000E+00  0.2880E+03
    -47.859  0.0000E+00  0.2880E+03
    -47.599  0.0000E+00  0.2880E+03
    -47.339  0.0000E+00  0.2880E+03
    -47.079  0.0000E+00  0.2880E+03
    -46.819  0.0000E+00  0.2880E+03
    -46.559  0.0000E+00  0.2880E+03
    -46.299  0.0000E+00  0.2880E+03
    -46.039  0.0000E+00  0.2880E+03
    -45.779  0.0000E+00  0.2880E+03
    -45.519  0.0000E+00  0.2880E+03
    -45.259  0.0000E+00  0.2880E+03
    -44.999  0.0000E+00  0.2880E+03
    -44.739  0.0000E+00  0.2880E+03
    -44.479  0.0000E+00  0.2880E+03
    -44.219  0.0000E+00  0.2880E+03
    -43.959  0.0000E+00  0.2880E+03
    -43.699  0.0000E+00  0.2880E+03
    -43.439  0.0000E+00  0.2880E+03
    -43.179  0.0000E+00  0.2880E+03
    -42.919  0.0000E+00  0.2880E+03
    -42.659  0.0000E+00  0.2880E+03
    -42.399  0.0000E+00  0.2880E+03
    -42.139  0.0000E+00  0.2880E+03
    -41.879  0.0000E+00  0.2880E+03
    -41.619  0.0000E+00  0.2880E+03
    -41.359  0.0000E+00  0.2880E+03
    -41.099  0.0000E+00  0.2880E+03
    -40.839  0.0000E+00  0.2880E+03
    -40.579  0.0000E+00  0.2880E+03
    -40.319  0.0000E+00  0.2880E+03
    -40.059  0.0000E+00  0.2880E+03
    -39.799  0.0000E+00  0.2880E+03
    -39.539  0.0000E+00  0.2880E+03
    -39.279  0.0000E+00  0.2880E+03
    -39.019  0.0000E+00  0.2880E+03
    -38.759  0.0000E+00  0.2880E+03
    -38.499  0.0000E+00  0.2880E+03
    -38.239  0.0000E+00  0.2880E+03
    -37.979  0.0000E+00  0.2880E+03
    -37.719  0.0000E+00  0.2880E+03
    -37.459  0.0000E+00  0.2880E+03
    -37.199  0.0000E+00  0.2880E+03
    -36.939  0.0000E+00  0.2880E+03
    -36.679  0.0000E+00  0.2880E+03
    -36.419  0.0000E+00  0.2880E+03
    -36.159  0.0000E+00  0.2880E+03
    -35.899  0.0000E+00  0.2880E+03
    -35.639  0.0000E+00  0.2880E+03
    -35.379  0.0000E+00  0.2880E+03
    -35.119  0.0000E+00  0.2880E+03
    -34.859  0.0000E+00  0.2880E+03
    -34.599  0.0000E+00  0.2880E+03
    -34.339  0.0000E+00  0.2880E+03
    -34.079  0.0000E+00  0.2880E+03
    -33.819  0.0000E+00  0.2880E+03
    -33.559  0.0000E+00  0.2880E+03
    -33.299  0.0000E+00  0.2880E+03
    -33.039  0.0000E+00  0.2880E+03
    -32.779  0.0000E+00  0.2880E+03
    -32.519  0.0000E+00  0.2880E+03
    -32.259  0.0000E+00  0.2880E+03
    -31.999  0.0000E+00  0.2880E+03
    -31.739  0.0000E+00  0.2880E+03
    -31.479  0.0000E+00  0.2880E+03
    -31.219  0.0000E+00  0.2880E+03
    -30.959  0.0000E+00  0.2880E+03
    -30.699  0.0000E+00  0.2880E+03
    -30.439  0.0000E+00  0.2880E+03
    -30.179  0.0000E+00  0.2880E+03
    -29.919  0.0000E+00  0.2880E+03
    -29.659  0.0000E+00  0.2880E+03
    -29.399  0.0000E+00  0.2880E+03
    -29.139  0.0000E+00  0.2880E+03
    -28.879  0.0000E+00  0.2880E+03
    -28.619  0.0000E+00  0.2880E+03
    -28.359  0.0000E+00  0.2880E+03
    -28.099  0.0000E+00  0.2880E+03
    -27.839  0.0000E+00  0.2880E+03
    -27.579  0.0000E+00  0.2880E+03
    -27.319  0.0000E+00  0.2880E+03
    -27.059  0.0000E+00  0.2880E+03
    -26.799  0.0000E+00  0.2880E+03
    -26.539  0.0000E+00  0.2880E+03
    -26.279  0.0000E+00  0.2880E+03
    -26.019  0.0000E+00  0.2880E+03
    -25.759  0.0000E+00  0.2880E+03
    -25.499  0.0000E+00  0.2880E+03
    -25.239  0.0000E+00  0.2880E+03
    -24.979  0.0000E+00  0.2880E+03
    -24.719  0.0000E+00  0.2880E+03
    -24.459  0.0000E+00  0.2880E+03
    -24.199  0.0000E+00  0.2880E+03
    -23.939  0.0000E+00  0.2880E+03
    -23.679  0.0000E+00  0.2880E+03
    -23.419  0.0000E+00  0.2880E+03
    -23.159  0.0000E+00  0.2880E+03
    -22.899  0.0000E+00  0.2880E+03
    -22.639  0.0000E+00  0.2880E+03
    -22.379  0.0000E+00  0.2880E+03
    -22.119  0.0000E+00  0.2880E+03
    -21.859  0.0000E+00  0.2880E+03
    -21.599  0.0000E+00  0.2880E+03
    -21.339  0.0000E+00  0.2880E+03
    -21.079  0.0000E+00  0.2880E+03
    -20.819  0.0000E+00  0.2880E+03
    -20.559  0.0000E+00  0.2880E+03
    -20.299  0.0000E+00  0.2880E+03
    -20.039  0.0000E+00  0.2880E+03
    -19.779  0.0000E+00  0.2880E+03
    -19.519  0.0000E+00  0.2880E+03
    -19.259  0.0000E+00  0.2880E+03
    -18.999  0.0000E+00  0.2880E+03
    -18.739  0.0000E+00  0.2880E+03
    -18.479  0.0000E+00  0.2880E+03
    -18.219  0.0000E+00  0.2880E+03
    -17.959  0.0000E+00  0.2880E+03
    -17.699  0.0000E+00  0.2880E+03
    -17.439  0.0000E+00  0.2880E+03
    -17.179  0.0000E+00  0.2880E+03
    -16.919  0.0000E+00  0.2880E+03
    -16.659  0.0000E+00  0.2880E+03
    -16.399  0.0000E+00  0.2880E+03
    -16.139  0.0000E+00  0.2880E+03
    -15.879  0.0000E+00  0.2880E+03
    -15.619  0.1537E-13  0.2880E+03
    -15.360  0.6793E-08  0.2880E+03
    -15.100  0.1126E-03  0.2880E+03
    -14.840  0.7550E-01  0.2880E+03
    -14.580  0.2648E+01  0.2887E+03
    -14.320  0.8649E+01  0.2910E+03
    -14.060  0.6269E+01  0.2926E+03
    -13.800  0.1261E+02  0.2959E+03
    -13.540  0.2007E+02  0.3011E+03
    -13.280  0.2353E+02  0.3072E+03
    -13.020  0.2855E+02  0.3146E+03
    -12.760  0.2710E+02  0.3217E+03
    -12.500  0.3931E+02  0.3319E+03
    -12.240  0.4258E+02  0.3430E+03
    -11.980  0.4426E+02  0.3545E+03
    -11.720  0.3975E+02  0.3648E+03
    -11.460  0.3430E+02  0.3737E+03
    -11.200  0.2233E+02  0.3795E+03
    -10.940  0.1311E+02  0.3829E+03
    -10.680  0.3930E+01  0.3840E+03
    -10.420  0.1654E+00  0.3840E+03
    -10.160  0.4104E-03  0.3840E+03
     -9.900  0.4238E-07  0.3840E+03
     -9.640  0.1640E-12  0.3840E+03
     -9.380  0.0000E+00  0.3840E+03
     -9.120  0.0000E+00  0.3840E+03
     -8.860  0.0000E+00  0.3840E+03
     -8.600  0.0000E+00  0.3840E+03
     -8.340  0.0000E+00  0.3840E+03
     -8.080  0.0000E+00  0.3840E+03
     -7.820  0.0000E+00  0.3840E+03
     -7.560  0.7597E-12  0.3840E+03
     -7.300  0.1369E-06  0.3840E+03
     -7.040  0.9383E-03  0.3840E+03
     -6.780  0.2792E+00  0.3841E+03
     -6.520  0.5056E+01  0.3854E+03
     -6.260  0.1176E+02  0.3884E+03
     -6.000  0.2311E+02  0.3945E+03
     -5.740  0.2977E+02  0.4022E+03
     -5.480  0.2962E+02  0.4099E+03
     -5.220  0.4295E+02  0.4211E+03
     -4.960  0.6151E+02  0.4371E+03
     -4.700  0.6172E+02  0.4531E+03
     -4.440  0.5681E+02  0.4679E+03
     -4.180  0.5541E+02  0.4823E+03
     -3.920  0.6107E+02  0.4982E+03
     -3.660  0.6958E+02  0.5162E+03
     -3.400  0.7896E+02  0.5368E+03
     -3.140  0.8624E+02  0.5592E+03
     -2.880  0.7927E+02  0.5798E+03
     -2.620  0.7602E+02  0.5996E+03
     -2.360  0.8716E+02  0.6222E+03
     -2.100  0.7003E+02  0.6404E+03
     -1.840  0.5340E+02  0.6543E+03
     -1.580  0.6520E+02  0.6713E+03
     -1.320  0.8872E+02  0.6943E+03
     -1.060  0.1029E+03  0.7211E+03
     -0.800  0.1194E+03  0.7521E+03
     -0.540  0.1350E+03  0.7872E+03
     -0.280  0.1562E+03  0.8279E+03
     -0.020  0.1817E+03  0.8751E+03
      0.240  0.1764E+03  0.9210E+03
      0.500  0.1425E+03  0.9580E+03
      0.760  0.1098E+03  0.9866E+03
      1.020  0.8715E+02  0.1009E+04
      1.280  0.7845E+02  0.1030E+04
      1.540  0.7370E+02  0.1049E+04
      1.800  0.6518E+02  0.1066E+04
      2.060  0.5649E+02  0.1080E+04
      2.320  0.6386E+02  0.1097E+04
      2.580  0.6810E+02  0.1115E+04
      2.840  0.5760E+02  0.1130E+04
      3.100  0.4347E+02  0.1141E+04
      3.360  0.3138E+02  0.1149E+04
      3.620  0.1130E+02  0.1152E+04
      3.880  0.7453E+01  0.1154E+04
      4.140  0.6684E+01  0.1156E+04
      4.400  0.1104E+01  0.1156E+04
      4.660  0.6120E+01  0.1158E+04
      4.920  0.1650E+02  0.1162E+04
      5.180  0.1451E+02  0.1166E+04
      5.440  0.2068E+02  0.1171E+04
      5.700  0.1969E+02  0.1176E+04
      5.960  0.3079E+02  0.1184E+04
      6.220  0.3586E+02  0.1194E+04
      6.480  0.3306E+02  0.1202E+04
      6.740  0.3870E+02  0.1212E+04
      7.000  0.4765E+02  0.1225E+04
      7.260  0.4795E+02  0.1237E+04
      7.520  0.4660E+02  0.1249E+04
      7.780  0.4715E+02  0.1261E+04
      8.040  0.2332E+02  0.1267E+04
      8.300  0.1964E+01  0.1268E+04
      8.560  0.1427E-01  0.1268E+04
      8.820  0.5611E-05  0.1268E+04
      9.080  0.9459E-10  0.1268E+04
      9.340  0.0000E+00  0.1268E+04
      9.600  0.0000E+00  0.1268E+04
      9.860  0.0000E+00  0.1268E+04
     10.120  0.0000E+00  0.1268E+04
     10.380  0.0000E+00  0.1268E+04
     10.640  0.0000E+00  0.1268E+04
     10.900  0.0000E+00  0.1268E+04
     11.160  0.0000E+00  0.1268E+04
     11.420  0.0000E+00  0.1268E+04
