       N       E                     dE             d eps       ncg     rms          rms(c)
DAV:   1     0.133877415079E+05    0.13388E+05   -0.68515E+05  1540   0.166E+03
DAV:   2     0.831201032383E+03   -0.12557E+05   -0.12102E+05  1350   0.538E+02
DAV:   3    -0.451302949158E+03   -0.12825E+04   -0.12161E+04  1432   0.187E+02
DAV:   4    -0.529954509226E+03   -0.78652E+02   -0.77797E+02  1432   0.421E+01
DAV:   5    -0.533432245509E+03   -0.34777E+01   -0.34737E+01  1744   0.917E+00    0.110E+02
DAV:   6    -0.636584418388E+03   -0.10315E+03   -0.12346E+03  1616   0.130E+02    0.188E+02
DAV:   7    -0.506575995284E+03    0.13001E+03   -0.26699E+02  1448   0.850E+01    0.885E+01
DAV:   8    -0.661157756275E+03   -0.15458E+03   -0.26590E+02  1688   0.124E+02    0.194E+02
DAV:   9    -0.555679140916E+03    0.10548E+03   -0.24410E+02  1704   0.797E+01    0.117E+02
DAV:  10    -0.510632719485E+03    0.45046E+02   -0.12558E+02  1712   0.426E+01    0.747E+01
DAV:  11    -0.568121649605E+03   -0.57489E+02   -0.11890E+02  1832   0.684E+01    0.145E+02
DAV:  12    -0.516063316912E+03    0.52058E+02   -0.86525E+01  1736   0.560E+01    0.826E+01
DAV:  13    -0.500198695241E+03    0.15865E+02   -0.56639E+01  1760   0.421E+01    0.588E+01
DAV:  14    -0.481720410074E+03    0.18478E+02   -0.34032E+01  1656   0.382E+01    0.412E+01
DAV:  15    -0.476916639530E+03    0.48038E+01   -0.19317E+01  1736   0.242E+01    0.345E+01
DAV:  16    -0.474825283447E+03    0.20914E+01   -0.58395E+00  1736   0.117E+01    0.293E+01
DAV:  17    -0.473507529240E+03    0.13178E+01   -0.14407E+00  1720   0.602E+00    0.264E+01
DAV:  18    -0.472254320838E+03    0.12532E+01   -0.14680E+00  1744   0.757E+00    0.242E+01
DAV:  19    -0.470904371947E+03    0.13499E+01   -0.13015E+00  1776   0.636E+00    0.199E+01
DAV:  20    -0.469914961073E+03    0.98941E+00   -0.81049E-01  1760   0.552E+00    0.167E+01
DAV:  21    -0.468957919796E+03    0.95704E+00   -0.76269E-01  1760   0.525E+00    0.127E+01
DAV:  22    -0.468571011787E+03    0.38691E+00   -0.41982E-01  1728   0.319E+00    0.106E+01
DAV:  23    -0.468220898523E+03    0.35011E+00   -0.29737E-01  1656   0.320E+00    0.868E+00
DAV:  24    -0.467957234826E+03    0.26366E+00   -0.28583E-01  1744   0.311E+00    0.624E+00
DAV:  25    -0.467847023453E+03    0.11021E+00   -0.13495E-01  1648   0.166E+00    0.469E+00
DAV:  26    -0.467856959771E+03   -0.99363E-02   -0.12617E-01  1640   0.201E+00    0.493E+00
DAV:  27    -0.467822009164E+03    0.34951E-01   -0.19853E-01  1688   0.249E+00    0.425E+00
DAV:  28    -0.467777465857E+03    0.44543E-01   -0.20388E-01  1720   0.290E+00    0.319E+00
DAV:  29    -0.467728342944E+03    0.49123E-01   -0.11194E-01  1720   0.206E+00    0.129E+00
DAV:  30    -0.467726998730E+03    0.13442E-02   -0.34534E-02  1688   0.854E-01    0.111E+00
DAV:  31    -0.467723345857E+03    0.36529E-02   -0.13673E-02  1408   0.678E-01    0.683E-01
DAV:  32    -0.467723521684E+03   -0.17583E-03   -0.68078E-03  1712   0.488E-01    0.692E-01
DAV:  33    -0.467722082860E+03    0.14388E-02   -0.59014E-03  1560   0.548E-01    0.402E-01
DAV:  34    -0.467722874931E+03   -0.79207E-03   -0.34852E-03  1704   0.364E-01    0.449E-01
DAV:  35    -0.467722235964E+03    0.63897E-03   -0.17721E-03  1424   0.283E-01    0.213E-01
DAV:  36    -0.467722545849E+03   -0.30989E-03   -0.62936E-04  1304   0.142E-01    0.197E-01
DAV:  37    -0.467722742771E+03   -0.19692E-03   -0.41759E-04  1048   0.123E-01    0.105E-01
DAV:  38    -0.467722995758E+03   -0.25299E-03   -0.15221E-04   784   0.774E-02    0.100E-01
DAV:  39    -0.467723407727E+03   -0.41197E-03   -0.13540E-04   824   0.700E-02    0.666E-02
DAV:  40    -0.467723842162E+03   -0.43443E-03   -0.10983E-04   808   0.639E-02    0.821E-02
DAV:  41    -0.467724128654E+03   -0.28649E-03   -0.89484E-05   800   0.528E-02    0.509E-02
DAV:  42    -0.467724396544E+03   -0.26789E-03   -0.53266E-05   800   0.355E-02    0.557E-02
DAV:  43    -0.467724716440E+03   -0.31990E-03   -0.52783E-05   784   0.371E-02    0.496E-02
DAV:  44    -0.467725084914E+03   -0.36847E-03   -0.45213E-05   832   0.311E-02    0.390E-02
DAV:  45    -0.467725270484E+03   -0.18557E-03   -0.34450E-05   784   0.277E-02    0.226E-02
DAV:  46    -0.467725566323E+03   -0.29584E-03   -0.31937E-05   800   0.156E-02    0.248E-02
DAV:  47    -0.467725704063E+03   -0.13774E-03   -0.23671E-05   784   0.210E-02    0.186E-02
DAV:  48    -0.467725917236E+03   -0.21317E-03   -0.17420E-05   800   0.133E-02    0.177E-02
DAV:  49    -0.467725963776E+03   -0.46540E-04   -0.11062E-05   784   0.120E-02
   1 F= -.46772596E+03 E0= -.46705800E+03  d E =-.133593E+01
