 vasp.6.1.0 28Jan20 (build Mar 31 2020 17:42:31) gamma-only                     
  
 executed on             LinuxIFC date 2020.04.13  02:20:10
 running on   48 total cores
 distrk:  each k-point on   48 cores,    1 groups
 distr:  one band on NCORE=   6 cores,    8 groups


--------------------------------------------------------------------------------------------------------


 INCAR:
 POTCAR:    PAW_PBE Ni_pv 06Sep2000               
 POTCAR:    PAW_PBE S 06Sep2000                   
 POTCAR:    PAW_PBE Ni_pv 06Sep2000               
   VRHFIN =Ni:                                                                                      
   LEXCH  = PE                                                                                      
   EATOM  =  3501.1230 eV,  257.3253 Ry                                                             
                                                                                                    
   TITEL  = PAW_PBE Ni_pv 06Sep2000                                                                 
   LULTRA =        F    use ultrasoft PP ?                                                          
   IUNSCR =        1    unscreen: 0-lin 1-nonlin 2-no                                               
   RPACOR =    1.500    partial core radius                                                         
   POMASS =   58.690; ZVAL   =   16.000    mass and valenz                                          
   RCORE  =    2.000    outmost cutoff radius                                                       
   RWIGS  =    2.000; RWIGS  =    1.058    wigner-seitz radius (au A)                               
   ENMAX  =  367.986; ENMIN  =  275.989 eV                                                          
   RCLOC  =    1.301    cutoff for local pot                                                        
   LCOR   =        T    correct aug charges                                                         
   LPAW   =        T    paw PP                                                                      
   EAUG   =  703.443                                                                                
   DEXC   =    0.000                                                                                
   RMAX   =    2.041    core radius for proj-oper                                                   
   RAUG   =    1.300    factor for augmentation sphere                                              
   RDEP   =    2.103    radius for radial grids                                                     
   RDEPT  =    1.618    core radius for aug-charge                                                  
                                                                                                    
   Atomic configuration                                                                             
    8 entries                                                                                       
     n  l   j            E        occ.                                                              
     1  0  0.50     -8206.4253   2.0000                                                             
     2  0  0.50      -976.1748   2.0000                                                             
     2  1  1.50      -839.0571   6.0000                                                             
     3  0  0.50      -105.9991   2.0000                                                             
     3  1  1.50       -66.4603   6.0000                                                             
     3  2  2.50        -4.6458   9.0000                                                             
     4  0  0.50        -4.4926   1.0000                                                             
     4  3  2.50        -1.3606   0.0000                                                             
   Description                                                                                      
     l       E           TYP  RCUT    TYP  RCUT                                                     
     1    -66.4602962     23  1.700                                                                 
     1     -1.3605826     23  1.700                                                                 
     2     -4.6457867     23  2.000                                                                 
     2     -6.0063693     23  2.000                                                                 
     0     -4.4925576     23  1.900                                                                 
     0     16.3626226     23  1.900                                                                 
  local pseudopotential read in
  partial core-charges read in
  partial kinetic energy density read in
  atomic valenz-charges read in
  non local Contribution for L=           1  read in
    real space projection operators read in
  non local Contribution for L=           1  read in
    real space projection operators read in
  non local Contribution for L=           2  read in
    real space projection operators read in
  non local Contribution for L=           2  read in
    real space projection operators read in
  non local Contribution for L=           0  read in
    real space projection operators read in
  non local Contribution for L=           0  read in
    real space projection operators read in
    PAW grid and wavefunctions read in
 
   number of l-projection  operators is LMAX  =           6
   number of lm-projection operators is LMMAX =          18
 
 POTCAR:    PAW_PBE S 06Sep2000                   
   VRHFIN =S : s2p4                                                                                 
   LEXCH  = PE                                                                                      
   EATOM  =   276.8230 eV,   20.3459 Ry                                                             
                                                                                                    
   TITEL  = PAW_PBE S 06Sep2000                                                                     
   LULTRA =        F    use ultrasoft PP ?                                                          
   IUNSCR =        1    unscreen: 0-lin 1-nonlin 2-no                                               
   RPACOR =    1.500    partial core radius                                                         
   POMASS =   32.066; ZVAL   =    6.000    mass and valenz                                          
   RCORE  =    1.900    outmost cutoff radius                                                       
   RWIGS  =    2.200; RWIGS  =    1.164    wigner-seitz radius (au A)                               
   ENMAX  =  258.689; ENMIN  =  194.016 eV                                                          
   ICORE  =        2    local potential                                                             
   LCOR   =        T    correct aug charges                                                         
   LPAW   =        T    paw PP                                                                      
   EAUG   =  335.092                                                                                
   DEXC   =    0.000                                                                                
   RMAX   =    1.942    core radius for proj-oper                                                   
   RAUG   =    1.300    factor for augmentation sphere                                              
   RDEP   =    1.954    radius for radial grids                                                     
   RDEPT  =    1.744    core radius for aug-charge                                                  
                                                                                                    
   Atomic configuration                                                                             
    6 entries                                                                                       
     n  l   j            E        occ.                                                              
     1  0  0.50     -2405.8406   2.0000                                                             
     2  0  0.50      -211.7007   2.0000                                                             
     2  1  1.50      -156.4958   6.0000                                                             
     3  0  0.50       -17.2562   2.0000                                                             
     3  1  0.50        -7.0085   4.0000                                                             
     3  2  1.50        -6.8029   0.0000                                                             
   Description                                                                                      
     l       E           TYP  RCUT    TYP  RCUT                                                     
     0    -17.2561641     23  1.900                                                                 
     0    -15.8743224     23  1.900                                                                 
     1     -7.0085400     23  1.900                                                                 
     1     -2.7779785     23  1.900                                                                 
     2     -6.8029130     23  1.900                                                                 
  local pseudopotential read in
  partial core-charges read in
  partial kinetic energy density read in
  atomic valenz-charges read in
  non local Contribution for L=           0  read in
    real space projection operators read in
  non local Contribution for L=           0  read in
    real space projection operators read in
  non local Contribution for L=           1  read in
    real space projection operators read in
  non local Contribution for L=           1  read in
    real space projection operators read in
    PAW grid and wavefunctions read in
 
   number of l-projection  operators is LMAX  =           4
   number of lm-projection operators is LMMAX =           8
 
 Optimization of the real space projectors (new method)

 maximal supplied QI-value         = 18.90
 optimisation between [QCUT,QGAM] = [ 10.77, 21.73] = [ 32.49,132.25] Ry 
 Optimized for a Real-space Cutoff    1.38 Angstroem

   l    n(q)    QCUT    max X(q) W(low)/X(q) W(high)/X(q)  e(spline) 
   1      8    10.771     2.836    0.40E-04    0.29E-04    0.12E-06
   1      8    10.771     4.023    0.10E-03    0.48E-04    0.29E-06
   2      8    10.771    73.368    0.42E-03    0.97E-04    0.44E-06
   2      8    10.771    69.010    0.42E-03    0.99E-04    0.45E-06
   0      9    10.771    54.797    0.10E-03    0.56E-04    0.74E-07
   0      9    10.771    24.266    0.89E-04    0.49E-04    0.67E-07
 Optimization of the real space projectors (new method)

 maximal supplied QI-value         = 19.84
 optimisation between [QCUT,QGAM] = [ 10.71, 21.63] = [ 32.15,130.99] Ry 
 Optimized for a Real-space Cutoff    1.19 Angstroem

   l    n(q)    QCUT    max X(q) W(low)/X(q) W(high)/X(q)  e(spline) 
   0      8    10.715   187.594    0.41E-03    0.53E-04    0.66E-07
   0      8    10.715   164.243    0.41E-03    0.53E-04    0.65E-07
   1      7    10.715    67.533    0.19E-03    0.59E-03    0.68E-07
   1      7    10.715    50.729    0.19E-03    0.58E-03    0.67E-07
  PAW_PBE Ni_pv 06Sep2000               :
 energy of atom  1       EATOM=-3501.1230
 kinetic energy error for atom=    0.0925 (will be added to EATOM!!)
  PAW_PBE S 06Sep2000                   :
 energy of atom  2       EATOM= -276.8230
 kinetic energy error for atom=    0.0033 (will be added to EATOM!!)
 
 
 POSCAR: Structure 8 made from 012-1.xsd file
  positions in direct lattice
  No initial velocities read in
 exchange correlation table for  LEXCH =        8
   RHO(1)=    0.500       N(1)  =     2000
   RHO(2)=  100.500       N(2)  =     4000
 


--------------------------------------------------------------------------------------------------------


 ion  position               nearest neighbor table
   1  0.081  0.431  0.013-  51 2.25  41 2.36  53 2.36  11 2.53
   2  0.081  0.379  0.187-  34 2.25  41 2.26  53 2.26  36 2.36  42 2.36   6 2.53  12 2.53
   3  0.081  0.327  0.362-  35 2.25  42 2.26  36 2.26  43 2.36   7 2.53  13 2.53
   4  0.581  0.155  0.100-  31 2.25  38 2.26  39 2.36  58 2.36  14 2.53  23 2.53
   5  0.581  0.103  0.274-  32 2.25  39 2.26  58 2.26  40 2.36  59 2.36  15 2.53  24 2.53
   6  0.213  0.188  0.164-  37 2.25  41 2.26  31 2.26  42 2.36  32 2.36  12 2.53   2 2.53
   7  0.213  0.136  0.339-  52 2.25  42 2.26  32 2.26  43 2.36  33 2.36  13 2.53   3 2.53
   8  0.713  0.464  0.077-  38 2.25  60 2.26  51 2.26  44 2.36  34 2.36  29 2.53  19 2.53
   9  0.713  0.412  0.251-  39 2.25  44 2.26  34 2.26  45 2.36  35 2.36  30 2.53  20 2.53
  10  0.713  0.360  0.426-  40 2.25  45 2.26  35 2.26
  11  0.345  0.431  0.013-  60 2.25  31 2.36  53 2.36   1 2.53
  12  0.345  0.379  0.187-  44 2.25  31 2.26  53 2.26  36 2.36  32 2.36   6 2.53   2 2.53
  13  0.345  0.327  0.362-  45 2.25  32 2.26  36 2.26  33 2.36   7 2.53   3 2.53
  14  0.845  0.155  0.100-  41 2.25  38 2.26  39 2.36  49 2.36   4 2.53  23 2.53
  15  0.845  0.103  0.274-  42 2.25  39 2.26  49 2.26  40 2.36  50 2.36   5 2.53  24 2.53
  16  0.081  0.931  0.013-  37 2.36  26 2.53
  17  0.081  0.879  0.187-  49 2.25  37 2.26  52 2.36  56 2.36  21 2.53  27 2.53
  18  0.081  0.827  0.362-  50 2.25  56 2.26  52 2.26  57 2.36  22 2.53  28 2.53
  19  0.581  0.655  0.100-  46 2.25  54 2.26  60 2.26  55 2.36  44 2.36  29 2.53   8 2.53
  20  0.581  0.603  0.274-  47 2.25  55 2.26  44 2.26  45 2.36  30 2.53   9 2.53
  21  0.213  0.688  0.164-  53 2.25  46 2.26  56 2.36  47 2.36  17 2.53  27 2.53
  22  0.213  0.636  0.339-  36 2.25  56 2.26  47 2.26  57 2.36  48 2.36  28 2.53  18 2.53
  23  0.713  0.964  0.077-  54 2.25  58 2.36  49 2.36  14 2.53   4 2.53
  24  0.713  0.912  0.251-  55 2.25  58 2.26  49 2.26  59 2.36  50 2.36  15 2.53   5 2.53
  25  0.713  0.860  0.426-  59 2.26  50 2.26
  26  0.345  0.931  0.013-  46 2.36  37 2.36  16 2.53
  27  0.345  0.879  0.187-  58 2.25  46 2.26  37 2.26  52 2.36  47 2.36  21 2.53  17 2.53
  28  0.345  0.827  0.362-  59 2.25  47 2.26  52 2.26  48 2.36  22 2.53  18 2.53
  29  0.845  0.655  0.100-  54 2.26  51 2.26  55 2.36  34 2.36  19 2.53   8 2.53
  30  0.845  0.603  0.274-  56 2.25  55 2.26  34 2.26  35 2.36  20 2.53   9 2.53
  31  0.381  0.259  0.087-   4 2.25   6 2.26  12 2.26  11 2.36
  32  0.381  0.207  0.261-   5 2.25   7 2.26  13 2.26  12 2.36   6 2.36
  33  0.381  0.155  0.435-   7 2.36  13 2.36
  34  0.881  0.483  0.174-   2 2.25   9 2.26  30 2.26   8 2.36  29 2.36
  35  0.881  0.431  0.348-   3 2.25  10 2.26   9 2.36  30 2.36
  36  0.213  0.451  0.291-  22 2.25  13 2.26   3 2.26   2 2.36  12 2.36
  37  0.213  0.003  0.116-   6 2.25  17 2.26  27 2.26  26 2.36  16 2.36
  38  0.713  0.279  0.029-   8 2.25   4 2.26  14 2.26
  39  0.713  0.227  0.203-   9 2.25   5 2.26  15 2.26  14 2.36   4 2.36
  40  0.713  0.175  0.378-  10 2.25   5 2.36  15 2.36
  41  0.045  0.259  0.087-  14 2.25   6 2.26   2 2.26   1 2.36
  42  0.045  0.207  0.261-  15 2.25   7 2.26   3 2.26   2 2.36   6 2.36
  43  0.045  0.155  0.435-   7 2.36   3 2.36
  44  0.545  0.483  0.174-  12 2.25   9 2.26  20 2.26   8 2.36  19 2.36
  45  0.545  0.431  0.348-  13 2.25  10 2.26   9 2.36  20 2.36
  46  0.381  0.759  0.087-  19 2.25  21 2.26  27 2.26  26 2.36
  47  0.381  0.707  0.261-  20 2.25  22 2.26  28 2.26  27 2.36  21 2.36
  48  0.381  0.655  0.435-  22 2.36  28 2.36
  49  0.881  0.983  0.174-  17 2.25  24 2.26  15 2.26  23 2.36  14 2.36
  50  0.881  0.931  0.348-  18 2.25  25 2.26  24 2.36  15 2.36
  51  0.881  0.535  0.000-   1 2.25  29 2.26   8 2.26
  52  0.213  0.951  0.291-   7 2.25  18 2.26  28 2.26  27 2.36  17 2.36
  53  0.213  0.503  0.116-  21 2.25  12 2.26   2 2.26   1 2.36  11 2.36
  54  0.713  0.779  0.029-  23 2.25  19 2.26  29 2.26
  55  0.713  0.727  0.203-  24 2.25  20 2.26  30 2.26  29 2.36  19 2.36
  56  0.045  0.707  0.261-  30 2.25  22 2.26  18 2.26  17 2.36  21 2.36
  57  0.045  0.655  0.435-  22 2.36  18 2.36
  58  0.545  0.983  0.174-  27 2.25  24 2.26   5 2.26  23 2.36   4 2.36
  59  0.545  0.931  0.348-  28 2.25  25 2.26  24 2.36   5 2.36
  60  0.545  0.535  0.000-  11 2.25  19 2.26   8 2.26
 
  LATTYP: Found a simple orthorhombic cell.
 ALAT       =     9.5784100000
 B/A-ratio  =     1.1751911892
 C/A-ratio  =     1.8490917490
  
  Lattice vectors:
  
 A1 = (   9.5784100000,   0.0000000000,   0.0000000000)
 A2 = (   0.0000000000,  11.2564630382,   0.0000000000)
 A3 = (   0.0000000000,   0.0000000000,  17.7113588997)


Analysis of symmetry for initial positions (statically):
=====================================================================
 Subroutine PRICEL returns:
 Original cell was already a primitive cell.
 

 Routine SETGRP: Setting up the symmetry group for a 
 simple orthorhombic supercell.


 Subroutine GETGRP returns: Found  1 space group operations
 (whereof  1 operations were pure point group operations)
 out of a pool of  8 trial point group operations.


The static configuration has the point symmetry C_1 .


Analysis of symmetry for dynamics (positions and initial velocities):
=====================================================================
 Subroutine PRICEL returns:
 Original cell was already a primitive cell.
 

 Routine SETGRP: Setting up the symmetry group for a 
 simple orthorhombic supercell.


 Subroutine GETGRP returns: Found  1 space group operations
 (whereof  1 operations were pure point group operations)
 out of a pool of  8 trial point group operations.


The dynamic configuration has the point symmetry C_1 .


 Subroutine INISYM returns: Found  1 space group operations
 (whereof  1 operations are pure point group operations),
 and found     1 'primitive' translations


----------------------------------------------------------------------------------------

                                     Primitive cell                                     

  volume of cell :    1909.6213

  direct lattice vectors                    reciprocal lattice vectors
     9.578410000  0.000000000  0.000000000     0.104401461  0.000000000  0.000000000
     0.000000000 11.256463038  0.000000000     0.000000000  0.088837852  0.000000000
     0.000000000  0.000000000 17.711358900     0.000000000  0.000000000  0.056460942

  length of vectors
     9.578410000 11.256463038 17.711358900     0.104401461  0.088837852  0.056460942

  position of ions in fractional coordinates (direct lattice)
     0.080767181  0.431197051  0.013202900
     0.080767181  0.379345117  0.187359134
     0.080767181  0.327493183  0.361515368
     0.580767181  0.155271092  0.100281017
     0.580767181  0.103419157  0.274437251
     0.212870181  0.188040419  0.164352573
     0.212870181  0.136188485  0.338508807
     0.712870181  0.463966379  0.077274456
     0.712870181  0.412114444  0.251430690
     0.712870181  0.360262510  0.425586924
     0.344973181  0.431197051  0.013202900
     0.344973181  0.379345117  0.187359134
     0.344973181  0.327493183  0.361515368
     0.844973181  0.155271092  0.100281017
     0.844973181  0.103419157  0.274437251
     0.080767181  0.931197051  0.013202900
     0.080767181  0.879345117  0.187359134
     0.080767181  0.827493183  0.361515368
     0.580767181  0.655271092  0.100281017
     0.580767181  0.603419157  0.274437251
     0.212870181  0.688040419  0.164352573
     0.212870181  0.636188485  0.338508807
     0.712870181  0.963966379  0.077274456
     0.712870181  0.912114444  0.251430690
     0.712870181  0.860262510  0.425586924
     0.344973181  0.931197051  0.013202900
     0.344973181  0.879345117  0.187359134
     0.344973181  0.827493183  0.361515368
     0.844973181  0.655271092  0.100281017
     0.844973181  0.603419157  0.274437251
     0.381085181  0.259043018  0.087078117
     0.381085181  0.207191084  0.261234351
     0.381085181  0.155339150  0.435390584
     0.881085181  0.483117044  0.174156234
     0.881085181  0.431265110  0.348312467
     0.212870181  0.450791303  0.290530041
     0.212870181  0.002643253  0.116373808
     0.712870181  0.278569212  0.029295691
     0.712870181  0.226717278  0.203451925
     0.712870181  0.174865344  0.377608158
     0.044655181  0.259043018  0.087078117
     0.044655181  0.207191084  0.261234351
     0.044655181  0.155339150  0.435390584
     0.544655181  0.483117044  0.174156234
     0.544655181  0.431265110  0.348312467
     0.381085181  0.759043018  0.087078117
     0.381085181  0.707191084  0.261234351
     0.381085181  0.655339150  0.435390584
     0.881085181  0.983117044  0.174156234
     0.881085181  0.931265110  0.348312467
     0.881085181  0.534968993  0.000000000
     0.212870181  0.950791303  0.290530041
     0.212870181  0.502643253  0.116373808
     0.712870181  0.778569212  0.029295691
     0.712870181  0.726717278  0.203451925
     0.044655181  0.707191084  0.261234351
     0.044655181  0.655339150  0.435390584
     0.544655181  0.983117044  0.174156234
     0.544655181  0.931265110  0.348312467
     0.544655181  0.534968993  0.000000000

  ion indices of the primitive-cell ions
   primitive index   ion index
                 1           1
                 2           2
                 3           3
                 4           4
                 5           5
                 6           6
                 7           7
                 8           8
                 9           9
                10          10
                11          11
                12          12
                13          13
                14          14
                15          15
                16          16
                17          17
                18          18
                19          19
                20          20
                21          21
                22          22
                23          23
                24          24
                25          25
                26          26
                27          27
                28          28
                29          29
                30          30
                31          31
                32          32
                33          33
                34          34
                35          35
                36          36
                37          37
                38          38
                39          39
                40          40
                41          41
                42          42
                43          43
                44          44
                45          45
                46          46
                47          47
                48          48
                49          49
                50          50
                51          51
                52          52
                53          53
                54          54
                55          55
                56          56
                57          57
                58          58
                59          59
                60          60

----------------------------------------------------------------------------------------

 
 
 KPOINTS: gamma-point-only calculation. no periodi

Automatic generation of k-mesh.
Space group operators:
 irot       det(A)        alpha          n_x          n_y          n_z        tau_x        tau_y        tau_z
    1     1.000000     0.000000     1.000000     0.000000     0.000000     0.000000     0.000000     0.000000
 
 Subroutine IBZKPT returns following result:
 ===========================================
 
 Found      1 irreducible k-points:
 
 Following reciprocal coordinates:
            Coordinates               Weight
  0.000000  0.000000  0.000000      1.000000
 
 Following cartesian coordinates:
            Coordinates               Weight
  0.000000  0.000000  0.000000      1.000000
 


--------------------------------------------------------------------------------------------------------




 Dimension of arrays:
   k-points           NKPTS =      1   k-points in BZ     NKDIM =      1   number of bands    NBANDS=    400
   number of dos      NEDOS =    301   number of ions     NIONS =     60
   non local maximal  LDIM  =      6   non local SUM 2l+1 LMDIM =     18
   total plane-waves  NPLWV = 288000
   max r-space proj   IRMAX =   1713   max aug-charges    IRDMAX=   4950
   dimension x,y,z NGX =    50 NGY =   60 NGZ =   96
   dimension x,y,z NGXF=   100 NGYF=  120 NGZF=  192
   support grid    NGXF=   100 NGYF=  120 NGZF=  192
   ions per type =              30  30
   NGX,Y,Z   is equivalent  to a cutoff of   8.68,  8.86,  9.01 a.u.
   NGXF,Y,Z  is equivalent  to a cutoff of  17.36, 17.72, 18.02 a.u.

 SYSTEM =  "Millerite NiS"                         
 POSCAR =  Structure 8 made from 012-1.xsd file    

 Startparameter for this run:
   NWRITE =      2    write-flag & timer
   PREC   = normal    normal or accurate (medium, high low for compatibility)
   ISTART =      0    job   : 0-new  1-cont  2-samecut
   ICHARG =      2    charge: 1-file 2-atom 10-const
   ISPIN  =      1    spin polarized calculation?
   LNONCOLLINEAR =      F non collinear calculations
   LSORBIT =      F    spin-orbit coupling
   INIWAV =      1    electr: 0-lowe 1-rand  2-diag
   LASPH  =      F    aspherical Exc in radial PAW
   METAGGA=      F    non-selfconsistent MetaGGA calc.

 Electronic Relaxation 1
   ENCUT  =  450.0 eV  33.07 Ry    5.75 a.u.  16.57 19.47 30.63*2*pi/ulx,y,z
   ENINI  =  450.0     initial cutoff
   ENAUG  =  703.4 eV  augmentation charge cutoff
   NELM   =    100;   NELMIN=  2; NELMDL= -5     # of ELM steps 
   EDIFF  = 0.1E-03   stopping-criterion for ELM
   LREAL  =      T    real-space projection
   NLSPLINE    = F    spline interpolate recip. space projectors
   LCOMPAT=      F    compatible to vasp.4.4
   GGA_COMPAT  = T    GGA compatible to vasp.4.4-vasp.4.6
   LMAXPAW     = -100 max onsite density
   LMAXMIX     =    2 max onsite mixed and CHGCAR
   VOSKOWN=      0    Vosko Wilk Nusair interpolation
   ROPT   =   -0.00050  -0.00050
 Ionic relaxation
   EDIFFG = 0.1E-02   stopping-criterion for IOM
   NSW    =      0    number of steps for IOM
   NBLOCK =      1;   KBLOCK =      1    inner block; outer block 
   IBRION =     -1    ionic relax: 0-MD 1-quasi-New 2-CG
   NFREE  =      0    steps in history (QN), initial steepest desc. (CG)
   ISIF   =      2    stress and relaxation
   IWAVPR =     10    prediction:  0-non 1-charg 2-wave 3-comb
   ISYM   =      2    0-nonsym 1-usesym 2-fastsym
   LCORR  =      T    Harris-Foulkes like correction to forces

   POTIM  = 0.5000    time-step for ionic-motion
   TEIN   =    0.0    initial temperature
   TEBEG  =    0.0;   TEEND  =   0.0 temperature during run
   SMASS  =  -3.00    Nose mass-parameter (am)
   estimated Nose-frequenzy (Omega)   =  0.10E-29 period in steps = 0.13E+47 mass=  -0.210E-26a.u.
   SCALEE = 1.0000    scale energy and forces
   NPACO  =    256;   APACO  = 16.0  distance and # of slots for P.C.
   PSTRESS=    0.0 pullay stress

  Mass of Ions in am
   POMASS =  58.69 32.07
  Ionic Valenz
   ZVAL   =  16.00  6.00
  Atomic Wigner-Seitz radii
   RWIGS  =  -1.00 -1.00
  virtual crystal weights 
   VCA    =   1.00  1.00
   NELECT =     660.0000    total number of electrons
   NUPDOWN=      -1.0000    fix difference up-down

 DOS related values:
   EMIN   =  10.00;   EMAX   =-10.00  energy-range for DOS
   EFERMI =   0.00
   ISMEAR =     0;   SIGMA  =   0.20  broadening in eV -4-tet -1-fermi 0-gaus

 Electronic relaxation 2 (details)
   IALGO  =     38    algorithm
   LDIAG  =      T    sub-space diagonalisation (order eigenvalues)
   LSUBROT=      F    optimize rotation matrix (better conditioning)
   TURBO    =      0    0=normal 1=particle mesh
   IRESTART =      0    0=no restart 2=restart with 2 vectors
   NREBOOT  =      0    no. of reboots
   NMIN     =      0    reboot dimension
   EREF     =   0.00    reference energy to select bands
   IMIX   =      4    mixing-type and parameters
     AMIX     =   0.40;   BMIX     =  1.00
     AMIX_MAG =   1.60;   BMIX_MAG =  1.00
     AMIN     =   0.10
     WC   =   100.;   INIMIX=   1;  MIXPRE=   1;  MAXMIX= -45

 Intra band minimization:
   WEIMIN = 0.0000     energy-eigenvalue tresh-hold
   EBREAK =  0.62E-07  absolut break condition
   DEPER  =   0.30     relativ break condition  

   TIME   =   0.40     timestep for ELM

  volume/ion in A,a.u.               =      31.83       214.78
  Fermi-wavevector in a.u.,A,eV,Ry     =   1.148877  2.171064 17.958595  1.319920
  Thomas-Fermi vector in A             =   2.285550
 
 Write flags
   LWAVE        =      F    write WAVECAR
   LDOWNSAMPLE  =      F    k-point downsampling of WAVECAR
   LCHARG       =      F    write CHGCAR
   LVTOT        =      F    write LOCPOT, total local potential
   LVHAR        =      F    write LOCPOT, Hartree potential only
   LELF         =      F    write electronic localiz. function (ELF)
   LORBIT       =      0    0 simple, 1 ext, 2 COOP (PROOUT), +10 PAW based schemes


 Dipole corrections
   LMONO  =      F    monopole corrections only (constant potential shift)
   LDIPOL =      F    correct potential (dipole corrections)
   IDIPOL =      0    1-x, 2-y, 3-z, 4-all directions 
   EPSILON=  1.0000000 bulk dielectric constant

 Exchange correlation treatment:
   GGA     =    --    GGA type
   LEXCH   =     8    internal setting for exchange type
   VOSKOWN=      0    Vosko Wilk Nusair interpolation
   LHFCALC =     F    Hartree Fock is set to
   LHFONE  =     F    Hartree Fock one center treatment
   AEXX    =    0.0000 exact exchange contribution

 Linear response parameters
   LEPSILON=     F    determine dielectric tensor
   LRPA    =     F    only Hartree local field effects (RPA)
   LNABLA  =     F    use nabla operator in PAW spheres
   LVEL    =     F    velocity operator in full k-point grid
   LINTERFAST=   F  fast interpolation
   KINTER  =     0    interpolate to denser k-point grid
   CSHIFT  =0.1000    complex shift for real part using Kramers Kronig
   OMEGAMAX=  -1.0    maximum frequency
   DEG_THRESHOLD= 0.2000000E-02 threshold for treating states as degnerate
   RTIME   =   -0.100 relaxation time in fs
  (WPLASMAI=    0.000 imaginary part of plasma frequency in eV, 0.658/RTIME)
   DFIELD  = 0.0000000 0.0000000 0.0000000 field for delta impulse in time
 
 Orbital magnetization related:
   ORBITALMAG=     F  switch on orbital magnetization
   LCHIMAG   =     F  perturbation theory with respect to B field
   DQ        =  0.001000  dq finite difference perturbation B field
   LLRAUG    =     F  two centre corrections for induced B field



--------------------------------------------------------------------------------------------------------


 Static calculation
 charge density and potential will be updated during run
 non-spin polarized calculation
 Variant of blocked Davidson
 Davidson routine will perform the subspace rotation
 perform sub-space diagonalisation
    after iterative eigenvector-optimisation
 modified Broyden-mixing scheme, WC =      100.0
 initial mixing is a Kerker type mixing with AMIX =  0.4000 and BMIX =      1.0000
 Hartree-type preconditioning will be used
 using additional bands           70
 real space projection scheme for non local part
 use partial core corrections
 calculate Harris-corrections to forces 
   (improved forces if not selfconsistent)
 use gradient corrections 
 use of overlap-Matrix (Vanderbilt PP)
 Gauss-broadening in eV      SIGMA  =   0.20


--------------------------------------------------------------------------------------------------------


  energy-cutoff  :      450.00
  volume of cell :     1909.62
      direct lattice vectors                 reciprocal lattice vectors
     9.578410000  0.000000000  0.000000000     0.104401461  0.000000000  0.000000000
     0.000000000 11.256463038  0.000000000     0.000000000  0.088837852  0.000000000
     0.000000000  0.000000000 17.711358900     0.000000000  0.000000000  0.056460942

  length of vectors
     9.578410000 11.256463038 17.711358900     0.104401461  0.088837852  0.056460942


 
 k-points in units of 2pi/SCALE and weight: gamma-point-only calculation. no periodi
   0.00000000  0.00000000  0.00000000       1.000
 
 k-points in reciprocal lattice and weights: gamma-point-only calculation. no periodi
   0.00000000  0.00000000  0.00000000       1.000
 
 position of ions in fractional coordinates (direct lattice) 
   0.08076718  0.43119705  0.01320290
   0.08076718  0.37934512  0.18735913
   0.08076718  0.32749318  0.36151537
   0.58076718  0.15527109  0.10028102
   0.58076718  0.10341916  0.27443725
   0.21287018  0.18804042  0.16435257
   0.21287018  0.13618848  0.33850881
   0.71287018  0.46396638  0.07727446
   0.71287018  0.41211444  0.25143069
   0.71287018  0.36026251  0.42558692
   0.34497318  0.43119705  0.01320290
   0.34497318  0.37934512  0.18735913
   0.34497318  0.32749318  0.36151537
   0.84497318  0.15527109  0.10028102
   0.84497318  0.10341916  0.27443725
   0.08076718  0.93119705  0.01320290
   0.08076718  0.87934512  0.18735913
   0.08076718  0.82749318  0.36151537
   0.58076718  0.65527109  0.10028102
   0.58076718  0.60341916  0.27443725
   0.21287018  0.68804042  0.16435257
   0.21287018  0.63618848  0.33850881
   0.71287018  0.96396638  0.07727446
   0.71287018  0.91211444  0.25143069
   0.71287018  0.86026251  0.42558692
   0.34497318  0.93119705  0.01320290
   0.34497318  0.87934512  0.18735913
   0.34497318  0.82749318  0.36151537
   0.84497318  0.65527109  0.10028102
   0.84497318  0.60341916  0.27443725
   0.38108518  0.25904302  0.08707812
   0.38108518  0.20719108  0.26123435
   0.38108518  0.15533915  0.43539058
   0.88108518  0.48311704  0.17415623
   0.88108518  0.43126511  0.34831247
   0.21287018  0.45079130  0.29053004
   0.21287018  0.00264325  0.11637381
   0.71287018  0.27856921  0.02929569
   0.71287018  0.22671728  0.20345193
   0.71287018  0.17486534  0.37760816
   0.04465518  0.25904302  0.08707812
   0.04465518  0.20719108  0.26123435
   0.04465518  0.15533915  0.43539058
   0.54465518  0.48311704  0.17415623
   0.54465518  0.43126511  0.34831247
   0.38108518  0.75904302  0.08707812
   0.38108518  0.70719108  0.26123435
   0.38108518  0.65533915  0.43539058
   0.88108518  0.98311704  0.17415623
   0.88108518  0.93126511  0.34831247
   0.88108518  0.53496899  0.00000000
   0.21287018  0.95079130  0.29053004
   0.21287018  0.50264325  0.11637381
   0.71287018  0.77856921  0.02929569
   0.71287018  0.72671728  0.20345193
   0.04465518  0.70719108  0.26123435
   0.04465518  0.65533915  0.43539058
   0.54465518  0.98311704  0.17415623
   0.54465518  0.93126511  0.34831247
   0.54465518  0.53496899  0.00000000
 
 position of ions in cartesian coordinates  (Angst):
   0.77362117  4.85375367  0.23384130
   0.77362117  4.27008429  3.31838487
   0.77362117  3.68641491  6.40292843
   5.56282617  1.74780331  1.77611308
   5.56282617  1.16413392  4.86065665
   2.03895787  2.11667003  2.91090741
   2.03895787  1.53300065  5.99545097
   6.82816287  5.22262040  1.36863562
   6.82816287  4.63895101  4.45317919
   6.82816287  4.05528163  7.53772275
   3.30429457  4.85375367  0.23384130
   3.30429457  4.27008429  3.31838487
   3.30429457  3.68641491  6.40292843
   8.09349957  1.74780331  1.77611308
   8.09349957  1.16413392  4.86065665
   0.77362117 10.48198519  0.23384130
   0.77362117  9.89831581  3.31838487
   0.77362117  9.31464643  6.40292843
   5.56282617  7.37603483  1.77611308
   5.56282617  6.79236544  4.86065665
   2.03895787  7.74490155  2.91090741
   2.03895787  7.16123217  5.99545097
   6.82816287 10.85085192  1.36863562
   6.82816287 10.26718253  4.45317919
   6.82816287  9.68351315  7.53772275
   3.30429457 10.48198519  0.23384130
   3.30429457  9.89831581  3.31838487
   3.30429457  9.31464643  6.40292843
   8.09349957  7.37603483  1.77611308
   8.09349957  6.79236544  4.86065665
   3.65019011  2.91590816  1.54227178
   3.65019011  2.33223878  4.62681535
   3.65019011  1.74856940  7.71135889
   8.43939511  5.43818915  3.08454356
   8.43939511  4.85451977  6.16908711
   2.03895787  5.07431564  5.14568183
   2.03895787  0.02975368  2.06113828
   6.82816287  3.13570404  0.51886650
   6.82816287  2.55203466  3.60341006
   6.82816287  1.96836528  6.68795361
   0.42772563  2.91590816  1.54227178
   0.42772563  2.33223878  4.62681535
   0.42772563  1.74856940  7.71135889
   5.21693063  5.43818915  3.08454356
   5.21693063  4.85451977  6.16908711
   3.65019011  8.54413968  1.54227178
   3.65019011  7.96047030  4.62681535
   3.65019011  7.37680092  7.71135889
   8.43939511 11.06642067  3.08454356
   8.43939511 10.48275129  6.16908711
   8.43939511  6.02185870  0.00000000
   2.03895787 10.70254716  5.14568183
   2.03895787  5.65798520  2.06113828
   6.82816287  8.76393556  0.51886650
   6.82816287  8.18026618  3.60341006
   0.42772563  7.96047030  4.62681535
   0.42772563  7.37680092  7.71135889
   5.21693063 11.06642067  3.08454356
   5.21693063 10.48275129  6.16908711
   5.21693063  6.02185870  0.00000000
 


--------------------------------------------------------------------------------------------------------


 use parallel FFT for orbitals z direction half grid
 k-point   1 :   0.0000 0.0000 0.0000  plane waves:   20744

 maximum and minimum number of plane-waves per node :      3459     3454

 maximum number of plane-waves:     20744
 maximum index in each direction: 
   IXMAX=   16   IYMAX=   19   IZMAX=   30
   IXMIN=  -16   IYMIN=  -19   IZMIN=    0


 real space projection operators:
  total allocation   :       8751.16 KBytes
  max/ min on nodes  :       1558.12       1364.75


 parallel 3D FFT for wavefunctions:
    minimum data exchange during FFTs selected (reduces bandwidth)
 parallel 3D FFT for charge:
    minimum data exchange during FFTs selected (reduces bandwidth)


 total amount of memory used by VASP MPI-rank0    44047. kBytes
=======================================================================

   base      :      30000. kBytes
   nonlr-proj:       1858. kBytes
   fftplans  :       3306. kBytes
   grid      :       5981. kBytes
   one-center:         77. kBytes
   wavefun   :       2825. kBytes
 
     INWAV:  cpu time    0.0000: real time    0.0000
 Broyden mixing: mesh for mixing (old mesh)
   NGX = 33   NGY = 39   NGZ = 61
  (NGX  =100   NGY  =120   NGZ  =192)
  gives a total of  78507 points

 initial charge density was supplied:
 charge density of overlapping atoms calculated
 number of electron     660.0000000 magnetization 
 keeping initial charge density in first step


--------------------------------------------------------------------------------------------------------


 Maximum index for non-local projection operator          321
 Maximum index for augmentation-charges          380 (set IRDMAX)


--------------------------------------------------------------------------------------------------------


 First call to EWALD:  gamma=   0.143
 Maximum number of real-space cells 3x 3x 2
 Maximum number of reciprocal cells 2x 3x 4

    FEWALD:  cpu time    0.0027: real time    0.0027


--------------------------------------- Iteration      1(   1)  ---------------------------------------


    POTLOK:  cpu time    0.0407: real time    0.0412
    SETDIJ:  cpu time    0.0048: real time    0.0050
     EDDAV:  cpu time    1.4153: real time    1.4204
       DOS:  cpu time    0.0007: real time    0.0007
    --------------------------------------------
      LOOP:  cpu time    1.4616: real time    1.4673

 eigenvalue-minimisations  :   976
 total energy-change (2. order) : 0.7601551E+04  (-0.4207341E+05)
 number of electron     660.0000000 magnetization 
 augmentation part      660.0000000 magnetization 

 Free energy of the ion-electron system (eV)
  ---------------------------------------------------
  alpha Z        PSCENC =      1352.76224266
  Ewald energy   TEWEN  =    102131.55730710
  -Hartree energ DENC   =   -203481.27163714
  -exchange      EXHF   =         0.00000000
  -V(xc)+E(xc)   XCENC  =      3034.86817340
  PAW double counting   =     93941.27777846   -98034.59323946
  entropy T*S    EENTRO =        -0.35707192
  eigenvalues    EBANDS =     -4678.19685017
  atomic energy  EATOM  =    113335.50421147
  Solvation  Ediel_sol  =         0.00000000
  ---------------------------------------------------
  free energy    TOTEN  =      7601.55091439 eV

  energy without entropy =     7601.90798631  energy(sigma->0) =     7601.72945035


--------------------------------------------------------------------------------------------------------




--------------------------------------- Iteration      1(   2)  ---------------------------------------


     EDDAV:  cpu time    1.2344: real time    1.2382
       DOS:  cpu time    0.0006: real time    0.0006
    --------------------------------------------
      LOOP:  cpu time    1.2349: real time    1.2387

 eigenvalue-minimisations  :   848
 total energy-change (2. order) :-0.7156624E+04  (-0.6905417E+04)
 number of electron     660.0000000 magnetization 
 augmentation part      660.0000000 magnetization 

 Free energy of the ion-electron system (eV)
  ---------------------------------------------------
  alpha Z        PSCENC =      1352.76224266
  Ewald energy   TEWEN  =    102131.55730710
  -Hartree energ DENC   =   -203481.27163714
  -exchange      EXHF   =         0.00000000
  -V(xc)+E(xc)   XCENC  =      3034.86817340
  PAW double counting   =     93941.27777846   -98034.59323946
  entropy T*S    EENTRO =        -0.62864327
  eigenvalues    EBANDS =    -11834.54922068
  atomic energy  EATOM  =    113335.50421147
  Solvation  Ediel_sol  =         0.00000000
  ---------------------------------------------------
  free energy    TOTEN  =       444.92697254 eV

  energy without entropy =      445.55561581  energy(sigma->0) =      445.24129417


--------------------------------------------------------------------------------------------------------




--------------------------------------- Iteration      1(   3)  ---------------------------------------


     EDDAV:  cpu time    1.3620: real time    1.3675
       DOS:  cpu time    0.0005: real time    0.0005
    --------------------------------------------
      LOOP:  cpu time    1.3626: real time    1.3680

 eigenvalue-minimisations  :   928
 total energy-change (2. order) :-0.7303546E+03  (-0.6870182E+03)
 number of electron     660.0000000 magnetization 
 augmentation part      660.0000000 magnetization 

 Free energy of the ion-electron system (eV)
  ---------------------------------------------------
  alpha Z        PSCENC =      1352.76224266
  Ewald energy   TEWEN  =    102131.55730710
  -Hartree energ DENC   =   -203481.27163714
  -exchange      EXHF   =         0.00000000
  -V(xc)+E(xc)   XCENC  =      3034.86817340
  PAW double counting   =     93941.27777846   -98034.59323946
  entropy T*S    EENTRO =        -1.15740747
  eigenvalues    EBANDS =    -12564.37507225
  atomic energy  EATOM  =    113335.50421147
  Solvation  Ediel_sol  =         0.00000000
  ---------------------------------------------------
  free energy    TOTEN  =      -285.42764324 eV

  energy without entropy =     -284.27023577  energy(sigma->0) =     -284.84893951


--------------------------------------------------------------------------------------------------------




--------------------------------------- Iteration      1(   4)  ---------------------------------------


     EDDAV:  cpu time    1.3298: real time    1.3341
       DOS:  cpu time    0.0006: real time    0.0006
    --------------------------------------------
      LOOP:  cpu time    1.3304: real time    1.3347

 eigenvalue-minimisations  :   936
 total energy-change (2. order) :-0.4623448E+02  (-0.4566963E+02)
 number of electron     660.0000000 magnetization 
 augmentation part      660.0000000 magnetization 

 Free energy of the ion-electron system (eV)
  ---------------------------------------------------
  alpha Z        PSCENC =      1352.76224266
  Ewald energy   TEWEN  =    102131.55730710
  -Hartree energ DENC   =   -203481.27163714
  -exchange      EXHF   =         0.00000000
  -V(xc)+E(xc)   XCENC  =      3034.86817340
  PAW double counting   =     93941.27777846   -98034.59323946
  entropy T*S    EENTRO =        -1.18475610
  eigenvalues    EBANDS =    -12610.58220475
  atomic energy  EATOM  =    113335.50421147
  Solvation  Ediel_sol  =         0.00000000
  ---------------------------------------------------
  free energy    TOTEN  =      -331.66212437 eV

  energy without entropy =     -330.47736827  energy(sigma->0) =     -331.06974632


--------------------------------------------------------------------------------------------------------




--------------------------------------- Iteration      1(   5)  ---------------------------------------


     EDDAV:  cpu time    1.4183: real time    1.4218
       DOS:  cpu time    0.0006: real time    0.0006
    CHARGE:  cpu time    0.0303: real time    0.0304
    MIXING:  cpu time    0.0023: real time    0.0024
    --------------------------------------------
      LOOP:  cpu time    1.4514: real time    1.4553

 eigenvalue-minimisations  :  1016
 total energy-change (2. order) :-0.1599663E+01  (-0.1596670E+01)
 number of electron     659.9997688 magnetization 
 augmentation part      237.7693082 magnetization 

 Broyden mixing:
  rms(total) = 0.74567E+01    rms(broyden)= 0.74418E+01
  rms(prec ) = 0.80276E+01
  weight for this iteration     100.00

 Free energy of the ion-electron system (eV)
  ---------------------------------------------------
  alpha Z        PSCENC =      1352.76224266
  Ewald energy   TEWEN  =    102131.55730710
  -Hartree energ DENC   =   -203481.27163714
  -exchange      EXHF   =         0.00000000
  -V(xc)+E(xc)   XCENC  =      3034.86817340
  PAW double counting   =     93941.27777846   -98034.59323946
  entropy T*S    EENTRO =        -1.20206618
  eigenvalues    EBANDS =    -12612.16455742
  atomic energy  EATOM  =    113335.50421147
  Solvation  Ediel_sol  =         0.00000000
  ---------------------------------------------------
  free energy    TOTEN  =      -333.26178712 eV

  energy without entropy =     -332.05972094  energy(sigma->0) =     -332.66075403


--------------------------------------------------------------------------------------------------------




--------------------------------------- Iteration      1(   6)  ---------------------------------------


    POTLOK:  cpu time    0.0439: real time    0.0446
    SETDIJ:  cpu time    0.0043: real time    0.0062
     EDDAV:  cpu time    1.3747: real time    1.3789
       DOS:  cpu time    0.0005: real time    0.0005
    CHARGE:  cpu time    0.0291: real time    0.0291
    MIXING:  cpu time    0.0019: real time    0.0020
    --------------------------------------------
      LOOP:  cpu time    1.4544: real time    1.4613

 eigenvalue-minimisations  :   952
 total energy-change (2. order) :-0.9077911E+02  (-0.8551401E+02)
 number of electron     659.9997314 magnetization 
 augmentation part      296.8392323 magnetization 

 Broyden mixing:
  rms(total) = 0.15583E+02    rms(broyden)= 0.15579E+02
  rms(prec ) = 0.16438E+02
  weight for this iteration     100.00

 eigenvalues of (default mixing * dielectric matrix)
  average eigenvalue GAMMA=   0.2101
  0.2101

 Free energy of the ion-electron system (eV)
  ---------------------------------------------------
  alpha Z        PSCENC =      1352.76224266
  Ewald energy   TEWEN  =    102131.55730710
  -Hartree energ DENC   =   -201089.78698767
  -exchange      EXHF   =         0.00000000
  -V(xc)+E(xc)   XCENC  =      2969.24500515
  PAW double counting   =     94871.85900599   -98759.80088978
  entropy T*S    EENTRO =        -0.60685170
  eigenvalues    EBANDS =    -15234.77394377
  atomic energy  EATOM  =    113335.50421147
  Solvation  Ediel_sol  =         0.00000000
  ---------------------------------------------------
  free energy    TOTEN  =      -424.04090055 eV

  energy without entropy =     -423.43404886  energy(sigma->0) =     -423.73747471


--------------------------------------------------------------------------------------------------------




--------------------------------------- Iteration      1(   7)  ---------------------------------------


    POTLOK:  cpu time    0.0412: real time    0.0416
    SETDIJ:  cpu time    0.0038: real time    0.0058
     EDDAV:  cpu time    1.3368: real time    1.3400
       DOS:  cpu time    0.0005: real time    0.0005
    CHARGE:  cpu time    0.0289: real time    0.0290
    MIXING:  cpu time    0.0016: real time    0.0016
    --------------------------------------------
      LOOP:  cpu time    1.4128: real time    1.4184

 eigenvalue-minimisations  :   952
 total energy-change (2. order) : 0.1129899E+03  (-0.1564938E+02)
 number of electron     659.9997439 magnetization 
 augmentation part      278.8766660 magnetization 

 Broyden mixing:
  rms(total) = 0.63088E+01    rms(broyden)= 0.63078E+01
  rms(prec ) = 0.67475E+01
  weight for this iteration     100.00

 eigenvalues of (default mixing * dielectric matrix)
  average eigenvalue GAMMA=   0.5064
  0.5064  0.5064

 Free energy of the ion-electron system (eV)
  ---------------------------------------------------
  alpha Z        PSCENC =      1352.76224266
  Ewald energy   TEWEN  =    102131.55730710
  -Hartree energ DENC   =   -202137.05502567
  -exchange      EXHF   =         0.00000000
  -V(xc)+E(xc)   XCENC  =      2994.31168105
  PAW double counting   =     98292.48785158  -102303.98615659
  entropy T*S    EENTRO =        -0.84902113
  eigenvalues    EBANDS =    -13975.78407382
  atomic energy  EATOM  =    113335.50421147
  Solvation  Ediel_sol  =         0.00000000
  ---------------------------------------------------
  free energy    TOTEN  =      -311.05098336 eV

  energy without entropy =     -310.20196223  energy(sigma->0) =     -310.62647280


--------------------------------------------------------------------------------------------------------




--------------------------------------- Iteration      1(   8)  ---------------------------------------


    POTLOK:  cpu time    0.0393: real time    0.0394
    SETDIJ:  cpu time    0.0043: real time    0.0043
     EDDAV:  cpu time    1.5318: real time    1.5355
       DOS:  cpu time    0.0006: real time    0.0006
    CHARGE:  cpu time    0.0289: real time    0.0290
    MIXING:  cpu time    0.0015: real time    0.0015
    --------------------------------------------
      LOOP:  cpu time    1.6064: real time    1.6102

 eigenvalue-minimisations  :  1128
 total energy-change (2. order) :-0.1050186E+02  (-0.1475041E+02)
 number of electron     659.9997508 magnetization 
 augmentation part      256.0958431 magnetization 

 Broyden mixing:
  rms(total) = 0.10810E+02    rms(broyden)= 0.10808E+02
  rms(prec ) = 0.13309E+02
  weight for this iteration     100.00

 eigenvalues of (default mixing * dielectric matrix)
  average eigenvalue GAMMA=   0.3801
  0.5243  0.5243  0.0915

 Free energy of the ion-electron system (eV)
  ---------------------------------------------------
  alpha Z        PSCENC =      1352.76224266
  Ewald energy   TEWEN  =    102131.55730710
  -Hartree energ DENC   =   -202774.87830100
  -exchange      EXHF   =         0.00000000
  -V(xc)+E(xc)   XCENC  =      3013.75590090
  PAW double counting   =    102787.09794342  -106890.45717093
  entropy T*S    EENTRO =        -1.08975133
  eigenvalues    EBANDS =    -13275.80522886
  atomic energy  EATOM  =    113335.50421147
  Solvation  Ediel_sol  =         0.00000000
  ---------------------------------------------------
  free energy    TOTEN  =      -321.55284659 eV

  energy without entropy =     -320.46309526  energy(sigma->0) =     -321.00797092


--------------------------------------------------------------------------------------------------------




--------------------------------------- Iteration      1(   9)  ---------------------------------------


    POTLOK:  cpu time    0.0391: real time    0.0392
    SETDIJ:  cpu time    0.0044: real time    0.0044
     EDDAV:  cpu time    1.3702: real time    1.3736
       DOS:  cpu time    0.0006: real time    0.0006
    CHARGE:  cpu time    0.0289: real time    0.0289
    MIXING:  cpu time    0.0016: real time    0.0016
    --------------------------------------------
      LOOP:  cpu time    1.4447: real time    1.4483

 eigenvalue-minimisations  :   984
 total energy-change (2. order) : 0.2234418E+02  (-0.6680964E+01)
 number of electron     659.9997591 magnetization 
 augmentation part      256.7071743 magnetization 

 Broyden mixing:
  rms(total) = 0.39698E+01    rms(broyden)= 0.39647E+01
  rms(prec ) = 0.44530E+01
  weight for this iteration     100.00

 eigenvalues of (default mixing * dielectric matrix)
  average eigenvalue GAMMA=   0.4552
  1.0109  0.3632  0.3632  0.0835

 Free energy of the ion-electron system (eV)
  ---------------------------------------------------
  alpha Z        PSCENC =      1352.76224266
  Ewald energy   TEWEN  =    102131.55730710
  -Hartree energ DENC   =   -202843.98953122
  -exchange      EXHF   =         0.00000000
  -V(xc)+E(xc)   XCENC  =      3014.33242743
  PAW double counting   =    103559.91456311  -107672.88087897
  entropy T*S    EENTRO =        -0.88239660
  eigenvalues    EBANDS =    -13175.52661427
  atomic energy  EATOM  =    113335.50421147
  Solvation  Ediel_sol  =         0.00000000
  ---------------------------------------------------
  free energy    TOTEN  =      -299.20866929 eV

  energy without entropy =     -298.32627270  energy(sigma->0) =     -298.76747100


--------------------------------------------------------------------------------------------------------




--------------------------------------- Iteration      1(  10)  ---------------------------------------


    POTLOK:  cpu time    0.0391: real time    0.0392
    SETDIJ:  cpu time    0.0045: real time    0.0045
     EDDAV:  cpu time    1.5141: real time    1.5185
       DOS:  cpu time    0.0015: real time    0.0015
    CHARGE:  cpu time    0.0291: real time    0.0292
    MIXING:  cpu time    0.0029: real time    0.0029
    --------------------------------------------
      LOOP:  cpu time    1.5911: real time    1.5958

 eigenvalue-minimisations  :  1080
 total energy-change (2. order) :-0.1628511E+02  (-0.4400175E+01)
 number of electron     659.9997674 magnetization 
 augmentation part      251.3205137 magnetization 

 Broyden mixing:
  rms(total) = 0.98534E+01    rms(broyden)= 0.98491E+01
  rms(prec ) = 0.11967E+02
  weight for this iteration     100.00

 eigenvalues of (default mixing * dielectric matrix)
  average eigenvalue GAMMA=   0.5136
  1.5890  0.4017  0.4017  0.0877  0.0877

 Free energy of the ion-electron system (eV)
  ---------------------------------------------------
  alpha Z        PSCENC =      1352.76224266
  Ewald energy   TEWEN  =    102131.55730710
  -Hartree energ DENC   =   -202850.68957182
  -exchange      EXHF   =         0.00000000
  -V(xc)+E(xc)   XCENC  =      3014.65519744
  PAW double counting   =    105245.71963023  -109374.83676120
  entropy T*S    EENTRO =        -1.34522535
  eigenvalues    EBANDS =    -13168.82081023
  atomic energy  EATOM  =    113335.50421147
  Solvation  Ediel_sol  =         0.00000000
  ---------------------------------------------------
  free energy    TOTEN  =      -315.49377971 eV

  energy without entropy =     -314.14855436  energy(sigma->0) =     -314.82116704


--------------------------------------------------------------------------------------------------------




--------------------------------------- Iteration      1(  11)  ---------------------------------------


    POTLOK:  cpu time    0.0390: real time    0.0397
    SETDIJ:  cpu time    0.0041: real time    0.0058
     EDDAV:  cpu time    1.4781: real time    1.4830
       DOS:  cpu time    0.0007: real time    0.0007
    CHARGE:  cpu time    0.0289: real time    0.0289
    MIXING:  cpu time    0.0018: real time    0.0018
    --------------------------------------------
      LOOP:  cpu time    1.5526: real time    1.5600

 eigenvalue-minimisations  :  1080
 total energy-change (2. order) : 0.7672620E+01  (-0.3784267E+01)
 number of electron     659.9997624 magnetization 
 augmentation part      255.6975782 magnetization 

 Broyden mixing:
  rms(total) = 0.62536E+01    rms(broyden)= 0.62509E+01
  rms(prec ) = 0.72530E+01
  weight for this iteration     100.00

 eigenvalues of (default mixing * dielectric matrix)
  average eigenvalue GAMMA=   0.5085
  1.9337  0.4086  0.4086  0.1072  0.0965  0.0965

 Free energy of the ion-electron system (eV)
  ---------------------------------------------------
  alpha Z        PSCENC =      1352.76224266
  Ewald energy   TEWEN  =    102131.55730710
  -Hartree energ DENC   =   -202823.72979983
  -exchange      EXHF   =         0.00000000
  -V(xc)+E(xc)   XCENC  =      3011.41918867
  PAW double counting   =    107080.28813201  -111217.79463064
  entropy T*S    EENTRO =        -1.21852422
  eigenvalues    EBANDS =    -13176.60928666
  atomic energy  EATOM  =    113335.50421147
  Solvation  Ediel_sol  =         0.00000000
  ---------------------------------------------------
  free energy    TOTEN  =      -307.82115945 eV

  energy without entropy =     -306.60263523  energy(sigma->0) =     -307.21189734


--------------------------------------------------------------------------------------------------------




--------------------------------------- Iteration      1(  12)  ---------------------------------------


    POTLOK:  cpu time    0.0392: real time    0.0392
    SETDIJ:  cpu time    0.0043: real time    0.0043
     EDDAV:  cpu time    1.4777: real time    1.4812
       DOS:  cpu time    0.0005: real time    0.0005
    CHARGE:  cpu time    0.0287: real time    0.0288
    MIXING:  cpu time    0.0018: real time    0.0018
    --------------------------------------------
      LOOP:  cpu time    1.5522: real time    1.5559

 eigenvalue-minimisations  :  1080
 total energy-change (2. order) : 0.1167511E+02  (-0.2579092E+01)
 number of electron     659.9997573 magnetization 
 augmentation part      260.1314563 magnetization 

 Broyden mixing:
  rms(total) = 0.37779E+01    rms(broyden)= 0.37742E+01
  rms(prec ) = 0.45075E+01
  weight for this iteration     100.00

 eigenvalues of (default mixing * dielectric matrix)
  average eigenvalue GAMMA=   0.4651
  1.9744  0.4062  0.4062  0.1890  0.1085  0.0858  0.0858

 Free energy of the ion-electron system (eV)
  ---------------------------------------------------
  alpha Z        PSCENC =      1352.76224266
  Ewald energy   TEWEN  =    102131.55730710
  -Hartree energ DENC   =   -202739.65187888
  -exchange      EXHF   =         0.00000000
  -V(xc)+E(xc)   XCENC  =      3009.93247136
  PAW double counting   =    108292.76370475  -112438.43132330
  entropy T*S    EENTRO =        -1.01637300
  eigenvalues    EBANDS =    -13239.56640946
  atomic energy  EATOM  =    113335.50421147
  Solvation  Ediel_sol  =         0.00000000
  ---------------------------------------------------
  free energy    TOTEN  =      -296.14604731 eV

  energy without entropy =     -295.12967431  energy(sigma->0) =     -295.63786081


--------------------------------------------------------------------------------------------------------




--------------------------------------- Iteration      1(  13)  ---------------------------------------


    POTLOK:  cpu time    0.0389: real time    0.0390
    SETDIJ:  cpu time    0.0043: real time    0.0043
     EDDAV:  cpu time    1.4864: real time    1.4900
       DOS:  cpu time    0.0006: real time    0.0006
    CHARGE:  cpu time    0.0288: real time    0.0289
    MIXING:  cpu time    0.0019: real time    0.0019
    --------------------------------------------
      LOOP:  cpu time    1.5609: real time    1.5646

 eigenvalue-minimisations  :  1088
 total energy-change (2. order) : 0.2327060E+01  (-0.2236204E+01)
 number of electron     659.9997547 magnetization 
 augmentation part      261.6110201 magnetization 

 Broyden mixing:
  rms(total) = 0.24944E+01    rms(broyden)= 0.24920E+01
  rms(prec ) = 0.28782E+01
  weight for this iteration     100.00

 eigenvalues of (default mixing * dielectric matrix)
  average eigenvalue GAMMA=   0.4728
  1.9984  0.5410  0.4167  0.4167  0.1166  0.1166  0.0881  0.0881

 Free energy of the ion-electron system (eV)
  ---------------------------------------------------
  alpha Z        PSCENC =      1352.76224266
  Ewald energy   TEWEN  =    102131.55730710
  -Hartree energ DENC   =   -202736.67518024
  -exchange      EXHF   =         0.00000000
  -V(xc)+E(xc)   XCENC  =      3009.64519786
  PAW double counting   =    108486.57358150  -112633.78947543
  entropy T*S    EENTRO =        -0.84004222
  eigenvalues    EBANDS =    -13238.55682963
  atomic energy  EATOM  =    113335.50421147
  Solvation  Ediel_sol  =         0.00000000
  ---------------------------------------------------
  free energy    TOTEN  =      -293.81898695 eV

  energy without entropy =     -292.97894473  energy(sigma->0) =     -293.39896584


--------------------------------------------------------------------------------------------------------




--------------------------------------- Iteration      1(  14)  ---------------------------------------


    POTLOK:  cpu time    0.0390: real time    0.0391
    SETDIJ:  cpu time    0.0043: real time    0.0043
     EDDAV:  cpu time    1.4418: real time    1.4452
       DOS:  cpu time    0.0005: real time    0.0005
    CHARGE:  cpu time    0.0287: real time    0.0287
    MIXING:  cpu time    0.0019: real time    0.0019
    --------------------------------------------
      LOOP:  cpu time    1.5162: real time    1.5199

 eigenvalue-minimisations  :  1040
 total energy-change (2. order) : 0.1657360E+01  (-0.5198157E+00)
 number of electron     659.9997543 magnetization 
 augmentation part      261.8218343 magnetization 

 Broyden mixing:
  rms(total) = 0.21173E+01    rms(broyden)= 0.21159E+01
  rms(prec ) = 0.24980E+01
  weight for this iteration     100.00

 eigenvalues of (default mixing * dielectric matrix)
  average eigenvalue GAMMA=   0.4514
  1.9783  0.6199  0.4215  0.4215  0.1965  0.1242  0.1242  0.0882  0.0882

 Free energy of the ion-electron system (eV)
  ---------------------------------------------------
  alpha Z        PSCENC =      1352.76224266
  Ewald energy   TEWEN  =    102131.55730710
  -Hartree energ DENC   =   -202756.96969532
  -exchange      EXHF   =         0.00000000
  -V(xc)+E(xc)   XCENC  =      3010.21784200
  PAW double counting   =    108578.46151084  -112729.75011807
  entropy T*S    EENTRO =        -0.88417978
  eigenvalues    EBANDS =    -13213.06074831
  atomic energy  EATOM  =    113335.50421147
  Solvation  Ediel_sol  =         0.00000000
  ---------------------------------------------------
  free energy    TOTEN  =      -292.16162741 eV

  energy without entropy =     -291.27744764  energy(sigma->0) =     -291.71953752


--------------------------------------------------------------------------------------------------------




--------------------------------------- Iteration      1(  15)  ---------------------------------------


    POTLOK:  cpu time    0.0393: real time    0.0394
    SETDIJ:  cpu time    0.0043: real time    0.0043
     EDDAV:  cpu time    1.4698: real time    1.4733
       DOS:  cpu time    0.0005: real time    0.0005
    CHARGE:  cpu time    0.0287: real time    0.0288
    MIXING:  cpu time    0.0020: real time    0.0020
    --------------------------------------------
      LOOP:  cpu time    1.5446: real time    1.5482

 eigenvalue-minimisations  :  1064
 total energy-change (2. order) : 0.9964258E+00  (-0.3312610E+00)
 number of electron     659.9997541 magnetization 
 augmentation part      261.2629053 magnetization 

 Broyden mixing:
  rms(total) = 0.16504E+01    rms(broyden)= 0.16489E+01
  rms(prec ) = 0.19484E+01
  weight for this iteration     100.00

 eigenvalues of (default mixing * dielectric matrix)
  average eigenvalue GAMMA=   0.4536
  1.9704  0.5944  0.5944  0.4099  0.4099  0.1404  0.1197  0.1197  0.0885  0.0885

 Free energy of the ion-electron system (eV)
  ---------------------------------------------------
  alpha Z        PSCENC =      1352.76224266
  Ewald energy   TEWEN  =    102131.55730710
  -Hartree energ DENC   =   -202781.67347688
  -exchange      EXHF   =         0.00000000
  -V(xc)+E(xc)   XCENC  =      3010.72599225
  PAW double counting   =    108486.24787997  -112638.09530967
  entropy T*S    EENTRO =        -0.90878396
  eigenvalues    EBANDS =    -13187.28526457
  atomic energy  EATOM  =    113335.50421147
  Solvation  Ediel_sol  =         0.00000000
  ---------------------------------------------------
  free energy    TOTEN  =      -291.16520164 eV

  energy without entropy =     -290.25641768  energy(sigma->0) =     -290.71080966


--------------------------------------------------------------------------------------------------------




--------------------------------------- Iteration      1(  16)  ---------------------------------------


    POTLOK:  cpu time    0.0393: real time    0.0394
    SETDIJ:  cpu time    0.0043: real time    0.0043
     EDDAV:  cpu time    1.4134: real time    1.4169
       DOS:  cpu time    0.0006: real time    0.0006
    CHARGE:  cpu time    0.0288: real time    0.0289
    MIXING:  cpu time    0.0022: real time    0.0022
    --------------------------------------------
      LOOP:  cpu time    1.4885: real time    1.4923

 eigenvalue-minimisations  :  1024
 total energy-change (2. order) : 0.7422737E+00  (-0.1045992E+00)
 number of electron     659.9997544 magnetization 
 augmentation part      260.7328888 magnetization 

 Broyden mixing:
  rms(total) = 0.13052E+01    rms(broyden)= 0.13047E+01
  rms(prec ) = 0.15430E+01
  weight for this iteration     100.00

 eigenvalues of (default mixing * dielectric matrix)
  average eigenvalue GAMMA=   0.4569
  1.9843  0.7372  0.7372  0.4078  0.4078  0.1971  0.0882  0.0882  0.1206  0.1206
  0.1367

 Free energy of the ion-electron system (eV)
  ---------------------------------------------------
  alpha Z        PSCENC =      1352.76224266
  Ewald energy   TEWEN  =    102131.55730710
  -Hartree energ DENC   =   -202803.82103470
  -exchange      EXHF   =         0.00000000
  -V(xc)+E(xc)   XCENC  =      3011.08579533
  PAW double counting   =    108369.87307036  -112520.92673023
  entropy T*S    EENTRO =        -0.94007266
  eigenvalues    EBANDS =    -13165.51771722
  atomic energy  EATOM  =    113335.50421147
  Solvation  Ediel_sol  =         0.00000000
  ---------------------------------------------------
  free energy    TOTEN  =      -290.42292791 eV

  energy without entropy =     -289.48285525  energy(sigma->0) =     -289.95289158


--------------------------------------------------------------------------------------------------------




--------------------------------------- Iteration      1(  17)  ---------------------------------------


    POTLOK:  cpu time    0.0393: real time    0.0394
    SETDIJ:  cpu time    0.0043: real time    0.0043
     EDDAV:  cpu time    1.4922: real time    1.4967
       DOS:  cpu time    0.0006: real time    0.0006
    CHARGE:  cpu time    0.0292: real time    0.0293
    MIXING:  cpu time    0.0024: real time    0.0024
    --------------------------------------------
      LOOP:  cpu time    1.5681: real time    1.5727

 eigenvalue-minimisations  :  1056
 total energy-change (2. order) : 0.3890264E+00  (-0.6899246E-01)
 number of electron     659.9997548 magnetization 
 augmentation part      260.4803195 magnetization 

 Broyden mixing:
  rms(total) = 0.11562E+01    rms(broyden)= 0.11558E+01
  rms(prec ) = 0.13625E+01
  weight for this iteration     100.00

 eigenvalues of (default mixing * dielectric matrix)
  average eigenvalue GAMMA=   0.4783
  1.9971  0.9030  0.9030  0.4144  0.4144  0.4017  0.1602  0.0883  0.0883  0.1202
  0.1202  0.1290

 Free energy of the ion-electron system (eV)
  ---------------------------------------------------
  alpha Z        PSCENC =      1352.76224266
  Ewald energy   TEWEN  =    102131.55730710
  -Hartree energ DENC   =   -202811.64332062
  -exchange      EXHF   =         0.00000000
  -V(xc)+E(xc)   XCENC  =      3011.23304438
  PAW double counting   =    108311.23371815  -112461.34870659
  entropy T*S    EENTRO =        -0.95617672
  eigenvalues    EBANDS =    -13158.37622137
  atomic energy  EATOM  =    113335.50421147
  Solvation  Ediel_sol  =         0.00000000
  ---------------------------------------------------
  free energy    TOTEN  =      -290.03390155 eV

  energy without entropy =     -289.07772483  energy(sigma->0) =     -289.55581319


--------------------------------------------------------------------------------------------------------




--------------------------------------- Iteration      1(  18)  ---------------------------------------


    POTLOK:  cpu time    0.0399: real time    0.0422
    SETDIJ:  cpu time    0.0038: real time    0.0056
     EDDAV:  cpu time    1.4762: real time    1.4798
       DOS:  cpu time    0.0008: real time    0.0008
    CHARGE:  cpu time    0.0290: real time    0.0290
    MIXING:  cpu time    0.0027: real time    0.0027
    --------------------------------------------
      LOOP:  cpu time    1.5524: real time    1.5601

 eigenvalue-minimisations  :  1072
 total energy-change (2. order) : 0.2322956E+00  (-0.6505134E-01)
 number of electron     659.9997549 magnetization 
 augmentation part      260.7190293 magnetization 

 Broyden mixing:
  rms(total) = 0.10896E+01    rms(broyden)= 0.10892E+01
  rms(prec ) = 0.13026E+01
  weight for this iteration     100.00

 eigenvalues of (default mixing * dielectric matrix)
  average eigenvalue GAMMA=   0.4943
  2.0212  1.1089  1.1089  0.4820  0.4206  0.4206  0.1821  0.1514  0.0883  0.0883
  0.1200  0.1200  0.1142

 Free energy of the ion-electron system (eV)
  ---------------------------------------------------
  alpha Z        PSCENC =      1352.76224266
  Ewald energy   TEWEN  =    102131.55730710
  -Hartree energ DENC   =   -202810.42921673
  -exchange      EXHF   =         0.00000000
  -V(xc)+E(xc)   XCENC  =      3011.21397054
  PAW double counting   =    108255.78090327  -112404.08004658
  entropy T*S    EENTRO =        -0.95055048
  eigenvalues    EBANDS =    -13161.16042715
  atomic energy  EATOM  =    113335.50421147
  Solvation  Ediel_sol  =         0.00000000
  ---------------------------------------------------
  free energy    TOTEN  =      -289.80160592 eV

  energy without entropy =     -288.85105543  energy(sigma->0) =     -289.32633067


--------------------------------------------------------------------------------------------------------




--------------------------------------- Iteration      1(  19)  ---------------------------------------


    POTLOK:  cpu time    0.0397: real time    0.0400
    SETDIJ:  cpu time    0.0044: real time    0.0062
     EDDAV:  cpu time    1.4938: real time    1.4973
       DOS:  cpu time    0.0006: real time    0.0006
    CHARGE:  cpu time    0.0284: real time    0.0285
    MIXING:  cpu time    0.0027: real time    0.0027
    --------------------------------------------
      LOOP:  cpu time    1.5695: real time    1.5753

 eigenvalue-minimisations  :  1096
 total energy-change (2. order) : 0.4073826E+00  (-0.4426127E-01)
 number of electron     659.9997549 magnetization 
 augmentation part      260.6379047 magnetization 

 Broyden mixing:
  rms(total) = 0.68742E+00    rms(broyden)= 0.68675E+00
  rms(prec ) = 0.80681E+00
  weight for this iteration     100.00

 eigenvalues of (default mixing * dielectric matrix)
  average eigenvalue GAMMA=   0.5008
  2.0269  1.2451  1.2451  0.4541  0.4253  0.4253  0.3263  0.1842  0.0883  0.0883
  0.1204  0.1204  0.1417  0.1194

 Free energy of the ion-electron system (eV)
  ---------------------------------------------------
  alpha Z        PSCENC =      1352.76224266
  Ewald energy   TEWEN  =    102131.55730710
  -Hartree energ DENC   =   -202815.43828285
  -exchange      EXHF   =         0.00000000
  -V(xc)+E(xc)   XCENC  =      3011.30570090
  PAW double counting   =    108163.28198477  -112309.66979145
  entropy T*S    EENTRO =        -0.98471912
  eigenvalues    EBANDS =    -13157.71287677
  atomic energy  EATOM  =    113335.50421147
  Solvation  Ediel_sol  =         0.00000000
  ---------------------------------------------------
  free energy    TOTEN  =      -289.39422331 eV

  energy without entropy =     -288.40950418  energy(sigma->0) =     -288.90186374


--------------------------------------------------------------------------------------------------------




--------------------------------------- Iteration      1(  20)  ---------------------------------------


    POTLOK:  cpu time    0.0391: real time    0.0392
    SETDIJ:  cpu time    0.0043: real time    0.0043
     EDDAV:  cpu time    1.4760: real time    1.4796
       DOS:  cpu time    0.0006: real time    0.0005
    CHARGE:  cpu time    0.0288: real time    0.0288
    MIXING:  cpu time    0.0024: real time    0.0024
    --------------------------------------------
      LOOP:  cpu time    1.5511: real time    1.5549

 eigenvalue-minimisations  :  1072
 total energy-change (2. order) : 0.1194667E+00  (-0.2632835E-01)
 number of electron     659.9997556 magnetization 
 augmentation part      260.3499097 magnetization 

 Broyden mixing:
  rms(total) = 0.56255E+00    rms(broyden)= 0.56189E+00
  rms(prec ) = 0.63883E+00
  weight for this iteration     100.00

 eigenvalues of (default mixing * dielectric matrix)
  average eigenvalue GAMMA=   0.5090
  2.0185  1.3571  1.3571  0.5082  0.5082  0.4171  0.4171  0.2205  0.0883  0.0883
  0.1203  0.1203  0.1602  0.1380  0.1154

 Free energy of the ion-electron system (eV)
  ---------------------------------------------------
  alpha Z        PSCENC =      1352.76224266
  Ewald energy   TEWEN  =    102131.55730710
  -Hartree energ DENC   =   -202826.19228800
  -exchange      EXHF   =         0.00000000
  -V(xc)+E(xc)   XCENC  =      3011.36479762
  PAW double counting   =    108052.87954183  -112197.46348038
  entropy T*S    EENTRO =        -1.02071548
  eigenvalues    EBANDS =    -13148.66637342
  atomic energy  EATOM  =    113335.50421147
  Solvation  Ediel_sol  =         0.00000000
  ---------------------------------------------------
  free energy    TOTEN  =      -289.27475662 eV

  energy without entropy =     -288.25404114  energy(sigma->0) =     -288.76439888


--------------------------------------------------------------------------------------------------------




--------------------------------------- Iteration      1(  21)  ---------------------------------------


    POTLOK:  cpu time    0.0395: real time    0.0396
    SETDIJ:  cpu time    0.0042: real time    0.0042
     EDDAV:  cpu time    1.4429: real time    1.4463
       DOS:  cpu time    0.0006: real time    0.0006
    CHARGE:  cpu time    0.0286: real time    0.0287
    MIXING:  cpu time    0.0025: real time    0.0026
    --------------------------------------------
      LOOP:  cpu time    1.5184: real time    1.5220

 eigenvalue-minimisations  :  1040
 total energy-change (2. order) : 0.2178132E-01  (-0.1819692E-01)
 number of electron     659.9997555 magnetization 
 augmentation part      260.1951682 magnetization 

 Broyden mixing:
  rms(total) = 0.60389E+00    rms(broyden)= 0.60346E+00
  rms(prec ) = 0.69029E+00
  weight for this iteration     100.00

 eigenvalues of (default mixing * dielectric matrix)
  average eigenvalue GAMMA=   0.5111
  2.0269  1.4103  1.4103  0.6018  0.6018  0.4081  0.4081  0.3500  0.0883  0.0883
  0.1201  0.1201  0.1599  0.1454  0.1152  0.1223

 Free energy of the ion-electron system (eV)
  ---------------------------------------------------
  alpha Z        PSCENC =      1352.76224266
  Ewald energy   TEWEN  =    102131.55730710
  -Hartree energ DENC   =   -202832.53910368
  -exchange      EXHF   =         0.00000000
  -V(xc)+E(xc)   XCENC  =      3011.35308268
  PAW double counting   =    107962.87973505  -112106.15132076
  entropy T*S    EENTRO =        -1.05999472
  eigenvalues    EBANDS =    -13143.55913510
  atomic energy  EATOM  =    113335.50421147
  Solvation  Ediel_sol  =         0.00000000
  ---------------------------------------------------
  free energy    TOTEN  =      -289.25297530 eV

  energy without entropy =     -288.19298059  energy(sigma->0) =     -288.72297795


--------------------------------------------------------------------------------------------------------




--------------------------------------- Iteration      1(  22)  ---------------------------------------


    POTLOK:  cpu time    0.0396: real time    0.0397
    SETDIJ:  cpu time    0.0042: real time    0.0042
     EDDAV:  cpu time    1.4402: real time    1.4437
       DOS:  cpu time    0.0005: real time    0.0005
    CHARGE:  cpu time    0.0282: real time    0.0283
    MIXING:  cpu time    0.0029: real time    0.0029
    --------------------------------------------
      LOOP:  cpu time    1.5156: real time    1.5193

 eigenvalue-minimisations  :  1040
 total energy-change (2. order) : 0.3167553E-01  (-0.3520163E-01)
 number of electron     659.9997552 magnetization 
 augmentation part      260.4233871 magnetization 

 Broyden mixing:
  rms(total) = 0.48120E+00    rms(broyden)= 0.48061E+00
  rms(prec ) = 0.55626E+00
  weight for this iteration     100.00

 eigenvalues of (default mixing * dielectric matrix)
  average eigenvalue GAMMA=   0.5192
  2.0382  1.5028  1.5028  0.6863  0.6863  0.4144  0.4144  0.4076  0.2333  0.1589
  0.0883  0.0883  0.1202  0.1202  0.1379  0.1199  0.1072

 Free energy of the ion-electron system (eV)
  ---------------------------------------------------
  alpha Z        PSCENC =      1352.76224266
  Ewald energy   TEWEN  =    102131.55730710
  -Hartree energ DENC   =   -202830.27032555
  -exchange      EXHF   =         0.00000000
  -V(xc)+E(xc)   XCENC  =      3011.30653626
  PAW double counting   =    107912.49147296  -112055.08145207
  entropy T*S    EENTRO =        -1.02938036
  eigenvalues    EBANDS =    -13146.46191225
  atomic energy  EATOM  =    113335.50421147
  Solvation  Ediel_sol  =         0.00000000
  ---------------------------------------------------
  free energy    TOTEN  =      -289.22129978 eV

  energy without entropy =     -288.19191942  energy(sigma->0) =     -288.70660960


--------------------------------------------------------------------------------------------------------




--------------------------------------- Iteration      1(  23)  ---------------------------------------


    POTLOK:  cpu time    0.0394: real time    0.0395
    SETDIJ:  cpu time    0.0043: real time    0.0043
     EDDAV:  cpu time    1.4852: real time    1.4888
       DOS:  cpu time    0.0005: real time    0.0005
    CHARGE:  cpu time    0.0282: real time    0.0282
    MIXING:  cpu time    0.0030: real time    0.0030
    --------------------------------------------
      LOOP:  cpu time    1.5606: real time    1.5643

 eigenvalue-minimisations  :  1080
 total energy-change (2. order) : 0.1529757E-01  (-0.1581315E-01)
 number of electron     659.9997553 magnetization 
 augmentation part      260.4839245 magnetization 

 Broyden mixing:
  rms(total) = 0.42543E+00    rms(broyden)= 0.42499E+00
  rms(prec ) = 0.49001E+00
  weight for this iteration     100.00

 eigenvalues of (default mixing * dielectric matrix)
  average eigenvalue GAMMA=   0.5384
  1.7523  1.5659  1.5659  1.0048  1.0048  0.5349  0.4159  0.4159  0.3442  0.1682
  0.0883  0.0883  0.1201  0.1201  0.1430  0.1374  0.1171  0.1043

 Free energy of the ion-electron system (eV)
[...]
  0.000   1.997   0.000   0.001  -0.012  -0.000  -0.002  -0.003  -0.013   0.007  -0.000   0.002   0.002   0.011  -0.007   0.001
  0.000   0.000   1.996   0.001  -0.000  -0.015  -0.009  -0.001  -0.007  -0.014   0.009   0.008   0.001   0.006   0.013  -0.008
 -0.014   0.001   0.001   0.072  -0.011  -0.014   0.110  -0.184   0.018  -0.082  -0.153  -0.113   0.180  -0.021   0.085   0.145
  0.001  -0.012  -0.000  -0.011   0.041   0.017  -0.068  -0.002  -0.088  -0.023   0.009   0.075   0.006   0.097   0.039  -0.031
  0.001  -0.000  -0.015  -0.014   0.017   0.104  -0.244  -0.114  -0.114  -0.139   0.025   0.222   0.100   0.108   0.101  -0.006
  0.011  -0.002  -0.009   0.110  -0.068  -0.244   3.025   0.116   0.004   0.184   0.065  -1.230  -0.115  -0.277  -0.110   0.105
 -0.012  -0.003  -0.001  -0.184  -0.002  -0.114   0.116   3.112  -0.025   0.094   0.278  -0.114  -1.208  -0.097  -0.230  -0.393
  0.004  -0.013  -0.007   0.018  -0.088  -0.114   0.004  -0.025   2.940  -0.111   0.132  -0.270  -0.096  -0.992  -0.037   0.039
 -0.002   0.007  -0.014  -0.082  -0.023  -0.139   0.184   0.094  -0.111   3.002   0.340  -0.103  -0.235  -0.033  -1.052  -0.363
 -0.001  -0.000   0.009  -0.153   0.009   0.025   0.065   0.278   0.132   0.340   2.752   0.107  -0.400   0.035  -0.366  -1.026
 -0.009   0.002   0.008  -0.113   0.075   0.222  -1.230  -0.114  -0.270  -0.103   0.107   1.169   0.129   0.413   0.055  -0.218
  0.010   0.002   0.001   0.180   0.006   0.100  -0.115  -1.208  -0.096  -0.235  -0.400   0.129   1.067   0.155   0.285   0.439
 -0.004   0.011   0.006  -0.021   0.097   0.108  -0.277  -0.097  -0.992  -0.033   0.035   0.413   0.155   0.857   0.117  -0.155
  0.001  -0.007   0.013   0.085   0.039   0.101  -0.110  -0.230  -0.037  -1.052  -0.366   0.055   0.285   0.117   0.920   0.360
 -0.000   0.001  -0.008   0.145  -0.031  -0.006   0.105  -0.393   0.039  -0.363  -1.026  -0.218   0.439  -0.155   0.360   1.014
  0.017   0.055  -0.035   0.022   0.074  -0.033   0.313   0.302   0.416  -0.524  -0.216  -0.264  -0.205  -0.326   0.352   0.223
 -0.008  -0.026   0.016  -0.000  -0.005   0.001  -0.027  -0.048  -0.032   0.053   0.009   0.007   0.015   0.006  -0.024  -0.004


------------------------ aborting loop because EDIFF is reached ----------------------------------------


    CHARGE:  cpu time    0.0280: real time    0.0280
    FORLOC:  cpu time    0.0135: real time    0.0135
    FORNL :  cpu time    0.2596: real time    0.2605
    STRESS:  cpu time    0.7807: real time    0.7827
    FORCOR:  cpu time    0.0483: real time    0.0486
    FORHAR:  cpu time    0.0199: real time    0.0200
    MIXING:  cpu time    0.0049: real time    0.0050
    OFIELD:  cpu time    0.0001: real time    0.0001

  FORCE on cell =-STRESS in cart. coord.  units (eV):
  Direction    XX          YY          ZZ          XY          YZ          ZX
  --------------------------------------------------------------------------------------
  Alpha Z  1352.76224  1352.76224  1352.76224
  Ewald  144581.98770141844.81190************  -275.28063 -1334.55521  -199.61766
  Hartree174725.19394172444.92176************  -188.27206  -842.64829  -125.96970
  E(xc)   -4183.04828 -4184.18358 -4187.07801    -0.29089    -1.80222    -0.24749
  Local  ************************317996.29558   459.05391  2147.96501   321.83175
  n-local  -585.67749  -581.15350  -586.14293    -0.74615   -10.92370    -1.29197
  augment  4827.29084  4827.43899  4823.16986     1.85125    16.60298     1.59735
  Kinetic  9111.84632  9137.55273  9133.03159     4.12685    39.11604     4.39808
  Fock        0.00000     0.00000     0.00000     0.00000     0.00000     0.00000
  -------------------------------------------------------------------------------------
  Total     -37.64308   -34.73708   -44.28050     0.44228    13.75462     0.70036
  in kB     -31.58264   -29.14450   -37.15146     0.37107    11.54016     0.58761
  external pressure =      -32.63 kB  Pullay stress =        0.00 kB


 VOLUME and BASIS-vectors are now :
 -----------------------------------------------------------------------------
  energy-cutoff  :      450.00
  volume of cell :     1909.62
      direct lattice vectors                 reciprocal lattice vectors
     9.578410000  0.000000000  0.000000000     0.104401461  0.000000000  0.000000000
     0.000000000 11.256463038  0.000000000     0.000000000  0.088837852  0.000000000
     0.000000000  0.000000000 17.711358900     0.000000000  0.000000000  0.056460942

  length of vectors
     9.578410000 11.256463038 17.711358900     0.104401461  0.088837852  0.056460942


 FORCES acting on ions
    electron-ion (+dipol)            ewald-force                    non-local-force                 convergence-correction
 -----------------------------------------------------------------------------------------------
   0.175E+03 -.856E+01 0.370E+04   -.179E+03 0.107E+02 -.370E+04   0.343E+01 -.182E+01 -.519E+01   -.100E-01 0.627E-02 -.321E-01
   0.436E+03 -.243E+03 0.509E+03   -.437E+03 0.243E+03 -.512E+03   0.107E+01 -.442E-01 0.208E+01   -.111E-01 0.128E-01 -.742E-01
   0.423E+03 -.318E+03 -.324E+04   -.425E+03 0.315E+03 0.324E+04   0.141E+01 0.297E+01 -.718E+00   -.141E-01 0.267E-01 -.154E-01
   0.441E+03 -.792E+02 0.258E+04   -.440E+03 0.815E+02 -.258E+04   -.769E+00 -.150E+01 0.251E+01   -.279E-02 -.269E-01 -.758E-01
   0.382E+03 -.155E+03 -.155E+04   -.383E+03 0.156E+03 0.155E+04   0.645E+00 -.914E+00 -.931E+00   -.138E-01 -.196E-01 -.331E-01
   0.112E+02 0.539E+03 0.131E+04   -.113E+02 -.540E+03 -.132E+04   0.921E-01 0.299E+00 0.207E+01   -.197E-01 -.412E-01 -.933E-01
   0.444E+01 0.566E+03 -.263E+04   -.440E+01 -.567E+03 0.263E+04   -.307E-01 0.135E+01 -.428E+01   0.936E-02 -.213E-01 -.309E-01
   -.262E+02 0.462E+03 0.284E+04   0.263E+02 -.465E+03 -.285E+04   -.177E+00 0.283E+01 0.408E+01   0.253E-01 0.483E-02 -.298E-01
   -.969E+01 0.400E+03 -.908E+03   0.962E+01 -.401E+03 0.909E+03   0.737E-01 0.118E+01 -.611E+00   -.103E-02 0.466E-01 -.481E-01
   -.160E+01 -.101E+03 -.385E+04   0.183E+01 0.996E+02 0.383E+04   -.218E+00 0.142E+01 0.132E+02   -.400E-02 0.218E-01 0.279E-01
   -.148E+03 0.251E+02 0.372E+04   0.152E+03 -.228E+02 -.371E+04   -.331E+01 -.202E+01 -.518E+01   -.331E-01 0.184E-02 -.322E-01
   -.419E+03 -.227E+03 0.501E+03   0.420E+03 0.227E+03 -.503E+03   -.116E+01 -.228E-01 0.187E+01   -.290E-02 0.183E-01 -.628E-01
   -.419E+03 -.317E+03 -.324E+04   0.420E+03 0.313E+03 0.324E+04   -.139E+01 0.292E+01 -.708E+00   0.883E-02 0.124E-01 -.357E-02
   -.461E+03 -.636E+02 0.258E+04   0.459E+03 0.658E+02 -.258E+04   0.813E+00 -.134E+01 0.286E+01   0.380E-01 -.365E-01 -.810E-01
   -.394E+03 -.147E+03 -.154E+04   0.394E+03 0.149E+03 0.154E+04   -.659E+00 -.105E+01 -.119E+01   0.230E-01 -.166E-01 -.553E-01
   0.406E+03 0.590E+02 0.363E+04   -.394E+03 -.546E+02 -.362E+04   -.116E+02 -.382E+01 -.774E+01   0.342E-01 -.290E-02 -.224E-01
   0.490E+03 -.885E+02 0.729E+03   -.490E+03 0.885E+02 -.731E+03   0.399E+00 0.269E+00 0.144E+01   0.109E-01 -.378E-02 -.137E+00
   0.460E+03 -.260E+03 -.321E+04   -.462E+03 0.257E+03 0.321E+04   0.972E+00 0.318E+01 -.952E+00   0.350E-02 0.894E-02 -.367E-01
   0.432E+03 -.368E+03 0.233E+04   -.434E+03 0.370E+03 -.234E+04   0.161E+01 -.160E+01 0.384E+01   0.865E-02 0.569E-02 -.326E-01
   0.269E+03 -.302E+03 -.175E+04   -.270E+03 0.300E+03 0.175E+04   0.607E-01 0.100E+01 0.146E+01   0.131E-01 0.512E-02 -.308E-01
   0.182E+03 0.355E+03 0.141E+04   -.181E+03 -.355E+03 -.141E+04   -.214E+00 -.387E+00 0.134E+01   -.218E-01 0.441E-01 -.812E-01
   0.116E+02 0.518E+03 -.262E+04   -.116E+02 -.519E+03 0.263E+04   -.137E-01 0.139E+01 -.444E+01   0.239E-01 0.616E-02 -.472E-01
   -.487E+02 0.343E+03 0.315E+04   0.488E+02 -.347E+03 -.314E+04   -.283E-01 0.341E+01 -.115E+01   0.316E-01 -.152E-01 -.731E-01
   -.246E+02 0.536E+03 -.855E+03   0.246E+02 -.538E+03 0.855E+03   -.723E-01 0.166E+01 -.217E+00   0.600E-02 -.426E-01 -.453E-01
   -.351E+01 0.234E+03 -.376E+04   0.373E+01 -.222E+03 0.374E+04   -.178E+00 -.105E+02 0.135E+02   -.188E-01 -.161E-01 0.343E-01
   -.311E+03 -.969E+02 0.373E+04   0.302E+03 0.918E+02 -.372E+04   0.817E+01 0.441E+01 -.748E+01   -.953E-01 0.139E-02 -.382E-01
   -.389E+03 -.210E+03 0.570E+03   0.390E+03 0.209E+03 -.572E+03   -.955E+00 0.272E+00 0.195E+01   -.498E-01 -.103E-01 -.968E-01
   -.448E+03 -.263E+03 -.323E+04   0.450E+03 0.259E+03 0.323E+04   -.989E+00 0.304E+01 -.306E+00   0.337E-01 0.323E-02 -.137E-01
   -.670E+03 -.488E+03 0.236E+04   0.666E+03 0.487E+03 -.236E+04   0.337E+01 0.992E+00 0.568E+01   0.356E-01 0.141E-01 -.482E-01
   -.298E+03 -.316E+03 -.173E+04   0.299E+03 0.315E+03 0.172E+04   -.487E+00 0.898E+00 0.160E+01   -.288E-01 -.223E-02 -.536E-01
   -.456E+02 0.137E+03 0.116E+04   0.452E+02 -.139E+03 -.116E+04   0.769E+00 0.201E+01 0.212E+01   -.109E-01 -.748E-02 -.257E-01
   -.155E+03 0.895E+02 -.324E+03   0.157E+03 -.907E+02 0.323E+03   -.261E+01 0.885E+00 0.120E+01   -.423E-02 -.186E-02 -.242E-01
   -.138E+03 0.129E+03 -.154E+04   0.140E+03 -.130E+03 0.154E+04   -.329E+01 0.253E+01 -.396E+01   0.748E-02 -.860E-02 0.191E-01
   -.152E+03 0.415E+02 0.343E+03   0.154E+03 -.425E+02 -.344E+03   -.249E+01 0.112E+01 0.931E+00   -.554E-02 0.694E-02 -.225E-01
   -.694E+02 -.902E+02 -.112E+04   0.701E+02 0.903E+02 0.112E+04   -.140E+01 0.257E+00 -.629E+00   -.353E-02 0.809E-02 -.157E-01
   0.361E+01 -.189E+03 -.621E+03   -.351E+01 0.191E+03 0.621E+03   -.412E-01 -.256E+01 0.216E+00   -.396E-02 0.709E-02 -.193E-01
   0.213E+02 -.150E+03 0.834E+03   -.214E+02 0.151E+03 -.832E+03   -.477E+00 -.230E+01 -.269E+01   -.218E-01 -.295E-01 -.627E-01
   -.368E+01 0.146E+02 0.151E+04   0.357E+01 -.146E+02 -.152E+04   0.546E-01 -.110E+01 0.551E+01   0.805E-02 0.223E-02 -.162E-01
   -.300E+01 -.146E+03 0.879E+02   0.298E+01 0.149E+03 -.877E+02   0.114E-01 -.282E+01 0.128E+00   0.620E-02 0.148E-01 -.265E-01
   -.107E+01 0.636E+02 -.134E+04   0.101E+01 -.660E+02 0.135E+04   0.662E-01 0.251E+01 -.370E+01   -.247E-02 -.442E-02 0.892E-02
   0.493E+02 0.137E+03 0.116E+04   -.489E+02 -.139E+03 -.116E+04   -.708E+00 0.200E+01 0.199E+01   0.351E-02 -.540E-02 -.308E-01
   0.157E+03 0.908E+02 -.322E+03   -.159E+03 -.921E+02 0.321E+03   0.249E+01 0.101E+01 0.120E+01   0.981E-03 0.137E-02 -.280E-01
   0.138E+03 0.129E+03 -.154E+04   -.141E+03 -.131E+03 0.154E+04   0.328E+01 0.255E+01 -.386E+01   -.162E-02 -.525E-04 0.143E-01
   0.140E+03 0.573E+02 0.335E+03   -.142E+03 -.584E+02 -.336E+03   0.232E+01 0.105E+01 0.105E+01   0.106E-01 0.653E-02 -.925E-02
   0.677E+02 -.886E+02 -.112E+04   -.683E+02 0.887E+02 0.112E+04   0.127E+01 0.207E+00 -.855E+00   0.856E-02 0.181E-01 -.158E-01
   -.533E+01 0.673E+02 0.115E+04   0.518E+01 -.686E+02 -.115E+04   -.275E-01 0.192E+01 0.190E+01   -.258E-01 0.254E-01 -.279E-01
   -.163E+03 0.741E+02 -.335E+03   0.165E+03 -.756E+02 0.334E+03   -.209E+01 0.132E+01 0.131E+01   0.609E-02 0.162E-02 -.196E-01
   -.167E+03 0.119E+03 -.153E+04   0.169E+03 -.121E+03 0.153E+04   -.261E+01 0.267E+01 -.415E+01   0.115E-01 0.769E-02 0.619E-02
   -.153E+03 0.972E+02 0.410E+03   0.155E+03 -.985E+02 -.410E+03   -.206E+01 0.121E+01 -.109E+01   0.214E-01 -.162E-01 -.449E-01
   -.723E+02 -.123E+02 -.111E+04   0.735E+02 0.123E+02 0.111E+04   -.210E+01 -.535E+00 -.237E+00   -.105E-01 -.109E-01 -.230E-02
   -.644E+02 -.830E+02 0.156E+04   0.643E+02 0.839E+02 -.157E+04   0.104E+01 -.108E+01 0.531E+01   0.124E-01 -.643E-03 -.445E-02
   0.621E+01 -.160E+03 -.604E+03   -.633E+01 0.161E+03 0.604E+03   0.239E+00 -.206E+01 0.332E+00   0.190E-02 -.114E-01 -.308E-01
   0.187E+02 -.219E+03 0.800E+03   -.188E+02 0.221E+03 -.800E+03   -.603E-01 -.174E+01 -.107E+01   -.102E-01 0.106E-01 -.282E-01
   -.337E+02 -.125E+03 0.149E+04   0.335E+02 0.126E+03 -.150E+04   0.794E+00 0.609E+00 0.575E+01   0.134E-01 0.151E-01 -.157E-01
   -.205E+02 -.175E+03 0.476E+02   0.206E+02 0.177E+03 -.472E+02   -.779E-01 -.268E+01 0.251E+00   0.302E-02 -.692E-02 -.125E-01
   0.173E+03 0.682E+02 -.302E+03   -.175E+03 -.696E+02 0.302E+03   0.287E+01 0.124E+01 -.468E+00   -.162E-02 0.608E-02 -.404E-01
   0.168E+03 0.119E+03 -.152E+04   -.170E+03 -.121E+03 0.153E+04   0.283E+01 0.272E+01 -.396E+01   -.586E-02 -.134E-02 0.116E-01
   0.135E+03 0.750E+02 0.396E+03   -.137E+03 -.762E+02 -.396E+03   0.231E+01 0.150E+01 -.545E+00   -.635E-02 -.136E-01 -.368E-01
   0.692E+02 -.143E+02 -.111E+04   -.703E+02 0.144E+02 0.111E+04   0.192E+01 -.651E+00 -.510E+00   -.103E-02 -.180E-01 0.756E-02
   0.460E+02 -.610E+02 0.158E+04   -.460E+02 0.616E+02 -.158E+04   -.965E+00 -.117E+01 0.523E+01   0.155E-02 -.112E-02 -.121E-01
 -----------------------------------------------------------------------------------------------
   -.101E+01 -.192E+02 -.232E+02   0.504E-12 -.206E-12 -.150E-10   0.117E+01 0.191E+02 0.252E+02   -.204E-01 -.207E-01 -.187E+01
 
 
 POSITION                                       TOTAL-FORCE (eV/Angst)
 -----------------------------------------------------------------------------------
      0.77362      4.85375      0.23384        -0.431856      0.302874      1.593476
      0.77362      4.27008      3.31838        -0.192198     -0.073278     -0.163486
      0.77362      3.68641      6.40293        -0.381130     -0.578131     -0.266011
      5.56283      1.74780      1.77611         0.222161      0.812337     -0.032802
      5.56283      1.16413      4.86066         0.174661      0.195045      0.351889
      2.03896      2.11667      2.91091        -0.027386     -0.030060     -0.336239
      2.03896      1.53300      5.99545         0.019062      0.203104      0.967889
      6.82816      5.22262      1.36864        -0.048580     -0.513711     -0.225621
      6.82816      4.63895      4.45318        -0.001068      0.194785      0.291134
      6.82816      4.05528      7.53772        -0.000884     -0.420810     -2.153179
      3.30429      4.85375      0.23384         0.538971      0.265779      1.535709
      3.30429      4.27008      3.31838         0.172727     -0.038331     -0.201340
      3.30429      3.68641      6.40293         0.397172     -0.571567     -0.234856
      8.09350      1.74780      1.77611        -0.170985      0.822978      0.028678
      8.09350      1.16413      4.86066        -0.174278      0.272426      0.359469
      0.77362     10.48199      0.23384         1.140966      0.543382      1.708179
      0.77362      9.89832      3.31838         0.050550      0.297659      0.103512
      0.77362      9.31465      6.40293        -0.614751     -0.529477     -0.312130
      5.56283      7.37603      1.77611        -0.218702      0.090220     -0.245685
      5.56283      6.79237      4.86066        -0.458384     -0.297688     -0.260096
      2.03896      7.74490      2.91091         0.272687     -0.232230     -0.053433
      2.03896      7.16123      5.99545        -0.010425      0.414418      0.915639
      6.82816     10.85085      1.36864         0.059743     -0.901517      0.769015
      6.82816     10.26718      4.45318        -0.037717     -0.137618     -0.014881
      6.82816      9.68351      7.53772         0.018306      1.055080     -1.878749
      3.30429     10.48199      0.23384        -0.969800     -0.617376      1.841916
      3.30429      9.89832      3.31838        -0.116025     -0.150141     -0.271256
      3.30429      9.31465      6.40293         0.667317     -0.649089     -0.269497
      8.09350      7.37603      1.77611        -0.465380     -0.281143     -0.135867
      8.09350      6.79237      4.86066         0.372288     -0.413360     -0.285130
      3.65019      2.91591      1.54227         0.350118     -0.033453     -0.600425
      3.65019      2.33224      4.62682        -0.339024     -0.313912     -0.044016
      3.65019      1.74857      7.71136        -1.080672      1.077192     -1.075545
      8.43940      5.43819      3.08454        -0.109591      0.128885     -0.194744
      8.43940      4.85452      6.16909        -0.714847      0.372457      0.728149
      2.03896      5.07432      5.14568         0.054388     -0.243702      0.770302
      2.03896      0.02975      2.06114        -0.578209     -0.883504     -1.451151
      6.82816      3.13570      0.51887        -0.053172     -1.067026      0.989696
      6.82816      2.55203      3.60341         0.002850     -0.442118      0.248245
      6.82816      1.96837      6.68795        -0.000485      0.092650      0.419764
      0.42773      2.91591      1.54227        -0.296679     -0.069859     -0.600631
      0.42773      2.33224      4.62682         0.357108     -0.289475     -0.015328
      0.42773      1.74857      7.71136         1.070654      1.060502     -1.096053
      5.21693      5.43819      3.08454         0.205729     -0.043243     -0.096783
      5.21693      4.85452      6.16909         0.706053      0.354286      0.734550
      3.65019      8.54414      1.54227        -0.209098      0.708344     -0.381179
      3.65019      7.96047      4.62682        -0.140533     -0.131606      0.463184
      3.65019      7.37680      7.71136        -0.801510      0.893551     -1.247841
      8.43940     11.06642      3.08454         0.168029     -0.146838     -1.003728
      8.43940     10.48275      6.16909        -0.831570     -0.540509      0.839067
      8.43940      6.02186      0.00000         0.957652     -0.198455      0.277035
      2.03896     10.70255      5.14568         0.124418     -0.350229      0.835754
      2.03896      5.65799      2.06114        -0.230822      0.183710     -1.232357
      6.82816      8.76394      0.51887         0.544339      1.009764      0.588064
      6.82816      8.18027      3.60341         0.066359     -0.212455      0.628623
      0.42773      7.96047      4.62682         0.116328     -0.065217     -0.776999
      0.42773      7.37680      7.71136         0.891059      0.920031     -1.171460
      5.21693     11.06642      3.08454         0.069743      0.281606     -0.718944
      5.21693     10.48275      6.16909         0.847615     -0.533632      0.908629
      5.21693      6.02186      0.00000        -0.933292     -0.552305      0.149875
 -----------------------------------------------------------------------------------
    total drift:                                0.135696     -0.062645      0.066471


--------------------------------------------------------------------------------------------------------



  FREE ENERGIE OF THE ION-ELECTRON SYSTEM (eV)
  ---------------------------------------------------
  free  energy   TOTEN  =      -289.14223065 eV

  energy  without entropy=     -288.08171830  energy(sigma->0) =     -288.61197447
 


--------------------------------------------------------------------------------------------------------


    POTLOK:  cpu time    0.0428: real time    0.0441


--------------------------------------------------------------------------------------------------------


     LOOP+:  cpu time   62.4583: real time   62.6905
    4ORBIT:  cpu time    0.0000: real time    0.0000

 total amount of memory used by VASP MPI-rank0    44047. kBytes
=======================================================================

   base      :      30000. kBytes
   nonlr-proj:       1858. kBytes
   fftplans  :       3306. kBytes
   grid      :       5981. kBytes
   one-center:         77. kBytes
   wavefun   :       2825. kBytes
 
  
  
 General timing and accounting informations for this job:
 ========================================================
  
                  Total CPU time used (sec):       64.294
                            User time (sec):       63.673
                          System time (sec):        0.622
                         Elapsed time (sec):       64.954
  
                   Maximum memory used (kb):      217132.
                   Average memory used (kb):           0.
  
                          Minor page faults:        65047
                          Major page faults:            0
                 Voluntary context switches:          922
