       N       E                     dE             d eps       ncg     rms          rms(c)
DAV:   1     0.135407439970E+05    0.13541E+05   -0.68398E+05  1532   0.168E+03
DAV:   2     0.873995881619E+03   -0.12667E+05   -0.12221E+05  1342   0.542E+02
DAV:   3    -0.454818578908E+03   -0.13288E+04   -0.12578E+04  1448   0.191E+02
DAV:   4    -0.539190150049E+03   -0.84372E+02   -0.83483E+02  1488   0.430E+01
DAV:   5    -0.542211563311E+03   -0.30214E+01   -0.30164E+01  1624   0.868E+00    0.107E+02
DAV:   6    -0.641414089394E+03   -0.99203E+02   -0.12977E+03  1560   0.124E+02    0.180E+02
DAV:   7    -0.499470875661E+03    0.14194E+03   -0.25463E+02  1432   0.794E+01    0.787E+01
DAV:   8    -0.588846567354E+03   -0.89376E+02   -0.26289E+02  1648   0.100E+02    0.173E+02
DAV:   9    -0.516209481493E+03    0.72637E+02   -0.21403E+02  1656   0.743E+01    0.944E+01
DAV:  10    -0.529866779912E+03   -0.13657E+02   -0.15260E+02  1832   0.511E+01    0.846E+01
DAV:  11    -0.518607805642E+03    0.11259E+02   -0.68610E+01  1736   0.424E+01    0.824E+01
DAV:  12    -0.503686244535E+03    0.14922E+02   -0.63333E+01  1760   0.405E+01    0.554E+01
DAV:  13    -0.501850532772E+03    0.18357E+01   -0.45046E+01  1672   0.488E+01    0.773E+01
DAV:  14    -0.484568816664E+03    0.17282E+02   -0.40302E+01  1720   0.344E+01    0.357E+01
DAV:  15    -0.480132840828E+03    0.44360E+01   -0.11921E+01  1720   0.171E+01    0.252E+01
DAV:  16    -0.478506489337E+03    0.16264E+01   -0.34774E+00  1704   0.931E+00    0.204E+01
DAV:  17    -0.478050241733E+03    0.45625E+00   -0.11931E+00  1640   0.616E+00    0.189E+01
DAV:  18    -0.477394738418E+03    0.65550E+00   -0.70881E-01  1768   0.514E+00    0.176E+01
DAV:  19    -0.476557719476E+03    0.83702E+00   -0.62565E-01  1744   0.504E+00    0.137E+01
DAV:  20    -0.475695625279E+03    0.86209E+00   -0.72267E-01  1808   0.503E+00    0.956E+00
DAV:  21    -0.475292729915E+03    0.40290E+00   -0.69258E-01  1736   0.458E+00    0.578E+00
DAV:  22    -0.475224517880E+03    0.68212E-01   -0.29946E-01  1616   0.250E+00    0.476E+00
DAV:  23    -0.475184775375E+03    0.39743E-01   -0.11210E-01  1584   0.185E+00    0.390E+00
DAV:  24    -0.475202685906E+03   -0.17911E-01   -0.11628E-01  1568   0.211E+00    0.416E+00
DAV:  25    -0.475163476192E+03    0.39210E-01   -0.19556E-01  1680   0.275E+00    0.277E+00
DAV:  26    -0.475192652880E+03   -0.29177E-01   -0.23581E-01  1744   0.288E+00    0.349E+00
DAV:  27    -0.475139719825E+03    0.52933E-01   -0.12788E-01  1664   0.234E+00    0.151E+00
DAV:  28    -0.475137002888E+03    0.27169E-02   -0.28422E-02  1720   0.836E-01    0.132E+00
DAV:  29    -0.475133663357E+03    0.33395E-02   -0.89199E-03  1472   0.577E-01    0.108E+00
DAV:  30    -0.475130599011E+03    0.30643E-02   -0.44383E-03  1720   0.397E-01    0.839E-01
DAV:  31    -0.475127994114E+03    0.26049E-02   -0.51180E-03  1720   0.415E-01    0.541E-01
DAV:  32    -0.475127901046E+03    0.93068E-04   -0.35977E-03  1696   0.352E-01    0.490E-01
DAV:  33    -0.475127274372E+03    0.62667E-03   -0.20499E-03  1464   0.291E-01    0.284E-01
DAV:  34    -0.475127475275E+03   -0.20090E-03   -0.80704E-04  1400   0.172E-01    0.264E-01
DAV:  35    -0.475127487715E+03   -0.12441E-04   -0.46428E-04  1176   0.151E-01
   1 F= -.47512749E+03 E0= -.47454635E+03  d E =-.116228E+01
