LAMMPS (5 Jun 2019)
OMP_NUM_THREADS environment is not set. Defaulting to 1 thread. (../comm.cpp:88)
  using 1 OpenMP thread(s) per MPI task
Reading data file ...
  triclinic box = (0 0 0) to (10.0797 9.4251 20.6835) with tilt (3.5733 0 0)
  1 by 1 by 1 MPI processor grid
  reading atoms ...
  72 atoms
  read_data CPU = 0.000795256 secs
44 atoms in group bulk
WARNING: Using 'neigh_modify every 1 delay 0 check yes' setting during minimization (../min.cpp:168)
Neighbor list info ...
  update every 1 steps, delay 0 steps, check yes
  max neighbors/atom: 2000, page size: 100000
  master list distance cutoff = 8.5
  ghost atom cutoff = 8.5
  binsize = 4.25, bins = 4 3 5
  1 neighbor lists, perpetual/occasional/extra = 1 0 0
  (1) pair eam/alloy, perpetual
      attributes: half, newton on
      pair build: half/bin/newton/tri
      stencil: half/bin/3d/newton/tri
      bin: standard
Setting up cg style minimization ...
  Unit style    : metal
  Current step  : 0
Per MPI rank memory allocation (min/avg/max) = 4.114 | 4.114 | 4.114 Mbytes
Step Temp E_pair E_mol TotEng Press 
       0            0   -306.28863            0   -306.28863   -128473.17 
      59            0   -325.07902            0   -325.07902   -45518.496 
Loop time of 0.0410097 on 1 procs for 59 steps with 72 atoms

99.7% CPU use with 1 MPI tasks x 1 OpenMP threads

Minimization stats:
  Stopping criterion = energy tolerance
  Energy initial, next-to-last, final = 
         -306.28862815     -325.076170839     -325.079020541
  Force two-norm initial, final = 11.1311 0.237998
  Force max component initial, final = 3.11931 0.105675
  Final line search alpha, max atom move = 0.627121 0.066271
  Iterations, force evaluations = 59 91

MPI task timing breakdown:
Section |  min time  |  avg time  |  max time  |%varavg| %total
---------------------------------------------------------------
Pair    | 0.03793    | 0.03793    | 0.03793    |   0.0 | 92.49
Neigh   | 0.0015396  | 0.0015396  | 0.0015396  |   0.0 |  3.75
Comm    | 0.00083861 | 0.00083861 | 0.00083861 |   0.0 |  2.04
Output  | 0          | 0          | 0          |   0.0 |  0.00
Modify  | 6.1192e-05 | 6.1192e-05 | 6.1192e-05 |   0.0 |  0.15
Other   |            | 0.0006406  |            |       |  1.56

Nlocal:    72 ave 72 max 72 min
Histogram: 1 0 0 0 0 0 0 0 0 0
Nghost:    950 ave 950 max 950 min
Histogram: 1 0 0 0 0 0 0 0 0 0
Neighs:    4830 ave 4830 max 4830 min
Histogram: 1 0 0 0 0 0 0 0 0 0

Total # of neighbors = 4830
Ave neighs/atom = 67.0833
Neighbor list builds = 3
Dangerous builds = 0
System init for write_data ...
Total wall time: 0:00:00
