
96 atoms
2 atom types
   0.0000000000   11.2564630382 xlo xhi
   0.0000000000   10.0628203371 ylo yhi
   0.0000000000   20.9685077140 zlo zhi
   5.0445621212    0.0000000000    0.0000000000 xy xz yz

Atoms # atomic

     1      1    5.3522814400    4.8178807235    5.8721159295
     2      1    5.9359508178    3.8723794730    8.8081738733
     3      1    1.6626616933    1.6774732168    0.0000000000
     4      1    2.2463310711    0.7319719664    2.9360579648
     5      1    0.8913888482    0.5180278929   10.9685077244
     6      1    4.7686120589    3.3545316543    2.1603338301
     7      1    5.3522814479    2.4090304038    5.0963917949
     8      1    5.9359508207    1.4635291433    8.0324497597
     9      1    1.8774643478    3.7383591186    5.0963917949
    10      1    2.4611337318    2.7928578581    8.0324497597
    11      1    3.0448031096    1.8473566076   10.9685077244
    12      1    6.9220263203    4.6838603690    2.1603338301
    13      1   10.9805129591    4.8178807235    5.8721159295
    14      1   11.5641823369    3.8723794730    8.8081738733
    15      1    7.2908932125    1.6774732168    0.0000000000
    16      1    7.8745625902    0.7319719664    2.9360579648
    17      1    6.5196203673    0.5180278929   10.9685077244
    18      1   10.3968435780    3.3545316543    2.1603338301
    19      1   10.9805129671    2.4090304038    5.0963917949
    20      1   11.5641823398    1.4635291433    8.0324497597
    21      1    7.5056958670    3.7383591186    5.0963917949
    22      1    8.0893652510    2.7928578581    8.0324497597
    23      1    8.6730346287    1.8473566076   10.9685077244
    24      1   12.5502578395    4.6838603690    2.1603338301
    25      1    7.8745625006    9.8492908920    5.8721159295
    26      1    8.4582318784    8.9037896415    8.8081738733
    27      1    4.1849427539    6.7088833854    0.0000000000
    28      1    4.7686121317    5.7633821349    2.9360579648
    29      1    3.4136699088    5.5494380614   10.9685077244
    30      1    7.2908931195    8.3859418228    2.1603338301
    31      1    7.8745625085    7.4404405724    5.0963917949
    32      1    8.4582318813    6.4949393119    8.0324497597
    33      1    4.3997454084    8.7697692871    5.0963917949
    34      1    4.9834147924    7.8242680266    8.0324497597
    35      1    5.5670841702    6.8787667761   10.9685077244
    36      1    9.4443073809    9.7152705376    2.1603338301
    37      1   13.5027940197    9.8492908920    5.8721159295
    38      1   14.0864633975    8.9037896415    8.8081738733
    39      1    9.8131742731    6.7088833854    0.0000000000
    40      1   10.3968436508    5.7633821349    2.9360579648
    41      1    9.0419014279    5.5494380614   10.9685077244
    42      1   12.9191246386    8.3859418228    2.1603338301
    43      1   13.5027940277    7.4404405724    5.0963917949
    44      1   14.0864634004    6.4949393119    8.0324497597
    45      1   10.0279769276    8.7697692871    5.0963917949
    46      1   10.6116463115    7.8242680266    8.0324497597
    47      1   11.1953156893    6.8787667761   10.9685077244
    48      1   15.0725389001    9.7152705376    2.1603338301
    49      2    1.6618955982    1.6787142343    6.2358093279
    50      2    2.2455649760    0.7332129838    9.1718672926
    51      2    6.1227881868    3.5697167453    0.3636934193
    52      2    6.7064575645    2.6242154948    3.2997513841
    53      2    2.2455649768    3.8005525407   10.1596452747
    54      2    7.2901269493    4.7460537911    7.2235873100
    55      2    3.6005072026    1.6056462845    1.3514714015
    56      2    4.1841765804    0.6601450341    4.2875293452
    57      2    3.3807113219    4.9443390294    1.3514714015
    58      2    3.9643806996    3.9988377790    4.2875293452
    59      2    4.5480500887    3.0533365285    7.2235873100
    60      2    5.1317194614    2.1078352680   10.1596452747
    61      2    7.2901271174    1.6787142343    6.2358093279
    62      2    7.8737964951    0.7332129838    9.1718672926
    63      2   11.7510197059    3.5697167453    0.3636934193
    64      2   12.3346890837    2.6242154948    3.2997513841
    65      2    7.8737964959    3.8005525407   10.1596452747
    66      2   12.9183584684    4.7460537911    7.2235873100
    67      2    9.2287387218    1.6056462845    1.3514714015
    68      2    9.8124080995    0.6601450341    4.2875293452
    69      2    9.0089428410    4.9443390294    1.3514714015
    70      2    9.5926122188    3.9988377790    4.2875293452
    71      2   10.1762816078    3.0533365285    7.2235873100
    72      2   10.7599509805    2.1078352680   10.1596452747
    73      2    4.1841766588    6.7101244028    6.2358093279
    74      2    4.7678460366    5.7646231524    9.1718672926
    75      2    8.6450692474    8.6011269138    0.3636934193
    76      2    9.2287386251    7.6556256633    3.2997513841
    77      2    4.7678460374    8.8319627092   10.1596452747
    78      2    9.8124080099    9.7774639597    7.2235873100
    79      2    6.1227882632    6.6370564530    1.3514714015
    80      2    6.7064576410    5.6915552026    4.2875293452
    81      2    5.9029923825    9.9757491979    1.3514714015
    82      2    6.4866617602    9.0302479475    4.2875293452
    83      2    7.0703311493    8.0847466970    7.2235873100
    84      2    7.6540005220    7.1392454365   10.1596452747
    85      2    9.8124081780    6.7101244028    6.2358093279
    86      2   10.3960775557    5.7646231524    9.1718672926
    87      2   14.2733007665    8.6011269138    0.3636934193
    88      2   14.8569701442    7.6556256633    3.2997513841
    89      2   10.3960775565    8.8319627092   10.1596452747
    90      2   15.4406395290    9.7774639597    7.2235873100
    91      2   11.7510197824    6.6370564530    1.3514714015
    92      2   12.3346891601    5.6915552026    4.2875293452
    93      2   11.5312239016    9.9757491979    1.3514714015
    94      2   12.1148932794    9.0302479475    4.2875293452
    95      2   12.6985626684    8.0847466970    7.2235873100
    96      2   13.2822320411    7.1392454365   10.1596452747
