  54  54   0   0
  0.2990868E+02  0.9578410E-09  0.1007973E-08  0.1901114E-08  0.5000000E-15
  1.000000000000000E-004
  CAR 
 "Millerite NiS"                         
     10.44386171    -66.70836380  301      0.96074809      1.00000000
    -66.708  0.0000E+00  0.0000E+00
    -66.451  0.0000E+00  0.0000E+00
    -66.194  0.0000E+00  0.0000E+00
    -65.937  0.0000E+00  0.0000E+00
    -65.680  0.0000E+00  0.0000E+00
    -65.422  0.0000E+00  0.0000E+00
    -65.165  0.0000E+00  0.0000E+00
    -64.908  0.0000E+00  0.0000E+00
    -64.651  0.0000E+00  0.0000E+00
    -64.394  0.0000E+00  0.0000E+00
    -64.137  0.4027E-09  0.1036E-09
    -63.879  0.2511E-04  0.6457E-05
    -63.622  0.7351E-01  0.1891E-01
    -63.365  0.1168E+02  0.3022E+01
    -63.108  0.1362E+03  0.3804E+02
    -62.851  0.2031E+03  0.9028E+02
    -62.594  0.9159E+02  0.1138E+03
    -62.336  0.5879E+02  0.1290E+03
    -62.079  0.4671E+02  0.1410E+03
    -61.822  0.2274E+02  0.1468E+03
    -61.565  0.3729E+02  0.1564E+03
    -61.308  0.1757E+02  0.1609E+03
    -61.051  0.3971E+01  0.1619E+03
    -60.793  0.2159E+00  0.1620E+03
    -60.536  0.7270E-03  0.1620E+03
    -60.279  0.1082E-06  0.1620E+03
    -60.022  0.6484E-12  0.1620E+03
    -59.765  0.0000E+00  0.1620E+03
    -59.507  0.0000E+00  0.1620E+03
    -59.250  0.0000E+00  0.1620E+03
    -58.993  0.0000E+00  0.1620E+03
    -58.736  0.0000E+00  0.1620E+03
    -58.479  0.0000E+00  0.1620E+03
    -58.222  0.0000E+00  0.1620E+03
    -57.964  0.0000E+00  0.1620E+03
    -57.707  0.0000E+00  0.1620E+03
    -57.450  0.0000E+00  0.1620E+03
    -57.193  0.0000E+00  0.1620E+03
    -56.936  0.0000E+00  0.1620E+03
    -56.679  0.0000E+00  0.1620E+03
    -56.421  0.0000E+00  0.1620E+03
    -56.164  0.0000E+00  0.1620E+03
    -55.907  0.0000E+00  0.1620E+03
    -55.650  0.0000E+00  0.1620E+03
    -55.393  0.0000E+00  0.1620E+03
    -55.136  0.0000E+00  0.1620E+03
    -54.878  0.0000E+00  0.1620E+03
    -54.621  0.0000E+00  0.1620E+03
    -54.364  0.0000E+00  0.1620E+03
    -54.107  0.0000E+00  0.1620E+03
    -53.850  0.0000E+00  0.1620E+03
    -53.592  0.0000E+00  0.1620E+03
    -53.335  0.0000E+00  0.1620E+03
    -53.078  0.0000E+00  0.1620E+03
    -52.821  0.0000E+00  0.1620E+03
    -52.564  0.0000E+00  0.1620E+03
    -52.307  0.0000E+00  0.1620E+03
    -52.049  0.0000E+00  0.1620E+03
    -51.792  0.0000E+00  0.1620E+03
    -51.535  0.0000E+00  0.1620E+03
    -51.278  0.0000E+00  0.1620E+03
    -51.021  0.0000E+00  0.1620E+03
    -50.764  0.0000E+00  0.1620E+03
    -50.506  0.0000E+00  0.1620E+03
    -50.249  0.0000E+00  0.1620E+03
    -49.992  0.0000E+00  0.1620E+03
    -49.735  0.0000E+00  0.1620E+03
    -49.478  0.0000E+00  0.1620E+03
    -49.221  0.0000E+00  0.1620E+03
    -48.963  0.0000E+00  0.1620E+03
    -48.706  0.0000E+00  0.1620E+03
    -48.449  0.0000E+00  0.1620E+03
    -48.192  0.0000E+00  0.1620E+03
    -47.935  0.0000E+00  0.1620E+03
    -47.677  0.0000E+00  0.1620E+03
    -47.420  0.0000E+00  0.1620E+03
    -47.163  0.0000E+00  0.1620E+03
    -46.906  0.0000E+00  0.1620E+03
    -46.649  0.0000E+00  0.1620E+03
    -46.392  0.0000E+00  0.1620E+03
    -46.134  0.0000E+00  0.1620E+03
    -45.877  0.0000E+00  0.1620E+03
    -45.620  0.0000E+00  0.1620E+03
    -45.363  0.0000E+00  0.1620E+03
    -45.106  0.0000E+00  0.1620E+03
    -44.849  0.0000E+00  0.1620E+03
    -44.591  0.0000E+00  0.1620E+03
    -44.334  0.0000E+00  0.1620E+03
    -44.077  0.0000E+00  0.1620E+03
    -43.820  0.0000E+00  0.1620E+03
    -43.563  0.0000E+00  0.1620E+03
    -43.306  0.0000E+00  0.1620E+03
    -43.048  0.0000E+00  0.1620E+03
    -42.791  0.0000E+00  0.1620E+03
    -42.534  0.0000E+00  0.1620E+03
    -42.277  0.0000E+00  0.1620E+03
    -42.020  0.0000E+00  0.1620E+03
    -41.762  0.0000E+00  0.1620E+03
    -41.505  0.0000E+00  0.1620E+03
    -41.248  0.0000E+00  0.1620E+03
    -40.991  0.0000E+00  0.1620E+03
    -40.734  0.0000E+00  0.1620E+03
    -40.477  0.0000E+00  0.1620E+03
    -40.219  0.0000E+00  0.1620E+03
    -39.962  0.0000E+00  0.1620E+03
    -39.705  0.0000E+00  0.1620E+03
    -39.448  0.0000E+00  0.1620E+03
    -39.191  0.0000E+00  0.1620E+03
    -38.934  0.0000E+00  0.1620E+03
    -38.676  0.0000E+00  0.1620E+03
    -38.419  0.0000E+00  0.1620E+03
    -38.162  0.0000E+00  0.1620E+03
    -37.905  0.0000E+00  0.1620E+03
    -37.648  0.0000E+00  0.1620E+03
    -37.391  0.0000E+00  0.1620E+03
    -37.133  0.0000E+00  0.1620E+03
    -36.876  0.0000E+00  0.1620E+03
    -36.619  0.0000E+00  0.1620E+03
    -36.362  0.0000E+00  0.1620E+03
    -36.105  0.0000E+00  0.1620E+03
    -35.847  0.0000E+00  0.1620E+03
    -35.590  0.0000E+00  0.1620E+03
    -35.333  0.0000E+00  0.1620E+03
    -35.076  0.0000E+00  0.1620E+03
    -34.819  0.0000E+00  0.1620E+03
    -34.562  0.0000E+00  0.1620E+03
    -34.304  0.0000E+00  0.1620E+03
    -34.047  0.0000E+00  0.1620E+03
    -33.790  0.0000E+00  0.1620E+03
    -33.533  0.0000E+00  0.1620E+03
    -33.276  0.0000E+00  0.1620E+03
    -33.019  0.0000E+00  0.1620E+03
    -32.761  0.0000E+00  0.1620E+03
    -32.504  0.0000E+00  0.1620E+03
    -32.247  0.0000E+00  0.1620E+03
    -31.990  0.0000E+00  0.1620E+03
    -31.733  0.0000E+00  0.1620E+03
    -31.476  0.0000E+00  0.1620E+03
    -31.218  0.0000E+00  0.1620E+03
    -30.961  0.0000E+00  0.1620E+03
    -30.704  0.0000E+00  0.1620E+03
    -30.447  0.0000E+00  0.1620E+03
    -30.190  0.0000E+00  0.1620E+03
    -29.932  0.0000E+00  0.1620E+03
    -29.675  0.0000E+00  0.1620E+03
    -29.418  0.0000E+00  0.1620E+03
    -29.161  0.0000E+00  0.1620E+03
    -28.904  0.0000E+00  0.1620E+03
    -28.647  0.0000E+00  0.1620E+03
    -28.389  0.0000E+00  0.1620E+03
    -28.132  0.0000E+00  0.1620E+03
    -27.875  0.0000E+00  0.1620E+03
    -27.618  0.0000E+00  0.1620E+03
    -27.361  0.0000E+00  0.1620E+03
    -27.104  0.0000E+00  0.1620E+03
    -26.846  0.0000E+00  0.1620E+03
    -26.589  0.0000E+00  0.1620E+03
    -26.332  0.0000E+00  0.1620E+03
    -26.075  0.0000E+00  0.1620E+03
    -25.818  0.0000E+00  0.1620E+03
    -25.561  0.0000E+00  0.1620E+03
    -25.303  0.0000E+00  0.1620E+03
    -25.046  0.0000E+00  0.1620E+03
    -24.789  0.0000E+00  0.1620E+03
    -24.532  0.0000E+00  0.1620E+03
    -24.275  0.0000E+00  0.1620E+03
    -24.017  0.0000E+00  0.1620E+03
    -23.760  0.0000E+00  0.1620E+03
    -23.503  0.0000E+00  0.1620E+03
    -23.246  0.0000E+00  0.1620E+03
    -22.989  0.0000E+00  0.1620E+03
    -22.732  0.0000E+00  0.1620E+03
    -22.474  0.0000E+00  0.1620E+03
    -22.217  0.0000E+00  0.1620E+03
    -21.960  0.0000E+00  0.1620E+03
    -21.703  0.0000E+00  0.1620E+03
    -21.446  0.0000E+00  0.1620E+03
    -21.189  0.0000E+00  0.1620E+03
    -20.931  0.0000E+00  0.1620E+03
    -20.674  0.0000E+00  0.1620E+03
    -20.417  0.0000E+00  0.1620E+03
    -20.160  0.0000E+00  0.1620E+03
    -19.903  0.0000E+00  0.1620E+03
    -19.646  0.0000E+00  0.1620E+03
    -19.388  0.0000E+00  0.1620E+03
    -19.131  0.0000E+00  0.1620E+03
    -18.874  0.0000E+00  0.1620E+03
    -18.617  0.0000E+00  0.1620E+03
    -18.360  0.0000E+00  0.1620E+03
    -18.102  0.0000E+00  0.1620E+03
    -17.845  0.0000E+00  0.1620E+03
    -17.588  0.0000E+00  0.1620E+03
    -17.331  0.0000E+00  0.1620E+03
    -17.074  0.0000E+00  0.1620E+03
    -16.817  0.0000E+00  0.1620E+03
    -16.559  0.0000E+00  0.1620E+03
    -16.302  0.0000E+00  0.1620E+03
    -16.045  0.0000E+00  0.1620E+03
    -15.788  0.0000E+00  0.1620E+03
    -15.531  0.1727E-14  0.1620E+03
    -15.274  0.1177E-08  0.1620E+03
    -15.016  0.2917E-04  0.1620E+03
    -14.759  0.3032E-01  0.1620E+03
    -14.502  0.1524E+01  0.1624E+03
    -14.245  0.4944E+01  0.1637E+03
    -13.988  0.1271E+01  0.1640E+03
    -13.731  0.1693E+01  0.1644E+03
    -13.473  0.1375E+02  0.1680E+03
    -13.216  0.1917E+02  0.1729E+03
    -12.959  0.2276E+02  0.1788E+03
    -12.702  0.1817E+02  0.1834E+03
    -12.445  0.3006E+02  0.1912E+03
    -12.187  0.2474E+02  0.1975E+03
    -11.930  0.2212E+02  0.2032E+03
    -11.673  0.1333E+02  0.2066E+03
    -11.416  0.1023E+02  0.2093E+03
    -11.159  0.4168E+01  0.2103E+03
    -10.902  0.9283E+01  0.2127E+03
    -10.644  0.1012E+02  0.2153E+03
    -10.387  0.2519E+01  0.2160E+03
    -10.130  0.7016E-01  0.2160E+03
     -9.873  0.1089E-03  0.2160E+03
     -9.616  0.7302E-08  0.2160E+03
     -9.359  0.1899E-13  0.2160E+03
     -9.101  0.0000E+00  0.2160E+03
     -8.844  0.0000E+00  0.2160E+03
     -8.587  0.0000E+00  0.2160E+03
     -8.330  0.0000E+00  0.2160E+03
     -8.073  0.0000E+00  0.2160E+03
     -7.815  0.0000E+00  0.2160E+03
     -7.558  0.0000E+00  0.2160E+03
     -7.301  0.0000E+00  0.2160E+03
     -7.044  0.2604E-10  0.2160E+03
     -6.787  0.1759E-05  0.2160E+03
     -6.530  0.4882E-02  0.2160E+03
     -6.272  0.6445E+00  0.2162E+03
     -6.015  0.7185E+01  0.2180E+03
     -5.758  0.1983E+02  0.2231E+03
     -5.501  0.1740E+02  0.2276E+03
     -5.244  0.3059E+02  0.2355E+03
     -4.987  0.4184E+02  0.2462E+03
     -4.729  0.3442E+02  0.2551E+03
     -4.472  0.3061E+02  0.2629E+03
     -4.215  0.2786E+02  0.2701E+03
     -3.958  0.2824E+02  0.2774E+03
     -3.701  0.3776E+02  0.2871E+03
     -3.444  0.4549E+02  0.2988E+03
     -3.186  0.4880E+02  0.3113E+03
     -2.929  0.5401E+02  0.3252E+03
     -2.672  0.4826E+02  0.3376E+03
     -2.415  0.3960E+02  0.3478E+03
     -2.158  0.4244E+02  0.3587E+03
     -1.900  0.4087E+02  0.3692E+03
     -1.643  0.3720E+02  0.3788E+03
     -1.386  0.5022E+02  0.3917E+03
     -1.129  0.7370E+02  0.4107E+03
     -0.872  0.9846E+02  0.4360E+03
     -0.615  0.1264E+03  0.4685E+03
     -0.357  0.1169E+03  0.4986E+03
     -0.100  0.9260E+02  0.5224E+03
      0.157  0.7391E+02  0.5414E+03
      0.414  0.8275E+02  0.5627E+03
      0.671  0.7059E+02  0.5808E+03
      0.928  0.4608E+02  0.5927E+03
      1.186  0.4193E+02  0.6035E+03
      1.443  0.4197E+02  0.6142E+03
      1.700  0.4339E+02  0.6254E+03
      1.957  0.4965E+02  0.6382E+03
      2.214  0.3349E+02  0.6468E+03
      2.471  0.1472E+02  0.6506E+03
      2.729  0.1101E+02  0.6534E+03
      2.986  0.6760E+01  0.6551E+03
      3.243  0.4056E+01  0.6562E+03
      3.500  0.4980E+01  0.6575E+03
      3.757  0.2844E+01  0.6582E+03
      4.015  0.5653E+01  0.6597E+03
      4.272  0.8585E+01  0.6619E+03
      4.529  0.1116E+02  0.6647E+03
      4.786  0.1480E+02  0.6685E+03
      5.043  0.1316E+02  0.6719E+03
      5.300  0.1278E+02  0.6752E+03
      5.558  0.1858E+02  0.6800E+03
      5.815  0.2037E+02  0.6852E+03
      6.072  0.2577E+02  0.6919E+03
      6.329  0.2726E+02  0.6989E+03
      6.586  0.2566E+02  0.7055E+03
      6.843  0.3415E+02  0.7142E+03
      7.101  0.2034E+02  0.7195E+03
      7.358  0.2014E+01  0.7200E+03
      7.615  0.1655E-01  0.7200E+03
      7.872  0.7598E-05  0.7200E+03
      8.129  0.1594E-09  0.7200E+03
      8.386  0.0000E+00  0.7200E+03
      8.644  0.0000E+00  0.7200E+03
      8.901  0.0000E+00  0.7200E+03
      9.158  0.0000E+00  0.7200E+03
      9.415  0.0000E+00  0.7200E+03
      9.672  0.0000E+00  0.7200E+03
      9.930  0.0000E+00  0.7200E+03
     10.187  0.0000E+00  0.7200E+03
     10.444  0.0000E+00  0.7200E+03
