 vasp.6.1.0 28Jan20 (build Mar 31 2020 17:42:31) gamma-only                     
  
 executed on             LinuxIFC date 2020.04.12  08:40:23
 running on   48 total cores
 distrk:  each k-point on   48 cores,    1 groups
 distr:  one band on NCORE=   6 cores,    8 groups


--------------------------------------------------------------------------------------------------------


 INCAR:
 POTCAR:    PAW_PBE Ni_pv 06Sep2000               
 POTCAR:    PAW_PBE S 06Sep2000                   
 POTCAR:    PAW_PBE Ni_pv 06Sep2000               
   VRHFIN =Ni:                                                                                      
   LEXCH  = PE                                                                                      
   EATOM  =  3501.1230 eV,  257.3253 Ry                                                             
                                                                                                    
   TITEL  = PAW_PBE Ni_pv 06Sep2000                                                                 
   LULTRA =        F    use ultrasoft PP ?                                                          
   IUNSCR =        1    unscreen: 0-lin 1-nonlin 2-no                                               
   RPACOR =    1.500    partial core radius                                                         
   POMASS =   58.690; ZVAL   =   16.000    mass and valenz                                          
   RCORE  =    2.000    outmost cutoff radius                                                       
   RWIGS  =    2.000; RWIGS  =    1.058    wigner-seitz radius (au A)                               
   ENMAX  =  367.986; ENMIN  =  275.989 eV                                                          
   RCLOC  =    1.301    cutoff for local pot                                                        
   LCOR   =        T    correct aug charges                                                         
   LPAW   =        T    paw PP                                                                      
   EAUG   =  703.443                                                                                
   DEXC   =    0.000                                                                                
   RMAX   =    2.041    core radius for proj-oper                                                   
   RAUG   =    1.300    factor for augmentation sphere                                              
   RDEP   =    2.103    radius for radial grids                                                     
   RDEPT  =    1.618    core radius for aug-charge                                                  
                                                                                                    
   Atomic configuration                                                                             
    8 entries                                                                                       
     n  l   j            E        occ.                                                              
     1  0  0.50     -8206.4253   2.0000                                                             
     2  0  0.50      -976.1748   2.0000                                                             
     2  1  1.50      -839.0571   6.0000                                                             
     3  0  0.50      -105.9991   2.0000                                                             
     3  1  1.50       -66.4603   6.0000                                                             
     3  2  2.50        -4.6458   9.0000                                                             
     4  0  0.50        -4.4926   1.0000                                                             
     4  3  2.50        -1.3606   0.0000                                                             
   Description                                                                                      
     l       E           TYP  RCUT    TYP  RCUT                                                     
     1    -66.4602962     23  1.700                                                                 
     1     -1.3605826     23  1.700                                                                 
     2     -4.6457867     23  2.000                                                                 
     2     -6.0063693     23  2.000                                                                 
     0     -4.4925576     23  1.900                                                                 
     0     16.3626226     23  1.900                                                                 
  local pseudopotential read in
  partial core-charges read in
  partial kinetic energy density read in
  atomic valenz-charges read in
  non local Contribution for L=           1  read in
    real space projection operators read in
  non local Contribution for L=           1  read in
    real space projection operators read in
  non local Contribution for L=           2  read in
    real space projection operators read in
  non local Contribution for L=           2  read in
    real space projection operators read in
  non local Contribution for L=           0  read in
    real space projection operators read in
  non local Contribution for L=           0  read in
    real space projection operators read in
    PAW grid and wavefunctions read in
 
   number of l-projection  operators is LMAX  =           6
   number of lm-projection operators is LMMAX =          18
 
 POTCAR:    PAW_PBE S 06Sep2000                   
   VRHFIN =S : s2p4                                                                                 
   LEXCH  = PE                                                                                      
   EATOM  =   276.8230 eV,   20.3459 Ry                                                             
                                                                                                    
   TITEL  = PAW_PBE S 06Sep2000                                                                     
   LULTRA =        F    use ultrasoft PP ?                                                          
   IUNSCR =        1    unscreen: 0-lin 1-nonlin 2-no                                               
   RPACOR =    1.500    partial core radius                                                         
   POMASS =   32.066; ZVAL   =    6.000    mass and valenz                                          
   RCORE  =    1.900    outmost cutoff radius                                                       
   RWIGS  =    2.200; RWIGS  =    1.164    wigner-seitz radius (au A)                               
   ENMAX  =  258.689; ENMIN  =  194.016 eV                                                          
   ICORE  =        2    local potential                                                             
   LCOR   =        T    correct aug charges                                                         
   LPAW   =        T    paw PP                                                                      
   EAUG   =  335.092                                                                                
   DEXC   =    0.000                                                                                
   RMAX   =    1.942    core radius for proj-oper                                                   
   RAUG   =    1.300    factor for augmentation sphere                                              
   RDEP   =    1.954    radius for radial grids                                                     
   RDEPT  =    1.744    core radius for aug-charge                                                  
                                                                                                    
   Atomic configuration                                                                             
    6 entries                                                                                       
     n  l   j            E        occ.                                                              
     1  0  0.50     -2405.8406   2.0000                                                             
     2  0  0.50      -211.7007   2.0000                                                             
     2  1  1.50      -156.4958   6.0000                                                             
     3  0  0.50       -17.2562   2.0000                                                             
     3  1  0.50        -7.0085   4.0000                                                             
     3  2  1.50        -6.8029   0.0000                                                             
   Description                                                                                      
     l       E           TYP  RCUT    TYP  RCUT                                                     
     0    -17.2561641     23  1.900                                                                 
     0    -15.8743224     23  1.900                                                                 
     1     -7.0085400     23  1.900                                                                 
     1     -2.7779785     23  1.900                                                                 
     2     -6.8029130     23  1.900                                                                 
  local pseudopotential read in
  partial core-charges read in
  partial kinetic energy density read in
  atomic valenz-charges read in
  non local Contribution for L=           0  read in
    real space projection operators read in
  non local Contribution for L=           0  read in
    real space projection operators read in
  non local Contribution for L=           1  read in
    real space projection operators read in
  non local Contribution for L=           1  read in
    real space projection operators read in
    PAW grid and wavefunctions read in
 
   number of l-projection  operators is LMAX  =           4
   number of lm-projection operators is LMMAX =           8
 
 Optimization of the real space projectors (new method)

 maximal supplied QI-value         = 18.90
 optimisation between [QCUT,QGAM] = [ 10.77, 21.73] = [ 32.49,132.25] Ry 
 Optimized for a Real-space Cutoff    1.38 Angstroem

   l    n(q)    QCUT    max X(q) W(low)/X(q) W(high)/X(q)  e(spline) 
   1      8    10.771     2.836    0.40E-04    0.29E-04    0.12E-06
   1      8    10.771     4.023    0.10E-03    0.48E-04    0.29E-06
   2      8    10.771    73.368    0.42E-03    0.97E-04    0.44E-06
   2      8    10.771    69.010    0.42E-03    0.99E-04    0.45E-06
   0      9    10.771    54.797    0.10E-03    0.56E-04    0.74E-07
   0      9    10.771    24.266    0.89E-04    0.49E-04    0.67E-07
 Optimization of the real space projectors (new method)

 maximal supplied QI-value         = 19.84
 optimisation between [QCUT,QGAM] = [ 10.71, 21.63] = [ 32.15,130.99] Ry 
 Optimized for a Real-space Cutoff    1.19 Angstroem

   l    n(q)    QCUT    max X(q) W(low)/X(q) W(high)/X(q)  e(spline) 
   0      8    10.715   187.594    0.41E-03    0.53E-04    0.66E-07
   0      8    10.715   164.243    0.41E-03    0.53E-04    0.65E-07
   1      7    10.715    67.533    0.19E-03    0.59E-03    0.68E-07
   1      7    10.715    50.729    0.19E-03    0.58E-03    0.67E-07
  PAW_PBE Ni_pv 06Sep2000               :
 energy of atom  1       EATOM=-3501.1230
 kinetic energy error for atom=    0.0925 (will be added to EATOM!!)
  PAW_PBE S 06Sep2000                   :
 energy of atom  2       EATOM= -276.8230
 kinetic energy error for atom=    0.0033 (will be added to EATOM!!)
 
 
 POSCAR: Structure 4 made from -112-10.xsd file
  positions in direct lattice
  No initial velocities read in
 exchange correlation table for  LEXCH =        8
   RHO(1)=    0.500       N(1)  =     2000
   RHO(2)=  100.500       N(2)  =     4000
 


--------------------------------------------------------------------------------------------------------


 ion  position               nearest neighbor table
   1  0.780  0.145  0.121-  41 2.25  49 2.26  63 2.26  50 2.36  64 2.36  24 2.53  12 2.53
   2  0.815  0.145  0.311-  42 2.25  50 2.26  64 2.26  25 2.53
   3  0.263  0.645  0.025-  43 2.25  51 2.36  61 2.36  26 2.53  13 2.53
   4  0.297  0.645  0.216-  44 2.25  51 2.26  61 2.26  52 2.36  62 2.36  27 2.53  14 2.53
   5  0.470  0.145  0.248-  46 2.25  53 2.26  67 2.26  54 2.36  68 2.36  30 2.53  17 2.53
   6  0.952  0.645  0.152-  47 2.25  56 2.26  66 2.26  55 2.36  65 2.36  31 2.53  18 2.53
   7  0.987  0.645  0.343-  48 2.25  55 2.26  65 2.26  32 2.53  19 2.53
   8  0.125  0.145  0.184-  38 2.25  57 2.26  71 2.26  58 2.36  72 2.36  33 2.53  20 2.53
   9  0.159  0.145  0.375-  37 2.25  58 2.26  72 2.26  34 2.53  21 2.53
  10  0.608  0.645  0.089-  39 2.25  59 2.36  69 2.36  35 2.53  22 2.53
  11  0.642  0.645  0.280-  40 2.25  59 2.26  69 2.26  60 2.36  70 2.36  36 2.53  23 2.53
  12  0.908  0.013  0.095-  56 2.25  63 2.26  64 2.36  38 2.36   1 2.53  24 2.53
  13  0.390  0.513  0.000-  39 2.36  61 2.36   3 2.53  26 2.53
  14  0.425  0.513  0.191-  53 2.25  39 2.26  61 2.26  40 2.36  62 2.36  27 2.53   4 2.53
  15  0.459  0.513  0.382-  54 2.25  40 2.26  62 2.26  28 2.53
  16  0.563  0.013  0.032-  41 2.36  67 2.36  29 2.53
  17  0.597  0.013  0.223-  59 2.25  67 2.26  41 2.26  68 2.36  42 2.36   5 2.53  30 2.53
  18  0.080  0.513  0.127-  57 2.25  43 2.26  66 2.26  44 2.36  65 2.36   6 2.53  31 2.53
  19  0.115  0.513  0.318-  58 2.25  44 2.26  65 2.26   7 2.53  32 2.53
  20  0.252  0.013  0.159-  51 2.25  45 2.26  71 2.26  46 2.36  72 2.36   8 2.53  33 2.53
  21  0.287  0.013  0.350-  52 2.25  46 2.26  72 2.26   9 2.53  34 2.53
  22  0.735  0.513  0.064-  49 2.25  69 2.36  47 2.36  10 2.53  35 2.53
  23  0.770  0.513  0.254-  50 2.25  69 2.26  47 2.26  48 2.36  70 2.36  11 2.53  36 2.53
  24  0.908  0.277  0.095-  66 2.25  49 2.26  50 2.36  38 2.36   1 2.53  12 2.53
  25  0.942  0.277  0.286-  65 2.25  50 2.26  38 2.26  37 2.36   2 2.53
  26  0.390  0.777  0.000-  39 2.36  51 2.36   3 2.53  13 2.53
  27  0.425  0.777  0.191-  67 2.25  39 2.26  51 2.26  40 2.36  52 2.36  14 2.53   4 2.53
  28  0.459  0.777  0.382-  68 2.25  40 2.26  52 2.26  15 2.53
  29  0.563  0.277  0.032-  41 2.36  53 2.36  16 2.53
  30  0.597  0.277  0.223-  69 2.25  53 2.26  41 2.26  54 2.36  42 2.36   5 2.53  17 2.53
  31  0.080  0.777  0.127-  71 2.25  43 2.26  56 2.26  44 2.36  55 2.36   6 2.53  18 2.53
  32  0.115  0.777  0.318-  72 2.25  44 2.26  55 2.26   7 2.53  19 2.53
  33  0.252  0.277  0.159-  61 2.25  45 2.26  57 2.26  46 2.36  58 2.36   8 2.53  20 2.53
  34  0.287  0.277  0.350-  62 2.25  46 2.26  58 2.26   9 2.53  21 2.53
  35  0.735  0.777  0.064-  63 2.25  59 2.36  47 2.36  10 2.53  22 2.53
  36  0.770  0.777  0.254-  64 2.25  59 2.26  47 2.26  48 2.36  60 2.36  11 2.53  23 2.53
  37  0.026  0.145  0.373-   9 2.25  25 2.36
  38  0.991  0.145  0.182-   8 2.25  25 2.26  24 2.36  12 2.36
  39  0.474  0.645  0.087-  10 2.25  14 2.26  27 2.26  26 2.36  13 2.36
  40  0.509  0.645  0.278-  11 2.25  15 2.26  28 2.26  27 2.36  14 2.36
  41  0.647  0.145  0.119-   1 2.25  17 2.26  30 2.26  29 2.36  16 2.36
  42  0.681  0.145  0.310-   2 2.25  17 2.36  30 2.36
  43  0.129  0.645  0.023-   3 2.25  18 2.26  31 2.26
  44  0.164  0.645  0.214-   4 2.25  19 2.26  32 2.26  31 2.36  18 2.36
  45  0.302  0.145  0.055-  20 2.26  33 2.26
  46  0.336  0.145  0.246-   5 2.25  21 2.26  34 2.26  33 2.36  20 2.36
  47  0.819  0.645  0.151-   6 2.25  23 2.26  36 2.26  35 2.36  22 2.36
  48  0.854  0.645  0.341-   7 2.25  23 2.36  36 2.36
  49  0.794  0.314  0.024-  22 2.25   1 2.26  24 2.26
  50  0.829  0.314  0.214-  23 2.25  25 2.26   2 2.26  24 2.36   1 2.36
  51  0.312  0.814  0.119-  20 2.25   4 2.26  27 2.26  26 2.36   3 2.36
  52  0.346  0.814  0.310-  21 2.25  28 2.26   4 2.36  27 2.36
  53  0.484  0.314  0.151-  14 2.25  30 2.26   5 2.26  29 2.36
  54  0.519  0.314  0.342-  15 2.25  30 2.36   5 2.36
  55  0.001  0.814  0.246-   7 2.26  32 2.26   6 2.36  31 2.36
  56  0.967  0.814  0.056-  12 2.25   6 2.26  31 2.26
  57  0.139  0.314  0.087-  18 2.25  33 2.26   8 2.26
  58  0.174  0.314  0.278-  19 2.25   9 2.26  34 2.26   8 2.36  33 2.36
  59  0.657  0.814  0.183-  17 2.25  36 2.26  11 2.26  35 2.36  10 2.36
  60  0.691  0.814  0.373-  36 2.36  11 2.36
  61  0.312  0.477  0.119-  33 2.25   4 2.26  14 2.26  13 2.36   3 2.36
  62  0.346  0.477  0.310-  34 2.25  15 2.26   4 2.36  14 2.36
  63  0.794  0.977  0.024-  35 2.25   1 2.26  12 2.26
  64  0.829  0.977  0.214-  36 2.25   2 2.26  12 2.36   1 2.36
  65  0.001  0.477  0.246-  25 2.25   7 2.26  19 2.26   6 2.36  18 2.36
  66  0.967  0.477  0.056-  24 2.25   6 2.26  18 2.26
  67  0.484  0.977  0.151-  27 2.25  17 2.26   5 2.26  16 2.36
  68  0.519  0.977  0.342-  28 2.25  17 2.36   5 2.36
  69  0.657  0.477  0.183-  30 2.25  23 2.26  11 2.26  22 2.36  10 2.36
  70  0.691  0.477  0.373-  23 2.36  11 2.36
  71  0.139  0.977  0.087-  31 2.25  20 2.26   8 2.26
  72  0.174  0.977  0.278-  32 2.25   9 2.26  21 2.26   8 2.36  20 2.36
 
  LATTYP: Found a simple orthorhombic cell.
 ALAT       =     9.5784100000
 B/A-ratio  =     1.6880763216
 C/A-ratio  =     1.7627867312
  
  Lattice vectors:
  
 A1 = (   0.0000000000,   9.5784100000,   0.0000000000)
 A2 = (   0.0000000000,   0.0000000000, -16.1690871197)
 A3 = ( -16.8846940542,   0.0000000000,   0.0000000000)


Analysis of symmetry for initial positions (statically):
=====================================================================
 Subroutine PRICEL returns:
 Original cell was already a primitive cell.
 

 Routine SETGRP: Setting up the symmetry group for a 
 simple orthorhombic supercell.


 Subroutine GETGRP returns: Found  1 space group operations
 (whereof  1 operations were pure point group operations)
 out of a pool of  8 trial point group operations.


The static configuration has the point symmetry C_1 .


Analysis of symmetry for dynamics (positions and initial velocities):
=====================================================================
 Subroutine PRICEL returns:
 Original cell was already a primitive cell.
 

 Routine SETGRP: Setting up the symmetry group for a 
 simple orthorhombic supercell.


 Subroutine GETGRP returns: Found  1 space group operations
 (whereof  1 operations were pure point group operations)
 out of a pool of  8 trial point group operations.


The dynamic configuration has the point symmetry C_1 .


 Subroutine INISYM returns: Found  1 space group operations
 (whereof  1 operations are pure point group operations),
 and found     1 'primitive' translations


----------------------------------------------------------------------------------------

                                     Primitive cell                                     

  volume of cell :    2615.0026

  direct lattice vectors                    reciprocal lattice vectors
    16.884694054  0.000000000  0.000000000     0.059225237  0.000000000  0.000000000
     0.000000000  9.578410000  0.000000000     0.000000000  0.104401461  0.000000000
     0.000000000  0.000000000 16.169087120     0.000000000  0.000000000  0.061846411

  length of vectors
    16.884694054  9.578410000 16.169087120     0.059225237  0.104401461  0.061846411

  position of ions in fractional coordinates (direct lattice)
     0.780046307  0.145296954  0.120584992
     0.814614264  0.145296954  0.311352939
     0.262762328  0.645296954  0.025201018
     0.297330285  0.645296954  0.215968965
     0.469758278  0.145296954  0.247763623
     0.952474300  0.645296954  0.152379650
     0.987042257  0.645296954  0.343147597
     0.124902293  0.145296954  0.184174308
     0.159470250  0.145296954  0.374942255
     0.607618314  0.645296954  0.088790334
     0.642186271  0.645296954  0.279558281
     0.907582776  0.013193954  0.095383974
     0.390298797  0.513193954  0.000000000
     0.424866755  0.513193954  0.190767947
     0.459434712  0.513193954  0.381535895
     0.562726790  0.013193954  0.031794658
     0.597294747  0.013193954  0.222562605
     0.080010769  0.513193954  0.127178632
     0.114578726  0.513193954  0.317946579
     0.252438762  0.013193954  0.158973289
     0.287006719  0.013193954  0.349741237
     0.735154783  0.513193954  0.063589316
     0.769722740  0.513193954  0.254357263
     0.907582776  0.277399954  0.095383974
     0.942150733  0.277399954  0.286151921
     0.390298797  0.777399954  0.000000000
     0.424866755  0.777399954  0.190767947
     0.459434712  0.777399954  0.381535895
     0.562726790  0.277399954  0.031794658
     0.597294747  0.277399954  0.222562605
     0.080010769  0.777399954  0.127178632
     0.114578726  0.777399954  0.317946579
     0.252438762  0.277399954  0.158973289
     0.287006719  0.277399954  0.349741237
     0.735154783  0.777399954  0.063589316
     0.769722740  0.777399954  0.254357263
     0.026029163  0.145296954  0.373177651
     0.991461206  0.145296954  0.182409704
     0.474177227  0.645296954  0.087025730
     0.508745184  0.645296954  0.277793678
     0.646605220  0.145296954  0.118820388
     0.681173177  0.145296954  0.309588336
     0.129321241  0.645296954  0.023436415
     0.163889198  0.645296954  0.214204362
     0.301749234  0.145296954  0.055231073
     0.336317191  0.145296954  0.245999020
     0.819033213  0.645296954  0.150615046
     0.853601170  0.645296954  0.341382993
     0.794493097  0.313511954  0.023731787
     0.829061055  0.313511954  0.214499734
     0.311777076  0.813511954  0.119115761
     0.346345033  0.813511954  0.309883708
     0.484205069  0.313511954  0.150910419
     0.518773026  0.313511954  0.341678366
     0.001489047  0.813511954  0.246294392
     0.966921090  0.813511954  0.055526445
     0.139349083  0.313511954  0.087321103
     0.173917040  0.313511954  0.278089050
     0.656633062  0.813511954  0.182705076
     0.691201019  0.813511954  0.373473024
     0.311777076  0.477081954  0.119115761
     0.346345033  0.477081954  0.309883708
     0.794493097  0.977081954  0.023731787
     0.829061055  0.977081954  0.214499734
     0.001489047  0.477081954  0.246294392
     0.966921090  0.477081954  0.055526445
     0.484205069  0.977081954  0.150910419
     0.518773026  0.977081954  0.341678366
     0.656633062  0.477081954  0.182705076
     0.691201019  0.477081954  0.373473024
     0.139349083  0.977081954  0.087321103
     0.173917040  0.977081954  0.278089050

  ion indices of the primitive-cell ions
   primitive index   ion index
                 1           1
                 2           2
                 3           3
                 4           4
                 5           5
                 6           6
                 7           7
                 8           8
                 9           9
                10          10
                11          11
                12          12
                13          13
                14          14
                15          15
                16          16
                17          17
                18          18
                19          19
                20          20
                21          21
                22          22
                23          23
                24          24
                25          25
                26          26
                27          27
                28          28
                29          29
                30          30
                31          31
                32          32
                33          33
                34          34
                35          35
                36          36
                37          37
                38          38
                39          39
                40          40
                41          41
                42          42
                43          43
                44          44
                45          45
                46          46
                47          47
                48          48
                49          49
                50          50
                51          51
                52          52
                53          53
                54          54
                55          55
                56          56
                57          57
                58          58
                59          59
                60          60
                61          61
                62          62
                63          63
                64          64
                65          65
                66          66
                67          67
                68          68
                69          69
                70          70
                71          71
                72          72

----------------------------------------------------------------------------------------

 
 
 KPOINTS: gamma-point-only calculation. no periodi

Automatic generation of k-mesh.
Space group operators:
 irot       det(A)        alpha          n_x          n_y          n_z        tau_x        tau_y        tau_z
    1     1.000000     0.000000     1.000000     0.000000     0.000000     0.000000     0.000000     0.000000
 
 Subroutine IBZKPT returns following result:
 ===========================================
 
 Found      1 irreducible k-points:
 
 Following reciprocal coordinates:
            Coordinates               Weight
  0.000000  0.000000  0.000000      1.000000
 
 Following cartesian coordinates:
            Coordinates               Weight
  0.000000  0.000000  0.000000      1.000000
 


--------------------------------------------------------------------------------------------------------




 Dimension of arrays:
   k-points           NKPTS =      1   k-points in BZ     NKDIM =      1   number of bands    NBANDS=    480
   number of dos      NEDOS =    301   number of ions     NIONS =     72
   non local maximal  LDIM  =      6   non local SUM 2l+1 LMDIM =     18
   total plane-waves  NPLWV = 378000
   max r-space proj   IRMAX =   1644   max aug-charges    IRDMAX=   4753
   dimension x,y,z NGX =    90 NGY =   50 NGZ =   84
   dimension x,y,z NGXF=   180 NGYF=  100 NGZF=  168
   support grid    NGXF=   180 NGYF=  100 NGZF=  168
   ions per type =              36  36
   NGX,Y,Z   is equivalent  to a cutoff of   8.86,  8.68,  8.64 a.u.
   NGXF,Y,Z  is equivalent  to a cutoff of  17.72, 17.36, 17.27 a.u.

 SYSTEM =  "Millerite NiS"                         
 POSCAR =  Structure 4 made from -112-10.xsd file  

 Startparameter for this run:
   NWRITE =      2    write-flag & timer
   PREC   = normal    normal or accurate (medium, high low for compatibility)
   ISTART =      0    job   : 0-new  1-cont  2-samecut
   ICHARG =      2    charge: 1-file 2-atom 10-const
   ISPIN  =      1    spin polarized calculation?
   LNONCOLLINEAR =      F non collinear calculations
   LSORBIT =      F    spin-orbit coupling
   INIWAV =      1    electr: 0-lowe 1-rand  2-diag
   LASPH  =      F    aspherical Exc in radial PAW
   METAGGA=      F    non-selfconsistent MetaGGA calc.

 Electronic Relaxation 1
   ENCUT  =  450.0 eV  33.07 Ry    5.75 a.u.  29.20 16.57 27.97*2*pi/ulx,y,z
   ENINI  =  450.0     initial cutoff
   ENAUG  =  703.4 eV  augmentation charge cutoff
   NELM   =    100;   NELMIN=  2; NELMDL= -5     # of ELM steps 
   EDIFF  = 0.1E-03   stopping-criterion for ELM
   LREAL  =      T    real-space projection
   NLSPLINE    = F    spline interpolate recip. space projectors
   LCOMPAT=      F    compatible to vasp.4.4
   GGA_COMPAT  = T    GGA compatible to vasp.4.4-vasp.4.6
   LMAXPAW     = -100 max onsite density
   LMAXMIX     =    2 max onsite mixed and CHGCAR
   VOSKOWN=      0    Vosko Wilk Nusair interpolation
   ROPT   =   -0.00050  -0.00050
 Ionic relaxation
   EDIFFG = 0.1E-02   stopping-criterion for IOM
   NSW    =      0    number of steps for IOM
   NBLOCK =      1;   KBLOCK =      1    inner block; outer block 
   IBRION =     -1    ionic relax: 0-MD 1-quasi-New 2-CG
   NFREE  =      0    steps in history (QN), initial steepest desc. (CG)
   ISIF   =      2    stress and relaxation
   IWAVPR =     10    prediction:  0-non 1-charg 2-wave 3-comb
   ISYM   =      2    0-nonsym 1-usesym 2-fastsym
   LCORR  =      T    Harris-Foulkes like correction to forces

   POTIM  = 0.5000    time-step for ionic-motion
   TEIN   =    0.0    initial temperature
   TEBEG  =    0.0;   TEEND  =   0.0 temperature during run
   SMASS  =  -3.00    Nose mass-parameter (am)
   estimated Nose-frequenzy (Omega)   =  0.10E-29 period in steps = 0.13E+47 mass=  -0.652E-26a.u.
   SCALEE = 1.0000    scale energy and forces
   NPACO  =    256;   APACO  = 16.0  distance and # of slots for P.C.
   PSTRESS=    0.0 pullay stress

  Mass of Ions in am
   POMASS =  58.69 32.07
  Ionic Valenz
   ZVAL   =  16.00  6.00
  Atomic Wigner-Seitz radii
   RWIGS  =  -1.00 -1.00
  virtual crystal weights 
   VCA    =   1.00  1.00
   NELECT =     792.0000    total number of electrons
   NUPDOWN=      -1.0000    fix difference up-down

 DOS related values:
   EMIN   =  10.00;   EMAX   =-10.00  energy-range for DOS
   EFERMI =   0.00
   ISMEAR =     0;   SIGMA  =   0.20  broadening in eV -4-tet -1-fermi 0-gaus

 Electronic relaxation 2 (details)
   IALGO  =     38    algorithm
   LDIAG  =      T    sub-space diagonalisation (order eigenvalues)
   LSUBROT=      F    optimize rotation matrix (better conditioning)
   TURBO    =      0    0=normal 1=particle mesh
   IRESTART =      0    0=no restart 2=restart with 2 vectors
   NREBOOT  =      0    no. of reboots
   NMIN     =      0    reboot dimension
   EREF     =   0.00    reference energy to select bands
   IMIX   =      4    mixing-type and parameters
     AMIX     =   0.40;   BMIX     =  1.00
     AMIX_MAG =   1.60;   BMIX_MAG =  1.00
     AMIN     =   0.10
     WC   =   100.;   INIMIX=   1;  MIXPRE=   1;  MAXMIX= -45

 Intra band minimization:
   WEIMIN = 0.0000     energy-eigenvalue tresh-hold
   EBREAK =  0.52E-07  absolut break condition
   DEPER  =   0.30     relativ break condition  

   TIME   =   0.40     timestep for ELM

  volume/ion in A,a.u.               =      36.32       245.10
  Fermi-wavevector in a.u.,A,eV,Ry     =   1.099409  2.077581 16.445356  1.208700
  Thomas-Fermi vector in A             =   2.235803
 
 Write flags
   LWAVE        =      F    write WAVECAR
   LDOWNSAMPLE  =      F    k-point downsampling of WAVECAR
   LCHARG       =      F    write CHGCAR
   LVTOT        =      F    write LOCPOT, total local potential
   LVHAR        =      F    write LOCPOT, Hartree potential only
   LELF         =      F    write electronic localiz. function (ELF)
   LORBIT       =      0    0 simple, 1 ext, 2 COOP (PROOUT), +10 PAW based schemes


 Dipole corrections
   LMONO  =      F    monopole corrections only (constant potential shift)
   LDIPOL =      F    correct potential (dipole corrections)
   IDIPOL =      0    1-x, 2-y, 3-z, 4-all directions 
   EPSILON=  1.0000000 bulk dielectric constant

 Exchange correlation treatment:
   GGA     =    --    GGA type
   LEXCH   =     8    internal setting for exchange type
   VOSKOWN=      0    Vosko Wilk Nusair interpolation
   LHFCALC =     F    Hartree Fock is set to
   LHFONE  =     F    Hartree Fock one center treatment
   AEXX    =    0.0000 exact exchange contribution

 Linear response parameters
   LEPSILON=     F    determine dielectric tensor
   LRPA    =     F    only Hartree local field effects (RPA)
   LNABLA  =     F    use nabla operator in PAW spheres
   LVEL    =     F    velocity operator in full k-point grid
   LINTERFAST=   F  fast interpolation
   KINTER  =     0    interpolate to denser k-point grid
   CSHIFT  =0.1000    complex shift for real part using Kramers Kronig
   OMEGAMAX=  -1.0    maximum frequency
   DEG_THRESHOLD= 0.2000000E-02 threshold for treating states as degnerate
   RTIME   =   -0.100 relaxation time in fs
  (WPLASMAI=    0.000 imaginary part of plasma frequency in eV, 0.658/RTIME)
   DFIELD  = 0.0000000 0.0000000 0.0000000 field for delta impulse in time
 
 Orbital magnetization related:
   ORBITALMAG=     F  switch on orbital magnetization
   LCHIMAG   =     F  perturbation theory with respect to B field
   DQ        =  0.001000  dq finite difference perturbation B field
   LLRAUG    =     F  two centre corrections for induced B field



--------------------------------------------------------------------------------------------------------


 Static calculation
 charge density and potential will be updated during run
 non-spin polarized calculation
 Variant of blocked Davidson
 Davidson routine will perform the subspace rotation
 perform sub-space diagonalisation
    after iterative eigenvector-optimisation
 modified Broyden-mixing scheme, WC =      100.0
 initial mixing is a Kerker type mixing with AMIX =  0.4000 and BMIX =      1.0000
 Hartree-type preconditioning will be used
 using additional bands           84
 real space projection scheme for non local part
 use partial core corrections
 calculate Harris-corrections to forces 
   (improved forces if not selfconsistent)
 use gradient corrections 
 use of overlap-Matrix (Vanderbilt PP)
 Gauss-broadening in eV      SIGMA  =   0.20


--------------------------------------------------------------------------------------------------------


  energy-cutoff  :      450.00
  volume of cell :     2615.00
      direct lattice vectors                 reciprocal lattice vectors
    16.884694054  0.000000000  0.000000000     0.059225237  0.000000000  0.000000000
     0.000000000  9.578410000  0.000000000     0.000000000  0.104401461  0.000000000
     0.000000000  0.000000000 16.169087120     0.000000000  0.000000000  0.061846411

  length of vectors
    16.884694054  9.578410000 16.169087120     0.059225237  0.104401461  0.061846411


 
 k-points in units of 2pi/SCALE and weight: gamma-point-only calculation. no periodi
   0.00000000  0.00000000  0.00000000       1.000
 
 k-points in reciprocal lattice and weights: gamma-point-only calculation. no periodi
   0.00000000  0.00000000  0.00000000       1.000
 
 position of ions in fractional coordinates (direct lattice) 
   0.78004631  0.14529695  0.12058499
   0.81461426  0.14529695  0.31135294
   0.26276233  0.64529695  0.02520102
   0.29733029  0.64529695  0.21596897
   0.46975828  0.14529695  0.24776362
   0.95247430  0.64529695  0.15237965
   0.98704226  0.64529695  0.34314760
   0.12490229  0.14529695  0.18417431
   0.15947025  0.14529695  0.37494226
   0.60761831  0.64529695  0.08879033
   0.64218627  0.64529695  0.27955828
   0.90758278  0.01319395  0.09538397
   0.39029880  0.51319395  0.00000000
   0.42486675  0.51319395  0.19076795
   0.45943471  0.51319395  0.38153589
   0.56272679  0.01319395  0.03179466
   0.59729475  0.01319395  0.22256261
   0.08001077  0.51319395  0.12717863
   0.11457873  0.51319395  0.31794658
   0.25243876  0.01319395  0.15897329
   0.28700672  0.01319395  0.34974124
   0.73515478  0.51319395  0.06358932
   0.76972274  0.51319395  0.25435726
   0.90758278  0.27739995  0.09538397
   0.94215073  0.27739995  0.28615192
   0.39029880  0.77739995  0.00000000
   0.42486675  0.77739995  0.19076795
   0.45943471  0.77739995  0.38153589
   0.56272679  0.27739995  0.03179466
   0.59729475  0.27739995  0.22256261
   0.08001077  0.77739995  0.12717863
   0.11457873  0.77739995  0.31794658
   0.25243876  0.27739995  0.15897329
   0.28700672  0.27739995  0.34974124
   0.73515478  0.77739995  0.06358932
   0.76972274  0.77739995  0.25435726
   0.02602916  0.14529695  0.37317765
   0.99146121  0.14529695  0.18240970
   0.47417723  0.64529695  0.08702573
   0.50874518  0.64529695  0.27779368
   0.64660522  0.14529695  0.11882039
   0.68117318  0.14529695  0.30958834
   0.12932124  0.64529695  0.02343641
   0.16388920  0.64529695  0.21420436
   0.30174923  0.14529695  0.05523107
   0.33631719  0.14529695  0.24599902
   0.81903321  0.64529695  0.15061505
   0.85360117  0.64529695  0.34138299
   0.79449310  0.31351195  0.02373179
   0.82906105  0.31351195  0.21449973
   0.31177708  0.81351195  0.11911576
   0.34634503  0.81351195  0.30988371
   0.48420507  0.31351195  0.15091042
   0.51877303  0.31351195  0.34167837
   0.00148905  0.81351195  0.24629439
   0.96692109  0.81351195  0.05552644
   0.13934908  0.31351195  0.08732110
   0.17391704  0.31351195  0.27808905
   0.65663306  0.81351195  0.18270508
   0.69120102  0.81351195  0.37347302
   0.31177708  0.47708195  0.11911576
   0.34634503  0.47708195  0.30988371
   0.79449310  0.97708195  0.02373179
   0.82906105  0.97708195  0.21449973
   0.00148905  0.47708195  0.24629439
   0.96692109  0.47708195  0.05552644
   0.48420507  0.97708195  0.15091042
   0.51877303  0.97708195  0.34167837
   0.65663306  0.47708195  0.18270508
   0.69120102  0.47708195  0.37347302
   0.13934908  0.97708195  0.08732110
   0.17391704  0.97708195  0.27808905
 
 position of ions in cartesian coordinates  (Angst):
  13.17084324  1.39171380  1.94974924
  13.75451262  1.39171380  5.03429280
   4.43666152  6.18091880  0.40747746
   5.02033090  6.18091880  3.49202101
   7.93172480  1.39171380  4.00611161
  16.08223715  6.18091880  2.46383984
  16.66590653  6.18091880  5.54838339
   2.10893700  1.39171380  2.97793043
   2.69260638  1.39171380  6.06247399
  10.25944933  6.18091880  1.43565865
  10.84311871  6.18091880  4.52020220
  15.32425750  0.12637710  1.54227179
   6.59007578  4.91558210  0.00000000
   7.17374517  4.91558210  3.08454355
   7.75741455  4.91558210  6.16908713
   9.50146969  0.12637710  0.51409060
  10.08513906  0.12637710  3.59863415
   1.35095736  4.91558210  2.05636238
   1.93462673  4.91558210  5.14090594
   4.26235126  0.12637710  2.57045296
   4.84602064  0.12637710  5.65499653
  12.41286359  4.91558210  1.02818119
  12.99653297  4.91558210  4.11272474
  15.32425750  2.65705049  1.54227179
  15.90792688  2.65705049  4.62681534
   6.59007578  7.44625549  0.00000000
   7.17374517  7.44625549  3.08454355
   7.75741455  7.44625549  6.16908713
   9.50146969  2.65705049  0.51409060
  10.08513906  2.65705049  3.59863415
   1.35095736  7.44625549  2.05636238
   1.93462673  7.44625549  5.14090594
   4.26235126  2.65705049  2.57045296
   4.84602064  2.65705049  5.65499653
  12.41286359  7.44625549  1.02818119
  12.99653297  7.44625549  4.11272474
   0.43949445  1.39171380  6.03394195
  16.74051913  1.39171380  2.94939840
   8.00633741  6.18091880  1.40712661
   8.59000678  6.18091880  4.49167018
  10.91773131  1.39171380  1.92121721
  11.50140069  1.39171380  5.00576078
   2.18354959  6.18091880  0.37894544
   2.76721897  6.18091880  3.46348899
   5.09494350  1.39171380  0.89303603
   5.67861288  1.39171380  3.97757959
  13.82912522  6.18091880  2.43530780
  14.41279460  6.18091880  5.51985136
  13.41477287  3.00294604  0.38372133
  13.99844227  3.00294604  3.46826489
   5.26426054  7.79215104  1.92599312
   5.84792992  7.79215104  5.01053667
   8.17565445  3.00294604  2.44008371
   8.75932383  3.00294604  5.52462727
   0.02514210  7.79215104  3.98235548
  16.32616678  7.79215104  0.89781193
   2.35286663  3.00294604  1.41190252
   2.93653601  3.00294604  4.49644608
  11.08704836  7.79215104  2.95417429
  11.67071774  7.79215104  6.03871786
   5.26426054  4.56968656  1.92599312
   5.84792992  4.56968656  5.01053667
  13.41477287  9.35889156  0.38372133
  13.99844227  9.35889156  3.46826489
   0.02514210  4.56968656  3.98235548
  16.32616678  4.56968656  0.89781193
   8.17565445  9.35889156  2.44008371
   8.75932383  9.35889156  5.52462727
  11.08704836  4.56968656  2.95417429
  11.67071774  4.56968656  6.03871786
   2.35286663  9.35889156  1.41190252
   2.93653601  9.35889156  4.49644608
 


--------------------------------------------------------------------------------------------------------


 use parallel FFT for orbitals z direction half grid
 k-point   1 :   0.0000 0.0000 0.0000  plane waves:   28369

 maximum and minimum number of plane-waves per node :      4733     4722

 maximum number of plane-waves:     28369
 maximum index in each direction: 
   IXMAX=   29   IYMAX=   16   IZMAX=   27
   IXMIN=  -29   IYMIN=  -16   IZMIN=    0


 real space projection operators:
  total allocation   :      10061.66 KBytes
  max/ min on nodes  :       1683.94       1674.61


 parallel 3D FFT for wavefunctions:
    minimum data exchange during FFTs selected (reduces bandwidth)
 parallel 3D FFT for charge:
    minimum data exchange during FFTs selected (reduces bandwidth)


 total amount of memory used by VASP MPI-rank0    46725. kBytes
=======================================================================

   base      :      30000. kBytes
   nonlr-proj:       2059. kBytes
   fftplans  :       3623. kBytes
   grid      :       6327. kBytes
   one-center:         93. kBytes
   wavefun   :       4623. kBytes
 
     INWAV:  cpu time    0.0000: real time    0.0000
 Broyden mixing: mesh for mixing (old mesh)
   NGX = 59   NGY = 33   NGZ = 55
  (NGX  =180   NGY  =100   NGZ  =168)
  gives a total of 107085 points

 initial charge density was supplied:
 charge density of overlapping atoms calculated
 number of electron     792.0000000 magnetization 
 keeping initial charge density in first step


--------------------------------------------------------------------------------------------------------


 Maximum index for non-local projection operator          266
 Maximum index for augmentation-charges          321 (set IRDMAX)


--------------------------------------------------------------------------------------------------------


 First call to EWALD:  gamma=   0.129
 Maximum number of real-space cells 2x 4x 2
 Maximum number of reciprocal cells 3x 2x 3

    FEWALD:  cpu time    0.0049: real time    0.0049


--------------------------------------- Iteration      1(   1)  ---------------------------------------


    POTLOK:  cpu time    0.0518: real time    0.0525
    SETDIJ:  cpu time    0.0054: real time    0.0078
     EDDAV:  cpu time    2.5078: real time    2.5159
       DOS:  cpu time    0.0030: real time    0.0030
    --------------------------------------------
      LOOP:  cpu time    2.5679: real time    2.5793

 eigenvalue-minimisations  :  1184
 total energy-change (2. order) : 0.8597313E+04  (-0.4995577E+05)
 number of electron     792.0000000 magnetization 
 augmentation part      792.0000000 magnetization 

 Free energy of the ion-electron system (eV)
  ---------------------------------------------------
  alpha Z        PSCENC =      1422.52235994
  Ewald energy   TEWEN  =    100604.32752053
  -Hartree energ DENC   =   -221477.86034018
  -exchange      EXHF   =         0.00000000
  -V(xc)+E(xc)   XCENC  =      3638.09597120
  PAW double counting   =    112729.53333415  -117641.51188735
  entropy T*S    EENTRO =        -0.52449057
  eigenvalues    EBANDS =     -6679.87459405
  atomic energy  EATOM  =    136002.60505376
  Solvation  Ediel_sol  =         0.00000000
  ---------------------------------------------------
  free energy    TOTEN  =      8597.31292741 eV

  energy without entropy =     8597.83741799  energy(sigma->0) =     8597.57517270


--------------------------------------------------------------------------------------------------------




--------------------------------------- Iteration      1(   2)  ---------------------------------------


     EDDAV:  cpu time    2.2202: real time    2.2264
       DOS:  cpu time    0.0033: real time    0.0033
    --------------------------------------------
      LOOP:  cpu time    2.2235: real time    2.2297

 eigenvalue-minimisations  :  1024
 total energy-change (2. order) :-0.8121263E+04  (-0.7824902E+04)
 number of electron     792.0000000 magnetization 
 augmentation part      792.0000000 magnetization 

 Free energy of the ion-electron system (eV)
  ---------------------------------------------------
  alpha Z        PSCENC =      1422.52235994
  Ewald energy   TEWEN  =    100604.32752053
  -Hartree energ DENC   =   -221477.86034018
  -exchange      EXHF   =         0.00000000
  -V(xc)+E(xc)   XCENC  =      3638.09597120
  PAW double counting   =    112729.53333415  -117641.51188735
  entropy T*S    EENTRO =        -0.83724182
  eigenvalues    EBANDS =    -14800.82449009
  atomic energy  EATOM  =    136002.60505376
  Solvation  Ediel_sol  =         0.00000000
  ---------------------------------------------------
  free energy    TOTEN  =       476.05028013 eV

  energy without entropy =      476.88752195  energy(sigma->0) =      476.46890104


--------------------------------------------------------------------------------------------------------




--------------------------------------- Iteration      1(   3)  ---------------------------------------


     EDDAV:  cpu time    2.3747: real time    2.3829
       DOS:  cpu time    0.0032: real time    0.0032
    --------------------------------------------
      LOOP:  cpu time    2.3779: real time    2.3861

 eigenvalue-minimisations  :  1104
 total energy-change (2. order) :-0.8216005E+03  (-0.7749582E+03)
 number of electron     792.0000000 magnetization 
 augmentation part      792.0000000 magnetization 

 Free energy of the ion-electron system (eV)
  ---------------------------------------------------
  alpha Z        PSCENC =      1422.52235994
  Ewald energy   TEWEN  =    100604.32752053
  -Hartree energ DENC   =   -221477.86034018
  -exchange      EXHF   =         0.00000000
  -V(xc)+E(xc)   XCENC  =      3638.09597120
  PAW double counting   =    112729.53333415  -117641.51188735
  entropy T*S    EENTRO =        -1.46474393
  eigenvalues    EBANDS =    -15621.79753512
  atomic energy  EATOM  =    136002.60505376
  Solvation  Ediel_sol  =         0.00000000
  ---------------------------------------------------
  free energy    TOTEN  =      -345.55026701 eV

  energy without entropy =     -344.08552308  energy(sigma->0) =     -344.81789504


--------------------------------------------------------------------------------------------------------




--------------------------------------- Iteration      1(   4)  ---------------------------------------


     EDDAV:  cpu time    2.3352: real time    2.3414
       DOS:  cpu time    0.0031: real time    0.0031
    --------------------------------------------
      LOOP:  cpu time    2.3383: real time    2.3445

 eigenvalue-minimisations  :  1088
 total energy-change (2. order) :-0.4906605E+02  (-0.4847942E+02)
 number of electron     792.0000000 magnetization 
 augmentation part      792.0000000 magnetization 

 Free energy of the ion-electron system (eV)
  ---------------------------------------------------
  alpha Z        PSCENC =      1422.52235994
  Ewald energy   TEWEN  =    100604.32752053
  -Hartree energ DENC   =   -221477.86034018
  -exchange      EXHF   =         0.00000000
  -V(xc)+E(xc)   XCENC  =      3638.09597120
  PAW double counting   =    112729.53333415  -117641.51188735
  entropy T*S    EENTRO =        -1.49983567
  eigenvalues    EBANDS =    -15670.82849299
  atomic energy  EATOM  =    136002.60505376
  Solvation  Ediel_sol  =         0.00000000
  ---------------------------------------------------
  free energy    TOTEN  =      -394.61631662 eV

  energy without entropy =     -393.11648095  energy(sigma->0) =     -393.86639878


--------------------------------------------------------------------------------------------------------




--------------------------------------- Iteration      1(   5)  ---------------------------------------


     EDDAV:  cpu time    2.5508: real time    2.5570
       DOS:  cpu time    0.0031: real time    0.0031
    CHARGE:  cpu time    0.0496: real time    0.0499
    MIXING:  cpu time    0.0028: real time    0.0031
    --------------------------------------------
      LOOP:  cpu time    2.6064: real time    2.6131

 eigenvalue-minimisations  :  1224
 total energy-change (2. order) :-0.1889843E+01  (-0.1887260E+01)
 number of electron     791.9997385 magnetization 
 augmentation part      284.8411204 magnetization 

 Broyden mixing:
  rms(total) = 0.82019E+01    rms(broyden)= 0.81863E+01
  rms(prec ) = 0.89224E+01
  weight for this iteration     100.00

 Free energy of the ion-electron system (eV)
  ---------------------------------------------------
  alpha Z        PSCENC =      1422.52235994
  Ewald energy   TEWEN  =    100604.32752053
  -Hartree energ DENC   =   -221477.86034018
  -exchange      EXHF   =         0.00000000
  -V(xc)+E(xc)   XCENC  =      3638.09597120
  PAW double counting   =    112729.53333415  -117641.51188735
  entropy T*S    EENTRO =        -1.49995330
  eigenvalues    EBANDS =    -15672.71821859
  atomic energy  EATOM  =    136002.60505376
  Solvation  Ediel_sol  =         0.00000000
  ---------------------------------------------------
  free energy    TOTEN  =      -396.50615984 eV

  energy without entropy =     -395.00620654  energy(sigma->0) =     -395.75618319


--------------------------------------------------------------------------------------------------------




--------------------------------------- Iteration      1(   6)  ---------------------------------------


    POTLOK:  cpu time    0.0511: real time    0.0512
    SETDIJ:  cpu time    0.0061: real time    0.0062
     EDDAV:  cpu time    2.4092: real time    2.4150
       DOS:  cpu time    0.0054: real time    0.0054
    CHARGE:  cpu time    0.0492: real time    0.0493
    MIXING:  cpu time    0.0029: real time    0.0029
    --------------------------------------------
      LOOP:  cpu time    2.5239: real time    2.5300

 eigenvalue-minimisations  :  1144
 total energy-change (2. order) :-0.1166123E+03  (-0.1061217E+03)
 number of electron     791.9996758 magnetization 
 augmentation part      357.0804297 magnetization 

 Broyden mixing:
  rms(total) = 0.17890E+02    rms(broyden)= 0.17886E+02
  rms(prec ) = 0.18878E+02
  weight for this iteration     100.00

 eigenvalues of (default mixing * dielectric matrix)
  average eigenvalue GAMMA=   0.1991
  0.1991

 Free energy of the ion-electron system (eV)
  ---------------------------------------------------
  alpha Z        PSCENC =      1422.52235994
  Ewald energy   TEWEN  =    100604.32752053
  -Hartree energ DENC   =   -218622.58660188
  -exchange      EXHF   =         0.00000000
  -V(xc)+E(xc)   XCENC  =      3558.47386949
  PAW double counting   =    113642.62679899  -118305.60477330
  entropy T*S    EENTRO =        -0.92503436
  eigenvalues    EBANDS =    -18814.55765729
  atomic energy  EATOM  =    136002.60505376
  Solvation  Ediel_sol  =         0.00000000
  ---------------------------------------------------
  free energy    TOTEN  =      -513.11846413 eV

  energy without entropy =     -512.19342976  energy(sigma->0) =     -512.65594695


--------------------------------------------------------------------------------------------------------




--------------------------------------- Iteration      1(   7)  ---------------------------------------


    POTLOK:  cpu time    0.0515: real time    0.0516
    SETDIJ:  cpu time    0.0048: real time    0.0048
     EDDAV:  cpu time    2.5215: real time    2.5290
       DOS:  cpu time    0.0048: real time    0.0048
    CHARGE:  cpu time    0.0496: real time    0.0497
    MIXING:  cpu time    0.0025: real time    0.0025
    --------------------------------------------
      LOOP:  cpu time    2.6347: real time    2.6425

 eigenvalue-minimisations  :  1120
 total energy-change (2. order) : 0.1378551E+03  (-0.1930671E+02)
 number of electron     791.9996922 magnetization 
 augmentation part      335.9615309 magnetization 

 Broyden mixing:
  rms(total) = 0.76158E+01    rms(broyden)= 0.76147E+01
  rms(prec ) = 0.82249E+01
  weight for this iteration     100.00

 eigenvalues of (default mixing * dielectric matrix)
  average eigenvalue GAMMA=   0.4935
  0.4935  0.4935

 Free energy of the ion-electron system (eV)
  ---------------------------------------------------
  alpha Z        PSCENC =      1422.52235994
  Ewald energy   TEWEN  =    100604.32752053
  -Hartree energ DENC   =   -219793.70311254
  -exchange      EXHF   =         0.00000000
  -V(xc)+E(xc)   XCENC  =      3588.33992958
  PAW double counting   =    117693.01985696  -122502.30982786
  entropy T*S    EENTRO =        -1.32380569
  eigenvalues    EBANDS =    -17388.74133071
  atomic energy  EATOM  =    136002.60505376
  Solvation  Ediel_sol  =         0.00000000
  ---------------------------------------------------
  free energy    TOTEN  =      -375.26335604 eV

  energy without entropy =     -373.93955035  energy(sigma->0) =     -374.60145319


--------------------------------------------------------------------------------------------------------




--------------------------------------- Iteration      1(   8)  ---------------------------------------


    POTLOK:  cpu time    0.0518: real time    0.0541
    SETDIJ:  cpu time    0.0044: real time    0.0061
     EDDAV:  cpu time    2.9074: real time    2.9143
       DOS:  cpu time    0.0049: real time    0.0049
    CHARGE:  cpu time    0.0495: real time    0.0496
    MIXING:  cpu time    0.0024: real time    0.0024
    --------------------------------------------
      LOOP:  cpu time    3.0203: real time    3.0316

 eigenvalue-minimisations  :  1376
 total energy-change (2. order) :-0.1124594E+02  (-0.1876691E+02)
 number of electron     791.9997285 magnetization 
 augmentation part      306.9318622 magnetization 

 Broyden mixing:
  rms(total) = 0.10162E+02    rms(broyden)= 0.10159E+02
  rms(prec ) = 0.13038E+02
  weight for this iteration     100.00

 eigenvalues of (default mixing * dielectric matrix)
  average eigenvalue GAMMA=   0.3892
  0.5200  0.5200  0.1277

 Free energy of the ion-electron system (eV)
  ---------------------------------------------------
  alpha Z        PSCENC =      1422.52235994
  Ewald energy   TEWEN  =    100604.32752053
  -Hartree energ DENC   =   -220649.59985554
  -exchange      EXHF   =         0.00000000
  -V(xc)+E(xc)   XCENC  =      3610.36518762
  PAW double counting   =    122689.56090859  -127603.72860522
  entropy T*S    EENTRO =        -1.60877718
  eigenvalues    EBANDS =    -16460.95309312
  atomic energy  EATOM  =    136002.60505376
  Solvation  Ediel_sol  =         0.00000000
  ---------------------------------------------------
  free energy    TOTEN  =      -386.50930063 eV

  energy without entropy =     -384.90052345  energy(sigma->0) =     -385.70491204


--------------------------------------------------------------------------------------------------------




--------------------------------------- Iteration      1(   9)  ---------------------------------------


    POTLOK:  cpu time    0.0515: real time    0.0517
    SETDIJ:  cpu time    0.0047: real time    0.0048
     EDDAV:  cpu time    2.6989: real time    2.7053
       DOS:  cpu time    0.0046: real time    0.0046
    CHARGE:  cpu time    0.0483: real time    0.0484
    MIXING:  cpu time    0.0027: real time    0.0027
    --------------------------------------------
      LOOP:  cpu time    2.8108: real time    2.8175

 eigenvalue-minimisations  :  1240
 total energy-change (2. order) : 0.2389542E+02  (-0.1119570E+02)
 number of electron     791.9997241 magnetization 
 augmentation part      307.3227783 magnetization 

 Broyden mixing:
  rms(total) = 0.62967E+01    rms(broyden)= 0.62911E+01
  rms(prec ) = 0.73204E+01
  weight for this iteration     100.00

 eigenvalues of (default mixing * dielectric matrix)
  average eigenvalue GAMMA=   0.3928
  0.8456  0.3066  0.3066  0.1124

 Free energy of the ion-electron system (eV)
  ---------------------------------------------------
  alpha Z        PSCENC =      1422.52235994
  Ewald energy   TEWEN  =    100604.32752053
  -Hartree energ DENC   =   -220699.98300406
  -exchange      EXHF   =         0.00000000
  -V(xc)+E(xc)   XCENC  =      3612.25731550
  PAW double counting   =    124200.99071408  -129135.62453963
  entropy T*S    EENTRO =        -1.36594118
  eigenvalues    EBANDS =    -16368.34335799
  atomic energy  EATOM  =    136002.60505376
  Solvation  Ediel_sol  =         0.00000000
  ---------------------------------------------------
  free energy    TOTEN  =      -362.61387905 eV

  energy without entropy =     -361.24793788  energy(sigma->0) =     -361.93090846


--------------------------------------------------------------------------------------------------------




--------------------------------------- Iteration      1(  10)  ---------------------------------------


    POTLOK:  cpu time    0.0512: real time    0.0513
    SETDIJ:  cpu time    0.0046: real time    0.0046
     EDDAV:  cpu time    2.8183: real time    2.8250
       DOS:  cpu time    0.0051: real time    0.0050
    CHARGE:  cpu time    0.0500: real time    0.0501
    MIXING:  cpu time    0.0027: real time    0.0027
    --------------------------------------------
      LOOP:  cpu time    2.9319: real time    2.9388

 eigenvalue-minimisations  :  1320
 total energy-change (2. order) : 0.7764028E+01  (-0.5112867E+01)
 number of electron     791.9997130 magnetization 
 augmentation part      304.8980813 magnetization 

 Broyden mixing:
  rms(total) = 0.75736E+01    rms(broyden)= 0.75685E+01
  rms(prec ) = 0.92605E+01
  weight for this iteration     100.00

 eigenvalues of (default mixing * dielectric matrix)
  average eigenvalue GAMMA=   0.4412
  1.2493  0.3715  0.3715  0.1069  0.1069

 Free energy of the ion-electron system (eV)
  ---------------------------------------------------
  alpha Z        PSCENC =      1422.52235994
  Ewald energy   TEWEN  =    100604.32752053
  -Hartree energ DENC   =   -220707.44655343
  -exchange      EXHF   =         0.00000000
  -V(xc)+E(xc)   XCENC  =      3613.27436481
  PAW double counting   =    125692.87556518  -130645.49265804
  entropy T*S    EENTRO =        -1.54915355
  eigenvalues    EBANDS =    -16335.96635016
  atomic energy  EATOM  =    136002.60505376
  Solvation  Ediel_sol  =         0.00000000
  ---------------------------------------------------
  free energy    TOTEN  =      -354.84985097 eV

  energy without entropy =     -353.30069742  energy(sigma->0) =     -354.07527419


--------------------------------------------------------------------------------------------------------




--------------------------------------- Iteration      1(  11)  ---------------------------------------


    POTLOK:  cpu time    0.0511: real time    0.0513
    SETDIJ:  cpu time    0.0047: real time    0.0047
     EDDAV:  cpu time    2.8341: real time    2.8433
       DOS:  cpu time    0.0007: real time    0.0007
    CHARGE:  cpu time    0.0516: real time    0.0517
    MIXING:  cpu time    0.0026: real time    0.0026
    --------------------------------------------
      LOOP:  cpu time    2.9449: real time    2.9543

 eigenvalue-minimisations  :  1320
 total energy-change (2. order) :-0.2436511E+01  (-0.5374226E+01)
 number of electron     791.9997137 magnetization 
 augmentation part      307.5613146 magnetization 

 Broyden mixing:
  rms(total) = 0.57028E+01    rms(broyden)= 0.57000E+01
  rms(prec ) = 0.67269E+01
  weight for this iteration     100.00

 eigenvalues of (default mixing * dielectric matrix)
  average eigenvalue GAMMA=   0.4794
  1.7254  0.3983  0.3983  0.1284  0.1284  0.0975

 Free energy of the ion-electron system (eV)
  ---------------------------------------------------
  alpha Z        PSCENC =      1422.52235994
  Ewald energy   TEWEN  =    100604.32752053
  -Hartree energ DENC   =   -220658.55939325
  -exchange      EXHF   =         0.00000000
  -V(xc)+E(xc)   XCENC  =      3610.89575252
  PAW double counting   =    127276.91584357  -132238.94130296
  entropy T*S    EENTRO =        -1.56563735
  eigenvalues    EBANDS =    -16375.48655878
  atomic energy  EATOM  =    136002.60505376
  Solvation  Ediel_sol  =         0.00000000
  ---------------------------------------------------
  free energy    TOTEN  =      -357.28636203 eV

  energy without entropy =     -355.72072468  energy(sigma->0) =     -356.50354336


--------------------------------------------------------------------------------------------------------




--------------------------------------- Iteration      1(  12)  ---------------------------------------


    POTLOK:  cpu time    0.0505: real time    0.0528
    SETDIJ:  cpu time    0.0043: real time    0.0061
     EDDAV:  cpu time    2.8603: real time    2.8671
       DOS:  cpu time    0.0006: real time    0.0006
    CHARGE:  cpu time    0.0509: real time    0.0511
    MIXING:  cpu time    0.0026: real time    0.0026
    --------------------------------------------
      LOOP:  cpu time    2.9692: real time    2.9803

 eigenvalue-minimisations  :  1352
 total energy-change (2. order) : 0.6407558E+00  (-0.4055644E+01)
 number of electron     791.9997183 magnetization 
 augmentation part      311.0836635 magnetization 

 Broyden mixing:
  rms(total) = 0.60302E+01    rms(broyden)= 0.60262E+01
  rms(prec ) = 0.71259E+01
  weight for this iteration     100.00

 eigenvalues of (default mixing * dielectric matrix)
  average eigenvalue GAMMA=   0.4522
  1.8748  0.4038  0.4038  0.1636  0.1313  0.0942  0.0942

 Free energy of the ion-electron system (eV)
  ---------------------------------------------------
  alpha Z        PSCENC =      1422.52235994
  Ewald energy   TEWEN  =    100604.32752053
  -Hartree energ DENC   =   -220591.79622505
  -exchange      EXHF   =         0.00000000
  -V(xc)+E(xc)   XCENC  =      3607.94178813
  PAW double counting   =    129072.12348132  -134044.83565690
  entropy T*S    EENTRO =        -1.21074542
  eigenvalues    EBANDS =    -16428.32318251
  atomic energy  EATOM  =    136002.60505376
  Solvation  Ediel_sol  =         0.00000000
  ---------------------------------------------------
  free energy    TOTEN  =      -356.64560620 eV

  energy without entropy =     -355.43486079  energy(sigma->0) =     -356.04023350


--------------------------------------------------------------------------------------------------------




--------------------------------------- Iteration      1(  13)  ---------------------------------------


    POTLOK:  cpu time    0.0502: real time    0.0503
    SETDIJ:  cpu time    0.0048: real time    0.0048
     EDDAV:  cpu time    2.8313: real time    2.8380
       DOS:  cpu time    0.0006: real time    0.0006
    CHARGE:  cpu time    0.0498: real time    0.0500
    MIXING:  cpu time    0.0028: real time    0.0028
    --------------------------------------------
      LOOP:  cpu time    2.9394: real time    2.9464

 eigenvalue-minimisations  :  1336
 total energy-change (2. order) : 0.6760482E+01  (-0.3198044E+01)
 number of electron     791.9997160 magnetization 
 augmentation part      314.5637666 magnetization 

 Broyden mixing:
  rms(total) = 0.31461E+01    rms(broyden)= 0.31450E+01
  rms(prec ) = 0.36851E+01
  weight for this iteration     100.00

 eigenvalues of (default mixing * dielectric matrix)
  average eigenvalue GAMMA=   0.4366
  1.8351  0.4259  0.3955  0.3955  0.1248  0.1248  0.1020  0.0895

 Free energy of the ion-electron system (eV)
  ---------------------------------------------------
  alpha Z        PSCENC =      1422.52235994
  Ewald energy   TEWEN  =    100604.32752053
  -Hartree energ DENC   =   -220571.04821181
  -exchange      EXHF   =         0.00000000
  -V(xc)+E(xc)   XCENC  =      3607.25516700
  PAW double counting   =    129593.05291276  -134569.75534239
  entropy T*S    EENTRO =        -1.06724406
  eigenvalues    EBANDS =    -16437.77733956
  atomic energy  EATOM  =    136002.60505376
  Solvation  Ediel_sol  =         0.00000000
  ---------------------------------------------------
  free energy    TOTEN  =      -349.88512384 eV

  energy without entropy =     -348.81787977  energy(sigma->0) =     -349.35150181


--------------------------------------------------------------------------------------------------------




--------------------------------------- Iteration      1(  14)  ---------------------------------------


    POTLOK:  cpu time    0.0496: real time    0.0497
    SETDIJ:  cpu time    0.0047: real time    0.0047
     EDDAV:  cpu time    2.7755: real time    2.7821
       DOS:  cpu time    0.0013: real time    0.0013
    CHARGE:  cpu time    0.0498: real time    0.0499
    MIXING:  cpu time    0.0028: real time    0.0029
    --------------------------------------------
      LOOP:  cpu time    2.8837: real time    2.8906

 eigenvalue-minimisations  :  1304
 total energy-change (2. order) : 0.2889072E+01  (-0.9164343E+00)
 number of electron     791.9997163 magnetization 
 augmentation part      313.2735176 magnetization 

 Broyden mixing:
  rms(total) = 0.29055E+01    rms(broyden)= 0.29032E+01
  rms(prec ) = 0.34771E+01
  weight for this iteration     100.00

 eigenvalues of (default mixing * dielectric matrix)
  average eigenvalue GAMMA=   0.4213
  1.7502  0.5933  0.4108  0.4108  0.1568  0.1364  0.1364  0.0984  0.0984

 Free energy of the ion-electron system (eV)
  ---------------------------------------------------
  alpha Z        PSCENC =      1422.52235994
  Ewald energy   TEWEN  =    100604.32752053
  -Hartree energ DENC   =   -220623.50848797
  -exchange      EXHF   =         0.00000000
  -V(xc)+E(xc)   XCENC  =      3608.43214831
  PAW double counting   =    129461.75870633  -134441.12224868
  entropy T*S    EENTRO =        -1.16406503
  eigenvalues    EBANDS =    -16380.84703892
  atomic energy  EATOM  =    136002.60505376
  Solvation  Ediel_sol  =         0.00000000
  ---------------------------------------------------
  free energy    TOTEN  =      -346.99605174 eV

  energy without entropy =     -345.83198671  energy(sigma->0) =     -346.41401923


--------------------------------------------------------------------------------------------------------




--------------------------------------- Iteration      1(  15)  ---------------------------------------


    POTLOK:  cpu time    0.0503: real time    0.0504
    SETDIJ:  cpu time    0.0047: real time    0.0047
     EDDAV:  cpu time    2.6923: real time    2.6987
       DOS:  cpu time    0.0006: real time    0.0006
    CHARGE:  cpu time    0.0501: real time    0.0502
    MIXING:  cpu time    0.0029: real time    0.0030
    --------------------------------------------
      LOOP:  cpu time    2.8009: real time    2.8076

 eigenvalue-minimisations  :  1256
 total energy-change (2. order) : 0.1040484E+01  (-0.7060403E+00)
 number of electron     791.9997172 magnetization 
 augmentation part      312.5028517 magnetization 

 Broyden mixing:
  rms(total) = 0.24905E+01    rms(broyden)= 0.24875E+01
  rms(prec ) = 0.29923E+01
  weight for this iteration     100.00

 eigenvalues of (default mixing * dielectric matrix)
  average eigenvalue GAMMA=   0.4094
  1.7810  0.4938  0.4938  0.3790  0.3790  0.1259  0.1259  0.1235  0.0962  0.0962

 Free energy of the ion-electron system (eV)
  ---------------------------------------------------
  alpha Z        PSCENC =      1422.52235994
  Ewald energy   TEWEN  =    100604.32752053
  -Hartree energ DENC   =   -220666.85833389
  -exchange      EXHF   =         0.00000000
  -V(xc)+E(xc)   XCENC  =      3609.17869363
  PAW double counting   =    129230.51163909  -134209.66465473
  entropy T*S    EENTRO =        -1.17198034
  eigenvalues    EBANDS =    -16337.40586606
  atomic energy  EATOM  =    136002.60505376
  Solvation  Ediel_sol  =         0.00000000
  ---------------------------------------------------
  free energy    TOTEN  =      -345.95556808 eV

  energy without entropy =     -344.78358774  energy(sigma->0) =     -345.36957791


--------------------------------------------------------------------------------------------------------




--------------------------------------- Iteration      1(  16)  ---------------------------------------


    POTLOK:  cpu time    0.0500: real time    0.0501
    SETDIJ:  cpu time    0.0046: real time    0.0046
     EDDAV:  cpu time    2.6578: real time    2.6642
       DOS:  cpu time    0.0006: real time    0.0006
    CHARGE:  cpu time    0.0491: real time    0.0492
    MIXING:  cpu time    0.0031: real time    0.0031
    --------------------------------------------
      LOOP:  cpu time    2.7650: real time    2.7717

 eigenvalue-minimisations  :  1256
 total energy-change (2. order) : 0.1075034E+01  (-0.5702923E+00)
 number of electron     791.9997154 magnetization 
 augmentation part      312.4829734 magnetization 

 Broyden mixing:
  rms(total) = 0.19885E+01    rms(broyden)= 0.19864E+01
  rms(prec ) = 0.24147E+01
  weight for this iteration     100.00

 eigenvalues of (default mixing * dielectric matrix)
  average eigenvalue GAMMA=   0.4431
  1.8632  0.7572  0.7572  0.3939  0.3939  0.1281  0.1281  0.1393  0.1211  0.0958
  0.0958

 Free energy of the ion-electron system (eV)
  ---------------------------------------------------
  alpha Z        PSCENC =      1422.52235994
  Ewald energy   TEWEN  =    100604.32752053
  -Hartree energ DENC   =   -220682.32754233
  -exchange      EXHF   =         0.00000000
  -V(xc)+E(xc)   XCENC  =      3609.49213509
  PAW double counting   =    129207.71441118  -134187.31185359
  entropy T*S    EENTRO =        -1.14987457
  eigenvalues    EBANDS =    -16320.75274456
  atomic energy  EATOM  =    136002.60505376
  Solvation  Ediel_sol  =         0.00000000
  ---------------------------------------------------
  free energy    TOTEN  =      -344.88053455 eV

  energy without entropy =     -343.73065998  energy(sigma->0) =     -344.30559726


--------------------------------------------------------------------------------------------------------




--------------------------------------- Iteration      1(  17)  ---------------------------------------


    POTLOK:  cpu time    0.0498: real time    0.0499
    SETDIJ:  cpu time    0.0046: real time    0.0047
     EDDAV:  cpu time    2.7552: real time    2.7617
       DOS:  cpu time    0.0007: real time    0.0007
    CHARGE:  cpu time    0.0487: real time    0.0488
    MIXING:  cpu time    0.0031: real time    0.0031
    --------------------------------------------
      LOOP:  cpu time    2.8622: real time    2.8690

 eigenvalue-minimisations  :  1312
 total energy-change (2. order) : 0.1736708E+01  (-0.2345190E+00)
 number of electron     791.9997157 magnetization 
 augmentation part      312.7757947 magnetization 

 Broyden mixing:
  rms(total) = 0.14037E+01    rms(broyden)= 0.14022E+01
  rms(prec ) = 0.16908E+01
  weight for this iteration     100.00

 eigenvalues of (default mixing * dielectric matrix)
  average eigenvalue GAMMA=   0.4338
  1.9027  0.8119  0.8119  0.3959  0.3959  0.1976  0.1286  0.1286  0.1226  0.1109
  0.0998  0.0998

 Free energy of the ion-electron system (eV)
  ---------------------------------------------------
  alpha Z        PSCENC =      1422.52235994
  Ewald energy   TEWEN  =    100604.32752053
  -Hartree energ DENC   =   -220689.62059091
  -exchange      EXHF   =         0.00000000
  -V(xc)+E(xc)   XCENC  =      3609.74587445
  PAW double counting   =    129207.42241006  -134186.11937451
  entropy T*S    EENTRO =        -1.22416719
  eigenvalues    EBANDS =    -16312.80291317
  atomic energy  EATOM  =    136002.60505376
  Solvation  Ediel_sol  =         0.00000000
  ---------------------------------------------------
  free energy    TOTEN  =      -343.14382704 eV

  energy without entropy =     -341.91965985  energy(sigma->0) =     -342.53174344


--------------------------------------------------------------------------------------------------------




--------------------------------------- Iteration      1(  18)  ---------------------------------------


    POTLOK:  cpu time    0.0497: real time    0.0498
    SETDIJ:  cpu time    0.0046: real time    0.0046
     EDDAV:  cpu time    2.7570: real time    2.7636
       DOS:  cpu time    0.0006: real time    0.0006
    CHARGE:  cpu time    0.0491: real time    0.0492
    MIXING:  cpu time    0.0033: real time    0.0033
    --------------------------------------------
      LOOP:  cpu time    2.8643: real time    2.8711

 eigenvalue-minimisations  :  1312
 total energy-change (2. order) : 0.4285760E+00  (-0.1607521E+00)
 number of electron     791.9997151 magnetization 
 augmentation part      312.6447356 magnetization 

 Broyden mixing:
  rms(total) = 0.11340E+01    rms(broyden)= 0.11325E+01
  rms(prec ) = 0.13583E+01
  weight for this iteration     100.00

 eigenvalues of (default mixing * dielectric matrix)
  average eigenvalue GAMMA=   0.4477
  1.9327  0.9320  0.9320  0.4223  0.3941  0.3941  0.1283  0.1283  0.1354  0.0957
  0.0957  0.1146  0.1146

 Free energy of the ion-electron system (eV)
  ---------------------------------------------------
  alpha Z        PSCENC =      1422.52235994
  Ewald energy   TEWEN  =    100604.32752053
  -Hartree energ DENC   =   -220696.98881399
  -exchange      EXHF   =         0.00000000
  -V(xc)+E(xc)   XCENC  =      3609.78485252
  PAW double counting   =    129206.65676572  -134184.60791622
  entropy T*S    EENTRO =        -1.23897027
  eigenvalues    EBANDS =    -16305.77610303
  atomic energy  EATOM  =    136002.60505376
  Solvation  Ediel_sol  =         0.00000000
  ---------------------------------------------------
  free energy    TOTEN  =      -342.71525105 eV

  energy without entropy =     -341.47628078  energy(sigma->0) =     -342.09576592


--------------------------------------------------------------------------------------------------------




--------------------------------------- Iteration      1(  19)  ---------------------------------------


    POTLOK:  cpu time    0.0499: real time    0.0500
    SETDIJ:  cpu time    0.0046: real time    0.0046
     EDDAV:  cpu time    2.7902: real time    2.7987
       DOS:  cpu time    0.0019: real time    0.0019
    CHARGE:  cpu time    0.0513: real time    0.0514
    MIXING:  cpu time    0.0036: real time    0.0036
    --------------------------------------------
      LOOP:  cpu time    2.9014: real time    2.9103

 eigenvalue-minimisations  :  1312
 total energy-change (2. order) : 0.3853878E+00  (-0.8794006E-01)
 number of electron     791.9997157 magnetization 
 augmentation part      312.3161074 magnetization 

 Broyden mixing:
  rms(total) = 0.84157E+00    rms(broyden)= 0.84033E+00
  rms(prec ) = 0.99836E+00
  weight for this iteration     100.00

 eigenvalues of (default mixing * dielectric matrix)
  average eigenvalue GAMMA=   0.4463
  1.9548  1.0192  1.0192  0.4704  0.3972  0.3972  0.1842  0.1286  0.1286  0.1254
  0.1254  0.0971  0.0971  0.1036

 Free energy of the ion-electron system (eV)
  ---------------------------------------------------
  alpha Z        PSCENC =      1422.52235994
  Ewald energy   TEWEN  =    100604.32752053
  -Hartree energ DENC   =   -220712.47064978
  -exchange      EXHF   =         0.00000000
  -V(xc)+E(xc)   XCENC  =      3609.89077965
  PAW double counting   =    129146.49796431  -134122.73193403
  entropy T*S    EENTRO =        -1.26487525
  eigenvalues    EBANDS =    -16291.70608234
  atomic energy  EATOM  =    136002.60505376
  Solvation  Ediel_sol  =         0.00000000
  ---------------------------------------------------
  free energy    TOTEN  =      -342.32986321 eV

  energy without entropy =     -341.06498797  energy(sigma->0) =     -341.69742559


--------------------------------------------------------------------------------------------------------




--------------------------------------- Iteration      1(  20)  ---------------------------------------


    POTLOK:  cpu time    0.0508: real time    0.0531
    SETDIJ:  cpu time    0.0061: real time    0.0061
     EDDAV:  cpu time    2.7272: real time    2.7337
       DOS:  cpu time    0.0007: real time    0.0007
    CHARGE:  cpu time    0.0488: real time    0.0489
    MIXING:  cpu time    0.0037: real time    0.0037
    --------------------------------------------
      LOOP:  cpu time    2.8371: real time    2.8461

 eigenvalue-minimisations  :  1296
 total energy-change (2. order) : 0.1370441E+00  (-0.4802672E-01)
 number of electron     791.9997155 magnetization 
 augmentation part      312.1179943 magnetization 

 Broyden mixing:
  rms(total) = 0.68560E+00    rms(broyden)= 0.68468E+00
  rms(prec ) = 0.79942E+00
  weight for this iteration     100.00

 eigenvalues of (default mixing * dielectric matrix)
  average eigenvalue GAMMA=   0.4733
  2.0120  1.1800  1.1800  0.5074  0.5074  0.3874  0.3874  0.1279  0.1279  0.1459
  0.0970  0.0970  0.1190  0.1190  0.1034

 Free energy of the ion-electron system (eV)
  ---------------------------------------------------
  alpha Z        PSCENC =      1422.52235994
  Ewald energy   TEWEN  =    100604.32752053
  -Hartree energ DENC   =   -220720.91221655
  -exchange      EXHF   =         0.00000000
  -V(xc)+E(xc)   XCENC  =      3609.94172945
  PAW double counting   =    129115.99313532  -134091.29951817
  entropy T*S    EENTRO =        -1.27073621
  eigenvalues    EBANDS =    -16284.10014716
  atomic energy  EATOM  =    136002.60505376
  Solvation  Ediel_sol  =         0.00000000
  ---------------------------------------------------
  free energy    TOTEN  =      -342.19281910 eV

  energy without entropy =     -340.92208289  energy(sigma->0) =     -341.55745099


--------------------------------------------------------------------------------------------------------




--------------------------------------- Iteration      1(  21)  ---------------------------------------


    POTLOK:  cpu time    0.0497: real time    0.0498
    SETDIJ:  cpu time    0.0047: real time    0.0047
     EDDAV:  cpu time    2.6940: real time    2.7004
       DOS:  cpu time    0.0007: real time    0.0007
    CHARGE:  cpu time    0.0482: real time    0.0483
    MIXING:  cpu time    0.0037: real time    0.0037
    --------------------------------------------
      LOOP:  cpu time    2.8010: real time    2.8076

 eigenvalue-minimisations  :  1296
 total energy-change (2. order) :-0.7495046E-01  (-0.5666873E-01)
 number of electron     791.9997148 magnetization 
 augmentation part      312.5072183 magnetization 

 Broyden mixing:
  rms(total) = 0.79445E+00    rms(broyden)= 0.79340E+00
  rms(prec ) = 0.96916E+00
  weight for this iteration     100.00

 eigenvalues of (default mixing * dielectric matrix)
  average eigenvalue GAMMA=   0.4719
  2.0265  1.2593  1.2593  0.5814  0.5814  0.3893  0.3893  0.1704  0.1282  0.1282
  0.1291  0.1128  0.1128  0.0962  0.0962  0.0902

 Free energy of the ion-electron system (eV)
  ---------------------------------------------------
  alpha Z        PSCENC =      1422.52235994
  Ewald energy   TEWEN  =    100604.32752053
  -Hartree energ DENC   =   -220721.22840764
  -exchange      EXHF   =         0.00000000
  -V(xc)+E(xc)   XCENC  =      3609.77432158
  PAW double counting   =    129058.11449963  -134031.17322667
  entropy T*S    EENTRO =        -1.28306130
  eigenvalues    EBANDS =    -16285.92682938
  atomic energy  EATOM  =    136002.60505376
  Solvation  Ediel_sol  =         0.00000000
  ---------------------------------------------------
  free energy    TOTEN  =      -342.26776955 eV

  energy without entropy =     -340.98470825  energy(sigma->0) =     -341.62623890


--------------------------------------------------------------------------------------------------------




--------------------------------------- Iteration      1(  22)  ---------------------------------------


    POTLOK:  cpu time    0.0505: real time    0.0506
    SETDIJ:  cpu time    0.0047: real time    0.0047
     EDDAV:  cpu time    2.6195: real time    2.6258
       DOS:  cpu time    0.0006: real time    0.0006
    CHARGE:  cpu time    0.0499: real time    0.0500
    MIXING:  cpu time    0.0038: real time    0.0038
    --------------------------------------------
      LOOP:  cpu time    2.7290: real time    2.7355

 eigenvalue-minimisations  :  1248
[...]
    FORCOR:  cpu time    0.0652: real time    0.0656
    FORHAR:  cpu time    0.0282: real time    0.0283
    MIXING:  cpu time    0.0081: real time    0.0082
    OFIELD:  cpu time    0.0001: real time    0.0001

  FORCE on cell =-STRESS in cart. coord.  units (eV):
  Direction    XX          YY          ZZ          XY          YZ          ZX
  --------------------------------------------------------------------------------------
  Alpha Z  1422.52236  1422.52236  1422.52236
  Ewald  146495.47792148334.84819************   369.51032   -92.81792  -731.38216
  Hartree182434.40302184255.23614************   311.02612   -61.68777  -650.86723
  E(xc)   -5016.87418 -5017.10704 -5023.17580     0.02572    -0.13495     0.02568
  Local  ************************327572.72165  -682.62645   153.40726  1380.83146
  n-local  -695.43643  -699.55093  -705.13526    -0.27700     0.07000     2.60907
  augment  5780.42829  5793.14890  5799.86551     1.10895     0.57410    -3.29999
  Kinetic 10932.83616 10941.12455 10960.32168     2.63255     2.36319    -7.29595
  Fock        0.00000     0.00000     0.00000     0.00000     0.00000     0.00000
  -------------------------------------------------------------------------------------
  Total     -42.10044   -42.41550   -63.93699     1.40020     1.77390    -9.37912
  in kB     -25.79438   -25.98741   -39.17334     0.85788     1.08684    -5.74646
  external pressure =      -30.32 kB  Pullay stress =        0.00 kB


 VOLUME and BASIS-vectors are now :
 -----------------------------------------------------------------------------
  energy-cutoff  :      450.00
  volume of cell :     2615.00
      direct lattice vectors                 reciprocal lattice vectors
    16.884694054  0.000000000  0.000000000     0.059225237  0.000000000  0.000000000
     0.000000000  9.578410000  0.000000000     0.000000000  0.104401461  0.000000000
     0.000000000  0.000000000 16.169087120     0.000000000  0.000000000  0.061846411

  length of vectors
    16.884694054  9.578410000 16.169087120     0.059225237  0.104401461  0.061846411


 FORCES acting on ions
    electron-ion (+dipol)            ewald-force                    non-local-force                 convergence-correction
 -----------------------------------------------------------------------------------------------
   0.242E+03 0.523E+02 0.132E+04   -.243E+03 -.536E+02 -.132E+04   0.126E+01 0.958E+00 0.320E+01   0.197E-01 -.194E-01 0.132E-01
   -.615E+01 0.265E+03 -.270E+04   0.326E+01 -.265E+03 0.268E+04   0.197E+01 -.373E+00 0.925E+01   0.563E-02 -.255E-02 -.117E-02
   0.781E+03 -.480E+01 0.296E+04   -.784E+03 0.483E+01 -.296E+04   0.218E+01 -.269E-01 -.195E+01   -.504E-03 0.607E-03 0.633E-02
   0.611E+03 -.830E+01 -.704E+03   -.612E+03 0.826E+01 0.705E+03   0.974E+00 0.445E-01 -.116E+01   0.353E-02 -.464E-02 0.102E-01
   0.325E+03 0.320E+01 -.112E+04   -.326E+03 -.321E+01 0.112E+04   0.101E+01 0.128E-01 -.194E+01   0.331E-03 0.208E-02 0.158E-01
   0.519E+03 -.107E+03 0.917E+03   -.521E+03 0.108E+03 -.920E+03   0.139E+01 -.504E+00 0.317E+01   -.104E-01 0.807E-02 0.996E-03
   0.620E+03 -.165E+03 -.301E+04   -.620E+03 0.166E+03 0.300E+04   -.860E+00 -.911E+00 0.654E+01   -.162E-01 0.416E-02 -.119E-01
   0.788E+03 0.720E+02 0.528E+03   -.791E+03 -.719E+02 -.532E+03   0.288E+01 0.184E-01 0.422E+01   -.105E-01 0.792E-03 -.304E-02
   0.725E+03 0.498E+02 -.320E+04   -.727E+03 -.486E+02 0.319E+04   0.752E+00 -.113E+01 0.460E+01   -.116E-01 0.123E-01 -.443E-02
   0.276E+03 -.626E+01 0.219E+04   -.273E+03 0.627E+01 -.219E+04   -.275E+01 -.527E-01 -.102E+01   0.290E-01 0.186E-01 0.186E-01
   0.182E+03 -.168E+02 -.199E+04   -.182E+03 0.168E+02 0.200E+04   -.101E+00 -.316E-01 -.459E+01   0.202E-01 0.438E-02 0.128E-01
   -.532E+03 0.304E+03 0.197E+04   0.531E+03 -.308E+03 -.197E+04   0.148E+00 0.329E+01 0.106E+00   -.299E-02 -.185E-01 0.698E-02
   -.170E+03 0.805E+03 0.325E+04   0.166E+03 -.794E+03 -.324E+04   0.406E+01 -.104E+02 -.646E+01   0.225E-03 0.585E-02 0.268E-02
   -.263E+03 0.575E+03 0.895E+02   0.263E+03 -.578E+03 -.897E+02   -.425E+00 0.253E+01 0.258E+00   -.986E-03 0.111E-01 0.155E-01
   -.162E+03 0.355E+03 -.324E+04   0.160E+03 -.355E+03 0.323E+04   0.219E+01 -.743E+00 0.886E+01   0.732E-02 0.316E-02 0.110E-03
   0.406E+02 0.235E+03 0.298E+04   -.429E+02 -.227E+03 -.297E+04   0.214E+01 -.755E+01 -.825E+01   0.920E-02 -.255E-01 0.133E-01
   -.400E+03 0.301E+03 -.795E+03   0.400E+03 -.302E+03 0.797E+03   -.278E+00 0.147E+01 -.163E+01   0.200E-01 -.180E-01 0.238E-01
   -.443E+02 0.530E+03 0.164E+04   0.452E+02 -.533E+03 -.165E+04   -.641E+00 0.313E+01 0.448E+01   -.127E-01 -.225E-02 0.307E-02
   -.109E+03 0.314E+03 -.254E+04   0.107E+03 -.310E+03 0.253E+04   0.231E+01 -.410E+01 0.486E+01   -.333E-02 -.943E-03 -.735E-02
   -.926E+02 0.276E+03 0.116E+04   0.926E+02 -.276E+03 -.117E+04   0.165E+00 -.222E+00 0.520E+01   -.158E-01 0.745E-02 -.498E-02
   -.266E+03 0.463E+03 -.285E+04   0.263E+03 -.460E+03 0.285E+04   0.255E+01 -.309E+01 0.457E+01   -.530E-02 0.117E-01 -.272E-02
   -.350E+03 0.340E+03 0.270E+04   0.350E+03 -.342E+03 -.270E+04   -.642E+00 0.125E+01 -.175E+01   0.209E-01 0.355E-01 0.183E-01
   -.423E+03 0.469E+03 -.147E+04   0.423E+03 -.470E+03 0.148E+04   -.931E-01 0.958E+00 -.366E+01   0.856E-03 0.176E-01 0.154E-01
   -.495E+03 -.205E+03 0.215E+04   0.496E+03 0.208E+03 -.215E+04   -.102E+01 -.275E+01 0.132E+01   0.694E-02 -.111E-02 0.124E-01
   -.476E+02 0.824E+02 -.202E+04   0.509E+02 -.870E+02 0.202E+04   -.235E+01 0.383E+01 0.108E+00   -.920E-02 -.630E-02 -.167E-04
   -.169E+03 -.807E+03 0.325E+04   0.165E+03 0.796E+03 -.324E+04   0.400E+01 0.104E+02 -.644E+01   0.844E-03 -.479E-02 0.340E-02
   -.262E+03 -.579E+03 0.887E+02   0.262E+03 0.582E+03 -.889E+02   -.474E+00 -.254E+01 0.272E+00   0.433E-02 -.110E-01 0.922E-02
   -.163E+03 -.359E+03 -.324E+04   0.161E+03 0.359E+03 0.323E+04   0.223E+01 0.815E+00 0.887E+01   0.147E-01 -.134E-01 0.360E-03
   0.442E+02 -.231E+03 0.298E+04   -.464E+02 0.223E+03 -.297E+04   0.212E+01 0.757E+01 -.825E+01   0.114E-02 0.199E-01 0.105E-01
   -.384E+03 -.287E+03 -.792E+03   0.384E+03 0.289E+03 0.794E+03   -.162E+00 -.153E+01 -.163E+01   0.147E-01 0.108E-01 0.291E-01
   0.104E+02 -.612E+03 0.158E+04   -.999E+01 0.616E+03 -.159E+04   -.266E+00 -.326E+01 0.366E+01   -.178E-01 0.543E-02 0.355E-02
   0.107E+01 -.437E+03 -.252E+04   -.458E+01 0.433E+03 0.251E+04   0.329E+01 0.375E+01 0.519E+01   -.102E-01 0.122E-02 -.695E-02
   -.112E+03 -.260E+03 0.117E+04   0.112E+03 0.260E+03 -.118E+04   0.121E+00 0.229E+00 0.520E+01   -.145E-01 -.451E-02 0.489E-02
   -.282E+03 -.450E+03 -.285E+04   0.279E+03 0.447E+03 0.285E+04   0.236E+01 0.310E+01 0.467E+01   -.189E-02 0.161E-01 0.227E-02
   -.369E+03 -.365E+03 0.268E+04   0.370E+03 0.367E+03 -.268E+04   -.727E+00 -.126E+01 -.169E+01   0.250E-01 0.618E-02 0.131E-01
   -.533E+03 -.592E+03 -.149E+04   0.534E+03 0.594E+03 0.150E+04   -.443E+00 -.173E+01 -.337E+01   -.221E-02 -.101E-01 0.325E-03
   0.253E+03 0.121E+03 -.112E+04   -.254E+03 -.124E+03 0.112E+04   0.818E+00 0.320E+01 -.211E+01   -.428E-02 0.582E-03 -.491E-02
   -.647E+02 0.140E+03 0.869E+02   0.654E+02 -.143E+03 -.852E+02   -.119E+01 0.240E+01 -.253E+01   -.109E-02 -.227E-02 0.256E-02
   -.217E+03 -.789E+00 0.830E+03   0.220E+03 0.805E+00 -.829E+03   -.281E+01 0.649E-02 -.212E+01   -.383E-02 0.141E-02 0.504E-02
   -.197E+03 -.154E+01 -.541E+03   0.199E+03 0.152E+01 0.541E+03   -.201E+01 0.330E-01 0.190E+01   0.525E-02 -.305E-03 0.439E-02
   -.172E+03 0.455E+01 0.616E+03   0.174E+03 -.451E+01 -.616E+03   -.254E+01 -.433E-01 -.667E+00   0.148E-01 -.321E-02 0.139E-01
   -.934E+02 0.121E+02 -.105E+04   0.927E+02 -.121E+02 0.105E+04   0.718E+00 -.540E-01 -.492E+01   0.756E-02 -.965E-03 0.313E-02
   0.125E+03 -.528E+01 0.133E+04   -.126E+03 0.536E+01 -.134E+04   0.228E+01 -.786E-01 0.502E+01   -.115E-01 0.384E-03 0.313E-02
   -.876E+02 -.138E+02 -.756E+02   0.896E+02 0.138E+02 0.750E+02   -.184E+01 -.175E-01 0.162E+01   -.427E-02 0.451E-03 0.141E-02
   -.894E+02 0.159E+01 0.123E+04   0.912E+02 -.158E+01 -.123E+04   -.180E+01 -.370E-02 0.431E+01   -.639E-02 -.884E-05 0.190E-02
   -.187E+03 0.224E+01 -.204E+03   0.189E+03 -.224E+01 0.203E+03   -.142E+01 0.225E-02 0.140E+01   -.330E-02 0.645E-02 0.181E-03
   -.230E+03 -.247E+02 0.412E+03   0.232E+03 0.247E+02 -.412E+03   -.211E+01 -.671E-01 -.292E+00   -.325E-02 0.901E-02 0.236E-02
   -.268E+02 -.500E+02 -.117E+04   0.268E+02 0.500E+02 0.117E+04   -.153E+00 0.717E-01 -.441E+01   -.768E-02 0.563E-04 -.477E-02
   -.267E+02 -.182E+02 0.130E+04   0.260E+02 0.180E+02 -.131E+04   0.838E+00 0.751E+00 0.503E+01   0.662E-02 -.107E-02 0.276E-02
   0.253E+02 -.764E+02 -.202E+03   -.266E+02 0.774E+02 0.203E+03   0.170E+01 -.160E+01 0.617E+00   0.151E-02 0.958E-03 0.843E-02
   0.151E+03 -.251E+03 0.607E+03   -.153E+03 0.252E+03 -.607E+03   0.112E+01 -.155E+01 -.120E+01   0.204E-02 0.214E-02 0.494E-02
   0.137E+03 -.208E+02 -.877E+03   -.139E+03 0.215E+02 0.878E+03   0.215E+01 -.613E+00 -.136E+00   0.443E-02 -.751E-02 -.262E-02
   0.135E+03 0.298E+02 0.471E+03   -.138E+03 -.299E+02 -.473E+03   0.276E+01 0.721E-01 0.813E+00   -.508E-02 0.594E-02 0.108E-01
   -.139E+03 0.868E+02 -.114E+04   0.140E+03 -.877E+02 0.114E+04   -.109E+01 0.633E+00 -.384E+01   0.230E-02 0.546E-02 0.388E-02
   0.247E+03 -.366E+03 -.419E+03   -.251E+03 0.372E+03 0.419E+03   0.392E+01 -.655E+01 0.496E+00   -.394E-02 0.148E-02 -.297E-02
   0.432E+02 -.742E+02 0.119E+04   -.444E+02 0.735E+02 -.119E+04   0.116E+01 0.133E+01 0.573E+01   -.438E-02 0.124E-02 0.515E-02
   0.132E+03 0.647E+02 0.110E+04   -.133E+03 -.656E+02 -.110E+04   0.868E+00 0.944E+00 0.588E+01   -.371E-02 -.198E-02 0.330E-02
   0.165E+03 -.146E+03 -.515E+03   -.167E+03 0.148E+03 0.514E+03   0.229E+01 -.269E+01 0.201E+01   0.868E-04 -.694E-03 -.418E-03
   0.197E+02 -.178E+03 0.881E+02   -.210E+02 0.180E+03 -.874E+02   0.144E+01 -.227E+01 -.141E+01   0.137E-01 -.630E-02 0.334E-02
   -.838E+02 -.185E+03 -.131E+04   0.832E+02 0.187E+03 0.132E+04   0.868E+00 -.331E+01 -.460E+01   0.273E-02 -.510E-02 -.400E-02
   0.148E+03 0.249E+03 0.609E+03   -.150E+03 -.250E+03 -.609E+03   0.107E+01 0.162E+01 -.118E+01   0.910E-03 -.266E-02 0.644E-02
   0.134E+03 0.188E+02 -.877E+03   -.136E+03 -.195E+02 0.878E+03   0.211E+01 0.578E+00 -.159E+00   0.418E-03 -.215E-02 0.225E-02
   -.347E+02 0.248E+02 0.129E+04   0.341E+02 -.248E+02 -.129E+04   0.762E+00 -.542E+00 0.523E+01   0.323E-02 -.134E-01 0.859E-02
   -.143E+03 0.989E+02 -.304E+03   0.144E+03 -.992E+02 0.306E+03   -.140E+01 0.112E+01 -.126E+01   0.622E-03 -.375E-02 0.115E-02
   0.148E+03 0.169E+03 -.355E+03   -.150E+03 -.172E+03 0.355E+03   0.177E+01 0.304E+01 0.134E+01   -.438E-02 -.122E-02 -.226E-02
   0.397E+02 0.537E+02 0.122E+04   -.409E+02 -.528E+02 -.122E+04   0.119E+01 -.151E+01 0.557E+01   0.479E-03 0.364E-02 0.394E-02
   0.134E+03 -.288E+02 0.471E+03   -.137E+03 0.289E+02 -.472E+03   0.269E+01 -.790E-01 0.728E+00   -.432E-02 -.750E-02 0.109E-01
   -.142E+03 -.853E+02 -.114E+04   0.143E+03 0.862E+02 0.114E+04   -.100E+01 -.590E+00 -.382E+01   0.537E-02 -.424E-02 0.238E-02
   0.311E+02 0.171E+03 0.921E+02   -.323E+02 -.173E+03 -.914E+02   0.130E+01 0.234E+01 -.141E+01   0.721E-02 0.850E-02 0.135E-01
   -.655E+02 0.173E+03 -.132E+04   0.650E+02 -.176E+03 0.132E+04   0.818E+00 0.324E+01 -.456E+01   0.280E-02 0.561E-02 -.341E-02
   0.147E+03 -.565E+02 0.108E+04   -.147E+03 0.574E+02 -.109E+04   0.838E+00 -.989E+00 0.589E+01   -.485E-02 0.172E-02 0.287E-02
   0.202E+03 0.159E+03 -.516E+03   -.205E+03 -.161E+03 0.515E+03   0.249E+01 0.242E+01 0.212E+01   -.925E-02 -.405E-03 -.491E-02
 -----------------------------------------------------------------------------------------------
   -.476E+02 -.251E+01 -.502E+02   0.148E-11 0.196E-11 0.227E-11   0.475E+02 0.235E+01 0.499E+02   0.549E-01 0.502E-01 0.326E+00
 
 
 POSITION                                       TOTAL-FORCE (eV/Angst)
 -----------------------------------------------------------------------------------
     13.17084      1.39171      1.94975         0.264361     -0.300690     -0.308255
     13.75451      1.39171      5.03429        -0.913410     -0.066102     -1.645191
      4.43666      6.18092      0.40748        -0.298569     -0.000007      1.099365
      5.02033      6.18092      3.49202        -0.243164      0.002168      0.176212
      7.93172      1.39171      4.00611        -0.217506      0.001640      0.016604
     16.08224      6.18092      2.46384         0.035127      0.048933      0.124935
     16.66591      6.18092      5.54838        -0.777283      0.054033     -1.865774
      2.10894      1.39171      2.97793        -0.297958      0.103047     -0.281121
      2.69261      1.39171      6.06247        -0.932862      0.093008     -1.450273
     10.25945      6.18092      1.43566         0.100507     -0.025428      0.836402
     10.84312      6.18092      4.52020         0.070196     -0.009912      0.629081
     15.32426      0.12638      1.54227        -0.293017     -0.821771      0.613925
      6.59008      4.91558      0.00000        -0.032636      0.781043      1.710226
      7.17375      4.91558      3.08454        -0.018110     -0.287708      0.114850
      7.75741      4.91558      6.16909        -0.179256     -0.403375     -2.008443
      9.50147      0.12638      0.51409        -0.109668      0.567445      1.860209
     10.08514      0.12638      3.59863        -0.018819     -0.055907      0.245514
      1.35096      4.91558      2.05636         0.243902     -0.480213     -0.239235
      1.93463      4.91558      5.14091        -0.143486     -0.108109     -1.375316
      4.26235      0.12638      2.57045         0.137227     -0.149286     -0.443978
      4.84602      0.12638      5.65500        -0.177154     -0.243443     -1.507869
     12.41286      4.91558      1.02818         0.194818     -0.356018      0.953458
     12.99653      4.91558      4.11272         0.238283     -0.059740      0.401926
     15.32426      2.65705      1.54227        -0.070311      0.664605      0.344927
     15.90793      2.65705      4.62682         0.940433     -0.763049     -0.460019
      6.59008      7.44626      0.00000        -0.027066     -0.784254      1.718737
      7.17375      7.44626      3.08454        -0.015567      0.285781      0.110154
      7.75741      7.44626      6.16909        -0.176719      0.394463     -2.013516
      9.50147      2.65705      0.51409        -0.120550     -0.562327      1.869860
     10.08514      2.65705      3.59863         0.010363      0.047929      0.210947
      1.35096      7.44626      2.05636         0.133549      0.363435     -0.076591
      1.93463      7.44626      5.14091        -0.217336      0.122825     -1.445468
      4.26235      2.65705      2.57045         0.132263      0.152629     -0.464791
      4.84602      2.65705      5.65500        -0.134789      0.237544     -1.491711
     12.41286      7.44626      1.02818         0.239490      0.400596      0.891726
     12.99653      7.44626      4.11272         0.217803      0.214588      0.341001
      0.43949      1.39171      6.03394        -0.343235      0.803413      0.148433
     16.74052      1.39171      2.94940        -0.478203      0.186387     -0.848549
      8.00634      6.18092      1.40713         0.311514      0.025545     -1.520156
      8.59001      6.18092      4.49167        -0.105124      0.018232      1.300982
     10.91773      1.39171      1.92122        -0.605796      0.002540     -1.016815
     11.50140      1.39171      5.00576         0.036284     -0.091871      0.232024
      2.18355      6.18092      0.37895         1.298223      0.008921      0.152780
      2.76722      6.18092      3.46349         0.088909     -0.038595      1.098152
      5.09494      1.39171      0.89304        -0.019940      0.008020      0.690185
      5.67861      1.39171      3.97758         0.153210      0.013429      0.899817
     13.82913      6.18092      2.43531        -0.524121      0.013001     -0.694049
     14.41279      6.18092      5.51985        -0.112798      0.041740      0.130843
     13.41477      3.00295      0.38372         0.123741      0.592408      0.490958
     13.99844      3.00295      3.46826         0.378243     -0.583238      1.244689
      5.26426      7.79215      1.92599        -0.132247     -0.162602     -1.138202
      5.84793      7.79215      5.01054         0.434819      0.132017      0.840356
      8.17565      3.00295      2.44008         0.398462     -0.009228     -0.618801
      8.75932      3.00295      5.52463        -0.049035     -0.280514      0.041987
      0.02514      7.79215      3.98236         0.154808     -0.397887      0.369464
     16.32617      7.79215      0.89781        -0.053416      0.641618      0.525725
      2.35287      3.00295      1.41190        -0.072134     -0.002003      0.571111
      2.93654      3.00295      4.49645         0.083842     -0.020956      0.937765
     11.08705      7.79215      2.95417         0.155074     -0.447250     -0.640628
     11.67072      7.79215      6.03872         0.238899     -0.889635     -1.326606
      5.26426      4.56969      1.92599        -0.142879      0.182681     -1.130202
      5.84793      4.56969      5.01054         0.431350     -0.109400      0.839124
     13.41477      9.35889      0.38372         0.122443     -0.605997      0.378032
     13.99844      9.35889      3.46826        -0.056110      0.852147      0.728933
      0.02514      4.56969      3.98236         0.069602      0.132689      0.873988
     16.32617      4.56969      0.89781        -0.017298     -0.587965      0.443762
      8.17565      9.35889      2.44008         0.387442     -0.014677     -0.634708
      8.75932      9.35889      5.52463        -0.046528      0.256285      0.031079
     11.08705      4.56969      2.95417         0.100230      0.480237     -0.684586
     11.67072      4.56969      6.03872         0.233009      0.871198     -1.336948
      2.35287      9.35889      1.41190        -0.066675     -0.033343      0.512620
      2.93654      9.35889      4.49645         0.082348     -0.045719      0.914935
 -----------------------------------------------------------------------------------
    total drift:                               -0.065314     -0.114836     -0.000041


--------------------------------------------------------------------------------------------------------



  FREE ENERGIE OF THE ION-ELECTRON SYSTEM (eV)
  ---------------------------------------------------
  free  energy   TOTEN  =      -342.03966808 eV

  energy  without entropy=     -340.72831876  energy(sigma->0) =     -341.38399342
 


--------------------------------------------------------------------------------------------------------


    POTLOK:  cpu time    0.0562: real time    0.0564


--------------------------------------------------------------------------------------------------------


     LOOP+:  cpu time  121.4452: real time  121.8195
    4ORBIT:  cpu time    0.0000: real time    0.0000

 total amount of memory used by VASP MPI-rank0    46725. kBytes
=======================================================================

   base      :      30000. kBytes
   nonlr-proj:       2059. kBytes
   fftplans  :       3623. kBytes
   grid      :       6327. kBytes
   one-center:         93. kBytes
   wavefun   :       4623. kBytes
 
  
  
 General timing and accounting informations for this job:
 ========================================================
  
                  Total CPU time used (sec):      123.856
                            User time (sec):      123.232
                          System time (sec):        0.624
                         Elapsed time (sec):      124.692
  
                   Maximum memory used (kb):      263740.
                   Average memory used (kb):           0.
  
                          Minor page faults:        83889
                          Major page faults:            0
                 Voluntary context switches:         1017
