LAMMPS data file via write_data, version 5 Jun 2019, timestep = 29

60 atoms
2 atom types

0.0000000000000000e+00 9.5784099999999999e+00 xlo xhi
0.0000000000000000e+00 1.1256463038200000e+01 ylo yhi
0.0000000000000000e+00 1.7711358899699999e+01 zlo zhi
0.0000000000000000e+00 0.0000000000000000e+00 0.0000000000000000e+00 xy xz yz

Masses

1 58.71
2 32.06

Atoms # atomic

1 1 9.4297589102719499e+00 5.0296845857939267e+00 1.4447592367704214e+00 -1 0 0
2 1 7.7362117420000021e-01 4.2700843219999998e+00 3.4920210239000000e+00 0 0 0
3 1 4.5131259380875099e-01 3.8870940498462447e+00 5.8656918503186466e+00 0 0 0
4 1 5.5628261741999996e+00 1.7478033417999999e+00 1.9497492413999999e+00 0 0 0
5 1 5.5628261741999996e+00 1.1641339520000000e+00 5.0342928063999999e+00 0 0 0
6 1 2.0389578703558371e+00 3.9625224526464846e+00 1.0852205749131858e+00 0 0 0
7 1 2.0389578704000000e+00 2.1166700599000001e+00 3.0845435650000002e+00 0 0 0
8 1 6.8281628704000017e+00 5.2226204300000001e+00 1.5422717825000001e+00 0 0 0
9 1 6.8281628704000017e+00 4.6389510402000003e+00 4.6268153475000000e+00 0 0 0
10 1 4.2265668304684132e+00 5.0296845857860895e+00 1.4447592367504334e+00 0 0 0
11 1 3.3042945666000008e+00 4.2700843219999998e+00 3.4920210239000000e+00 0 0 0
12 1 3.6266031469924154e+00 3.8870940498450826e+00 5.8656918503178801e+00 0 0 0
13 1 8.0934995666000003e+00 1.7478033417999999e+00 1.9497492413999999e+00 0 0 0
14 1 8.0934995666000003e+00 1.1641339520000000e+00 5.0342928063999999e+00 0 0 0
15 1 9.4255980267964308e+00 1.0650851920531762e+01 1.4435251511014777e+00 -1 0 0
16 1 7.7362117420000021e-01 9.8983158411000005e+00 3.4920210239000000e+00 0 0 0
17 1 6.7313026953189803e-01 9.5690407393287220e+00 6.0176470805054381e+00 0 0 0
18 1 5.5628261741999996e+00 7.3760348608999999e+00 1.9497492413999999e+00 0 0 0
19 1 5.5628261741999996e+00 6.7923654710999992e+00 5.0342928063999999e+00 0 0 0
20 1 2.0389578703557585e+00 9.5899420420080013e+00 1.0855155059968777e+00 0 0 0
21 1 2.0389578704000000e+00 7.7449015789999995e+00 3.0845435650000002e+00 0 0 0
22 1 2.0389578703505946e+00 7.1516992199664928e+00 5.7180967504912266e+00 0 0 0
23 1 6.8281628704000017e+00 1.0850851949100001e+01 1.5422717825000001e+00 0 0 0
24 1 6.8281628704000017e+00 1.0267182559300000e+01 4.6268153475000000e+00 0 0 0
25 1 6.8281628703963930e+00 9.4457087065056395e+00 6.8514037851621374e+00 0 0 0
26 1 4.2307277139451669e+00 1.0650851920522834e+01 1.4435251510811316e+00 0 0 0
27 1 3.3042945666000008e+00 9.8983158411000005e+00 3.4920210239000000e+00 0 0 0
28 1 3.4047854712607943e+00 9.5690407393388224e+00 6.0176470805082358e+00 0 0 0
29 1 8.0934995666000003e+00 7.3760348608999999e+00 1.9497492413999999e+00 0 0 0
30 1 8.0934995666000003e+00 6.7923654710999992e+00 5.0342928063999999e+00 0 0 0
31 2 3.6501901085000008e+00 2.9159081912000002e+00 1.7159079410000000e+00 0 0 0
32 2 3.6951507862290147e+00 2.3775271138838350e+00 4.4840258900974881e+00 0 0 0
33 2 8.4393951084999994e+00 5.4381891827000004e+00 3.2581797057999999e+00 0 0 0
34 2 8.3279536284872009e+00 4.9768719201779295e+00 6.0226844527355672e+00 0 0 0
35 2 8.2153096633648843e+00 5.3428134927289583e-01 3.0370155651314035e-01 0 0 0
36 2 2.0389578704000000e+00 5.0743156739000002e+00 5.3193179857999997e+00 0 0 0
37 2 2.0389578704000000e+00 2.9753713499999997e-02 2.2347744208000000e+00 0 0 0
38 2 6.8281628703919068e+00 3.1716001864718599e+00 1.0866275768545519e+00 0 0 0
39 2 6.8281628704000017e+00 2.5520346937000000e+00 3.7770462033000003e+00 0 0 0
40 2 6.8281628703995496e+00 1.7683417455868571e+00 6.4681993147193708e+00 0 0 0
41 2 4.2772563219999998e-01 2.9159081912000002e+00 1.7159079410000000e+00 0 0 0
42 2 3.8276495457578924e-01 2.3775271138857286e+00 4.4840258900964667e+00 0 0 0
43 2 5.2169306322000004e+00 5.4381891827000004e+00 3.2581797057999999e+00 0 0 0
44 2 5.3283721123111603e+00 4.9768719201819716e+00 6.0226844527314292e+00 0 0 0
45 2 5.4410160774137841e+00 5.3428134926363247e-01 3.0370155652735487e-01 0 0 0
46 2 3.6501901085000008e+00 8.5441397102999996e+00 1.7159079410000000e+00 0 0 0
47 2 3.6501901085000008e+00 7.9604703317999999e+00 4.8004514883000020e+00 0 0 0
48 2 8.4393951084999994e+00 1.1066420701800000e+01 3.2581797057999999e+00 0 0 0
49 2 8.3834451186664918e+00 1.0550434931435744e+01 6.0677743453133886e+00 0 0 0
50 2 8.2147624103691346e+00 6.1627654039582840e+00 3.0334499728401187e-01 0 0 0
51 2 2.0389578703936246e+00 1.0713676059043198e+01 5.0145903040346465e+00 0 0 0
52 2 2.0389578704000000e+00 5.6579852325999997e+00 2.2347744208000000e+00 0 0 0
53 2 6.8281628703918145e+00 8.7998983434031715e+00 1.0855977455900949e+00 0 0 0
54 2 6.8281628704000017e+00 8.1802662127999994e+00 3.7770462033000003e+00 0 0 0
55 2 6.8281628703948929e+00 7.4619610956501266e+00 6.5286059937980880e+00 0 0 0
56 2 4.2772563219999998e-01 8.5441397102999996e+00 1.7159079410000000e+00 0 0 0
57 2 4.2772563219999998e-01 7.9604703317999999e+00 4.8004514883000020e+00 0 0 0
58 2 5.2169306322000004e+00 1.1066420701800000e+01 3.2581797057999999e+00 0 0 0
59 2 5.2728806221296134e+00 1.0550434931435195e+01 6.0677743453085222e+00 0 0 0
60 2 5.4415633304097648e+00 6.1627654039492610e+00 3.0334499729787950e-01 0 0 0

Velocities

1 0.0000000000000000e+00 0.0000000000000000e+00 0.0000000000000000e+00
2 0.0000000000000000e+00 0.0000000000000000e+00 0.0000000000000000e+00
3 0.0000000000000000e+00 0.0000000000000000e+00 0.0000000000000000e+00
4 0.0000000000000000e+00 0.0000000000000000e+00 0.0000000000000000e+00
5 0.0000000000000000e+00 0.0000000000000000e+00 0.0000000000000000e+00
6 0.0000000000000000e+00 0.0000000000000000e+00 0.0000000000000000e+00
7 0.0000000000000000e+00 0.0000000000000000e+00 0.0000000000000000e+00
8 0.0000000000000000e+00 0.0000000000000000e+00 0.0000000000000000e+00
9 0.0000000000000000e+00 0.0000000000000000e+00 0.0000000000000000e+00
10 0.0000000000000000e+00 0.0000000000000000e+00 0.0000000000000000e+00
11 0.0000000000000000e+00 0.0000000000000000e+00 0.0000000000000000e+00
12 0.0000000000000000e+00 0.0000000000000000e+00 0.0000000000000000e+00
13 0.0000000000000000e+00 0.0000000000000000e+00 0.0000000000000000e+00
14 0.0000000000000000e+00 0.0000000000000000e+00 0.0000000000000000e+00
15 0.0000000000000000e+00 0.0000000000000000e+00 0.0000000000000000e+00
16 0.0000000000000000e+00 0.0000000000000000e+00 0.0000000000000000e+00
17 0.0000000000000000e+00 0.0000000000000000e+00 0.0000000000000000e+00
18 0.0000000000000000e+00 0.0000000000000000e+00 0.0000000000000000e+00
19 0.0000000000000000e+00 0.0000000000000000e+00 0.0000000000000000e+00
20 0.0000000000000000e+00 0.0000000000000000e+00 0.0000000000000000e+00
21 0.0000000000000000e+00 0.0000000000000000e+00 0.0000000000000000e+00
22 0.0000000000000000e+00 0.0000000000000000e+00 0.0000000000000000e+00
23 0.0000000000000000e+00 0.0000000000000000e+00 0.0000000000000000e+00
24 0.0000000000000000e+00 0.0000000000000000e+00 0.0000000000000000e+00
25 0.0000000000000000e+00 0.0000000000000000e+00 0.0000000000000000e+00
26 0.0000000000000000e+00 0.0000000000000000e+00 0.0000000000000000e+00
27 0.0000000000000000e+00 0.0000000000000000e+00 0.0000000000000000e+00
28 0.0000000000000000e+00 0.0000000000000000e+00 0.0000000000000000e+00
29 0.0000000000000000e+00 0.0000000000000000e+00 0.0000000000000000e+00
30 0.0000000000000000e+00 0.0000000000000000e+00 0.0000000000000000e+00
31 0.0000000000000000e+00 0.0000000000000000e+00 0.0000000000000000e+00
32 0.0000000000000000e+00 0.0000000000000000e+00 0.0000000000000000e+00
33 0.0000000000000000e+00 0.0000000000000000e+00 0.0000000000000000e+00
34 0.0000000000000000e+00 0.0000000000000000e+00 0.0000000000000000e+00
35 0.0000000000000000e+00 0.0000000000000000e+00 0.0000000000000000e+00
36 0.0000000000000000e+00 0.0000000000000000e+00 0.0000000000000000e+00
37 0.0000000000000000e+00 0.0000000000000000e+00 0.0000000000000000e+00
38 0.0000000000000000e+00 0.0000000000000000e+00 0.0000000000000000e+00
39 0.0000000000000000e+00 0.0000000000000000e+00 0.0000000000000000e+00
40 0.0000000000000000e+00 0.0000000000000000e+00 0.0000000000000000e+00
41 0.0000000000000000e+00 0.0000000000000000e+00 0.0000000000000000e+00
42 0.0000000000000000e+00 0.0000000000000000e+00 0.0000000000000000e+00
43 0.0000000000000000e+00 0.0000000000000000e+00 0.0000000000000000e+00
44 0.0000000000000000e+00 0.0000000000000000e+00 0.0000000000000000e+00
45 0.0000000000000000e+00 0.0000000000000000e+00 0.0000000000000000e+00
46 0.0000000000000000e+00 0.0000000000000000e+00 0.0000000000000000e+00
47 0.0000000000000000e+00 0.0000000000000000e+00 0.0000000000000000e+00
48 0.0000000000000000e+00 0.0000000000000000e+00 0.0000000000000000e+00
49 0.0000000000000000e+00 0.0000000000000000e+00 0.0000000000000000e+00
50 0.0000000000000000e+00 0.0000000000000000e+00 0.0000000000000000e+00
51 0.0000000000000000e+00 0.0000000000000000e+00 0.0000000000000000e+00
52 0.0000000000000000e+00 0.0000000000000000e+00 0.0000000000000000e+00
53 0.0000000000000000e+00 0.0000000000000000e+00 0.0000000000000000e+00
54 0.0000000000000000e+00 0.0000000000000000e+00 0.0000000000000000e+00
55 0.0000000000000000e+00 0.0000000000000000e+00 0.0000000000000000e+00
56 0.0000000000000000e+00 0.0000000000000000e+00 0.0000000000000000e+00
57 0.0000000000000000e+00 0.0000000000000000e+00 0.0000000000000000e+00
58 0.0000000000000000e+00 0.0000000000000000e+00 0.0000000000000000e+00
59 0.0000000000000000e+00 0.0000000000000000e+00 0.0000000000000000e+00
60 0.0000000000000000e+00 0.0000000000000000e+00 0.0000000000000000e+00
