"Millerite NiS"                         
           1
    11.256463    0.000000    0.000000
     5.044562   10.062820    0.000000
     0.000000    0.000000   21.744232
   Ty   Ty
  48  48
Direct configuration=     1
   0.26092070  0.47878036  0.25332799
   0.35488056  0.38482049  0.38835497
   0.37825555  0.36144544  0.49784030
   0.16696083  0.07274024  0.11830101
   0.04890337  0.05482322  0.47256379
   0.30577769  0.22055851  0.11687394
   0.36819893  0.23939913  0.21765305
   0.46215880  0.14543926  0.35268003
   0.00030194  0.37150212  0.21765305
   0.09426181  0.27754226  0.35268003
   0.18487304  0.19079243  0.47256857
   0.51650718  0.43638931  0.11839351
   0.76092070  0.47878036  0.25332799
   0.85488056  0.38482049  0.38835497
   0.87821115  0.36149165  0.49782757
   0.66696083  0.07274024  0.11830101
   0.54890799  0.05482312  0.47256608
   0.77423906  0.33335899  0.08262607
   0.86819893  0.23939913  0.21765305
   0.96215880  0.14543926  0.35268003
   0.50030194  0.37150212  0.21765305
   0.59426181  0.27754226  0.35268003
   0.68488000  0.19079433  0.47256421
   0.90708442  0.45714351  0.10054216
   0.26092070  0.97878036  0.25332799
   0.35488056  0.88482049  0.38835497
   0.37821277  0.86148629  0.49782868
   0.12958817  0.60933452  0.17672798
   0.04891813  0.55482371  0.47261422
   0.28507379  0.83865121  0.10232980
   0.36819893  0.73939913  0.21765305
   0.46215880  0.64543926  0.35268003
   0.00030194  0.87150212  0.21765305
   0.09426181  0.77754226  0.35268003
   0.18487702  0.69078274  0.47261443
   0.43671067  0.95574491  0.10345067
   0.76092070  0.97878036  0.25332799
   0.85488056  0.88482049  0.38835497
   0.87821654  0.86148458  0.49783492
   0.66696083  0.57274024  0.11830101
   0.54890939  0.55482680  0.47256833
   0.77423907  0.83335899  0.08262607
   0.86819893  0.73939913  0.21765305
   0.96215880  0.64543926  0.35268003
   0.50030194  0.87150212  0.21765305
   0.59426181  0.77754226  0.35268003
   0.68487821  0.69079656  0.47256461
   0.90634206  0.96546199  0.08262607
   0.07287763  0.16682343  0.27005396
   0.16683750  0.07286357  0.40508094
   0.47891775  0.26078330  0.13502698
   0.21316531  0.52653536  0.52564462
   0.03023343  0.37768264  0.45050807
   0.43627354  0.47164251  0.31548109
   0.28359092  0.09976397  0.05301987
   0.34231368  0.06560239  0.18045411
   0.17409868  0.39738738  0.18045411
   0.26805855  0.30342751  0.31548109
   0.36201842  0.20946765  0.45050807
   0.57287763  0.16682343  0.27005396
   0.66683750  0.07286357  0.40508094
   0.87566129  0.38471916  0.02076948
   0.97891775  0.26078330  0.13502698
   0.71312476  0.52658348  0.52562757
   0.53023343  0.37768264  0.45050807
   0.93627354  0.47164251  0.31548109
   0.76041326  0.15667715  0.06369765
   0.84231368  0.06560239  0.18045411
   0.60334036  0.48958997  0.04967742
   0.67409868  0.39738738  0.18045411
   0.76805855  0.30342751  0.31548109
   0.86201842  0.20946765  0.45050807
   0.07287764  0.66682343  0.27005396
   0.16683750  0.57286357  0.40508094
   0.47891775  0.76078330  0.13502698
   0.21311888  0.02657405  0.52562620
   0.03023342  0.87768264  0.45050807
   0.43627354  0.97164251  0.31548109
   0.34231368  0.56560239  0.18045411
   0.09559247  0.96103547  0.06715695
   0.17409868  0.89738738  0.18045411
   0.26805855  0.80342751  0.31548109
   0.36201842  0.70946764  0.45050807
   0.57287764  0.66682343  0.27005396
   0.66683750  0.57286357  0.40508094
   0.85995518  0.88030484  0.01276296
   0.97891775  0.76078330  0.13502698
   0.71312517  0.02657828  0.52562582
   0.53023342  0.87768264  0.45050807
   0.93627354  0.97164251  0.31548109
   0.77405337  0.64917484  0.06698666
   0.84231368  0.56560239  0.18045411
   0.58847319  0.98178721  0.06051455
   0.67409868  0.89738738  0.18045411
   0.76805855  0.80342751  0.31548109
   0.86201842  0.70946764  0.45050807
