<?xml version="1.0" encoding="ISO-8859-1"?>
<modeling>
 <generator>
  <i name="program" type="string">vasp </i>
  <i name="version" type="string">6.1.0  </i>
  <i name="subversion" type="string">28Jan20 (build Mar 31 2020 17:42:31) gamma-only                       parallel </i>
  <i name="platform" type="string">LinuxIFC </i>
  <i name="date" type="string">2020 04 12 </i>
  <i name="time" type="string">04:18:38 </i>
 </generator>
 <incar>
  <i type="string" name="SYSTEM">"Millerite NiS"</i>
  <i type="int" name="NSIM">     4</i>
  <i type="int" name="NELM">   100</i>
  <i name="ENCUT">    450.00000000</i>
  <i type="string" name="LREAL">A</i>
  <i type="int" name="ISMEAR">     0</i>
  <i type="int" name="NWRITE">     2</i>
  <i type="logical" name="LWAVE"> F  </i>
  <i type="logical" name="LCHARG"> F  </i>
  <i type="int" name="NCORE">     6</i>
  <i type="int" name="NELM">   100</i>
 </incar>
 <structure name="primitive_cell" >
  <crystal>
   <varray name="basis" >
    <v>      10.06282034       5.04456212       0.00000000 </v>
    <v>       0.00000000      11.25646304       0.00000000 </v>
    <v>       0.00000000       0.00000000      22.88364939 </v>
   </varray>
   <i name="volume">   2592.07135999 </i>
   <varray name="rec_basis" >
    <v>       0.09937572       0.00000000       0.00000000 </v>
    <v>      -0.04453504       0.08883785       0.00000000 </v>
    <v>       0.00000000       0.00000000       0.04369932 </v>
   </varray>
  </crystal>
  <varray name="positions" >
   <v>       0.26092070       0.47878036       0.29050611 </v>
   <v>       0.35488056       0.38482049       0.41880986 </v>
   <v>       0.44884043       0.29086063       0.54711361 </v>
   <v>       0.07300096       0.16670011       0.03389862 </v>
   <v>       0.16696083       0.07274024       0.16220237 </v>
   <v>       0.05611868       0.05147940       0.51321499 </v>
   <v>       0.27423907       0.33335899       0.12830375 </v>
   <v>       0.36819893       0.23939913       0.25660749 </v>
   <v>       0.46215880       0.14543926       0.38491124 </v>
   <v>       0.00030194       0.37150212       0.25660749 </v>
   <v>       0.09426181       0.27754226       0.38491124 </v>
   <v>       0.18822168       0.18358239       0.51321499 </v>
   <v>       0.40634206       0.46546199       0.12830375 </v>
   <v>       0.76092070       0.47878036       0.29050611 </v>
   <v>       0.85488056       0.38482049       0.41880986 </v>
   <v>       0.94884043       0.29086063       0.54711361 </v>
   <v>       0.57300096       0.16670011       0.03389862 </v>
   <v>       0.66696083       0.07274024       0.16220237 </v>
   <v>       0.55611868       0.05147940       0.51321499 </v>
   <v>       0.68027920       0.42731886       0.00000000 </v>
   <v>       0.77423907       0.33335899       0.12830375 </v>
   <v>       0.86819893       0.23939913       0.25660749 </v>
   <v>       0.96215880       0.14543926       0.38491124 </v>
   <v>       0.50030194       0.37150212       0.25660749 </v>
   <v>       0.59426181       0.27754226       0.38491124 </v>
   <v>       0.90634206       0.46546199       0.12830375 </v>
   <v>       0.81238219       0.05942187       0.00000000 </v>
   <v>       0.26092070       0.97878036       0.29050611 </v>
   <v>       0.35488056       0.88482049       0.41880986 </v>
   <v>       0.07300096       0.66670011       0.03389862 </v>
   <v>       0.16696083       0.57274024       0.16220237 </v>
   <v>       0.18027920       0.92731886       0.00000000 </v>
   <v>       0.27423907       0.83335899       0.12830375 </v>
   <v>       0.36819893       0.73939913       0.25660749 </v>
   <v>       0.46215880       0.64543926       0.38491124 </v>
   <v>       0.00030194       0.87150212       0.25660749 </v>
   <v>       0.09426181       0.77754226       0.38491124 </v>
   <v>       0.40634206       0.96546199       0.12830375 </v>
   <v>       0.31238219       0.55942187       0.00000000 </v>
   <v>       0.76092070       0.97878036       0.29050611 </v>
   <v>       0.85488056       0.88482049       0.41880986 </v>
   <v>       0.94884043       0.79086063       0.54711361 </v>
   <v>       0.57300096       0.66670011       0.03389862 </v>
   <v>       0.66696083       0.57274024       0.16220237 </v>
   <v>       0.68027920       0.92731886       0.00000000 </v>
   <v>       0.77423907       0.83335899       0.12830375 </v>
   <v>       0.86819893       0.73939913       0.25660749 </v>
   <v>       0.96215880       0.64543926       0.38491124 </v>
   <v>       0.50030194       0.87150212       0.25660749 </v>
   <v>       0.59426181       0.77754226       0.38491124 </v>
   <v>       0.90634206       0.96546199       0.12830375 </v>
   <v>       0.81238219       0.55942187       0.00000000 </v>
   <v>       0.07287763       0.16682343       0.30639927 </v>
   <v>       0.16683750       0.07286357       0.43470302 </v>
   <v>       0.38495789       0.35474317       0.04979178 </v>
   <v>       0.47891775       0.26078330       0.17809552 </v>
   <v>       0.26079737       0.47890369       0.56300676 </v>
   <v>       0.03023342       0.37768264       0.47786825 </v>
   <v>       0.43627354       0.47164251       0.34956450 </v>
   <v>       0.24835381       0.15956225       0.09295701 </v>
   <v>       0.34231368       0.06560239       0.22126075 </v>
   <v>       0.08013882       0.49134725       0.09295701 </v>
   <v>       0.17409868       0.39738738       0.22126075 </v>
   <v>       0.26805855       0.30342751       0.34956450 </v>
   <v>       0.36201842       0.20946764       0.47786825 </v>
   <v>       0.57287763       0.16682343       0.30639927 </v>
   <v>       0.66683750       0.07286357       0.43470302 </v>
   <v>       0.88495789       0.35474317       0.04979178 </v>
   <v>       0.97891775       0.26078330       0.17809552 </v>
   <v>       0.76079737       0.47890369       0.56300676 </v>
   <v>       0.53023342       0.37768264       0.47786825 </v>
   <v>       0.93627354       0.47164251       0.34956450 </v>
   <v>       0.74835381       0.15956225       0.09295701 </v>
   <v>       0.84231368       0.06560239       0.22126075 </v>
   <v>       0.58013882       0.49134724       0.09295701 </v>
   <v>       0.67409868       0.39738738       0.22126075 </v>
   <v>       0.76805855       0.30342751       0.34956450 </v>
   <v>       0.86201842       0.20946764       0.47786825 </v>
   <v>       0.07287763       0.66682343       0.30639927 </v>
   <v>       0.16683750       0.57286357       0.43470302 </v>
   <v>       0.38495789       0.85474317       0.04979178 </v>
   <v>       0.47891775       0.76078330       0.17809552 </v>
   <v>       0.26079737       0.97890369       0.56300676 </v>
   <v>       0.03023342       0.87768264       0.47786825 </v>
   <v>       0.43627354       0.97164251       0.34956450 </v>
   <v>       0.24835381       0.65956225       0.09295701 </v>
   <v>       0.34231368       0.56560239       0.22126075 </v>
   <v>       0.08013882       0.99134725       0.09295701 </v>
   <v>       0.17409868       0.89738738       0.22126075 </v>
   <v>       0.26805855       0.80342751       0.34956450 </v>
   <v>       0.36201842       0.70946764       0.47786825 </v>
   <v>       0.57287763       0.66682343       0.30639927 </v>
   <v>       0.66683750       0.57286357       0.43470302 </v>
   <v>       0.88495789       0.85474317       0.04979178 </v>
   <v>       0.97891775       0.76078330       0.17809552 </v>
   <v>       0.76079737       0.97890369       0.56300676 </v>
   <v>       0.53023342       0.87768264       0.47786825 </v>
   <v>       0.93627354       0.97164251       0.34956450 </v>
   <v>       0.74835381       0.65956225       0.09295701 </v>
   <v>       0.84231368       0.56560239       0.22126075 </v>
   <v>       0.58013882       0.99134724       0.09295701 </v>
   <v>       0.67409868       0.89738738       0.22126075 </v>
   <v>       0.76805855       0.80342751       0.34956450 </v>
   <v>       0.86201842       0.70946764       0.47786825 </v>
  </varray>
 </structure>
 <varray name="primitive_index" >
  <v type="int" >        1 </v>
  <v type="int" >        2 </v>
  <v type="int" >        3 </v>
  <v type="int" >        4 </v>
  <v type="int" >        5 </v>
  <v type="int" >        6 </v>
  <v type="int" >        7 </v>
  <v type="int" >        8 </v>
  <v type="int" >        9 </v>
  <v type="int" >       10 </v>
  <v type="int" >       11 </v>
  <v type="int" >       12 </v>
  <v type="int" >       13 </v>
  <v type="int" >       14 </v>
  <v type="int" >       15 </v>
  <v type="int" >       16 </v>
  <v type="int" >       17 </v>
  <v type="int" >       18 </v>
  <v type="int" >       19 </v>
  <v type="int" >       20 </v>
  <v type="int" >       21 </v>
  <v type="int" >       22 </v>
  <v type="int" >       23 </v>
  <v type="int" >       24 </v>
  <v type="int" >       25 </v>
  <v type="int" >       26 </v>
  <v type="int" >       27 </v>
  <v type="int" >       28 </v>
  <v type="int" >       29 </v>
  <v type="int" >       30 </v>
  <v type="int" >       31 </v>
  <v type="int" >       32 </v>
  <v type="int" >       33 </v>
  <v type="int" >       34 </v>
  <v type="int" >       35 </v>
  <v type="int" >       36 </v>
  <v type="int" >       37 </v>
  <v type="int" >       38 </v>
  <v type="int" >       39 </v>
  <v type="int" >       40 </v>
  <v type="int" >       41 </v>
  <v type="int" >       42 </v>
  <v type="int" >       43 </v>
  <v type="int" >       44 </v>
  <v type="int" >       45 </v>
  <v type="int" >       46 </v>
  <v type="int" >       47 </v>
  <v type="int" >       48 </v>
  <v type="int" >       49 </v>
  <v type="int" >       50 </v>
  <v type="int" >       51 </v>
  <v type="int" >       52 </v>
  <v type="int" >       53 </v>
  <v type="int" >       54 </v>
  <v type="int" >       55 </v>
  <v type="int" >       56 </v>
  <v type="int" >       57 </v>
  <v type="int" >       58 </v>
  <v type="int" >       59 </v>
  <v type="int" >       60 </v>
  <v type="int" >       61 </v>
  <v type="int" >       62 </v>
  <v type="int" >       63 </v>
  <v type="int" >       64 </v>
  <v type="int" >       65 </v>
  <v type="int" >       66 </v>
  <v type="int" >       67 </v>
  <v type="int" >       68 </v>
  <v type="int" >       69 </v>
  <v type="int" >       70 </v>
  <v type="int" >       71 </v>
  <v type="int" >       72 </v>
  <v type="int" >       73 </v>
  <v type="int" >       74 </v>
  <v type="int" >       75 </v>
  <v type="int" >       76 </v>
  <v type="int" >       77 </v>
  <v type="int" >       78 </v>
  <v type="int" >       79 </v>
  <v type="int" >       80 </v>
  <v type="int" >       81 </v>
  <v type="int" >       82 </v>
  <v type="int" >       83 </v>
  <v type="int" >       84 </v>
  <v type="int" >       85 </v>
  <v type="int" >       86 </v>
  <v type="int" >       87 </v>
  <v type="int" >       88 </v>
  <v type="int" >       89 </v>
  <v type="int" >       90 </v>
  <v type="int" >       91 </v>
  <v type="int" >       92 </v>
  <v type="int" >       93 </v>
  <v type="int" >       94 </v>
  <v type="int" >       95 </v>
  <v type="int" >       96 </v>
  <v type="int" >       97 </v>
  <v type="int" >       98 </v>
  <v type="int" >       99 </v>
  <v type="int" >      100 </v>
  <v type="int" >      101 </v>
  <v type="int" >      102 </v>
  <v type="int" >      103 </v>
  <v type="int" >      104 </v>
 </varray>
 <kpoints>
  <generation param="Gamma">
   <v type="int" name="divisions">       1        1        1 </v>
   <v name="usershift">      0.00000000       0.00000000       0.00000000 </v>
   <v name="genvec1">      1.00000000       0.00000000       0.00000000 </v>
   <v name="genvec2">     -0.00000000       1.00000000       0.00000000 </v>
   <v name="genvec3">      0.00000000       0.00000000       1.00000000 </v>
   <v name="shift">      0.00000000       0.00000000       0.00000000 </v>
  </generation>
  <varray name="kpointlist" >
   <v>       0.00000000       0.00000000       0.00000000 </v>
  </varray>
  <varray name="weights" >
   <v>       1.00000000 </v>
  </varray>
 </kpoints>
 <parameters>
  <separator name="general" >
   <i type="string" name="SYSTEM">"Millerite NiS"</i>
   <i type="logical" name="LCOMPAT"> F  </i>
  </separator>
  <separator name="electronic" >
   <i type="string" name="PREC">normal</i>
   <i name="ENMAX">    450.00000000</i>
   <i name="ENAUG">    703.44300000</i>
   <i name="EDIFF">      0.00010000</i>
   <i type="int" name="IALGO">    38</i>
   <i type="int" name="IWAVPR">    10</i>
   <i type="int" name="NBANDS">   688</i>
   <i type="int" name="NBANDSLOW">    -1</i>
   <i type="int" name="NBANDSHIGH">    -1</i>
   <i name="NELECT">   1144.00000000</i>
   <i type="int" name="TURBO">     0</i>
   <i type="int" name="IRESTART">     0</i>
   <i type="int" name="NREBOOT">     0</i>
   <i type="int" name="NMIN">     0</i>
   <i name="EREF">      0.00000000</i>
   <separator name="electronic smearing" >
    <i type="int" name="ISMEAR">     0</i>
    <i name="SIGMA">      0.20000000</i>
    <i name="KSPACING">      0.50000000</i>
    <i type="logical" name="KGAMMA"> T  </i>
    <i type="logical" name="KBLOWUP"> T  </i>
   </separator>
   <separator name="electronic projectors" >
    <i type="logical" name="LREAL"> T  </i>
    <v name="ROPT">     -0.00050000     -0.00050000</v>
    <i type="int" name="LMAXPAW">  -100</i>
    <i type="int" name="LMAXMIX">     2</i>
    <i type="logical" name="NLSPLINE"> F  </i>
   </separator>
   <separator name="electronic startup" >
    <i type="int" name="ISTART">     0</i>
    <i type="int" name="ICHARG">     2</i>
    <i type="int" name="INIWAV">     1</i>
   </separator>
   <separator name="electronic spin" >
    <i type="int" name="ISPIN">     1</i>
    <i type="logical" name="LNONCOLLINEAR"> F  </i>
    <v name="MAGMOM">      1.00000000      1.00000000      1.00000000      1.00000000      1.00000000      1.00000000      1.00000000      1.00000000      1.00000000      1.00000000      1.00000000      1.00000000      1.00000000      1.00000000      1.00000000      1.00000000      1.00000000      1.00000000      1.00000000      1.00000000
      1.00000000      1.00000000      1.00000000      1.00000000      1.00000000      1.00000000      1.00000000      1.00000000      1.00000000      1.00000000      1.00000000      1.00000000      1.00000000      1.00000000      1.00000000      1.00000000      1.00000000      1.00000000      1.00000000      1.00000000
      1.00000000      1.00000000      1.00000000      1.00000000      1.00000000      1.00000000      1.00000000      1.00000000      1.00000000      1.00000000      1.00000000      1.00000000      1.00000000      1.00000000      1.00000000      1.00000000      1.00000000      1.00000000      1.00000000      1.00000000
      1.00000000      1.00000000      1.00000000      1.00000000      1.00000000      1.00000000      1.00000000      1.00000000      1.00000000      1.00000000      1.00000000      1.00000000      1.00000000      1.00000000      1.00000000      1.00000000      1.00000000      1.00000000      1.00000000      1.00000000
      1.00000000      1.00000000      1.00000000      1.00000000      1.00000000      1.00000000      1.00000000      1.00000000      1.00000000      1.00000000      1.00000000      1.00000000      1.00000000      1.00000000      1.00000000      1.00000000      1.00000000      1.00000000      1.00000000      1.00000000
      1.00000000      1.00000000      1.00000000      1.00000000</v>
    <i name="NUPDOWN">     -1.00000000</i>
    <i type="logical" name="LSORBIT"> F  </i>
    <v name="SAXIS">      0.00000000      0.00000000      1.00000000</v>
    <i type="logical" name="LSPIRAL"> F  </i>
    <v name="QSPIRAL">      0.00000000      0.00000000      0.00000000</v>
    <i type="logical" name="LZEROZ"> F  </i>
   </separator>
   <separator name="electronic exchange-correlation" >
    <i type="logical" name="LASPH"> F  </i>
    <i type="logical" name="LMETAGGA"> F  </i>
   </separator>
   <separator name="electronic convergence" >
    <i type="int" name="NELM">   100</i>
    <i type="int" name="NELMDL">    -5</i>
    <i type="int" name="NELMIN">     2</i>
    <i name="ENINI">    450.00000000</i>
    <separator name="electronic convergence detail" >
     <i type="logical" name="LDIAG"> T  </i>
     <i type="logical" name="LSUBROT"> F  </i>
     <i name="WEIMIN">      0.00000000</i>
     <i name="EBREAK">      0.00000004</i>
     <i name="DEPER">      0.30000000</i>
     <i type="int" name="NRMM">     4</i>
     <i name="TIME">      0.40000000</i>
    </separator>
   </separator>
   <separator name="electronic mixer" >
    <i name="AMIX">      0.40000000</i>
    <i name="BMIX">      1.00000000</i>
    <i name="AMIN">      0.10000000</i>
    <i name="AMIX_MAG">      1.60000000</i>
    <i name="BMIX_MAG">      1.00000000</i>
    <separator name="electronic mixer details" >
     <i type="int" name="IMIX">     4</i>
     <i type="logical" name="MIXFIRST"> F  </i>
     <i type="int" name="MAXMIX">   -45</i>
     <i name="WC">    100.00000000</i>
     <i type="int" name="INIMIX">     1</i>
     <i type="int" name="MIXPRE">     1</i>
     <i type="int" name="MREMOVE">     5</i>
    </separator>
   </separator>
   <separator name="electronic dipolcorrection" >
    <i type="logical" name="LDIPOL"> F  </i>
    <i type="logical" name="LMONO"> F  </i>
    <i type="int" name="IDIPOL">     0</i>
    <i name="EPSILON">      1.00000000</i>
    <v name="DIPOL">   -100.00000000   -100.00000000   -100.00000000</v>
    <i name="EFIELD">      0.00000000</i>
   </separator>
  </separator>
  <separator name="grids" >
   <i type="int" name="NGX">    60</i>
   <i type="int" name="NGY">    60</i>
   <i type="int" name="NGZ">   120</i>
   <i type="int" name="NGXF">   120</i>
   <i type="int" name="NGYF">   120</i>
   <i type="int" name="NGZF">   240</i>
   <i type="logical" name="ADDGRID"> F  </i>
  </separator>
  <separator name="ionic" >
   <i type="int" name="NSW">     0</i>
   <i type="int" name="IBRION">    -1</i>
   <i type="int" name="MDALGO">     0</i>
   <i type="int" name="ISIF">     2</i>
   <i name="PSTRESS">      0.00000000</i>
   <i name="EDIFFG">      0.00100000</i>
   <i type="int" name="NFREE">     0</i>
   <i name="POTIM">      0.50000000</i>
   <i name="SMASS">     -3.00000000</i>
   <i name="SCALEE">      1.00000000</i>
  </separator>
  <separator name="ionic md" >
   <i name="TEBEG">      0.00010000</i>
   <i name="TEEND">      0.00010000</i>
   <i type="int" name="NBLOCK">     1</i>
   <i type="int" name="KBLOCK">     1</i>
   <i type="int" name="NPACO">   256</i>
   <i name="APACO">     16.00000000</i>
  </separator>
  <separator name="symmetry" >
   <i type="int" name="ISYM">     2</i>
   <i name="SYMPREC">      0.00001000</i>
  </separator>
  <separator name="dos" >
   <i type="int" name="LORBIT">     0</i>
   <v name="RWIGS">     -1.00000000     -1.00000000</v>
   <i type="int" name="NEDOS">   301</i>
   <i name="EMIN">     10.00000000</i>
   <i name="EMAX">    -10.00000000</i>
   <i name="EFERMI">      0.00000000</i>
  </separator>
  <separator name="writing" >
   <i type="int" name="NWRITE">     2</i>
   <i type="logical" name="LWAVE"> F  </i>
   <i type="logical" name="LDOWNSAMPLE"> F  </i>
   <i type="logical" name="LCHARG"> F  </i>
   <i type="logical" name="LPARD"> F  </i>
   <i type="logical" name="LVTOT"> F  </i>
   <i type="logical" name="LVHAR"> F  </i>
   <i type="logical" name="LELF"> F  </i>
   <i type="logical" name="LOPTICS"> F  </i>
   <v name="STM">      0.00000000      0.00000000      0.00000000      0.00000000      0.00000000      0.00000000      0.00000000</v>
  </separator>
  <separator name="performance" >
   <i type="int" name="NPAR">     8</i>
   <i type="int" name="NSIM">     4</i>
   <i type="int" name="NBLK">    -1</i>
   <i type="logical" name="LPLANE"> T  </i>
   <i type="logical" name="LSCALAPACK"> T  </i>
   <i type="logical" name="LSCAAWARE"> F  </i>
   <i type="logical" name="LSCALU"> F  </i>
   <i type="logical" name="LASYNC"> F  </i>
   <i type="logical" name="LORBITALREAL"> F  </i>
  </separator>
  <separator name="miscellaneous" >
   <i type="int" name="IDIOT">     3</i>
   <i type="int" name="PHON_NSTRUCT">    -1</i>
   <i type="logical" name="LMUSIC"> F  </i>
   <v name="POMASS">     58.69000000     32.06600000</v>
   <v name="DARWINR">      0.00000000      0.00000000</v>
   <v name="DARWINV">      1.00000000      1.00000000</v>
   <i type="logical" name="LCORR"> T  </i>
  </separator>
  <i type="logical" name="GGA_COMPAT"> T  </i>
  <i type="logical" name="LBERRY"> F  </i>
  <i type="int" name="ICORELEVEL">     0</i>
  <i type="logical" name="LDAU"> F  </i>
  <i type="int" name="I_CONSTRAINED_M">     0</i>
  <separator name="electronic exchange-correlation" >
   <i type="string" name="GGA">--</i>
   <i type="int" name="VOSKOWN">     0</i>
   <i type="logical" name="LHFCALC"> F  </i>
   <i type="string" name="PRECFOCK"></i>
   <i type="logical" name="LSYMGRAD"> F  </i>
   <i type="logical" name="LHFONE"> F  </i>
   <i type="logical" name="LRHFCALC"> F  </i>
   <i type="logical" name="LTHOMAS"> F  </i>
   <i type="logical" name="LMODELHF"> F  </i>
   <i type="logical" name="LFOCKACE"> F  </i>
   <i name="ENCUT4O">     -1.00000000</i>
   <i type="int" name="EXXOEP">     0</i>
   <i type="int" name="FOURORBIT">     0</i>
   <i name="AEXX">      0.00000000</i>
   <i name="HFALPHA">      0.00000000</i>
   <i name="MCALPHA">      0.00000000</i>
   <i name="ALDAX">      1.00000000</i>
   <i name="AGGAX">      1.00000000</i>
   <i name="ALDAC">      1.00000000</i>
   <i name="AGGAC">      1.00000000</i>
   <i type="int" name="NKREDX">     1</i>
   <i type="int" name="NKREDY">     1</i>
   <i type="int" name="NKREDZ">     1</i>
   <i type="logical" name="SHIFTRED"> F  </i>
   <i type="logical" name="ODDONLY"> F  </i>
   <i type="logical" name="EVENONLY"> F  </i>
   <i type="int" name="LMAXFOCK">     0</i>
   <i type="int" name="NMAXFOCKAE">     0</i>
   <i type="logical" name="LFOCKAEDFT"> F  </i>
   <i name="HFSCREEN">      0.00000000</i>
   <i name="HFSCREENC">      0.00000000</i>
   <i type="int" name="NBANDSGWLOW">     0</i>
  </separator>
  <separator name="vdW DFT" >
   <i type="logical" name="LUSE_VDW"> F  </i>
   <i name="Zab_VDW">     -0.84910000</i>
   <i name="PARAM1">      0.12340000</i>
   <i name="PARAM2">      1.00000000</i>
   <i name="PARAM3">      0.00000000</i>
  </separator>
  <separator name="model GW" >
   <i type="int" name="MODEL_GW">     0</i>
   <i name="MODEL_EPS0">     14.95425785</i>
   <i name="MODEL_ALPHA">      1.00000000</i>
  </separator>
  <separator name="linear response parameters" >
   <i type="logical" name="LEPSILON"> F  </i>
   <i type="logical" name="LRPA"> F  </i>
   <i type="logical" name="LNABLA"> F  </i>
   <i type="logical" name="LVEL"> F  </i>
   <i type="int" name="KINTER">     0</i>
   <i name="CSHIFT">      0.10000000</i>
   <i name="OMEGAMAX">     -1.00000000</i>
   <i name="DEG_THRESHOLD">      0.00200000</i>
   <i name="RTIME">     -0.10000000</i>
   <i name="WPLASMAI">      0.00000000</i>
   <v name="DFIELD">      0.00000000      0.00000000      0.00000000</v>
   <v name="WPLASMA">      0.00000000      0.00000000      0.00000000      0.00000000      0.00000000      0.00000000      0.00000000      0.00000000      0.00000000</v>
  </separator>
  <separator name="orbital magnetization" >
   <i type="logical" name="NUCIND"> F  </i>
   <v name="MAGPOS">      0.00000000      0.00000000      0.00000000</v>
   <i type="logical" name="LNICSALL"> T  </i>
   <i type="logical" name="ORBITALMAG"> F  </i>
   <i type="logical" name="LMAGBLOCH"> F  </i>
   <i type="logical" name="LCHIMAG"> F  </i>
   <i type="logical" name="LGAUGE"> T  </i>
   <i type="int" name="MAGATOM">     0</i>
   <v name="MAGDIPOL">      0.00000000      0.00000000      0.00000000</v>
   <v name="AVECCONST">      0.00000000      0.00000000      0.00000000</v>
  </separator>
  <separator name="response functions" >
   <i type="logical" name="LFINITE_TEMPERATURE"> F  </i>
   <i type="logical" name="LADDER"> F  </i>
   <i type="logical" name="LRPAFORCE"> F  </i>
   <i type="logical" name="LFXC"> F  </i>
   <i type="logical" name="LHARTREE"> T  </i>
   <i type="int" name="IBSE">     0</i>
   <v type="int" name="KPOINT">    -1     0     0     0</v>
   <i type="logical" name="LTCTC"> F  </i>
   <i type="logical" name="LTCTE"> F  </i>
   <i type="logical" name="LTETE"> F  </i>
   <i type="logical" name="LTRIPLET"> F  </i>
   <i type="logical" name="LFXCEPS"> F  </i>
   <i type="logical" name="LFXHEG"> F  </i>
   <i type="int" name="NATURALO">     2</i>
   <i type="logical" name="LHOLEGF"> F  </i>
   <i type="logical" name="L2ORDER"> F  </i>
   <i type="logical" name="LDMP1"> F  </i>
   <i type="logical" name="LMP2LT"> F  </i>
   <i type="logical" name="LSMP2LT"> F  </i>
   <i type="logical" name="LGWLF"> F  </i>
   <i name="ENCUTGW">     -2.00000000</i>
   <i name="ENCUTGWSOFT">     -2.00000000</i>
   <i name="ENCUTLF">     -1.00000000</i>
   <i type="logical" name="LESF_SPLINES"> F  </i>
   <i type="int" name="LMAXMP2">    -1</i>
   <i name="SCISSOR">      0.00000000</i>
   <i type="int" name="NOMEGA">     0</i>
   <i type="int" name="NOMEGAR">     0</i>
   <i type="int" name="NBANDSGW">    -1</i>
   <i type="int" name="NBANDSO">    -1</i>
   <i type="int" name="NBANDSV">    -1</i>
   <i type="int" name="NELM">   100</i>
   <i type="int" name="NELMHF">     1</i>
   <i type="int" name="DIM">     3</i>
   <i type="int" name="IESPILON">     4</i>
   <i type="int" name="ANTIRES">     0</i>
   <i name="OMEGAMAX">    -30.00000000</i>
   <i name="OMEGAMIN">    -30.00000000</i>
   <i name="OMEGATL">   -200.00000000</i>
   <i type="int" name="OMEGAGRID">     0</i>
   <i name="CSHIFT">     -0.10000000</i>
   <i type="logical" name="LSELFENERGY"> F  </i>
   <i type="logical" name="LSPECTRAL"> F  </i>
   <i type="logical" name="LSPECTRALGW"> F  </i>
   <i type="logical" name="LSINGLES"> F  </i>
   <i type="logical" name="LFERMIGW"> F  </i>
   <i type="logical" name="ODDONLYGW"> F  </i>
   <i type="logical" name="EVENONLYGW"> F  </i>
   <i type="int" name="NKREDLFX">     1</i>
   <i type="int" name="NKREDLFY">     1</i>
   <i type="int" name="NKREDLFZ">     1</i>
   <i type="int" name="MAXMEM">  2800</i>
   <i type="int" name="TELESCOPE">     0</i>
   <i type="int" name="NTAUPAR">    -1</i>
   <i type="int" name="NOMEGAPAR">    -1</i>
   <i name="LAMBDA">      1.00000000</i>
  </separator>
  <separator name="External order field" >
   <i name="OFIELD_KAPPA">      0.00000000</i>
   <v name="OFIELD_K">      0.00000000      0.00000000      0.00000000</v>
   <i name="OFIELD_Q6_NEAR">      0.00000000</i>
   <i name="OFIELD_Q6_FAR">      0.00000000</i>
   <i name="OFIELD_A">      0.00000000</i>
  </separator>
 </parameters>
 <atominfo>
  <atoms>     104 </atoms>
  <types>       2 </types>
  <array name="atoms" >
   <dimension dim="1">ion</dimension>
   <field type="string">element</field>
   <field type="int">atomtype</field>
   <set>
    <rc><c>Ni</c><c>   1</c></rc>
    <rc><c>Ni</c><c>   1</c></rc>
    <rc><c>Ni</c><c>   1</c></rc>
    <rc><c>Ni</c><c>   1</c></rc>
    <rc><c>Ni</c><c>   1</c></rc>
    <rc><c>Ni</c><c>   1</c></rc>
    <rc><c>Ni</c><c>   1</c></rc>
    <rc><c>Ni</c><c>   1</c></rc>
    <rc><c>Ni</c><c>   1</c></rc>
    <rc><c>Ni</c><c>   1</c></rc>
    <rc><c>Ni</c><c>   1</c></rc>
    <rc><c>Ni</c><c>   1</c></rc>
    <rc><c>Ni</c><c>   1</c></rc>
    <rc><c>Ni</c><c>   1</c></rc>
    <rc><c>Ni</c><c>   1</c></rc>
    <rc><c>Ni</c><c>   1</c></rc>
    <rc><c>Ni</c><c>   1</c></rc>
    <rc><c>Ni</c><c>   1</c></rc>
    <rc><c>Ni</c><c>   1</c></rc>
    <rc><c>Ni</c><c>   1</c></rc>
    <rc><c>Ni</c><c>   1</c></rc>
    <rc><c>Ni</c><c>   1</c></rc>
    <rc><c>Ni</c><c>   1</c></rc>
    <rc><c>Ni</c><c>   1</c></rc>
    <rc><c>Ni</c><c>   1</c></rc>
    <rc><c>Ni</c><c>   1</c></rc>
    <rc><c>Ni</c><c>   1</c></rc>
    <rc><c>Ni</c><c>   1</c></rc>
    <rc><c>Ni</c><c>   1</c></rc>
    <rc><c>Ni</c><c>   1</c></rc>
    <rc><c>Ni</c><c>   1</c></rc>
    <rc><c>Ni</c><c>   1</c></rc>
    <rc><c>Ni</c><c>   1</c></rc>
    <rc><c>Ni</c><c>   1</c></rc>
    <rc><c>Ni</c><c>   1</c></rc>
    <rc><c>Ni</c><c>   1</c></rc>
    <rc><c>Ni</c><c>   1</c></rc>
    <rc><c>Ni</c><c>   1</c></rc>
    <rc><c>Ni</c><c>   1</c></rc>
    <rc><c>Ni</c><c>   1</c></rc>
    <rc><c>Ni</c><c>   1</c></rc>
    <rc><c>Ni</c><c>   1</c></rc>
    <rc><c>Ni</c><c>   1</c></rc>
    <rc><c>Ni</c><c>   1</c></rc>
    <rc><c>Ni</c><c>   1</c></rc>
    <rc><c>Ni</c><c>   1</c></rc>
    <rc><c>Ni</c><c>   1</c></rc>
    <rc><c>Ni</c><c>   1</c></rc>
    <rc><c>Ni</c><c>   1</c></rc>
    <rc><c>Ni</c><c>   1</c></rc>
    <rc><c>Ni</c><c>   1</c></rc>
    <rc><c>Ni</c><c>   1</c></rc>
    <rc><c>S </c><c>   2</c></rc>
    <rc><c>S </c><c>   2</c></rc>
    <rc><c>S </c><c>   2</c></rc>
    <rc><c>S </c><c>   2</c></rc>
    <rc><c>S </c><c>   2</c></rc>
    <rc><c>S </c><c>   2</c></rc>
    <rc><c>S </c><c>   2</c></rc>
    <rc><c>S </c><c>   2</c></rc>
    <rc><c>S </c><c>   2</c></rc>
    <rc><c>S </c><c>   2</c></rc>
    <rc><c>S </c><c>   2</c></rc>
    <rc><c>S </c><c>   2</c></rc>
    <rc><c>S </c><c>   2</c></rc>
    <rc><c>S </c><c>   2</c></rc>
    <rc><c>S </c><c>   2</c></rc>
    <rc><c>S </c><c>   2</c></rc>
    <rc><c>S </c><c>   2</c></rc>
    <rc><c>S </c><c>   2</c></rc>
    <rc><c>S </c><c>   2</c></rc>
    <rc><c>S </c><c>   2</c></rc>
    <rc><c>S </c><c>   2</c></rc>
    <rc><c>S </c><c>   2</c></rc>
    <rc><c>S </c><c>   2</c></rc>
    <rc><c>S </c><c>   2</c></rc>
    <rc><c>S </c><c>   2</c></rc>
    <rc><c>S </c><c>   2</c></rc>
    <rc><c>S </c><c>   2</c></rc>
    <rc><c>S </c><c>   2</c></rc>
    <rc><c>S </c><c>   2</c></rc>
    <rc><c>S </c><c>   2</c></rc>
    <rc><c>S </c><c>   2</c></rc>
    <rc><c>S </c><c>   2</c></rc>
    <rc><c>S </c><c>   2</c></rc>
    <rc><c>S </c><c>   2</c></rc>
    <rc><c>S </c><c>   2</c></rc>
    <rc><c>S </c><c>   2</c></rc>
    <rc><c>S </c><c>   2</c></rc>
    <rc><c>S </c><c>   2</c></rc>
    <rc><c>S </c><c>   2</c></rc>
    <rc><c>S </c><c>   2</c></rc>
    <rc><c>S </c><c>   2</c></rc>
    <rc><c>S </c><c>   2</c></rc>
    <rc><c>S </c><c>   2</c></rc>
    <rc><c>S </c><c>   2</c></rc>
    <rc><c>S </c><c>   2</c></rc>
    <rc><c>S </c><c>   2</c></rc>
    <rc><c>S </c><c>   2</c></rc>
    <rc><c>S </c><c>   2</c></rc>
    <rc><c>S </c><c>   2</c></rc>
    <rc><c>S </c><c>   2</c></rc>
    <rc><c>S </c><c>   2</c></rc>
    <rc><c>S </c><c>   2</c></rc>
   </set>
  </array>
  <array name="atomtypes" >
   <dimension dim="1">type</dimension>
   <field type="int">atomspertype</field>
   <field type="string">element</field>
   <field>mass</field>
   <field>valence</field>
   <field type="string">pseudopotential</field>
   <set>
    <rc><c>  52</c><c>Ni</c><c>     58.69000000</c><c>     16.00000000</c><c>  PAW_PBE Ni_pv 06Sep2000               </c></rc>
    <rc><c>  52</c><c>S </c><c>     32.06600000</c><c>      6.00000000</c><c>  PAW_PBE S 06Sep2000                   </c></rc>
   </set>
  </array>
 </atominfo>
 <structure name="initialpos" >
  <crystal>
   <varray name="basis" >
    <v>      10.06282034       5.04456212       0.00000000 </v>
    <v>       0.00000000      11.25646304       0.00000000 </v>
    <v>       0.00000000       0.00000000      22.88364939 </v>
   </varray>
   <i name="volume">   2592.07135999 </i>
   <varray name="rec_basis" >
    <v>       0.09937572       0.00000000       0.00000000 </v>
    <v>      -0.04453504       0.08883785       0.00000000 </v>
    <v>       0.00000000       0.00000000       0.04369932 </v>
   </varray>
  </crystal>
  <varray name="positions" >
   <v>       0.26092070       0.47878036       0.29050611 </v>
   <v>       0.35488056       0.38482049       0.41880986 </v>
   <v>       0.44884043       0.29086063       0.54711361 </v>
   <v>       0.07300096       0.16670011       0.03389862 </v>
   <v>       0.16696083       0.07274024       0.16220237 </v>
   <v>       0.05611868       0.05147940       0.51321499 </v>
   <v>       0.27423907       0.33335899       0.12830375 </v>
   <v>       0.36819893       0.23939913       0.25660749 </v>
   <v>       0.46215880       0.14543926       0.38491124 </v>
   <v>       0.00030194       0.37150212       0.25660749 </v>
   <v>       0.09426181       0.27754226       0.38491124 </v>
   <v>       0.18822168       0.18358239       0.51321499 </v>
   <v>       0.40634206       0.46546199       0.12830375 </v>
   <v>       0.76092070       0.47878036       0.29050611 </v>
   <v>       0.85488056       0.38482049       0.41880986 </v>
   <v>       0.94884043       0.29086063       0.54711361 </v>
   <v>       0.57300096       0.16670011       0.03389862 </v>
   <v>       0.66696083       0.07274024       0.16220237 </v>
   <v>       0.55611868       0.05147940       0.51321499 </v>
   <v>       0.68027920       0.42731886       0.00000000 </v>
   <v>       0.77423907       0.33335899       0.12830375 </v>
   <v>       0.86819893       0.23939913       0.25660749 </v>
   <v>       0.96215880       0.14543926       0.38491124 </v>
   <v>       0.50030194       0.37150212       0.25660749 </v>
   <v>       0.59426181       0.27754226       0.38491124 </v>
   <v>       0.90634206       0.46546199       0.12830375 </v>
   <v>       0.81238219       0.05942187       0.00000000 </v>
   <v>       0.26092070       0.97878036       0.29050611 </v>
   <v>       0.35488056       0.88482049       0.41880986 </v>
   <v>       0.07300096       0.66670011       0.03389862 </v>
   <v>       0.16696083       0.57274024       0.16220237 </v>
   <v>       0.18027920       0.92731886       0.00000000 </v>
   <v>       0.27423907       0.83335899       0.12830375 </v>
   <v>       0.36819893       0.73939913       0.25660749 </v>
   <v>       0.46215880       0.64543926       0.38491124 </v>
   <v>       0.00030194       0.87150212       0.25660749 </v>
   <v>       0.09426181       0.77754226       0.38491124 </v>
   <v>       0.40634206       0.96546199       0.12830375 </v>
   <v>       0.31238219       0.55942187       0.00000000 </v>
   <v>       0.76092070       0.97878036       0.29050611 </v>
   <v>       0.85488056       0.88482049       0.41880986 </v>
   <v>       0.94884043       0.79086063       0.54711361 </v>
   <v>       0.57300096       0.66670011       0.03389862 </v>
   <v>       0.66696083       0.57274024       0.16220237 </v>
   <v>       0.68027920       0.92731886       0.00000000 </v>
   <v>       0.77423907       0.83335899       0.12830375 </v>
   <v>       0.86819893       0.73939913       0.25660749 </v>
   <v>       0.96215880       0.64543926       0.38491124 </v>
   <v>       0.50030194       0.87150212       0.25660749 </v>
   <v>       0.59426181       0.77754226       0.38491124 </v>
   <v>       0.90634206       0.96546199       0.12830375 </v>
   <v>       0.81238219       0.55942187       0.00000000 </v>
   <v>       0.07287763       0.16682343       0.30639927 </v>
   <v>       0.16683750       0.07286357       0.43470302 </v>
   <v>       0.38495789       0.35474317       0.04979178 </v>
   <v>       0.47891775       0.26078330       0.17809552 </v>
   <v>       0.26079737       0.47890369       0.56300676 </v>
   <v>       0.03023342       0.37768264       0.47786825 </v>
   <v>       0.43627354       0.47164251       0.34956450 </v>
   <v>       0.24835381       0.15956225       0.09295701 </v>
   <v>       0.34231368       0.06560239       0.22126075 </v>
   <v>       0.08013882       0.49134725       0.09295701 </v>
   <v>       0.17409868       0.39738738       0.22126075 </v>
   <v>       0.26805855       0.30342751       0.34956450 </v>
   <v>       0.36201842       0.20946764       0.47786825 </v>
   <v>       0.57287763       0.16682343       0.30639927 </v>
   <v>       0.66683750       0.07286357       0.43470302 </v>
   <v>       0.88495789       0.35474317       0.04979178 </v>
   <v>       0.97891775       0.26078330       0.17809552 </v>
   <v>       0.76079737       0.47890369       0.56300676 </v>
   <v>       0.53023342       0.37768264       0.47786825 </v>
   <v>       0.93627354       0.47164251       0.34956450 </v>
   <v>       0.74835381       0.15956225       0.09295701 </v>
   <v>       0.84231368       0.06560239       0.22126075 </v>
   <v>       0.58013882       0.49134725       0.09295701 </v>
   <v>       0.67409868       0.39738738       0.22126075 </v>
   <v>       0.76805855       0.30342751       0.34956450 </v>
   <v>       0.86201842       0.20946764       0.47786825 </v>
   <v>       0.07287763       0.66682343       0.30639927 </v>
   <v>       0.16683750       0.57286357       0.43470302 </v>
   <v>       0.38495789       0.85474317       0.04979178 </v>
   <v>       0.47891775       0.76078330       0.17809552 </v>
   <v>       0.26079737       0.97890369       0.56300676 </v>
   <v>       0.03023342       0.87768264       0.47786825 </v>
   <v>       0.43627354       0.97164251       0.34956450 </v>
   <v>       0.24835381       0.65956225       0.09295701 </v>
   <v>       0.34231368       0.56560239       0.22126075 </v>
   <v>       0.08013882       0.99134725       0.09295701 </v>
   <v>       0.17409868       0.89738738       0.22126075 </v>
   <v>       0.26805855       0.80342751       0.34956450 </v>
   <v>       0.36201842       0.70946764       0.47786825 </v>
   <v>       0.57287763       0.66682343       0.30639927 </v>
   <v>       0.66683750       0.57286357       0.43470302 </v>
   <v>       0.88495789       0.85474317       0.04979178 </v>
   <v>       0.97891775       0.76078330       0.17809552 </v>
   <v>       0.76079737       0.97890369       0.56300676 </v>
   <v>       0.53023342       0.87768264       0.47786825 </v>
   <v>       0.93627354       0.97164251       0.34956450 </v>
   <v>       0.74835381       0.65956225       0.09295701 </v>
   <v>       0.84231368       0.56560239       0.22126075 </v>
   <v>       0.58013882       0.99134725       0.09295701 </v>
   <v>       0.67409868       0.89738738       0.22126075 </v>
   <v>       0.76805855       0.80342751       0.34956450 </v>
   <v>       0.86201842       0.70946764       0.47786825 </v>
  </varray>
 </structure>
 <calculation>
  <scstep>
   <time name="dav">    6.40    6.42</time>
   <time name="total">    6.50    6.52</time>
   <energy>
    <i name="alphaZ">   2994.23548884 </i>
    <i name="ewald"> 254235.57936810 </i>
    <i name="hartreedc">-432299.98487327 </i>
    <i name="XCdc">   5274.08939043 </i>
    <i name="pawpsdc"> 162831.54814933 </i>
    <i name="pawaedc">-169926.62828172 </i>
    <i name="eentropy">     -0.39227297 </i>
    <i name="bandstr">  -4909.72641947 </i>
    <i name="atom"> 196448.20729987 </i>
    <i name="e_fr_energy">  14646.92784914 </i>
    <i name="e_wo_entrp">  14647.32012211 </i>
    <i name="e_0_energy">  14647.12398563 </i>
   </energy>
  </scstep>
  <scstep>
   <time name="dav">    5.51    5.52</time>
   <time name="total">    5.51    5.52</time>
   <energy>
    <i name="e_fr_energy">   1011.72904466 </i>
    <i name="e_wo_entrp">   1012.77377030 </i>
    <i name="e_0_energy">   1012.25140748 </i>
   </energy>
  </scstep>
  <scstep>
   <time name="dav">    5.87    5.88</time>
   <time name="total">    5.87    5.89</time>
   <energy>
    <i name="e_fr_energy">   -473.07385823 </i>
    <i name="e_wo_entrp">   -471.28828139 </i>
    <i name="e_0_energy">   -472.18106981 </i>
   </energy>
  </scstep>
  <scstep>
   <time name="dav">    5.98    5.99</time>
   <time name="total">    5.98    5.99</time>
   <energy>
    <i name="e_fr_energy">   -579.26123389 </i>
    <i name="e_wo_entrp">   -577.27867638 </i>
    <i name="e_0_energy">   -578.26995513 </i>
   </energy>
  </scstep>
  <scstep>
   <time name="dav">    6.56    6.58</time>
   <time name="total">    6.68    6.69</time>
   <energy>
    <i name="e_fr_energy">   -583.58192931 </i>
    <i name="e_wo_entrp">   -581.60438796 </i>
    <i name="e_0_energy">   -582.59315863 </i>
   </energy>
  </scstep>
  <scstep>
   <time name="dav">    6.33    6.35</time>
   <time name="total">    6.53    6.55</time>
   <energy>
    <i name="e_fr_energy">   -783.79068026 </i>
    <i name="e_wo_entrp">   -782.74166710 </i>
    <i name="e_0_energy">   -783.26617368 </i>
   </energy>
  </scstep>
  <scstep>
   <time name="dav">    6.20    6.21</time>
   <time name="total">    6.39    6.41</time>
   <energy>
    <i name="e_fr_energy">   -590.24508034 </i>
    <i name="e_wo_entrp">   -587.98434383 </i>
    <i name="e_0_energy">   -589.11471209 </i>
   </energy>
  </scstep>
  <scstep>
   <time name="dav">    6.37    6.39</time>
   <time name="total">    6.57    6.59</time>
   <energy>
    <i name="e_fr_energy">   -627.60620618 </i>
    <i name="e_wo_entrp">   -626.35573665 </i>
    <i name="e_0_energy">   -626.98097141 </i>
   </energy>
  </scstep>
  <scstep>
   <time name="dav">    6.47    6.48</time>
   <time name="total">    6.67    6.69</time>
   <energy>
    <i name="e_fr_energy">   -627.48162993 </i>
    <i name="e_wo_entrp">   -625.39955280 </i>
    <i name="e_0_energy">   -626.44059136 </i>
   </energy>
  </scstep>
  <scstep>
   <time name="dav">    6.59    6.60</time>
   <time name="total">    6.78    6.80</time>
   <energy>
    <i name="e_fr_energy">   -541.12251118 </i>
    <i name="e_wo_entrp">   -539.48085520 </i>
    <i name="e_0_energy">   -540.30168319 </i>
   </energy>
  </scstep>
  <scstep>
   <time name="dav">    6.66    6.68</time>
   <time name="total">    6.86    6.88</time>
   <energy>
    <i name="e_fr_energy">   -546.64399303 </i>
    <i name="e_wo_entrp">   -544.77835816 </i>
    <i name="e_0_energy">   -545.71117559 </i>
   </energy>
  </scstep>
  <scstep>
   <time name="dav">    6.43    6.44</time>
   <time name="total">    6.61    6.63</time>
   <energy>
    <i name="e_fr_energy">   -552.83810733 </i>
    <i name="e_wo_entrp">   -550.91846783 </i>
    <i name="e_0_energy">   -551.87828758 </i>
   </energy>
  </scstep>
  <scstep>
   <time name="dav">    6.78    6.80</time>
   <time name="total">    6.98    7.00</time>
   <energy>
    <i name="e_fr_energy">   -524.58674087 </i>
    <i name="e_wo_entrp">   -522.86477151 </i>
    <i name="e_0_energy">   -523.72575619 </i>
   </energy>
  </scstep>
  <scstep>
   <time name="dav">    6.50    6.52</time>
   <time name="total">    6.69    6.72</time>
   <energy>
    <i name="e_fr_energy">   -514.98136071 </i>
    <i name="e_wo_entrp">   -513.29774406 </i>
    <i name="e_0_energy">   -514.13955238 </i>
   </energy>
  </scstep>
  <scstep>
   <time name="dav">    6.39    6.41</time>
   <time name="total">    6.59    6.61</time>
   <energy>
    <i name="e_fr_energy">   -517.17851092 </i>
    <i name="e_wo_entrp">   -515.62018966 </i>
    <i name="e_0_energy">   -516.39935029 </i>
   </energy>
  </scstep>
  <scstep>
   <time name="dav">    6.44    6.45</time>
   <time name="total">    6.63    6.65</time>
   <energy>
    <i name="e_fr_energy">   -512.94631356 </i>
    <i name="e_wo_entrp">   -511.26417996 </i>
    <i name="e_0_energy">   -512.10524676 </i>
   </energy>
  </scstep>
  <scstep>
   <time name="dav">    6.44    6.46</time>
   <time name="total">    6.64    6.65</time>
   <energy>
    <i name="e_fr_energy">   -510.57405111 </i>
    <i name="e_wo_entrp">   -508.91309270 </i>
    <i name="e_0_energy">   -509.74357190 </i>
   </energy>
  </scstep>
  <scstep>
   <time name="dav">    6.37    6.38</time>
   <time name="total">    6.56    6.58</time>
   <energy>
    <i name="e_fr_energy">   -509.46648769 </i>
    <i name="e_wo_entrp">   -507.71237836 </i>
    <i name="e_0_energy">   -508.58943302 </i>
   </energy>
  </scstep>
  <scstep>
   <time name="dav">    5.98    6.00</time>
   <time name="total">    6.17    6.19</time>
   <energy>
    <i name="e_fr_energy">   -509.49985285 </i>
    <i name="e_wo_entrp">   -507.84067056 </i>
    <i name="e_0_energy">   -508.67026170 </i>
   </energy>
  </scstep>
  <scstep>
   <time name="dav">    6.14    6.16</time>
   <time name="total">    6.33    6.35</time>
   <energy>
    <i name="e_fr_energy">   -508.91754017 </i>
    <i name="e_wo_entrp">   -507.22181834 </i>
    <i name="e_0_energy">   -508.06967925 </i>
   </energy>
  </scstep>
  <scstep>
   <time name="dav">    6.48    6.50</time>
   <time name="total">    6.68    6.69</time>
   <energy>
    <i name="e_fr_energy">   -508.61238045 </i>
    <i name="e_wo_entrp">   -506.85341703 </i>
    <i name="e_0_energy">   -507.73289874 </i>
   </energy>
  </scstep>
  <scstep>
   <time name="dav">    6.37    6.38</time>
   <time name="total">    6.55    6.57</time>
   <energy>
    <i name="e_fr_energy">   -508.18936153 </i>
    <i name="e_wo_entrp">   -506.46735501 </i>
    <i name="e_0_energy">   -507.32835827 </i>
   </energy>
  </scstep>
  <scstep>
   <time name="dav">    6.20    6.21</time>
   <time name="total">    6.38    6.40</time>
   <energy>
    <i name="e_fr_energy">   -508.04296007 </i>
    <i name="e_wo_entrp">   -506.28865628 </i>
    <i name="e_0_energy">   -507.16580818 </i>
   </energy>
  </scstep>
  <scstep>
   <time name="dav">    6.17    6.19</time>
   <time name="total">    6.36    6.38</time>
   <energy>
    <i name="e_fr_energy">   -507.95418227 </i>
    <i name="e_wo_entrp">   -506.18306247 </i>
    <i name="e_0_energy">   -507.06862237 </i>
   </energy>
  </scstep>
  <scstep>
   <time name="dav">    5.89    5.91</time>
   <time name="total">    6.08    6.09</time>
   <energy>
    <i name="e_fr_energy">   -507.89060374 </i>
    <i name="e_wo_entrp">   -506.14985258 </i>
    <i name="e_0_energy">   -507.02022816 </i>
   </energy>
  </scstep>
  <scstep>
   <time name="dav">    5.93    5.95</time>
   <time name="total">    6.12    6.13</time>
   <energy>
    <i name="e_fr_energy">   -507.87862981 </i>
    <i name="e_wo_entrp">   -506.13823595 </i>
    <i name="e_0_energy">   -507.00843288 </i>
   </energy>
  </scstep>
  <scstep>
   <time name="dav">    6.04    6.06</time>
   <time name="total">    6.23    6.24</time>
   <energy>
    <i name="e_fr_energy">   -507.87749616 </i>
    <i name="e_wo_entrp">   -506.11785876 </i>
    <i name="e_0_energy">   -506.99767746 </i>
   </energy>
  </scstep>
  <scstep>
   <time name="dav">    6.15    6.17</time>
   <time name="total">    6.34    6.35</time>
   <energy>
    <i name="e_fr_energy">   -507.85092978 </i>
    <i name="e_wo_entrp">   -506.08641306 </i>
    <i name="e_0_energy">   -506.96867142 </i>
   </energy>
  </scstep>
  <scstep>
   <time name="dav">    5.94    5.96</time>
   <time name="total">    6.13    6.14</time>
   <energy>
    <i name="e_fr_energy">   -507.85247943 </i>
    <i name="e_wo_entrp">   -506.09951581 </i>
    <i name="e_0_energy">   -506.97599762 </i>
   </energy>
  </scstep>
  <scstep>
   <time name="dav">    5.75    5.77</time>
   <time name="total">    5.94    5.96</time>
   <energy>
    <i name="e_fr_energy">   -507.82242229 </i>
    <i name="e_wo_entrp">   -506.07377802 </i>
    <i name="e_0_energy">   -506.94810015 </i>
   </energy>
  </scstep>
  <scstep>
   <time name="dav">    6.47    6.49</time>
   <time name="total">    6.66    6.67</time>
   <energy>
    <i name="e_fr_energy">   -507.81980025 </i>
    <i name="e_wo_entrp">   -506.06467801 </i>
    <i name="e_0_energy">   -506.94223913 </i>
   </energy>
  </scstep>
  <scstep>
   <time name="dav">    6.50    6.52</time>
   <time name="total">    6.69    6.70</time>
   <energy>
    <i name="e_fr_energy">   -507.81315041 </i>
    <i name="e_wo_entrp">   -506.06067459 </i>
    <i name="e_0_energy">   -506.93691250 </i>
   </energy>
  </scstep>
  <scstep>
   <time name="dav">    6.30    6.31</time>
   <time name="total">    6.49    6.50</time>
   <energy>
    <i name="e_fr_energy">   -507.80933674 </i>
    <i name="e_wo_entrp">   -506.05817700 </i>
    <i name="e_0_energy">   -506.93375687 </i>
   </energy>
  </scstep>
  <scstep>
   <time name="dav">    5.57    5.58</time>
   <time name="total">    5.76    5.77</time>
   <energy>
    <i name="e_fr_energy">   -507.80835661 </i>
    <i name="e_wo_entrp">   -506.05871047 </i>
    <i name="e_0_energy">   -506.93353354 </i>
   </energy>
  </scstep>
  <scstep>
   <time name="dav">    5.56    5.58</time>
   <time name="total">    5.75    5.76</time>
   <energy>
    <i name="e_fr_energy">   -507.80954246 </i>
    <i name="e_wo_entrp">   -506.06076692 </i>
    <i name="e_0_energy">   -506.93515469 </i>
   </energy>
  </scstep>
  <scstep>
   <time name="dav">    5.36    5.37</time>
   <time name="total">    5.55    5.56</time>
   <energy>
    <i name="e_fr_energy">   -507.80935497 </i>
    <i name="e_wo_entrp">   -506.05681048 </i>
    <i name="e_0_energy">   -506.93308273 </i>
   </energy>
  </scstep>
  <scstep>
   <time name="dav">    5.50    5.51</time>
   <time name="total">    5.69    5.70</time>
   <energy>
    <i name="e_fr_energy">   -507.81008943 </i>
    <i name="e_wo_entrp">   -506.06182360 </i>
    <i name="e_0_energy">   -506.93595651 </i>
   </energy>
  </scstep>
  <scstep>
   <time name="dav">    5.26    5.27</time>
   <time name="total">    5.45    5.46</time>
   <energy>
    <i name="e_fr_energy">   -507.80945006 </i>
    <i name="e_wo_entrp">   -506.06232839 </i>
    <i name="e_0_energy">   -506.93588923 </i>
   </energy>
  </scstep>
  <scstep>
   <time name="dav">    4.95    4.97</time>
   <time name="total">    5.14    5.15</time>
   <energy>
    <i name="e_fr_energy">   -507.80950651 </i>
    <i name="e_wo_entrp">   -506.06242443 </i>
    <i name="e_0_energy">   -506.93596547 </i>
   </energy>
  </scstep>
  <scstep>
   <time name="dav">    4.50    4.51</time>
   <time name="total">    4.58    4.59</time>
   <energy>
    <i name="alphaZ">   2994.23548884 </i>
    <i name="ewald"> 254235.57936810 </i>
    <i name="hartreedc">-431126.01300995 </i>
    <i name="XCdc">   5230.24317389 </i>
    <i name="pawpsdc"> 188326.30450418 </i>
    <i name="pawaedc">-195505.55952173 </i>
    <i name="eentropy">     -1.74773438 </i>
    <i name="bandstr"> -21109.05912860 </i>
    <i name="atom"> 196448.20729987 </i>
    <i name="e_fr_energy">   -507.80955977 </i>
    <i name="e_wo_entrp">   -506.06182539 </i>
    <i name="e_0_energy">   -506.93569258 </i>
   </energy>
  </scstep>
  <structure>
   <crystal>
    <varray name="basis" >
     <v>      10.06282034       5.04456212       0.00000000 </v>
     <v>       0.00000000      11.25646304       0.00000000 </v>
     <v>       0.00000000       0.00000000      22.88364939 </v>
    </varray>
    <i name="volume">   2592.07135999 </i>
    <varray name="rec_basis" >
     <v>       0.09937572       0.00000000       0.00000000 </v>
     <v>      -0.04453504       0.08883785       0.00000000 </v>
     <v>       0.00000000       0.00000000       0.04369932 </v>
    </varray>
   </crystal>
   <varray name="positions" >
    <v>       0.26092070       0.47878036       0.29050611 </v>
    <v>       0.35488056       0.38482049       0.41880986 </v>
    <v>       0.44884043       0.29086063       0.54711361 </v>
    <v>       0.07300096       0.16670011       0.03389862 </v>
    <v>       0.16696083       0.07274024       0.16220237 </v>
    <v>       0.05611868       0.05147940       0.51321499 </v>
    <v>       0.27423907       0.33335899       0.12830375 </v>
    <v>       0.36819893       0.23939913       0.25660749 </v>
    <v>       0.46215880       0.14543926       0.38491124 </v>
    <v>       0.00030194       0.37150212       0.25660749 </v>
    <v>       0.09426181       0.27754226       0.38491124 </v>
    <v>       0.18822168       0.18358239       0.51321499 </v>
    <v>       0.40634206       0.46546199       0.12830375 </v>
    <v>       0.76092070       0.47878036       0.29050611 </v>
    <v>       0.85488056       0.38482049       0.41880986 </v>
    <v>       0.94884043       0.29086063       0.54711361 </v>
    <v>       0.57300096       0.16670011       0.03389862 </v>
    <v>       0.66696083       0.07274024       0.16220237 </v>
    <v>       0.55611868       0.05147940       0.51321499 </v>
    <v>       0.68027920       0.42731886       0.00000000 </v>
    <v>       0.77423907       0.33335899       0.12830375 </v>
    <v>       0.86819893       0.23939913       0.25660749 </v>
    <v>       0.96215880       0.14543926       0.38491124 </v>
    <v>       0.50030194       0.37150212       0.25660749 </v>
    <v>       0.59426181       0.27754226       0.38491124 </v>
    <v>       0.90634206       0.46546199       0.12830375 </v>
    <v>       0.81238219       0.05942187       0.00000000 </v>
    <v>       0.26092070       0.97878036       0.29050611 </v>
    <v>       0.35488056       0.88482049       0.41880986 </v>
    <v>       0.07300096       0.66670011       0.03389862 </v>
    <v>       0.16696083       0.57274024       0.16220237 </v>
    <v>       0.18027920       0.92731886       0.00000000 </v>
    <v>       0.27423907       0.83335899       0.12830375 </v>
    <v>       0.36819893       0.73939913       0.25660749 </v>
    <v>       0.46215880       0.64543926       0.38491124 </v>
    <v>       0.00030194       0.87150212       0.25660749 </v>
    <v>       0.09426181       0.77754226       0.38491124 </v>
    <v>       0.40634206       0.96546199       0.12830375 </v>
    <v>       0.31238219       0.55942187       0.00000000 </v>
    <v>       0.76092070       0.97878036       0.29050611 </v>
    <v>       0.85488056       0.88482049       0.41880986 </v>
    <v>       0.94884043       0.79086063       0.54711361 </v>
    <v>       0.57300096       0.66670011       0.03389862 </v>
    <v>       0.66696083       0.57274024       0.16220237 </v>
    <v>       0.68027920       0.92731886       0.00000000 </v>
    <v>       0.77423907       0.83335899       0.12830375 </v>
    <v>       0.86819893       0.73939913       0.25660749 </v>
    <v>       0.96215880       0.64543926       0.38491124 </v>
    <v>       0.50030194       0.87150212       0.25660749 </v>
    <v>       0.59426181       0.77754226       0.38491124 </v>
    <v>       0.90634206       0.96546199       0.12830375 </v>
    <v>       0.81238219       0.55942187       0.00000000 </v>
    <v>       0.07287763       0.16682343       0.30639927 </v>
    <v>       0.16683750       0.07286357       0.43470302 </v>
    <v>       0.38495789       0.35474317       0.04979178 </v>
    <v>       0.47891775       0.26078330       0.17809552 </v>
    <v>       0.26079737       0.47890369       0.56300676 </v>
    <v>       0.03023342       0.37768264       0.47786825 </v>
    <v>       0.43627354       0.47164251       0.34956450 </v>
    <v>       0.24835381       0.15956225       0.09295701 </v>
    <v>       0.34231368       0.06560239       0.22126075 </v>
    <v>       0.08013882       0.49134725       0.09295701 </v>
    <v>       0.17409868       0.39738738       0.22126075 </v>
    <v>       0.26805855       0.30342751       0.34956450 </v>
    <v>       0.36201842       0.20946764       0.47786825 </v>
    <v>       0.57287763       0.16682343       0.30639927 </v>
    <v>       0.66683750       0.07286357       0.43470302 </v>
    <v>       0.88495789       0.35474317       0.04979178 </v>
    <v>       0.97891775       0.26078330       0.17809552 </v>
    <v>       0.76079737       0.47890369       0.56300676 </v>
    <v>       0.53023342       0.37768264       0.47786825 </v>
    <v>       0.93627354       0.47164251       0.34956450 </v>
    <v>       0.74835381       0.15956225       0.09295701 </v>
    <v>       0.84231368       0.06560239       0.22126075 </v>
    <v>       0.58013882       0.49134725       0.09295701 </v>
    <v>       0.67409868       0.39738738       0.22126075 </v>
    <v>       0.76805855       0.30342751       0.34956450 </v>
    <v>       0.86201842       0.20946764       0.47786825 </v>
    <v>       0.07287763       0.66682343       0.30639927 </v>
    <v>       0.16683750       0.57286357       0.43470302 </v>
    <v>       0.38495789       0.85474317       0.04979178 </v>
    <v>       0.47891775       0.76078330       0.17809552 </v>
    <v>       0.26079737       0.97890369       0.56300676 </v>
    <v>       0.03023342       0.87768264       0.47786825 </v>
    <v>       0.43627354       0.97164251       0.34956450 </v>
    <v>       0.24835381       0.65956225       0.09295701 </v>
    <v>       0.34231368       0.56560239       0.22126075 </v>
    <v>       0.08013882       0.99134725       0.09295701 </v>
    <v>       0.17409868       0.89738738       0.22126075 </v>
    <v>       0.26805855       0.80342751       0.34956450 </v>
    <v>       0.36201842       0.70946764       0.47786825 </v>
    <v>       0.57287763       0.66682343       0.30639927 </v>
    <v>       0.66683750       0.57286357       0.43470302 </v>
    <v>       0.88495789       0.85474317       0.04979178 </v>
    <v>       0.97891775       0.76078330       0.17809552 </v>
    <v>       0.76079737       0.97890369       0.56300676 </v>
    <v>       0.53023342       0.87768264       0.47786825 </v>
    <v>       0.93627354       0.97164251       0.34956450 </v>
    <v>       0.74835381       0.65956225       0.09295701 </v>
    <v>       0.84231368       0.56560239       0.22126075 </v>
    <v>       0.58013882       0.99134725       0.09295701 </v>
    <v>       0.67409868       0.89738738       0.22126075 </v>
    <v>       0.76805855       0.80342751       0.34956450 </v>
    <v>       0.86201842       0.70946764       0.47786825 </v>
   </varray>
  </structure>
  <varray name="forces" >
   <v>       0.17475513      -0.05747499      -0.11944930 </v>
   <v>       0.19709869       0.32107903       0.07844919 </v>
   <v>      -1.51589034       1.23524664      -1.37671942 </v>
   <v>      -0.12832784      -0.40789668       1.19889221 </v>
   <v>      -0.03709752       0.19557356      -0.22426698 </v>
   <v>       0.91663205       0.06900618      -0.34505497 </v>
   <v>      -0.31335964      -0.11558991      -0.25937214 </v>
   <v>      -0.01711284       0.10603433       0.00408395 </v>
   <v>       0.23495674      -0.03052062      -0.07553565 </v>
   <v>      -0.09126625       0.00627227      -0.01030517 </v>
   <v>       0.02810125      -0.16488496       0.19781073 </v>
   <v>       0.22894137      -0.94971009      -0.29481235 </v>
   <v>       0.06226785       0.03278001      -0.09333106 </v>
   <v>       0.16439152      -0.11796013      -0.13595431 </v>
   <v>       0.19736997      -0.09961742       0.14961082 </v>
   <v>      -1.81832591       1.12065326      -1.25316766 </v>
   <v>       0.11656233       0.18996851       0.93778117 </v>
   <v>      -0.07821360       0.09501474      -0.24892899 </v>
   <v>       1.34303177      -0.04700122      -0.68918961 </v>
   <v>       0.46919109       0.37271884       1.62057955 </v>
   <v>      -0.18899956      -0.02623400      -0.02997406 </v>
   <v>      -0.08773336       0.11496201      -0.01236489 </v>
   <v>       0.11564702       0.08223267       0.20788594 </v>
   <v>      -0.12510405      -0.08307877       0.02300809 </v>
   <v>       0.01263675      -0.22312811       0.56715336 </v>
   <v>      -0.01389444       0.31361271      -0.06702786 </v>
   <v>      -0.11511501      -0.61888635       1.64240239 </v>
   <v>       0.15525217      -0.11965222      -0.04906021 </v>
   <v>       0.25561761      -0.25028307       0.35340896 </v>
   <v>       0.13718221       0.11697666       1.12824959 </v>
   <v>      -0.19644967      -0.09324796      -0.20163584 </v>
   <v>       0.38509496       0.32226788       2.00702068 </v>
   <v>      -0.01553962      -0.10067084      -0.13587269 </v>
   <v>       0.01719815       0.18645197       0.02114230 </v>
   <v>       0.11270378      -0.05423895       0.59380567 </v>
   <v>      -0.10802638      -0.07442282       0.02532468 </v>
   <v>       0.17987894      -0.31955827       0.19212841 </v>
   <v>      -0.11236793       0.20844921      -0.21475554 </v>
   <v>      -0.12577314      -0.50394456       1.99890848 </v>
   <v>       0.07869799      -0.11935016      -0.08725772 </v>
   <v>       0.02979653      -0.16484646       0.09618498 </v>
   <v>      -1.31661361       0.55818053      -1.58399963 </v>
   <v>      -0.02070420       0.00971042       0.84025426 </v>
   <v>      -0.13026206       0.07393171      -0.19068643 </v>
   <v>       0.64949033       0.43806317       1.72227239 </v>
   <v>      -0.19676348      -0.01312246      -0.03429578 </v>
   <v>       0.02062380       0.12492839       0.03195737 </v>
   <v>       0.43442830      -0.06400079       0.42440928 </v>
   <v>      -0.14733419      -0.09473596       0.01873426 </v>
   <v>       0.17753623      -0.10526240       0.33957316 </v>
   <v>      -0.04597123       0.21558679      -0.06507414 </v>
   <v>      -0.36488037      -0.60754455       1.72093370 </v>
   <v>       0.07888882      -0.02894652       0.00355250 </v>
   <v>      -0.07430880       0.04033569       0.18997668 </v>
   <v>       0.83563828       0.29249881      -1.24005473 </v>
   <v>      -0.04235247      -0.04099246      -0.01606124 </v>
   <v>       1.11629500      -0.72107984      -0.09321930 </v>
   <v>       0.02167987      -0.25103080       0.50722441 </v>
   <v>       0.06332057      -0.01033170       0.02359878 </v>
   <v>      -0.39974495       0.04888427      -0.14965811 </v>
   <v>       0.04543490       0.01584382      -0.03591190 </v>
   <v>      -0.18155711       0.34643563      -0.18304088 </v>
   <v>       0.04302230      -0.04807841      -0.02339230 </v>
   <v>       0.03028875      -0.03554092       0.29251096 </v>
   <v>       0.49859796      -0.00055314       1.12488222 </v>
   <v>       0.05655483       0.08356203      -0.00150506 </v>
   <v>      -0.41553684       0.05882682       0.20357106 </v>
   <v>       0.24433672      -0.08792419      -1.90888891 </v>
   <v>      -0.02084640      -0.02381410      -0.02674175 </v>
   <v>       1.50602133      -0.93443488      -0.22222607 </v>
   <v>      -0.59695547      -0.62693728       0.00078353 </v>
   <v>       0.00132505       0.01565227       0.13205246 </v>
   <v>      -0.07642941      -0.00518662      -0.90210944 </v>
   <v>       0.02858964       0.02056767      -0.03462803 </v>
   <v>      -0.07773428       0.09003663      -0.90473807 </v>
   <v>       0.06366280      -0.05288106       0.00355482 </v>
   <v>      -0.03348910      -0.05491341       0.13493963 </v>
   <v>       0.26338168       0.09898125       0.53439537 </v>
   <v>      -0.03169174       0.01284151       0.16557764 </v>
   <v>      -0.35188407       0.23411008       0.19863181 </v>
   <v>       0.15090497      -0.83982292      -1.26759550 </v>
   <v>       0.04362698       0.08316116      -0.04939734 </v>
   <v>      -1.83429289       1.07345901      -1.06894283 </v>
   <v>      -0.25056194      -0.46602497       0.65867143 </v>
   <v>       0.02195649      -0.04746161       0.18268576 </v>
   <v>      -0.13100891      -0.11731282      -1.07948097 </v>
   <v>      -0.04764672       0.00777049      -0.08094795 </v>
   <v>       0.10096836       0.19221059      -1.11498060 </v>
   <v>      -0.07351670       0.04995430      -0.11099518 </v>
   <v>       0.09783167      -0.02244396       0.26658688 </v>
   <v>       0.40129107       0.76267830      -1.27778890 </v>
   <v>       0.03551544      -0.03113579       0.27232941 </v>
   <v>      -0.46681920       0.28872739       0.22896374 </v>
   <v>       0.17879251      -0.16192478      -1.93144554 </v>
   <v>       0.02308731       0.05188337      -0.04455443 </v>
   <v>      -0.52385696      -0.66148579      -0.17909159 </v>
   <v>      -0.30908572      -0.36784428      -0.17133604 </v>
   <v>       0.04970760       0.00676254       0.20474772 </v>
   <v>      -0.06654659       0.02296556      -0.91836371 </v>
   <v>       0.06369223      -0.01242170       0.05315528 </v>
   <v>      -0.14536141       0.06339752      -0.98952424 </v>
   <v>      -0.01642268      -0.02313261       0.08002415 </v>
   <v>       0.09056034      -0.03047625       0.24863034 </v>
   <v>       0.42871857       0.85974934      -0.02829908 </v>
  </varray>
  <varray name="stress" >
   <v>     -28.22735813       5.75747395      -9.45465324 </v>
   <v>       5.75747375     -20.48052240       4.39194165 </v>
   <v>      -9.45465324       4.39194185     -32.87155674 </v>
  </varray>
  <energy>
   <i name="e_fr_energy">   -507.80955977 </i>
   <i name="e_wo_entrp">   -506.06182539 </i>
   <i name="e_0_energy">   -506.93569258 </i>
  </energy>
  <time name="totalsc">  254.45  255.16</time>
  <eigenvalues>
   <array>
    <dimension dim="1">band</dimension>
    <dimension dim="2">kpoint</dimension>
    <dimension dim="3">spin</dimension>
    <field>eigene</field>
    <field>occ</field>
    <set>
     <set comment="spin 1">
      <set comment="kpoint 1">
       <r>  -62.2079    1.0000 </r>
       <r>  -62.2050    1.0000 </r>
       <r>  -62.1910    1.0000 </r>
       <r>  -62.1754    1.0000 </r>
       <r>  -62.1740    1.0000 </r>
       <r>  -62.1736    1.0000 </r>
       <r>  -62.1733    1.0000 </r>
       <r>  -62.1694    1.0000 </r>
       <r>  -62.1678    1.0000 </r>
       <r>  -62.1664    1.0000 </r>
       <r>  -62.1621    1.0000 </r>
       <r>  -62.1605    1.0000 </r>
       <r>  -62.1580    1.0000 </r>
       <r>  -62.1574    1.0000 </r>
       <r>  -62.1563    1.0000 </r>
       <r>  -62.1557    1.0000 </r>
       <r>  -62.1556    1.0000 </r>
       <r>  -62.1535    1.0000 </r>
       <r>  -62.1527    1.0000 </r>
       <r>  -62.1525    1.0000 </r>
       <r>  -62.1488    1.0000 </r>
       <r>  -62.1477    1.0000 </r>
       <r>  -62.1465    1.0000 </r>
       <r>  -62.1458    1.0000 </r>
       <r>  -62.1458    1.0000 </r>
       <r>  -62.1429    1.0000 </r>
       <r>  -62.1426    1.0000 </r>
       <r>  -62.1425    1.0000 </r>
       <r>  -62.1408    1.0000 </r>
       <r>  -62.1394    1.0000 </r>
       <r>  -62.1380    1.0000 </r>
       <r>  -62.1350    1.0000 </r>
       <r>  -62.1339    1.0000 </r>
       <r>  -62.1336    1.0000 </r>
       <r>  -62.1331    1.0000 </r>
       <r>  -62.1322    1.0000 </r>
       <r>  -62.1317    1.0000 </r>
       <r>  -62.1294    1.0000 </r>
       <r>  -62.1281    1.0000 </r>
       <r>  -62.1267    1.0000 </r>
       <r>  -62.1225    1.0000 </r>
       <r>  -62.1201    1.0000 </r>
       <r>  -62.1172    1.0000 </r>
       <r>  -62.1160    1.0000 </r>
       <r>  -62.1156    1.0000 </r>
       <r>  -62.1147    1.0000 </r>
       <r>  -62.1136    1.0000 </r>
       <r>  -62.1129    1.0000 </r>
       <r>  -62.1118    1.0000 </r>
       <r>  -62.1118    1.0000 </r>
       <r>  -62.1109    1.0000 </r>
       <r>  -62.1069    1.0000 </r>
       <r>  -62.1061    1.0000 </r>
       <r>  -62.1037    1.0000 </r>
       <r>  -62.1030    1.0000 </r>
       <r>  -62.1027    1.0000 </r>
       <r>  -62.1000    1.0000 </r>
       <r>  -62.0999    1.0000 </r>
       <r>  -62.0985    1.0000 </r>
       <r>  -62.0966    1.0000 </r>
       <r>  -62.0953    1.0000 </r>
       <r>  -62.0922    1.0000 </r>
       <r>  -62.0851    1.0000 </r>
       <r>  -62.0833    1.0000 </r>
       <r>  -62.0801    1.0000 </r>
       <r>  -62.0759    1.0000 </r>
       <r>  -62.0713    1.0000 </r>
       <r>  -62.0682    1.0000 </r>
       <r>  -62.0669    1.0000 </r>
       <r>  -62.0610    1.0000 </r>
       <r>  -62.0460    1.0000 </r>
       <r>  -62.0403    1.0000 </r>
       <r>  -62.0086    1.0000 </r>
       <r>  -61.9980    1.0000 </r>
       <r>  -61.9928    1.0000 </r>
       <r>  -61.9903    1.0000 </r>
       <r>  -61.9903    1.0000 </r>
       <r>  -61.9900    1.0000 </r>
       <r>  -61.9707    1.0000 </r>
       <r>  -61.9652    1.0000 </r>
       <r>  -61.9597    1.0000 </r>
       <r>  -61.9562    1.0000 </r>
       <r>  -61.9541    1.0000 </r>
       <r>  -61.9467    1.0000 </r>
       <r>  -61.9441    1.0000 </r>
       <r>  -61.9358    1.0000 </r>
       <r>  -61.9344    1.0000 </r>
       <r>  -61.9344    1.0000 </r>
       <r>  -61.9340    1.0000 </r>
       <r>  -61.9333    1.0000 </r>
       <r>  -61.9328    1.0000 </r>
       <r>  -61.9252    1.0000 </r>
       <r>  -61.9243    1.0000 </r>
       <r>  -61.9210    1.0000 </r>
       <r>  -61.9198    1.0000 </r>
       <r>  -61.9157    1.0000 </r>
       <r>  -61.9079    1.0000 </r>
       <r>  -61.9079    1.0000 </r>
       <r>  -61.9072    1.0000 </r>
       <r>  -61.8968    1.0000 </r>
       <r>  -61.8939    1.0000 </r>
       <r>  -61.8856    1.0000 </r>
       <r>  -61.8853    1.0000 </r>
       <r>  -61.8791    1.0000 </r>
       <r>  -61.8789    1.0000 </r>
       <r>  -61.8766    1.0000 </r>
       <r>  -61.8760    1.0000 </r>
       <r>  -61.8741    1.0000 </r>
       <r>  -61.8734    1.0000 </r>
       <r>  -61.8716    1.0000 </r>
       <r>  -61.8625    1.0000 </r>
       <r>  -61.8533    1.0000 </r>
       <r>  -61.8431    1.0000 </r>
       <r>  -61.8376    1.0000 </r>
       <r>  -61.7997    1.0000 </r>
       <r>  -61.7774    1.0000 </r>
       <r>  -61.7550    1.0000 </r>
       <r>  -61.7441    1.0000 </r>
       <r>  -61.7341    1.0000 </r>
       <r>  -61.6622    1.0000 </r>
       <r>  -61.6150    1.0000 </r>
       <r>  -61.5966    1.0000 </r>
       <r>  -61.5247    1.0000 </r>
       <r>  -61.4931    1.0000 </r>
       <r>  -61.4655    1.0000 </r>
       <r>  -61.4549    1.0000 </r>
       <r>  -61.3647    1.0000 </r>
       <r>  -61.3461    1.0000 </r>
       <r>  -61.3196    1.0000 </r>
       <r>  -61.3171    1.0000 </r>
       <r>  -61.2784    1.0000 </r>
       <r>  -61.2616    1.0000 </r>
       <r>  -61.1796    1.0000 </r>
       <r>  -61.1667    1.0000 </r>
       <r>  -61.1650    1.0000 </r>
       <r>  -61.1494    1.0000 </r>
       <r>  -61.0655    1.0000 </r>
       <r>  -61.0400    1.0000 </r>
       <r>  -61.0007    1.0000 </r>
       <r>  -60.9894    1.0000 </r>
       <r>  -60.9637    1.0000 </r>
       <r>  -60.9596    1.0000 </r>
       <r>  -60.9224    1.0000 </r>
       <r>  -60.9131    1.0000 </r>
       <r>  -60.8938    1.0000 </r>
       <r>  -60.8888    1.0000 </r>
       <r>  -60.8845    1.0000 </r>
       <r>  -60.8822    1.0000 </r>
       <r>  -60.8758    1.0000 </r>
       <r>  -60.8565    1.0000 </r>
       <r>  -60.8552    1.0000 </r>
       <r>  -60.8332    1.0000 </r>
       <r>  -60.8248    1.0000 </r>
       <r>  -60.8241    1.0000 </r>
       <r>  -60.6878    1.0000 </r>
       <r>  -60.6878    1.0000 </r>
       <r>  -13.5487    1.0000 </r>
       <r>  -13.0484    1.0000 </r>
       <r>  -12.8201    1.0000 </r>
       <r>  -12.8145    1.0000 </r>
       <r>  -12.7561    1.0000 </r>
       <r>  -12.6131    1.0000 </r>
       <r>  -12.5879    1.0000 </r>
       <r>  -12.4703    1.0000 </r>
       <r>  -12.4537    1.0000 </r>
       <r>  -12.3560    1.0000 </r>
       <r>  -12.3185    1.0000 </r>
       <r>  -12.2753    1.0000 </r>
       <r>  -12.1880    1.0000 </r>
       <r>  -12.1649    1.0000 </r>
       <r>  -12.0640    1.0000 </r>
       <r>  -12.0065    1.0000 </r>
       <r>  -11.9161    1.0000 </r>
       <r>  -11.8581    1.0000 </r>
       <r>  -11.8365    1.0000 </r>
       <r>  -11.8245    1.0000 </r>
       <r>  -11.7984    1.0000 </r>
       <r>  -11.7849    1.0000 </r>
       <r>  -11.6632    1.0000 </r>
       <r>  -11.6360    1.0000 </r>
       <r>  -11.6084    1.0000 </r>
       <r>  -11.5930    1.0000 </r>
       <r>  -11.5702    1.0000 </r>
       <r>  -11.5384    1.0000 </r>
       <r>  -11.5179    1.0000 </r>
       <r>  -11.4740    1.0000 </r>
       <r>  -11.4306    1.0000 </r>
       <r>  -11.4036    1.0000 </r>
       <r>  -11.3637    1.0000 </r>
       <r>  -11.3219    1.0000 </r>
       <r>  -11.2895    1.0000 </r>
       <r>  -11.2371    1.0000 </r>
       <r>  -11.2170    1.0000 </r>
       <r>  -11.1485    1.0000 </r>
       <r>  -11.0951    1.0000 </r>
       <r>  -11.0262    1.0000 </r>
       <r>  -10.9614    1.0000 </r>
       <r>  -10.9402    1.0000 </r>
       <r>  -10.8137    1.0000 </r>
       <r>  -10.6250    1.0000 </r>
       <r>  -10.5105    1.0000 </r>
       <r>  -10.3759    1.0000 </r>
       <r>  -10.2616    1.0000 </r>
       <r>   -9.7817    1.0000 </r>
       <r>   -9.7281    1.0000 </r>
       <r>   -9.5650    1.0000 </r>
       <r>   -9.2166    1.0000 </r>
       <r>   -9.2005    1.0000 </r>
       <r>   -5.3726    1.0000 </r>
       <r>   -5.3393    1.0000 </r>
       <r>   -5.3218    1.0000 </r>
       <r>   -5.3180    1.0000 </r>
       <r>   -5.2832    1.0000 </r>
       <r>   -5.2423    1.0000 </r>
       <r>   -4.9187    1.0000 </r>
       <r>   -4.8354    1.0000 </r>
       <r>   -4.8215    1.0000 </r>
       <r>   -4.7204    1.0000 </r>
       <r>   -4.6416    1.0000 </r>
       <r>   -4.5978    1.0000 </r>
       <r>   -4.5660    1.0000 </r>
       <r>   -4.5405    1.0000 </r>
       <r>   -4.5236    1.0000 </r>
       <r>   -4.5141    1.0000 </r>
       <r>   -4.4202    1.0000 </r>
       <r>   -4.3818    1.0000 </r>
       <r>   -4.3524    1.0000 </r>
       <r>   -4.2826    1.0000 </r>
       <r>   -4.2742    1.0000 </r>
       <r>   -4.2497    1.0000 </r>
       <r>   -4.2386    1.0000 </r>
       <r>   -4.2260    1.0000 </r>
       <r>   -4.1994    1.0000 </r>
       <r>   -4.1851    1.0000 </r>
       <r>   -4.1634    1.0000 </r>
       <r>   -4.1383    1.0000 </r>
       <r>   -4.1199    1.0000 </r>
       <r>   -4.0804    1.0000 </r>
       <r>   -4.0362    1.0000 </r>
       <r>   -3.9868    1.0000 </r>
       <r>   -3.9734    1.0000 </r>
       <r>   -3.9142    1.0000 </r>
       <r>   -3.8784    1.0000 </r>
       <r>   -3.8436    1.0000 </r>
       <r>   -3.8075    1.0000 </r>
       <r>   -3.7636    1.0000 </r>
       <r>   -3.7242    1.0000 </r>
       <r>   -3.6849    1.0000 </r>
       <r>   -3.6462    1.0000 </r>
       <r>   -3.5915    1.0000 </r>
       <r>   -3.5270    1.0000 </r>
       <r>   -3.4729    1.0000 </r>
       <r>   -3.4415    1.0000 </r>
       <r>   -3.3970    1.0000 </r>
       <r>   -3.3951    1.0000 </r>
       <r>   -3.3768    1.0000 </r>
       <r>   -3.3423    1.0000 </r>
       <r>   -3.2935    1.0000 </r>
       <r>   -3.2692    1.0000 </r>
       <r>   -3.2494    1.0000 </r>
       <r>   -3.2081    1.0000 </r>
       <r>   -3.1800    1.0000 </r>
       <r>   -3.1199    1.0000 </r>
       <r>   -3.0775    1.0000 </r>
       <r>   -3.0417    1.0000 </r>
       <r>   -2.9999    1.0000 </r>
       <r>   -2.9973    1.0000 </r>
       <r>   -2.9465    1.0000 </r>
       <r>   -2.9409    1.0000 </r>
       <r>   -2.9304    1.0000 </r>
       <r>   -2.8789    1.0000 </r>
       <r>   -2.8603    1.0000 </r>
       <r>   -2.8314    1.0000 </r>
       <r>   -2.8171    1.0000 </r>
       <r>   -2.8008    1.0000 </r>
       <r>   -2.7670    1.0000 </r>
       <r>   -2.7572    1.0000 </r>
       <r>   -2.7317    1.0000 </r>
       <r>   -2.7287    1.0000 </r>
       <r>   -2.6966    1.0000 </r>
       <r>   -2.6863    1.0000 </r>
       <r>   -2.6559    1.0000 </r>
       <r>   -2.6222    1.0000 </r>
       <r>   -2.6153    1.0000 </r>
       <r>   -2.5966    1.0000 </r>
       <r>   -2.5826    1.0000 </r>
       <r>   -2.5557    1.0000 </r>
       <r>   -2.5464    1.0000 </r>
       <r>   -2.5257    1.0000 </r>
       <r>   -2.4938    1.0000 </r>
       <r>   -2.4670    1.0000 </r>
       <r>   -2.4631    1.0000 </r>
       <r>   -2.4499    1.0000 </r>
       <r>   -2.4239    1.0000 </r>
       <r>   -2.3952    1.0000 </r>
       <r>   -2.3615    1.0000 </r>
       <r>   -2.3495    1.0000 </r>
       <r>   -2.3295    1.0000 </r>
       <r>   -2.2753    1.0000 </r>
       <r>   -2.2744    1.0000 </r>
       <r>   -2.2631    1.0000 </r>
       <r>   -2.2396    1.0000 </r>
       <r>   -2.2115    1.0000 </r>
       <r>   -2.1864    1.0000 </r>
       <r>   -2.1734    1.0000 </r>
       <r>   -2.1360    1.0000 </r>
       <r>   -2.1271    1.0000 </r>
       <r>   -2.0960    1.0000 </r>
       <r>   -2.0621    1.0000 </r>
       <r>   -2.0496    1.0000 </r>
       <r>   -2.0361    1.0000 </r>
       <r>   -2.0267    1.0000 </r>
       <r>   -2.0143    1.0000 </r>
       <r>   -2.0039    1.0000 </r>
       <r>   -1.9959    1.0000 </r>
       <r>   -1.9847    1.0000 </r>
       <r>   -1.9611    1.0000 </r>
       <r>   -1.9501    1.0000 </r>
       <r>   -1.9333    1.0000 </r>
       <r>   -1.9267    1.0000 </r>
       <r>   -1.9108    1.0000 </r>
       <r>   -1.9061    1.0000 </r>
       <r>   -1.8972    1.0000 </r>
       <r>   -1.8605    1.0000 </r>
       <r>   -1.8568    1.0000 </r>
       <r>   -1.8469    1.0000 </r>
       <r>   -1.8318    1.0000 </r>
       <r>   -1.7950    1.0000 </r>
       <r>   -1.7299    1.0000 </r>
       <r>   -1.7262    1.0000 </r>
       <r>   -1.7183    1.0000 </r>
       <r>   -1.7002    1.0000 </r>
       <r>   -1.6794    1.0000 </r>
       <r>   -1.5823    1.0000 </r>
       <r>   -1.5650    1.0000 </r>
       <r>   -1.5268    1.0000 </r>
       <r>   -1.4628    1.0000 </r>
       <r>   -1.4017    1.0000 </r>
       <r>   -1.3447    1.0000 </r>
       <r>   -1.3345    1.0000 </r>
       <r>   -1.3032    1.0000 </r>
       <r>   -1.2456    1.0000 </r>
       <r>   -1.2143    1.0000 </r>
       <r>   -1.1472    1.0000 </r>
       <r>   -1.1084    1.0000 </r>
       <r>   -1.0906    1.0000 </r>
       <r>   -1.0716    1.0000 </r>
       <r>   -1.0489    1.0000 </r>
       <r>   -1.0217    1.0000 </r>
       <r>   -1.0009    1.0000 </r>
       <r>   -0.9818    1.0000 </r>
       <r>   -0.9555    1.0000 </r>
       <r>   -0.9345    1.0000 </r>
       <r>   -0.9215    1.0000 </r>
       <r>   -0.8713    1.0000 </r>
       <r>   -0.8659    1.0000 </r>
       <r>   -0.8479    1.0000 </r>
       <r>   -0.8251    1.0000 </r>
       <r>   -0.7919    1.0000 </r>
       <r>   -0.7673    1.0000 </r>
       <r>   -0.7506    1.0000 </r>
       <r>   -0.7399    1.0000 </r>
       <r>   -0.7118    1.0000 </r>
       <r>   -0.6663    1.0000 </r>
       <r>   -0.6597    1.0000 </r>
       <r>   -0.6238    1.0000 </r>
       <r>   -0.6008    1.0000 </r>
       <r>   -0.5684    1.0000 </r>
       <r>   -0.5540    1.0000 </r>
       <r>   -0.5178    1.0000 </r>
       <r>   -0.5074    1.0000 </r>
       <r>   -0.4904    1.0000 </r>
       <r>   -0.4683    1.0000 </r>
       <r>   -0.4589    1.0000 </r>
       <r>   -0.4537    1.0000 </r>
       <r>   -0.4359    1.0000 </r>
       <r>   -0.4171    1.0000 </r>
       <r>   -0.4045    1.0000 </r>
       <r>   -0.3998    1.0000 </r>
       <r>   -0.3863    1.0000 </r>
       <r>   -0.3760    1.0000 </r>
       <r>   -0.3662    1.0000 </r>
       <r>   -0.3529    1.0000 </r>
       <r>   -0.3423    1.0000 </r>
       <r>   -0.3248    1.0000 </r>
       <r>   -0.3145    1.0000 </r>
       <r>   -0.3026    1.0000 </r>
       <r>   -0.2786    1.0000 </r>
       <r>   -0.2674    1.0000 </r>
       <r>   -0.2556    1.0000 </r>
       <r>   -0.2525    1.0000 </r>
       <r>   -0.2316    1.0000 </r>
       <r>   -0.2128    1.0000 </r>
       <r>   -0.2064    1.0000 </r>
       <r>   -0.1957    1.0000 </r>
       <r>   -0.1872    1.0000 </r>
       <r>   -0.1805    1.0000 </r>
       <r>   -0.1649    1.0000 </r>
       <r>   -0.1430    1.0000 </r>
       <r>   -0.1415    1.0000 </r>
       <r>   -0.1236    1.0000 </r>
       <r>   -0.1207    1.0000 </r>
       <r>   -0.1159    1.0000 </r>
       <r>   -0.0924    1.0000 </r>
       <r>   -0.0865    1.0000 </r>
       <r>   -0.0744    1.0000 </r>
       <r>   -0.0536    1.0000 </r>
       <r>   -0.0489    1.0000 </r>
       <r>   -0.0273    1.0000 </r>
       <r>   -0.0187    1.0000 </r>
       <r>   -0.0139    1.0000 </r>
       <r>   -0.0045    1.0000 </r>
       <r>    0.0112    1.0000 </r>
       <r>    0.0225    1.0000 </r>
       <r>    0.0248    1.0000 </r>
       <r>    0.0419    1.0000 </r>
       <r>    0.0559    1.0000 </r>
[...]
       <r>   -55.1654     0.0000   312.0000 </r>
       <r>   -54.9080     0.0000   312.0000 </r>
       <r>   -54.6507     0.0000   312.0000 </r>
       <r>   -54.3933     0.0000   312.0000 </r>
       <r>   -54.1359     0.0000   312.0000 </r>
       <r>   -53.8786     0.0000   312.0000 </r>
       <r>   -53.6212     0.0000   312.0000 </r>
       <r>   -53.3638     0.0000   312.0000 </r>
       <r>   -53.1065     0.0000   312.0000 </r>
       <r>   -52.8491     0.0000   312.0000 </r>
       <r>   -52.5917     0.0000   312.0000 </r>
       <r>   -52.3344     0.0000   312.0000 </r>
       <r>   -52.0770     0.0000   312.0000 </r>
       <r>   -51.8196     0.0000   312.0000 </r>
       <r>   -51.5623     0.0000   312.0000 </r>
       <r>   -51.3049     0.0000   312.0000 </r>
       <r>   -51.0476     0.0000   312.0000 </r>
       <r>   -50.7902     0.0000   312.0000 </r>
       <r>   -50.5328     0.0000   312.0000 </r>
       <r>   -50.2755     0.0000   312.0000 </r>
       <r>   -50.0181     0.0000   312.0000 </r>
       <r>   -49.7607     0.0000   312.0000 </r>
       <r>   -49.5034     0.0000   312.0000 </r>
       <r>   -49.2460     0.0000   312.0000 </r>
       <r>   -48.9886     0.0000   312.0000 </r>
       <r>   -48.7313     0.0000   312.0000 </r>
       <r>   -48.4739     0.0000   312.0000 </r>
       <r>   -48.2165     0.0000   312.0000 </r>
       <r>   -47.9592     0.0000   312.0000 </r>
       <r>   -47.7018     0.0000   312.0000 </r>
       <r>   -47.4444     0.0000   312.0000 </r>
       <r>   -47.1871     0.0000   312.0000 </r>
       <r>   -46.9297     0.0000   312.0000 </r>
       <r>   -46.6723     0.0000   312.0000 </r>
       <r>   -46.4150     0.0000   312.0000 </r>
       <r>   -46.1576     0.0000   312.0000 </r>
       <r>   -45.9002     0.0000   312.0000 </r>
       <r>   -45.6429     0.0000   312.0000 </r>
       <r>   -45.3855     0.0000   312.0000 </r>
       <r>   -45.1281     0.0000   312.0000 </r>
       <r>   -44.8708     0.0000   312.0000 </r>
       <r>   -44.6134     0.0000   312.0000 </r>
       <r>   -44.3560     0.0000   312.0000 </r>
       <r>   -44.0987     0.0000   312.0000 </r>
       <r>   -43.8413     0.0000   312.0000 </r>
       <r>   -43.5839     0.0000   312.0000 </r>
       <r>   -43.3266     0.0000   312.0000 </r>
       <r>   -43.0692     0.0000   312.0000 </r>
       <r>   -42.8118     0.0000   312.0000 </r>
       <r>   -42.5545     0.0000   312.0000 </r>
       <r>   -42.2971     0.0000   312.0000 </r>
       <r>   -42.0398     0.0000   312.0000 </r>
       <r>   -41.7824     0.0000   312.0000 </r>
       <r>   -41.5250     0.0000   312.0000 </r>
       <r>   -41.2677     0.0000   312.0000 </r>
       <r>   -41.0103     0.0000   312.0000 </r>
       <r>   -40.7529     0.0000   312.0000 </r>
       <r>   -40.4956     0.0000   312.0000 </r>
       <r>   -40.2382     0.0000   312.0000 </r>
       <r>   -39.9808     0.0000   312.0000 </r>
       <r>   -39.7235     0.0000   312.0000 </r>
       <r>   -39.4661     0.0000   312.0000 </r>
       <r>   -39.2087     0.0000   312.0000 </r>
       <r>   -38.9514     0.0000   312.0000 </r>
       <r>   -38.6940     0.0000   312.0000 </r>
       <r>   -38.4366     0.0000   312.0000 </r>
       <r>   -38.1793     0.0000   312.0000 </r>
       <r>   -37.9219     0.0000   312.0000 </r>
       <r>   -37.6645     0.0000   312.0000 </r>
       <r>   -37.4072     0.0000   312.0000 </r>
       <r>   -37.1498     0.0000   312.0000 </r>
       <r>   -36.8924     0.0000   312.0000 </r>
       <r>   -36.6351     0.0000   312.0000 </r>
       <r>   -36.3777     0.0000   312.0000 </r>
       <r>   -36.1203     0.0000   312.0000 </r>
       <r>   -35.8630     0.0000   312.0000 </r>
       <r>   -35.6056     0.0000   312.0000 </r>
       <r>   -35.3482     0.0000   312.0000 </r>
       <r>   -35.0909     0.0000   312.0000 </r>
       <r>   -34.8335     0.0000   312.0000 </r>
       <r>   -34.5761     0.0000   312.0000 </r>
       <r>   -34.3188     0.0000   312.0000 </r>
       <r>   -34.0614     0.0000   312.0000 </r>
       <r>   -33.8040     0.0000   312.0000 </r>
       <r>   -33.5467     0.0000   312.0000 </r>
       <r>   -33.2893     0.0000   312.0000 </r>
       <r>   -33.0320     0.0000   312.0000 </r>
       <r>   -32.7746     0.0000   312.0000 </r>
       <r>   -32.5172     0.0000   312.0000 </r>
       <r>   -32.2599     0.0000   312.0000 </r>
       <r>   -32.0025     0.0000   312.0000 </r>
       <r>   -31.7451     0.0000   312.0000 </r>
       <r>   -31.4878     0.0000   312.0000 </r>
       <r>   -31.2304     0.0000   312.0000 </r>
       <r>   -30.9730     0.0000   312.0000 </r>
       <r>   -30.7157     0.0000   312.0000 </r>
       <r>   -30.4583     0.0000   312.0000 </r>
       <r>   -30.2009     0.0000   312.0000 </r>
       <r>   -29.9436     0.0000   312.0000 </r>
       <r>   -29.6862     0.0000   312.0000 </r>
       <r>   -29.4288     0.0000   312.0000 </r>
       <r>   -29.1715     0.0000   312.0000 </r>
       <r>   -28.9141     0.0000   312.0000 </r>
       <r>   -28.6567     0.0000   312.0000 </r>
       <r>   -28.3994     0.0000   312.0000 </r>
       <r>   -28.1420     0.0000   312.0000 </r>
       <r>   -27.8846     0.0000   312.0000 </r>
       <r>   -27.6273     0.0000   312.0000 </r>
       <r>   -27.3699     0.0000   312.0000 </r>
       <r>   -27.1125     0.0000   312.0000 </r>
       <r>   -26.8552     0.0000   312.0000 </r>
       <r>   -26.5978     0.0000   312.0000 </r>
       <r>   -26.3404     0.0000   312.0000 </r>
       <r>   -26.0831     0.0000   312.0000 </r>
       <r>   -25.8257     0.0000   312.0000 </r>
       <r>   -25.5683     0.0000   312.0000 </r>
       <r>   -25.3110     0.0000   312.0000 </r>
       <r>   -25.0536     0.0000   312.0000 </r>
       <r>   -24.7962     0.0000   312.0000 </r>
       <r>   -24.5389     0.0000   312.0000 </r>
       <r>   -24.2815     0.0000   312.0000 </r>
       <r>   -24.0242     0.0000   312.0000 </r>
       <r>   -23.7668     0.0000   312.0000 </r>
       <r>   -23.5094     0.0000   312.0000 </r>
       <r>   -23.2521     0.0000   312.0000 </r>
       <r>   -22.9947     0.0000   312.0000 </r>
       <r>   -22.7373     0.0000   312.0000 </r>
       <r>   -22.4800     0.0000   312.0000 </r>
       <r>   -22.2226     0.0000   312.0000 </r>
       <r>   -21.9652     0.0000   312.0000 </r>
       <r>   -21.7079     0.0000   312.0000 </r>
       <r>   -21.4505     0.0000   312.0000 </r>
       <r>   -21.1931     0.0000   312.0000 </r>
       <r>   -20.9358     0.0000   312.0000 </r>
       <r>   -20.6784     0.0000   312.0000 </r>
       <r>   -20.4210     0.0000   312.0000 </r>
       <r>   -20.1637     0.0000   312.0000 </r>
       <r>   -19.9063     0.0000   312.0000 </r>
       <r>   -19.6489     0.0000   312.0000 </r>
       <r>   -19.3916     0.0000   312.0000 </r>
       <r>   -19.1342     0.0000   312.0000 </r>
       <r>   -18.8768     0.0000   312.0000 </r>
       <r>   -18.6195     0.0000   312.0000 </r>
       <r>   -18.3621     0.0000   312.0000 </r>
       <r>   -18.1047     0.0000   312.0000 </r>
       <r>   -17.8474     0.0000   312.0000 </r>
       <r>   -17.5900     0.0000   312.0000 </r>
       <r>   -17.3326     0.0000   312.0000 </r>
       <r>   -17.0753     0.0000   312.0000 </r>
       <r>   -16.8179     0.0000   312.0000 </r>
       <r>   -16.5605     0.0000   312.0000 </r>
       <r>   -16.3032     0.0000   312.0000 </r>
       <r>   -16.0458     0.0000   312.0000 </r>
       <r>   -15.7884     0.0000   312.0000 </r>
       <r>   -15.5311     0.0000   312.0000 </r>
       <r>   -15.2737     0.0000   312.0000 </r>
       <r>   -15.0164     0.0000   312.0000 </r>
       <r>   -14.7590     0.0000   312.0000 </r>
       <r>   -14.5016     0.0000   312.0000 </r>
       <r>   -14.2443     0.0000   312.0000 </r>
       <r>   -13.9869     0.0076   312.0019 </r>
       <r>   -13.7295     0.7736   312.2010 </r>
       <r>   -13.4722     4.7146   313.4144 </r>
       <r>   -13.2148     3.1775   314.2322 </r>
       <r>   -12.9574     8.0469   316.3032 </r>
       <r>   -12.7001    20.8037   321.6573 </r>
       <r>   -12.4427    28.2511   328.9282 </r>
       <r>   -12.1853    32.9290   337.4030 </r>
       <r>   -11.9280    34.4745   346.2756 </r>
       <r>   -11.6706    49.0154   358.8904 </r>
       <r>   -11.4132    57.8741   373.7853 </r>
       <r>   -11.1559    48.0745   386.1580 </r>
       <r>   -10.8985    32.5089   394.5246 </r>
       <r>   -10.6411    17.5598   399.0439 </r>
       <r>   -10.3838    14.9151   402.8826 </r>
       <r>   -10.1264    10.5428   405.5959 </r>
       <r>    -9.8690     4.9948   406.8814 </r>
       <r>    -9.6117    12.5456   410.1102 </r>
       <r>    -9.3543     9.1296   412.4599 </r>
       <r>    -9.0969    10.4041   415.1375 </r>
       <r>    -8.8396     3.2796   415.9816 </r>
       <r>    -8.5822     0.0714   416.0000 </r>
       <r>    -8.3248     0.0001   416.0000 </r>
       <r>    -8.0675     0.0000   416.0000 </r>
       <r>    -7.8101     0.0000   416.0000 </r>
       <r>    -7.5527     0.0000   416.0000 </r>
       <r>    -7.2954     0.0000   416.0000 </r>
       <r>    -7.0380     0.0000   416.0000 </r>
       <r>    -6.7806     0.0000   416.0000 </r>
       <r>    -6.5233     0.0000   416.0000 </r>
       <r>    -6.2659     0.0000   416.0000 </r>
       <r>    -6.0086     0.0000   416.0000 </r>
       <r>    -5.7512     0.0654   416.0169 </r>
       <r>    -5.4938     5.0450   417.3153 </r>
       <r>    -5.2365    27.5725   424.4115 </r>
       <r>    -4.9791    18.6088   429.2008 </r>
       <r>    -4.7217    25.3158   435.7162 </r>
       <r>    -4.4644    45.9054   447.5307 </r>
       <r>    -4.2070    64.7645   464.1988 </r>
       <r>    -3.9496    65.8647   481.1502 </r>
       <r>    -3.6923    50.6656   494.1897 </r>
       <r>    -3.4349    49.4485   506.9161 </r>
       <r>    -3.1775    59.2799   522.1727 </r>
       <r>    -2.9202    66.6572   539.3280 </r>
       <r>    -2.6628    90.3276   562.5752 </r>
       <r>    -2.4054    96.5306   587.4189 </r>
       <r>    -2.1481    94.9857   611.8649 </r>
       <r>    -1.8907   115.8856   641.6899 </r>
       <r>    -1.6333    87.4335   664.1923 </r>
       <r>    -1.3760    49.7432   676.9945 </r>
       <r>    -1.1186    54.7583   691.0874 </r>
       <r>    -0.8612    78.6743   711.3354 </r>
       <r>    -0.6039    88.7002   734.1638 </r>
       <r>    -0.3465   124.6524   766.2451 </r>
       <r>    -0.0891   163.5885   808.3472 </r>
       <r>     0.1682   203.4724   860.7140 </r>
       <r>     0.4256   253.2064   925.8806 </r>
       <r>     0.6830   218.0040   981.9874 </r>
       <r>     0.9403   165.6934  1024.6312 </r>
       <r>     1.1977   152.6834  1063.9266 </r>
       <r>     1.4551   137.9468  1099.4294 </r>
       <r>     1.7124   111.0414  1128.0077 </r>
       <r>     1.9698    90.7374  1151.3604 </r>
       <r>     2.2272    65.3895  1168.1894 </r>
       <r>     2.4845    82.1325  1189.3275 </r>
       <r>     2.7419    90.2793  1212.5623 </r>
       <r>     2.9992    84.6263  1234.3422 </r>
       <r>     3.2566    59.5892  1249.6784 </r>
       <r>     3.5140    18.2719  1254.3810 </r>
       <r>     3.7713     8.3438  1256.5284 </r>
       <r>     4.0287     5.3118  1257.8954 </r>
       <r>     4.2861     4.2302  1258.9842 </r>
       <r>     4.5434    10.8236  1261.7698 </r>
       <r>     4.8008    14.1428  1265.4096 </r>
       <r>     5.0582    16.1851  1269.5751 </r>
       <r>     5.3155    11.2439  1272.4689 </r>
       <r>     5.5729    19.7356  1277.5482 </r>
       <r>     5.8303    16.0945  1281.6904 </r>
       <r>     6.0876    25.3217  1288.2073 </r>
       <r>     6.3450    29.5149  1295.8034 </r>
       <r>     6.6024    34.8370  1304.7693 </r>
       <r>     6.8597    30.3907  1312.5908 </r>
       <r>     7.1171    34.8420  1321.5579 </r>
       <r>     7.3745    53.2659  1335.2668 </r>
       <r>     7.6318    63.9040  1351.7135 </r>
       <r>     7.8892    64.1706  1368.2288 </r>
       <r>     8.1466    27.8528  1375.3971 </r>
       <r>     8.4039     2.3243  1375.9953 </r>
       <r>     8.6613     0.0183  1376.0000 </r>
       <r>     8.9187     0.0000  1376.0000 </r>
       <r>     9.1760     0.0000  1376.0000 </r>
       <r>     9.4334     0.0000  1376.0000 </r>
       <r>     9.6908     0.0000  1376.0000 </r>
       <r>     9.9481     0.0000  1376.0000 </r>
       <r>    10.2055     0.0000  1376.0000 </r>
       <r>    10.4629     0.0000  1376.0000 </r>
       <r>    10.7202     0.0000  1376.0000 </r>
       <r>    10.9776     0.0000  1376.0000 </r>
       <r>    11.2350     0.0000  1376.0000 </r>
       <r>    11.4923     0.0000  1376.0000 </r>
      </set>
     </set>
    </array>
   </total>
  </dos>
 </calculation>
 <structure name="finalpos" >
  <crystal>
   <varray name="basis" >
    <v>      10.06282034       5.04456212       0.00000000 </v>
    <v>       0.00000000      11.25646304       0.00000000 </v>
    <v>       0.00000000       0.00000000      22.88364939 </v>
   </varray>
   <i name="volume">   2592.07135999 </i>
   <varray name="rec_basis" >
    <v>       0.09937572       0.00000000       0.00000000 </v>
    <v>      -0.04453504       0.08883785       0.00000000 </v>
    <v>       0.00000000       0.00000000       0.04369932 </v>
   </varray>
  </crystal>
  <varray name="positions" >
   <v>       0.26092070       0.47878036       0.29050611 </v>
   <v>       0.35488056       0.38482049       0.41880986 </v>
   <v>       0.44884043       0.29086063       0.54711361 </v>
   <v>       0.07300096       0.16670011       0.03389862 </v>
   <v>       0.16696083       0.07274024       0.16220237 </v>
   <v>       0.05611868       0.05147940       0.51321499 </v>
   <v>       0.27423907       0.33335899       0.12830375 </v>
   <v>       0.36819893       0.23939913       0.25660749 </v>
   <v>       0.46215880       0.14543926       0.38491124 </v>
   <v>       0.00030194       0.37150212       0.25660749 </v>
   <v>       0.09426181       0.27754226       0.38491124 </v>
   <v>       0.18822168       0.18358239       0.51321499 </v>
   <v>       0.40634206       0.46546199       0.12830375 </v>
   <v>       0.76092070       0.47878036       0.29050611 </v>
   <v>       0.85488056       0.38482049       0.41880986 </v>
   <v>       0.94884043       0.29086063       0.54711361 </v>
   <v>       0.57300096       0.16670011       0.03389862 </v>
   <v>       0.66696083       0.07274024       0.16220237 </v>
   <v>       0.55611868       0.05147940       0.51321499 </v>
   <v>       0.68027920       0.42731886       0.00000000 </v>
   <v>       0.77423907       0.33335899       0.12830375 </v>
   <v>       0.86819893       0.23939913       0.25660749 </v>
   <v>       0.96215880       0.14543926       0.38491124 </v>
   <v>       0.50030194       0.37150212       0.25660749 </v>
   <v>       0.59426181       0.27754226       0.38491124 </v>
   <v>       0.90634206       0.46546199       0.12830375 </v>
   <v>       0.81238219       0.05942187       0.00000000 </v>
   <v>       0.26092070       0.97878036       0.29050611 </v>
   <v>       0.35488056       0.88482049       0.41880986 </v>
   <v>       0.07300096       0.66670011       0.03389862 </v>
   <v>       0.16696083       0.57274024       0.16220237 </v>
   <v>       0.18027920       0.92731886       0.00000000 </v>
   <v>       0.27423907       0.83335899       0.12830375 </v>
   <v>       0.36819893       0.73939913       0.25660749 </v>
   <v>       0.46215880       0.64543926       0.38491124 </v>
   <v>       0.00030194       0.87150212       0.25660749 </v>
   <v>       0.09426181       0.77754226       0.38491124 </v>
   <v>       0.40634206       0.96546199       0.12830375 </v>
   <v>       0.31238219       0.55942187       0.00000000 </v>
   <v>       0.76092070       0.97878036       0.29050611 </v>
   <v>       0.85488056       0.88482049       0.41880986 </v>
   <v>       0.94884043       0.79086063       0.54711361 </v>
   <v>       0.57300096       0.66670011       0.03389862 </v>
   <v>       0.66696083       0.57274024       0.16220237 </v>
   <v>       0.68027920       0.92731886       0.00000000 </v>
   <v>       0.77423907       0.83335899       0.12830375 </v>
   <v>       0.86819893       0.73939913       0.25660749 </v>
   <v>       0.96215880       0.64543926       0.38491124 </v>
   <v>       0.50030194       0.87150212       0.25660749 </v>
   <v>       0.59426181       0.77754226       0.38491124 </v>
   <v>       0.90634206       0.96546199       0.12830375 </v>
   <v>       0.81238219       0.55942187       0.00000000 </v>
   <v>       0.07287763       0.16682343       0.30639927 </v>
   <v>       0.16683750       0.07286357       0.43470302 </v>
   <v>       0.38495789       0.35474317       0.04979178 </v>
   <v>       0.47891775       0.26078330       0.17809552 </v>
   <v>       0.26079737       0.47890369       0.56300676 </v>
   <v>       0.03023342       0.37768264       0.47786825 </v>
   <v>       0.43627354       0.47164251       0.34956450 </v>
   <v>       0.24835381       0.15956225       0.09295701 </v>
   <v>       0.34231368       0.06560239       0.22126075 </v>
   <v>       0.08013882       0.49134725       0.09295701 </v>
   <v>       0.17409868       0.39738738       0.22126075 </v>
   <v>       0.26805855       0.30342751       0.34956450 </v>
   <v>       0.36201842       0.20946764       0.47786825 </v>
   <v>       0.57287763       0.16682343       0.30639927 </v>
   <v>       0.66683750       0.07286357       0.43470302 </v>
   <v>       0.88495789       0.35474317       0.04979178 </v>
   <v>       0.97891775       0.26078330       0.17809552 </v>
   <v>       0.76079737       0.47890369       0.56300676 </v>
   <v>       0.53023342       0.37768264       0.47786825 </v>
   <v>       0.93627354       0.47164251       0.34956450 </v>
   <v>       0.74835381       0.15956225       0.09295701 </v>
   <v>       0.84231368       0.06560239       0.22126075 </v>
   <v>       0.58013882       0.49134725       0.09295701 </v>
   <v>       0.67409868       0.39738738       0.22126075 </v>
   <v>       0.76805855       0.30342751       0.34956450 </v>
   <v>       0.86201842       0.20946764       0.47786825 </v>
   <v>       0.07287763       0.66682343       0.30639927 </v>
   <v>       0.16683750       0.57286357       0.43470302 </v>
   <v>       0.38495789       0.85474317       0.04979178 </v>
   <v>       0.47891775       0.76078330       0.17809552 </v>
   <v>       0.26079737       0.97890369       0.56300676 </v>
   <v>       0.03023342       0.87768264       0.47786825 </v>
   <v>       0.43627354       0.97164251       0.34956450 </v>
   <v>       0.24835381       0.65956225       0.09295701 </v>
   <v>       0.34231368       0.56560239       0.22126075 </v>
   <v>       0.08013882       0.99134725       0.09295701 </v>
   <v>       0.17409868       0.89738738       0.22126075 </v>
   <v>       0.26805855       0.80342751       0.34956450 </v>
   <v>       0.36201842       0.70946764       0.47786825 </v>
   <v>       0.57287763       0.66682343       0.30639927 </v>
   <v>       0.66683750       0.57286357       0.43470302 </v>
   <v>       0.88495789       0.85474317       0.04979178 </v>
   <v>       0.97891775       0.76078330       0.17809552 </v>
   <v>       0.76079737       0.97890369       0.56300676 </v>
   <v>       0.53023342       0.87768264       0.47786825 </v>
   <v>       0.93627354       0.97164251       0.34956450 </v>
   <v>       0.74835381       0.65956225       0.09295701 </v>
   <v>       0.84231368       0.56560239       0.22126075 </v>
   <v>       0.58013882       0.99134725       0.09295701 </v>
   <v>       0.67409868       0.89738738       0.22126075 </v>
   <v>       0.76805855       0.80342751       0.34956450 </v>
   <v>       0.86201842       0.70946764       0.47786825 </v>
  </varray>
 </structure>
</modeling>
