 vasp.5.4.4.18Apr17-6-g9f103f2a35 (build Aug 13 2019 17:33:20) gamma-only       
  
 executed on             LinuxIFC date 2020.05.12  01:22:20
 running on   12 total cores
 distrk:  each k-point on   12 cores,    1 groups
 distr:  one band on NCORES_PER_BAND=   6 cores,    2 groups


--------------------------------------------------------------------------------------------------------


 INCAR:
 POTCAR:    PAW_PBE Ni_pv 06Sep2000               
 POTCAR:    PAW_PBE S 06Sep2000                   
 POTCAR:    PAW_PBE Ni_pv 06Sep2000               
   VRHFIN =Ni:                                                                  
   LEXCH  = PE                                                                  
   EATOM  =  3501.1230 eV,  257.3253 Ry                                         
                                                                                
   TITEL  = PAW_PBE Ni_pv 06Sep2000                                             
   LULTRA =        F    use ultrasoft PP ?                                      
   IUNSCR =        1    unscreen: 0-lin 1-nonlin 2-no                           
   RPACOR =    1.500    partial core radius                                     
   POMASS =   58.690; ZVAL   =   16.000    mass and valenz                      
   RCORE  =    2.000    outmost cutoff radius                                   
   RWIGS  =    2.000; RWIGS  =    1.058    wigner-seitz radius (au A)           
   ENMAX  =  367.986; ENMIN  =  275.989 eV                                      
   RCLOC  =    1.301    cutoff for local pot                                    
   LCOR   =        T    correct aug charges                                     
   LPAW   =        T    paw PP                                                  
   EAUG   =  703.443                                                            
   DEXC   =    0.000                                                            
   RMAX   =    2.041    core radius for proj-oper                               
   RAUG   =    1.300    factor for augmentation sphere                          
   RDEP   =    2.103    radius for radial grids                                 
   RDEPT  =    1.618    core radius for aug-charge                              
                                                                                
   Atomic configuration                                                         
    8 entries                                                                   
     n  l   j            E        occ.                                          
     1  0  0.50     -8206.4253   2.0000                                         
     2  0  0.50      -976.1748   2.0000                                         
     2  1  1.50      -839.0571   6.0000                                         
     3  0  0.50      -105.9991   2.0000                                         
     3  1  1.50       -66.4603   6.0000                                         
     3  2  2.50        -4.6458   9.0000                                         
     4  0  0.50        -4.4926   1.0000                                         
     4  3  2.50        -1.3606   0.0000                                         
   Description                                                                  
     l       E           TYP  RCUT    TYP  RCUT                                 
     1    -66.4602962     23  1.700                                             
     1     -1.3605826     23  1.700                                             
     2     -4.6457867     23  2.000                                             
     2     -6.0063693     23  2.000                                             
     0     -4.4925576     23  1.900                                             
     0     16.3626226     23  1.900                                             
  local pseudopotential read in
  partial core-charges read in
  partial kinetic energy density read in
  atomic valenz-charges read in
  non local Contribution for L=           1  read in
    real space projection operators read in
  non local Contribution for L=           1  read in
    real space projection operators read in
  non local Contribution for L=           2  read in
    real space projection operators read in
  non local Contribution for L=           2  read in
    real space projection operators read in
  non local Contribution for L=           0  read in
    real space projection operators read in
  non local Contribution for L=           0  read in
    real space projection operators read in
    PAW grid and wavefunctions read in
 
   number of l-projection  operators is LMAX  =           6
   number of lm-projection operators is LMMAX =          18
 
 POTCAR:    PAW_PBE S 06Sep2000                   
   VRHFIN =S : s2p4                                                             
   LEXCH  = PE                                                                  
   EATOM  =   276.8230 eV,   20.3459 Ry                                         
                                                                                
   TITEL  = PAW_PBE S 06Sep2000                                                 
   LULTRA =        F    use ultrasoft PP ?                                      
   IUNSCR =        1    unscreen: 0-lin 1-nonlin 2-no                           
   RPACOR =    1.500    partial core radius                                     
   POMASS =   32.066; ZVAL   =    6.000    mass and valenz                      
   RCORE  =    1.900    outmost cutoff radius                                   
   RWIGS  =    2.200; RWIGS  =    1.164    wigner-seitz radius (au A)           
   ENMAX  =  258.689; ENMIN  =  194.016 eV                                      
   ICORE  =        2    local potential                                         
   LCOR   =        T    correct aug charges                                     
   LPAW   =        T    paw PP                                                  
   EAUG   =  335.092                                                            
   DEXC   =    0.000                                                            
   RMAX   =    1.942    core radius for proj-oper                               
   RAUG   =    1.300    factor for augmentation sphere                          
   RDEP   =    1.954    radius for radial grids                                 
   RDEPT  =    1.744    core radius for aug-charge                              
                                                                                
   Atomic configuration                                                         
    6 entries                                                                   
     n  l   j            E        occ.                                          
     1  0  0.50     -2405.8406   2.0000                                         
     2  0  0.50      -211.7007   2.0000                                         
     2  1  1.50      -156.4958   6.0000                                         
     3  0  0.50       -17.2562   2.0000                                         
     3  1  0.50        -7.0085   4.0000                                         
     3  2  1.50        -6.8029   0.0000                                         
   Description                                                                  
     l       E           TYP  RCUT    TYP  RCUT                                 
     0    -17.2561641     23  1.900                                             
     0    -15.8743224     23  1.900                                             
     1     -7.0085400     23  1.900                                             
     1     -2.7779785     23  1.900                                             
     2     -6.8029130     23  1.900                                             
  local pseudopotential read in
  partial core-charges read in
  partial kinetic energy density read in
  atomic valenz-charges read in
  non local Contribution for L=           0  read in
    real space projection operators read in
  non local Contribution for L=           0  read in
    real space projection operators read in
  non local Contribution for L=           1  read in
    real space projection operators read in
  non local Contribution for L=           1  read in
    real space projection operators read in
    PAW grid and wavefunctions read in
 
   number of l-projection  operators is LMAX  =           4
   number of lm-projection operators is LMMAX =           8
 
 Optimization of the real space projectors (new method)

 maximal supplied QI-value         = 18.90
 optimisation between [QCUT,QGAM] = [ 10.77, 21.73] = [ 32.49,132.25] Ry 
 Optimized for a Real-space Cutoff    1.38 Angstroem

   l    n(q)    QCUT    max X(q) W(low)/X(q) W(high)/X(q)  e(spline) 
   1      8    10.771     2.836    0.40E-04    0.29E-04    0.12E-06
   1      8    10.771     4.023    0.10E-03    0.48E-04    0.29E-06
   2      8    10.771    73.368    0.42E-03    0.97E-04    0.44E-06
   2      8    10.771    69.010    0.42E-03    0.99E-04    0.45E-06
   0      9    10.771    54.797    0.10E-03    0.56E-04    0.74E-07
   0      9    10.771    24.266    0.89E-04    0.49E-04    0.67E-07
 Optimization of the real space projectors (new method)

 maximal supplied QI-value         = 19.84
 optimisation between [QCUT,QGAM] = [ 10.71, 21.63] = [ 32.15,130.99] Ry 
 Optimized for a Real-space Cutoff    1.19 Angstroem

   l    n(q)    QCUT    max X(q) W(low)/X(q) W(high)/X(q)  e(spline) 
   0      8    10.715   187.594    0.41E-03    0.53E-04    0.66E-07
   0      8    10.715   164.243    0.41E-03    0.53E-04    0.65E-07
   1      7    10.715    67.533    0.19E-03    0.59E-03    0.68E-07
   1      7    10.715    50.729    0.19E-03    0.58E-03    0.67E-07
  PAW_PBE Ni_pv 06Sep2000               :
 energy of atom  1       EATOM=-3501.1230
 kinetic energy error for atom=    0.0925 (will be added to EATOM!!)
  PAW_PBE S 06Sep2000                   :
 energy of atom  2       EATOM= -276.8230
 kinetic energy error for atom=    0.0033 (will be added to EATOM!!)
 
 
 POSCAR: Type_037 Type_137                       
  positions in cartesian coordinates
  No initial velocities read in
 exchange correlation table for  LEXCH =        8
   RHO(1)=    0.500       N(1)  =     2000
   RHO(2)=  100.500       N(2)  =     4000
 


--------------------------------------------------------------------------------------------------------


 ion  position               nearest neighbor table
   1  0.780  0.145  0.123-  65 2.01  51 2.08  42 2.25  52 2.36  66 2.36
   2  0.800  0.144  0.283-  66 2.02  52 2.05  43 2.06
   3  0.216  0.626  0.099-  44 2.03  45 2.12  63 2.19   4 2.40  53 2.45  16 2.48
   4  0.297  0.645  0.216-  54 2.10  64 2.20  45 2.25  53 2.26  63 2.26   3 2.40  30 2.53  17 2.53

   5  0.388  0.117  0.130-  47 2.03  48 2.13  69 2.13   6 2.40  19 2.48  55 2.52
   6  0.470  0.145  0.247-  70 2.05  56 2.09  48 2.25  55 2.26  69 2.26   5 2.40  32 2.53  20 2.53

   7  0.952  0.645  0.154-  58 2.06  68 2.08  49 2.22  57 2.36  67 2.36  33 2.53  21 2.53
   8  0.974  0.645  0.317-  46 2.05  57 2.06  67 2.06  50 2.09
   9  0.171  0.145  0.046-  47 2.01  73 2.05  59 2.05  10 2.44
  10  0.125  0.145  0.185-  73 2.14  59 2.15  39 2.25  60 2.36  74 2.36  11 2.37   9 2.44  35 2.53
                            23 2.53
  11  0.110  0.145  0.327-  38 2.02  74 2.11  60 2.11  10 2.37
  12  0.578  0.646  0.153-  40 2.03  41 2.10  71 2.15  61 2.16  13 2.35
  13  0.642  0.645  0.278-  72 2.04  62 2.04  61 2.10  41 2.23  71 2.26  12 2.35  37 2.53  26 2.53

  14  0.913  0.005  0.123-  65 2.00  58 2.09  66 2.10  39 2.14  15 2.50
  15  0.942  0.012  0.270-  38 2.07  39 2.10  66 2.14  57 2.20  14 2.50
  16  0.358  0.644  0.063-  40 2.02  63 2.04  53 2.05  29 2.46   3 2.48
  17  0.425  0.513  0.192-  64 2.10  41 2.23  55 2.25  40 2.26  63 2.26  18 2.37   4 2.53  30 2.53

  18  0.480  0.462  0.319-  56 2.00  41 2.08  64 2.09  17 2.37
  19  0.530  0.145  0.092-  42 2.04  55 2.05  69 2.05   5 2.48  31 2.49
  20  0.597  0.013  0.222-  70 2.02  43 2.09  61 2.20  69 2.26  42 2.26  32 2.53   6 2.53
  21  0.080  0.513  0.130-  44 2.06  68 2.09  59 2.12  67 2.36  45 2.36   7 2.53  33 2.53
  22  0.112  0.506  0.295-  46 2.05  67 2.06  45 2.09  60 2.15
  23  0.252  0.013  0.161-  73 2.15  47 2.17  53 2.25  48 2.36  74 2.36  24 2.52  10 2.53  35 2.53

  24  0.291  0.977  0.305-  54 2.01  74 2.03  48 2.05  23 2.52
  25  0.767  0.421  0.120-  51 2.03  52 2.15  49 2.18  71 2.21  26 2.38
  26  0.770  0.513  0.253-  72 2.03  49 2.10  50 2.12  52 2.25  71 2.26  25 2.38  13 2.53  37 2.53

  27  0.909  0.282  0.119-  51 2.06  52 2.10  68 2.11  39 2.19
  28  0.943  0.278  0.270-  38 2.07  39 2.08  52 2.17  67 2.18
  29  0.418  0.878  0.064-  69 2.09  53 2.13  30 2.34  16 2.46  40 2.47
  30  0.425  0.777  0.192-  54 2.09  41 2.25  69 2.25  40 2.26  53 2.26  29 2.34   4 2.53  17 2.53

  31  0.621  0.350  0.089-  71 2.08  42 2.08  32 2.36  19 2.49  55 2.56
  32  0.597  0.277  0.222-  56 2.09  43 2.13  71 2.25  55 2.26  42 2.26  31 2.36  20 2.53   6 2.53

  33  0.080  0.777  0.130-  44 2.06  58 2.09  73 2.12  57 2.36  45 2.36   7 2.53  21 2.53
  34  0.112  0.784  0.296-  46 2.04  57 2.06  45 2.09  74 2.15
  35  0.252  0.277  0.161-  47 2.13  59 2.14  63 2.25  48 2.36  60 2.36  36 2.44  10 2.53  23 2.53

  36  0.295  0.328  0.297-  64 2.03  60 2.07  48 2.08  35 2.44
  37  0.770  0.777  0.253-  62 2.00  50 2.09  61 2.20  66 2.25  49 2.39  13 2.53  26 2.53
  38  0.993  0.145  0.354-  11 2.02  28 2.07  15 2.07
  39  0.991  0.145  0.183-  28 2.08  15 2.10  14 2.14  27 2.19  10 2.25
  40  0.474  0.645  0.091-  16 2.02  12 2.03  17 2.26  30 2.26  29 2.47
  41  0.511  0.644  0.259-  18 2.08  12 2.10  17 2.23  13 2.23  30 2.25
  42  0.647  0.145  0.122-  19 2.04  31 2.08   1 2.25  20 2.26  32 2.26  43 2.75
  43  0.677  0.142  0.284-   2 2.06  20 2.09  32 2.13  42 2.75
  44  0.112  0.645  0.038-   3 2.03  33 2.06  21 2.06
  45  0.164  0.645  0.214-  22 2.09  34 2.09   3 2.12   4 2.25  33 2.36  21 2.36
  46  0.077  0.645  0.382-  34 2.04  22 2.05   8 2.05
  47  0.289  0.148  0.063-   9 2.01   5 2.03  35 2.13  23 2.17
  48  0.336  0.145  0.245-  24 2.05  36 2.08   5 2.13   6 2.25  35 2.36  23 2.36
  49  0.822  0.618  0.156-  26 2.10  25 2.18   7 2.22  37 2.39  50 2.67
  50  0.850  0.649  0.313-  37 2.09   8 2.09  26 2.12  49 2.67
  51  0.817  0.291  0.038-  25 2.03  27 2.06   1 2.08  65 2.70
  52  0.829  0.314  0.215-   2 2.05  27 2.10  25 2.15  28 2.17  26 2.25   1 2.36
  53  0.312  0.814  0.122-  16 2.05  29 2.13  23 2.25   4 2.26  30 2.26   3 2.45
  54  0.350  0.796  0.291-  24 2.01  30 2.09   4 2.10  64 2.78
  55  0.484  0.314  0.153-  19 2.05  17 2.25   6 2.26  32 2.26   5 2.52  31 2.56
  56  0.530  0.274  0.328-  18 2.00  32 2.09   6 2.09  70 2.73
  57  0.001  0.814  0.246-   8 2.06  34 2.06  15 2.20  33 2.36   7 2.36  58 2.75
  58  0.968  0.820  0.084-   7 2.06  33 2.09  14 2.09  57 2.75
  59  0.140  0.323  0.107-   9 2.05  21 2.12  35 2.14  10 2.15
  60  0.174  0.314  0.276-  36 2.07  11 2.11  22 2.15  10 2.36  35 2.36
  61  0.654  0.811  0.196-  13 2.10  12 2.16  37 2.20  20 2.20  62 2.70
  62  0.700  0.782  0.351-  37 2.00  13 2.04  61 2.70  72 2.73
  63  0.312  0.477  0.122-  16 2.04   3 2.19  35 2.25   4 2.26  17 2.26
  64  0.360  0.506  0.299-  36 2.03  18 2.09  17 2.10   4 2.20  54 2.78
  65  0.825  0.009  0.043-  14 2.00   1 2.01  51 2.70
  66  0.829  0.977  0.215-   2 2.02  14 2.10  15 2.14  37 2.25   1 2.36
  67  0.001  0.477  0.246-   8 2.06  22 2.06  28 2.18  21 2.36   7 2.36  68 2.74
  68  0.967  0.467  0.085-   7 2.08  21 2.09  27 2.11  67 2.74
  69  0.484  0.977  0.153-  19 2.05  29 2.09   5 2.13  30 2.25   6 2.26  20 2.26  70 2.76
  70  0.520  0.990  0.314-  20 2.02   6 2.05  56 2.73  69 2.76
  71  0.657  0.477  0.184-  31 2.08  12 2.15  25 2.21  32 2.25  26 2.26  13 2.26
  72  0.694  0.497  0.348-  26 2.03  13 2.04  62 2.73
  73  0.139  0.969  0.108-   9 2.05  33 2.12  10 2.14  23 2.15
  74  0.174  0.977  0.276-  24 2.03  11 2.11  34 2.15  10 2.36  23 2.36
 
  LATTYP: Found a simple orthorhombic cell.
 ALAT       =     9.5784100000
 B/A-ratio  =     1.7387693453
 C/A-ratio  =     1.7627867312
  
  Lattice vectors:
  
 A1 = (   0.0000000000,   9.5784100000,   0.0000000000)
 A2 = (   0.0000000000,   0.0000000000, -16.6546456851)
 A3 = ( -16.8846940542,   0.0000000000,   0.0000000000)


Analysis of symmetry for initial positions (statically):
=====================================================================
 Subroutine PRICEL returns:
 Original cell was already a primitive cell.
 

 Routine SETGRP: Setting up the symmetry group for a 
 simple orthorhombic supercell.


 Subroutine GETGRP returns: Found  1 space group operations
 (whereof  1 operations were pure point group operations)
 out of a pool of  8 trial point group operations.


The static configuration has the point symmetry C_1 .


Analysis of symmetry for dynamics (positions and initial velocities):
=====================================================================
 Subroutine PRICEL returns:
 Original cell was already a primitive cell.
 

 Routine SETGRP: Setting up the symmetry group for a 
 simple orthorhombic supercell.


 Subroutine GETGRP returns: Found  1 space group operations
 (whereof  1 operations were pure point group operations)
 out of a pool of  8 trial point group operations.


The dynamic configuration has the point symmetry C_1 .


 Subroutine INISYM returns: Found  1 space group operations
 (whereof  1 operations are pure point group operations),
 and found     1 'primitive' translations

 
 
 KPOINTS: gamma-point-only calculation. no periodi

Automatic generation of k-mesh.
Space group operators:
 irot       det(A)        alpha          n_x          n_y          n_z        tau_x        tau_y        tau_z
    1     1.000000     0.000000     1.000000     0.000000     0.000000     0.000000     0.000000     0.000000
 
 Subroutine IBZKPT returns following result:
 ===========================================
 
 Found      1 irreducible k-points:
 
 Following reciprocal coordinates:
            Coordinates               Weight
  0.000000  0.000000  0.000000      1.000000
 
 Following cartesian coordinates:
            Coordinates               Weight
  0.000000  0.000000  0.000000      1.000000
 


--------------------------------------------------------------------------------------------------------




 Dimension of arrays:
   k-points           NKPTS =      1   k-points in BZ     NKDIM =      1   number of bands    NBANDS=    488
   number of dos      NEDOS =    301   number of ions     NIONS =     74
   non local maximal  LDIM  =      6   non local SUM 2l+1 LMDIM =     18
   total plane-waves  NPLWV = 405000
   max r-space proj   IRMAX =   1708   max aug-charges    IRDMAX=   4936
   dimension x,y,z NGX =    90 NGY =   50 NGZ =   90
   dimension x,y,z NGXF=   180 NGYF=  100 NGZF=  180
   support grid    NGXF=   180 NGYF=  100 NGZF=  180
   ions per type =              37  37
   NGX,Y,Z   is equivalent  to a cutoff of   8.86,  8.68,  8.98 a.u.
   NGXF,Y,Z  is equivalent  to a cutoff of  17.72, 17.36, 17.97 a.u.

 SYSTEM =  "Millerite NiS"                         
 POSCAR =  Type_037 Type_137                       

 Startparameter for this run:
   NWRITE =      2    write-flag & timer
   PREC   = normal    normal or accurate (medium, high low for compatibility)
   ISTART =      0    job   : 0-new  1-cont  2-samecut
   ICHARG =      2    charge: 1-file 2-atom 10-const
   ISPIN  =      1    spin polarized calculation?
   LNONCOLLINEAR =      F non collinear calculations
   LSORBIT =      F    spin-orbit coupling
   INIWAV =      1    electr: 0-lowe 1-rand  2-diag
   LASPH  =      F    aspherical Exc in radial PAW
   METAGGA=      F    non-selfconsistent MetaGGA calc.

 Electronic Relaxation 1
   ENCUT  =  450.0 eV  33.07 Ry    5.75 a.u.  29.20 16.57 28.81*2*pi/ulx,y,z
   ENINI  =  450.0     initial cutoff
   ENAUG  =  703.4 eV  augmentation charge cutoff
   NELM   =    100;   NELMIN=  2; NELMDL= -5     # of ELM steps 
   EDIFF  = 0.1E-03   stopping-criterion for ELM
   LREAL  =      T    real-space projection
   NLSPLINE    = F    spline interpolate recip. space projectors
   LCOMPAT=      F    compatible to vasp.4.4
   GGA_COMPAT  = T    GGA compatible to vasp.4.4-vasp.4.6
   LMAXPAW     = -100 max onsite density
   LMAXMIX     =    2 max onsite mixed and CHGCAR
   VOSKOWN=      0    Vosko Wilk Nusair interpolation
   ROPT   =   -0.00050  -0.00050
 Ionic relaxation
   EDIFFG = 0.1E-02   stopping-criterion for IOM
   NSW    =      0    number of steps for IOM
   NBLOCK =      1;   KBLOCK =      1    inner block; outer block 
   IBRION =     -1    ionic relax: 0-MD 1-quasi-New 2-CG
   NFREE  =      0    steps in history (QN), initial steepest desc. (CG)
   ISIF   =      2    stress and relaxation
   IWAVPR =     10    prediction:  0-non 1-charg 2-wave 3-comb
   ISYM   =      2    0-nonsym 1-usesym 2-fastsym
   LCORR  =      T    Harris-Foulkes like correction to forces

   POTIM  = 0.5000    time-step for ionic-motion
   TEIN   =    0.0    initial temperature
   TEBEG  =    0.0;   TEEND  =   0.0 temperature during run
   SMASS  =  -3.00    Nose mass-parameter (am)
   estimated Nose-frequenzy (Omega)   =  0.10E-29 period in steps =****** mass=  -0.652E-26a.u.
   SCALEE = 1.0000    scale energy and forces
   NPACO  =    256;   APACO  = 16.0  distance and # of slots for P.C.
   PSTRESS=    0.0 pullay stress

  Mass of Ions in am
   POMASS =  58.69 32.07
  Ionic Valenz
   ZVAL   =  16.00  6.00
  Atomic Wigner-Seitz radii
   RWIGS  =  -1.00 -1.00
  virtual crystal weights 
   VCA    =   1.00  1.00
   NELECT =     814.0000    total number of electrons
   NUPDOWN=      -1.0000    fix difference up-down

 DOS related values:
   EMIN   =  10.00;   EMAX   =-10.00  energy-range for DOS
   EFERMI =   0.00
   ISMEAR =     0;   SIGMA  =   0.20  broadening in eV -4-tet -1-fermi 0-gaus

 Electronic relaxation 2 (details)
   IALGO  =     38    algorithm
   LDIAG  =      T    sub-space diagonalisation (order eigenvalues)
   LSUBROT=      F    optimize rotation matrix (better conditioning)
   TURBO    =      0    0=normal 1=particle mesh
   IRESTART =      0    0=no restart 2=restart with 2 vectors
   NREBOOT  =      0    no. of reboots
   NMIN     =      0    reboot dimension
   EREF     =   0.00    reference energy to select bands
   IMIX   =      4    mixing-type and parameters
     AMIX     =   0.40;   BMIX     =  1.00
     AMIX_MAG =   1.60;   BMIX_MAG =  1.00
     AMIN     =   0.10
     WC   =   100.;   INIMIX=   1;  MIXPRE=   1;  MAXMIX= -45

 Intra band minimization:
   WEIMIN = 0.0000     energy-eigenvalue tresh-hold
   EBREAK =  0.51E-07  absolut break condition
   DEPER  =   0.30     relativ break condition  

   TIME   =   0.40     timestep for ELM

  volume/ion in A,a.u.               =      36.40       245.63
  Fermi-wavevector in a.u.,A,eV,Ry     =   1.098607  2.076066 16.421374  1.206937
  Thomas-Fermi vector in A             =   2.234987
 
 Write flags
   LWAVE        =      F    write WAVECAR
   LDOWNSAMPLE  =      F    k-point downsampling of WAVECAR
   LCHARG       =      F    write CHGCAR
   LVTOT        =      F    write LOCPOT, total local potential
   LVHAR        =      F    write LOCPOT, Hartree potential only
   LELF         =      F    write electronic localiz. function (ELF)
   LORBIT       =      0    0 simple, 1 ext, 2 COOP (PROOUT), +10 PAW based schemes


 Dipole corrections
   LMONO  =      F    monopole corrections only (constant potential shift)
   LDIPOL =      F    correct potential (dipole corrections)
   IDIPOL =      0    1-x, 2-y, 3-z, 4-all directions 
   EPSILON=  1.0000000 bulk dielectric constant

 Exchange correlation treatment:
   GGA     =    --    GGA type
   LEXCH   =     8    internal setting for exchange type
   VOSKOWN=      0    Vosko Wilk Nusair interpolation
   LHFCALC =     F    Hartree Fock is set to
   LHFONE  =     F    Hartree Fock one center treatment
   AEXX    =    0.0000 exact exchange contribution

 Linear response parameters
   LEPSILON=     F    determine dielectric tensor
   LRPA    =     F    only Hartree local field effects (RPA)
   LNABLA  =     F    use nabla operator in PAW spheres
   LVEL    =     F    velocity operator in full k-point grid
   LINTERFAST=   F  fast interpolation
   KINTER  =     0    interpolate to denser k-point grid
   CSHIFT  =0.1000    complex shift for real part using Kramers Kronig
   OMEGAMAX=  -1.0    maximum frequency
   DEG_THRESHOLD= 0.2000000E-02 threshold for treating states as degnerate
   RTIME   =   -0.100 relaxation time in fs
  (WPLASMAI=    0.000 imaginary part of plasma frequency in eV, 0.658/RTIME)
   DFIELD  = 0.0000000 0.0000000 0.0000000 field for delta impulse in time
 
 Orbital magnetization related:
   ORBITALMAG=     F  switch on orbital magnetization
   LCHIMAG   =     F  perturbation theory with respect to B field
   DQ        =  0.001000  dq finite difference perturbation B field
   LLRAUG    =     F  two centre corrections for induced B field



--------------------------------------------------------------------------------------------------------


 Static calculation
 charge density and potential will be updated during run
 non-spin polarized calculation
 Variant of blocked Davidson
 Davidson routine will perform the subspace rotation
 perform sub-space diagonalisation
    after iterative eigenvector-optimisation
 modified Broyden-mixing scheme, WC =      100.0
 initial mixing is a Kerker type mixing with AMIX =  0.4000 and BMIX =      1.0000
 Hartree-type preconditioning will be used
 using additional bands           81
 real space projection scheme for non local part
 use partial core corrections
 calculate Harris-corrections to forces 
   (improved forces if not selfconsistent)
 use gradient corrections 
 use of overlap-Matrix (Vanderbilt PP)
 Gauss-broadening in eV      SIGMA  =   0.20


--------------------------------------------------------------------------------------------------------


  energy-cutoff  :      450.00
  volume of cell :     2693.53
      direct lattice vectors                 reciprocal lattice vectors
    16.884694054  0.000000000  0.000000000     0.059225237  0.000000000  0.000000000
     0.000000000  9.578410000  0.000000000     0.000000000  0.104401461  0.000000000
     0.000000000  0.000000000 16.654645685     0.000000000  0.000000000  0.060043307

  length of vectors
    16.884694054  9.578410000 16.654645685     0.059225237  0.104401461  0.060043307


 
 k-points in units of 2pi/SCALE and weight: gamma-point-only calculation. no periodi
   0.00000000  0.00000000  0.00000000       1.000
 
 k-points in reciprocal lattice and weights: gamma-point-only calculation. no periodi
   0.00000000  0.00000000  0.00000000       1.000
 
 position of ions in fractional coordinates (direct lattice) 
   0.78004630  0.14529696  0.12347080
   0.79956865  0.14360853  0.28284750
   0.21586291  0.62561946  0.09878451
   0.29733028  0.64529696  0.21607389
   0.38828624  0.11655784  0.12981237
   0.46975828  0.14529696  0.24694159
   0.95247430  0.64529696  0.15433850
   0.97367819  0.64547780  0.31701332
   0.17094595  0.14529322  0.04623392
   0.12490229  0.14529696  0.18520619
   0.10975231  0.14529640  0.32654954
   0.57805933  0.64558426  0.15280852
   0.64218627  0.64529696  0.27780929
   0.91319361  0.00457577  0.12303714
   0.94176997  0.01247713  0.27042461
   0.35785268  0.64430009  0.06253346
   0.42486675  0.51319396  0.19160760
   0.47975859  0.46175292  0.31942784
   0.52962085  0.14543293  0.09196907
   0.59729475  0.01319396  0.22247530
   0.08001077  0.51319396  0.12987220
   0.11202371  0.50635481  0.29531830
   0.25243876  0.01319396  0.16073990
   0.29099468  0.97659063  0.30529927
   0.76706180  0.42102060  0.12044113
   0.76972274  0.51319396  0.25334300
   0.90897835  0.28247165  0.11931315
   0.94344610  0.27782224  0.26980548
   0.41802147  0.87824479  0.06362498
   0.42486675  0.77739996  0.19160760
   0.62054324  0.35033093  0.08933202
   0.59729475  0.27739996  0.22247530
   0.08001077  0.77739996  0.12987220
   0.11179072  0.78386188  0.29556643
   0.25243876  0.27739996  0.16073990
   0.29462734  0.32797657  0.29749794
   0.76972274  0.77739996  0.25334300
   0.99289295  0.14477836  0.35353798
   0.99146120  0.14529696  0.18349304
   0.47417723  0.64529696  0.09088994
   0.51128606  0.64355054  0.25927772
   0.64660522  0.14529696  0.12175764
   0.67736082  0.14174232  0.28366332
   0.11217278  0.64541356  0.03811027
   0.16388920  0.64529696  0.21436074
   0.07697708  0.64487324  0.38175554
   0.28904678  0.14845322  0.06308406
   0.33631719  0.14529696  0.24522844
   0.82190035  0.61795272  0.15638075
   0.84980961  0.64855801  0.31340632
   0.81654206  0.29085252  0.03840335
   0.82906105  0.31351196  0.21464750
   0.31177707  0.81351196  0.12204440
   0.34999822  0.79553710  0.29073626
   0.48420507  0.31351196  0.15291210
   0.53016427  0.27363958  0.32755446
   0.00148905  0.81351196  0.24551520
   0.96769306  0.82033669  0.08389006
   0.14020759  0.32283926  0.10733115
   0.17391704  0.31351196  0.27638290
   0.65394007  0.81094996  0.19616962
   0.70007957  0.78231157  0.35051287
   0.31177707  0.47708196  0.12204440
   0.36042136  0.50585202  0.29947025
   0.82450243  0.00903783  0.04312592
   0.82906105  0.97708196  0.21464750
   0.00148905  0.47708196  0.24551520
   0.96733211  0.46721583  0.08457231
   0.48420507  0.97708196  0.15291210
   0.52020154  0.99026723  0.31434890
   0.65663306  0.47708196  0.18377980
   0.69441674  0.49711883  0.34759787
   0.13945026  0.96883179  0.10767319
   0.17391704  0.97708196  0.27638290
 
 position of ions in cartesian coordinates  (Angst):
  13.17084321  1.39171383  2.05636238
  13.50047199  1.37554141  4.71072488
   3.64477914  5.99243967  1.64522101
   5.02033088  6.18091883  3.59863415
   6.55609441  1.11643874  2.16197896
   7.93172477  1.39171383  4.11272475
  16.08223712  6.18091883  2.57045297
  16.44025834  6.18265098  5.27974460
   2.88637005  1.39167808  0.77000951
   2.10893697  1.39171383  3.08454356
   1.85313413  1.39170845  5.43856690
   9.76035491  6.18367076  2.54497180
  10.84311868  6.18091883  4.62681534
  15.41899466  0.04382858  2.04914003
  15.90149789  0.11951107  4.50382606
   6.04223296  6.17137047  1.04147260
   7.17374514  4.91558213  3.19115669
   8.10057694  4.42285879  5.31995753
   8.94248601  1.39301623  1.53171230
  10.08513905  0.12637713  3.70524730
   1.35095732  4.91558213  2.16297551
   1.89148610  4.85007399  4.91842167
   4.26235123  0.12637713  2.67706610
   4.91335620  9.35418548  5.08465112
  12.95160383  4.03270795  2.00590431
  12.99653294  4.91558213  4.21933789
  15.34782128  2.70562926  1.98711822
  15.92979877  2.66109533  4.49351461
   7.05816466  8.41218863  1.05965152
   7.17374514  7.44625552  3.19115669
  10.47768269  3.35561325  1.48779311
  10.08513905  2.65705052  3.70524730
   1.35095732  7.44625552  2.16297551
   1.88755214  7.50815051  4.92255413
   4.26235123  2.65705052  2.67706610
   4.97469245  3.14149409  4.95472286
  12.99653294  7.44625552  4.21933789
  16.76469375  1.38674650  5.88804971
  16.74051910  1.39171383  3.05601153
   8.00633737  6.18091883  1.51373975
   8.63290875  6.16419090  4.31817863
  10.91773128  1.39171383  2.02783034
  11.43703016  1.35766605  4.72431210
   1.89400309  6.18203572  0.63471303
   2.76721895  6.18091883  3.57010212
   1.29973439  6.17686034  6.35800320
   4.88046641  1.42194578  1.05064272
   5.67861284  1.39171383  4.08419271
  13.87753591  5.91900451  2.60446606
  14.34877533  6.21215456  5.21967130
  13.78706282  2.78590470  0.63959421
  13.99844223  3.00294606  3.57487803
   5.26426051  7.79215106  2.03260624
   5.90961278  7.61998054  4.84210932
   8.17565442  3.00294606  2.54669685
   8.95166146  2.62103206  5.45530345
   0.02514209  7.79215106  4.08896862
  16.33920119  7.85752118  1.39715926
   2.36736226  3.09228681  1.78756223
   2.93653598  3.00294606  4.60305921
  11.04157800  7.76761118  3.26713546
  11.82062943  7.49330094  5.83766767
   5.26426051  4.56968659  2.03260624
   6.08560441  4.84525804  4.98757091
  13.92147128  0.08656804  0.71824691
  13.99844223  9.35889159  3.57487803
   0.02514209  4.56968659  4.08896862
  16.33310680  4.47518476  1.40852189
   8.17565442  9.35889159  2.54669685
   8.78344390  9.48518550  5.23536954
  11.08704832  4.56968659  3.06078744
  11.72501425  4.76160794  5.78911944
   2.35457492  9.27986807  1.79325876
   2.93653598  9.35889159  4.60305921
 


--------------------------------------------------------------------------------------------------------


 use parallel FFT for orbitals z direction half grid
 k-point  1 :   0.0000 0.0000 0.0000  plane waves:   29200

 maximum and minimum number of plane-waves per node :      4869     4864

 maximum number of plane-waves:     29200
 maximum index in each direction: 
   IXMAX=   29   IYMAX=   16   IZMAX=   28
   IXMIN=  -29   IYMIN=  -16   IZMIN=    0


 real space projection operators:
  total allocation   :      10760.53 KBytes
  max/ min on nodes  :       1798.48       1782.81


 parallel 3D FFT for wavefunctions:
    minimum data exchange during FFTs selected (reduces bandwidth)
 parallel 3D FFT for charge:
    minimum data exchange during FFTs selected (reduces bandwidth)


 total amount of memory used by VASP MPI-rank0    80249. kBytes
=======================================================================

   base      :      30000. kBytes
   nonlr-proj:       2209. kBytes
   fftplans  :      10634. kBytes
   grid      :      17961. kBytes
   one-center:        101. kBytes
   wavefun   :      19344. kBytes
 
     INWAV:  cpu time    0.0001: real time    0.0001
 Broyden mixing: mesh for mixing (old mesh)
   NGX = 59   NGY = 33   NGZ = 57
  (NGX  =180   NGY  =100   NGZ  =180)
  gives a total of 110979 points

 initial charge density was supplied:
 charge density of overlapping atoms calculated
 number of electron     814.0000000 magnetization 
 keeping initial charge density in first step


--------------------------------------------------------------------------------------------------------


 Maximum index for non-local projection operator          278
 Maximum index for augmentation-charges          445 (set IRDMAX)


--------------------------------------------------------------------------------------------------------


 First call to EWALD:  gamma=   0.127
 Maximum number of real-space cells 2x 4x 2
 Maximum number of reciprocal cells 3x 2x 3

    FEWALD:  cpu time    0.0092: real time    0.0092


--------------------------------------- Iteration      1(   1)  ---------------------------------------


    POTLOK:  cpu time    0.3563: real time    0.3564
    SETDIJ:  cpu time    0.0189: real time    0.0189
     EDDAV:  cpu time    9.2389: real time    9.2411
       DOS:  cpu time    0.0016: real time    0.0016
    --------------------------------------------
      LOOP:  cpu time    9.6156: real time    9.6179

 eigenvalue-minimisations  :  1200
 total energy-change (2. order) : 0.9157088E+04  (-0.5205513E+05)
 number of electron     814.0000000 magnetization 
 augmentation part      814.0000000 magnetization 

 Free energy of the ion-electron system (eV)
  ---------------------------------------------------
  alpha Z        PSCENC =      1458.83996183
  Ewald energy   TEWEN  =    169082.92304008
  -Hartree energ DENC   =   -292699.15599135
  -exchange      EXHF   =         0.00000000
  -V(xc)+E(xc)   XCENC  =      3784.83437157
  PAW double counting   =    115860.90926010  -120909.33166199
  entropy T*S    EENTRO =        -0.48678894
  eigenvalues    EBANDS =     -7201.89987988
  atomic energy  EATOM  =    139780.45519414
  Solvation  Ediel_sol  =         0.00000000
  ---------------------------------------------------
  free energy    TOTEN  =      9157.08750556 eV

  energy without entropy =     9157.57429450  energy(sigma->0) =     9157.33090003


--------------------------------------------------------------------------------------------------------




--------------------------------------- Iteration      1(   2)  ---------------------------------------


     EDDAV:  cpu time    8.4246: real time    8.4260
       DOS:  cpu time    0.0011: real time    0.0011
    --------------------------------------------
      LOOP:  cpu time    8.4257: real time    8.4272

 eigenvalue-minimisations  :  1040
 total energy-change (2. order) :-0.8652443E+04  (-0.8366158E+04)
 number of electron     814.0000000 magnetization 
 augmentation part      814.0000000 magnetization 

 Free energy of the ion-electron system (eV)
  ---------------------------------------------------
  alpha Z        PSCENC =      1458.83996183
  Ewald energy   TEWEN  =    169082.92304008
  -Hartree energ DENC   =   -292699.15599135
  -exchange      EXHF   =         0.00000000
  -V(xc)+E(xc)   XCENC  =      3784.83437157
  PAW double counting   =    115860.90926010  -120909.33166199
  entropy T*S    EENTRO =        -0.75746651
  eigenvalues    EBANDS =    -15854.07219230
  atomic energy  EATOM  =    139780.45519414
  Solvation  Ediel_sol  =         0.00000000
  ---------------------------------------------------
  free energy    TOTEN  =       504.64451557 eV

  energy without entropy =      505.40198208  energy(sigma->0) =      505.02324882


--------------------------------------------------------------------------------------------------------




--------------------------------------- Iteration      1(   3)  ---------------------------------------


     EDDAV:  cpu time    9.0923: real time    9.0951
       DOS:  cpu time    0.0013: real time    0.0013
    --------------------------------------------
      LOOP:  cpu time    9.0936: real time    9.0965

 eigenvalue-minimisations  :  1144
 total energy-change (2. order) :-0.8631441E+03  (-0.8298443E+03)
 number of electron     814.0000000 magnetization 
 augmentation part      814.0000000 magnetization 

 Free energy of the ion-electron system (eV)
  ---------------------------------------------------
  alpha Z        PSCENC =      1458.83996183
  Ewald energy   TEWEN  =    169082.92304008
  -Hartree energ DENC   =   -292699.15599135
  -exchange      EXHF   =         0.00000000
  -V(xc)+E(xc)   XCENC  =      3784.83437157
  PAW double counting   =    115860.90926010  -120909.33166199
  entropy T*S    EENTRO =        -1.13391095
  eigenvalues    EBANDS =    -16716.83983151
  atomic energy  EATOM  =    139780.45519414
  Solvation  Ediel_sol  =         0.00000000
  ---------------------------------------------------
  free energy    TOTEN  =      -358.49956808 eV

  energy without entropy =     -357.36565713  energy(sigma->0) =     -357.93261261


--------------------------------------------------------------------------------------------------------




--------------------------------------- Iteration      1(   4)  ---------------------------------------


     EDDAV:  cpu time    8.6443: real time    8.6498
       DOS:  cpu time    0.0011: real time    0.0011
    --------------------------------------------
      LOOP:  cpu time    8.6454: real time    8.6509

 eigenvalue-minimisations  :  1104
 total energy-change (2. order) :-0.4374039E+02  (-0.4327692E+02)
 number of electron     814.0000000 magnetization 
 augmentation part      814.0000000 magnetization 

 Free energy of the ion-electron system (eV)
  ---------------------------------------------------
  alpha Z        PSCENC =      1458.83996183
  Ewald energy   TEWEN  =    169082.92304008
  -Hartree energ DENC   =   -292699.15599135
  -exchange      EXHF   =         0.00000000
  -V(xc)+E(xc)   XCENC  =      3784.83437157
  PAW double counting   =    115860.90926010  -120909.33166199
  entropy T*S    EENTRO =        -1.17893422
  eigenvalues    EBANDS =    -16760.53519425
  atomic energy  EATOM  =    139780.45519414
  Solvation  Ediel_sol  =         0.00000000
  ---------------------------------------------------
  free energy    TOTEN  =      -402.23995409 eV

  energy without entropy =     -401.06101987  energy(sigma->0) =     -401.65048698


--------------------------------------------------------------------------------------------------------




--------------------------------------- Iteration      1(   5)  ---------------------------------------


     EDDAV:  cpu time    9.5150: real time    9.5178
       DOS:  cpu time    0.0012: real time    0.0012
    CHARGE:  cpu time    0.2950: real time    0.2950
    MIXING:  cpu time    0.0113: real time    0.0113
    --------------------------------------------
      LOOP:  cpu time    9.8225: real time    9.8253

 eigenvalue-minimisations  :  1208
 total energy-change (2. order) :-0.1769292E+01  (-0.1766977E+01)
 number of electron     813.9998239 magnetization 
 augmentation part      294.3467410 magnetization 

 Broyden mixing:
  rms(total) = 0.10046E+02    rms(broyden)= 0.10038E+02
  rms(prec ) = 0.10572E+02
  weight for this iteration     100.00

 Free energy of the ion-electron system (eV)
  ---------------------------------------------------
  alpha Z        PSCENC =      1458.83996183
  Ewald energy   TEWEN  =    169082.92304008
  -Hartree energ DENC   =   -292699.15599135
  -exchange      EXHF   =         0.00000000
  -V(xc)+E(xc)   XCENC  =      3784.83437157
  PAW double counting   =    115860.90926010  -120909.33166199
  entropy T*S    EENTRO =        -1.17035231
  eigenvalues    EBANDS =    -16762.31306814
  atomic energy  EATOM  =    139780.45519414
  Solvation  Ediel_sol  =         0.00000000
  ---------------------------------------------------
  free energy    TOTEN  =      -404.00924607 eV

  energy without entropy =     -402.83889376  energy(sigma->0) =     -403.42406991


--------------------------------------------------------------------------------------------------------




--------------------------------------- Iteration      1(   6)  ---------------------------------------


    POTLOK:  cpu time    0.3427: real time    0.3428
    SETDIJ:  cpu time    0.0193: real time    0.0193
     EDDAV:  cpu time    9.5372: real time    9.5397
       DOS:  cpu time    0.0014: real time    0.0014
    CHARGE:  cpu time    0.2892: real time    0.2892
    MIXING:  cpu time    0.0103: real time    0.0103
    --------------------------------------------
      LOOP:  cpu time   10.2001: real time   10.2027

 eigenvalue-minimisations  :  1216
 total energy-change (2. order) :-0.7048660E+02  (-0.9932926E+02)
 number of electron     813.9997869 magnetization 
 augmentation part      355.9459187 magnetization 

 Broyden mixing:
  rms(total) = 0.16283E+02    rms(broyden)= 0.16281E+02
  rms(prec ) = 0.17055E+02
  weight for this iteration     100.00

 eigenvalues of (default mixing * dielectric matrix)
  average eigenvalue GAMMA=   0.2323
  0.2323

 Free energy of the ion-electron system (eV)
  ---------------------------------------------------
  alpha Z        PSCENC =      1458.83996183
  Ewald energy   TEWEN  =    169082.92304008
  -Hartree energ DENC   =   -289983.76971308
  -exchange      EXHF   =         0.00000000
  -V(xc)+E(xc)   XCENC  =      3709.65383270
  PAW double counting   =    121280.51702851  -126092.47410864
  entropy T*S    EENTRO =        -0.67103706
  eigenvalues    EBANDS =    -19709.97004835
  atomic energy  EATOM  =    139780.45519414
  Solvation  Ediel_sol  =         0.00000000
  ---------------------------------------------------
  free energy    TOTEN  =      -474.49584988 eV

  energy without entropy =     -473.82481281  energy(sigma->0) =     -474.16033135


--------------------------------------------------------------------------------------------------------




--------------------------------------- Iteration      1(   7)  ---------------------------------------


    POTLOK:  cpu time    0.3439: real time    0.3439
    SETDIJ:  cpu time    0.0192: real time    0.0192
     EDDAV:  cpu time    8.7776: real time    8.7788
       DOS:  cpu time    0.0013: real time    0.0013
    CHARGE:  cpu time    0.2961: real time    0.2961
    MIXING:  cpu time    0.0107: real time    0.0107
    --------------------------------------------
      LOOP:  cpu time    9.4488: real time    9.4500

 eigenvalue-minimisations  :  1088
 total energy-change (2. order) : 0.1037645E+03  (-0.2019804E+02)
 number of electron     813.9997932 magnetization 
 augmentation part      340.4032926 magnetization 

 Broyden mixing:
  rms(total) = 0.69564E+01    rms(broyden)= 0.69554E+01
  rms(prec ) = 0.73375E+01
  weight for this iteration     100.00

 eigenvalues of (default mixing * dielectric matrix)
  average eigenvalue GAMMA=   0.5486
  0.5738  0.5234

 Free energy of the ion-electron system (eV)
  ---------------------------------------------------
  alpha Z        PSCENC =      1458.83996183
  Ewald energy   TEWEN  =    169082.92304008
  -Hartree energ DENC   =   -291071.93707075
  -exchange      EXHF   =         0.00000000
  -V(xc)+E(xc)   XCENC  =      3736.37067153
  PAW double counting   =    126051.91978772  -131009.13920978
  entropy T*S    EENTRO =        -0.94503597
  eigenvalues    EBANDS =    -18399.21864104
  atomic energy  EATOM  =    139780.45519414
  Solvation  Ediel_sol  =         0.00000000
  ---------------------------------------------------
  free energy    TOTEN  =      -370.73130223 eV

  energy without entropy =     -369.78626626  energy(sigma->0) =     -370.25878425


--------------------------------------------------------------------------------------------------------




--------------------------------------- Iteration      1(   8)  ---------------------------------------


    POTLOK:  cpu time    0.3430: real time    0.3430
    SETDIJ:  cpu time    0.0192: real time    0.0192
     EDDAV:  cpu time   10.3381: real time   10.3409
       DOS:  cpu time    0.0013: real time    0.0013
    CHARGE:  cpu time    0.2947: real time    0.2947
    MIXING:  cpu time    0.0119: real time    0.0119
    --------------------------------------------
      LOOP:  cpu time   11.0082: real time   11.0110

 eigenvalue-minimisations  :  1352
 total energy-change (2. order) :-0.5288666E+02  (-0.2581443E+02)
 number of electron     813.9998184 magnetization 
 augmentation part      311.1861642 magnetization 

 Broyden mixing:
  rms(total) = 0.13236E+02    rms(broyden)= 0.13234E+02
  rms(prec ) = 0.15591E+02
  weight for this iteration     100.00

 eigenvalues of (default mixing * dielectric matrix)
  average eigenvalue GAMMA=   0.4937
  0.8667  0.4395  0.1749

 Free energy of the ion-electron system (eV)
  ---------------------------------------------------
  alpha Z        PSCENC =      1458.83996183
  Ewald energy   TEWEN  =    169082.92304008
  -Hartree energ DENC   =   -292162.42651956
  -exchange      EXHF   =         0.00000000
  -V(xc)+E(xc)   XCENC  =      3764.38174724
  PAW double counting   =    134671.76689928  -139778.13553551
  entropy T*S    EENTRO =        -1.02107974
  eigenvalues    EBANDS =    -17240.40166982
  atomic energy  EATOM  =    139780.45519414
  Solvation  Ediel_sol  =         0.00000000
  ---------------------------------------------------
  free energy    TOTEN  =      -423.61796206 eV

  energy without entropy =     -422.59688232  energy(sigma->0) =     -423.10742219


--------------------------------------------------------------------------------------------------------




--------------------------------------- Iteration      1(   9)  ---------------------------------------


    POTLOK:  cpu time    0.3395: real time    0.3399
    SETDIJ:  cpu time    0.0193: real time    0.0193
     EDDAV:  cpu time    9.8893: real time    9.8921
       DOS:  cpu time    0.0011: real time    0.0011
    CHARGE:  cpu time    0.2939: real time    0.2939
    MIXING:  cpu time    0.0113: real time    0.0113
    --------------------------------------------
      LOOP:  cpu time   10.5545: real time   10.5577

 eigenvalue-minimisations  :  1280
 total energy-change (2. order) : 0.5368370E+02  (-0.1024617E+02)
 number of electron     813.9998121 magnetization 
 augmentation part      313.0763665 magnetization 

 Broyden mixing:
  rms(total) = 0.51514E+01    rms(broyden)= 0.51472E+01
  rms(prec ) = 0.58142E+01
  weight for this iteration     100.00

 eigenvalues of (default mixing * dielectric matrix)
  average eigenvalue GAMMA=   0.7056
  1.8313  0.4301  0.4301  0.1308

 Free energy of the ion-electron system (eV)
  ---------------------------------------------------
  alpha Z        PSCENC =      1458.83996183
  Ewald energy   TEWEN  =    169082.92304008
  -Hartree energ DENC   =   -292126.83065115
  -exchange      EXHF   =         0.00000000
  -V(xc)+E(xc)   XCENC  =      3762.37869597
  PAW double counting   =    137353.95835548  -142471.05000021
  entropy T*S    EENTRO =        -1.11860621
  eigenvalues    EBANDS =    -17209.49024914
  atomic energy  EATOM  =    139780.45519414
  Solvation  Ediel_sol  =         0.00000000
  ---------------------------------------------------
  free energy    TOTEN  =      -369.93425920 eV

  energy without entropy =     -368.81565299  energy(sigma->0) =     -369.37495610


--------------------------------------------------------------------------------------------------------




--------------------------------------- Iteration      1(  10)  ---------------------------------------


    POTLOK:  cpu time    0.3449: real time    0.3449
    SETDIJ:  cpu time    0.0192: real time    0.0192
     EDDAV:  cpu time   10.4913: real time   10.4932
       DOS:  cpu time    0.0018: real time    0.0017
    CHARGE:  cpu time    0.2941: real time    0.2941
    MIXING:  cpu time    0.0119: real time    0.0119
    --------------------------------------------
      LOOP:  cpu time   11.1631: real time   11.1650

 eigenvalue-minimisations  :  1360
 total energy-change (2. order) :-0.2658518E+02  (-0.8977824E+01)
 number of electron     813.9997935 magnetization 
 augmentation part      310.8287963 magnetization 

 Broyden mixing:
  rms(total) = 0.10168E+02    rms(broyden)= 0.10165E+02
  rms(prec ) = 0.12305E+02
  weight for this iteration     100.00

 eigenvalues of (default mixing * dielectric matrix)
  average eigenvalue GAMMA=   0.6831
  2.2697  0.4368  0.4368  0.1361  0.1361

 Free energy of the ion-electron system (eV)
  ---------------------------------------------------
  alpha Z        PSCENC =      1458.83996183
  Ewald energy   TEWEN  =    169082.92304008
  -Hartree energ DENC   =   -292010.78253556
  -exchange      EXHF   =         0.00000000
  -V(xc)+E(xc)   XCENC  =      3758.55990281
  PAW double counting   =    144385.72846798  -149538.74468477
  entropy T*S    EENTRO =        -1.17522113
  eigenvalues    EBANDS =    -17312.32356646
  atomic energy  EATOM  =    139780.45519414
  Solvation  Ediel_sol  =         0.00000000
  ---------------------------------------------------
  free energy    TOTEN  =      -396.51944109 eV

  energy without entropy =     -395.34421995  energy(sigma->0) =     -395.93183052


--------------------------------------------------------------------------------------------------------




--------------------------------------- Iteration      1(  11)  ---------------------------------------


    POTLOK:  cpu time    0.3439: real time    0.3439
    SETDIJ:  cpu time    0.0195: real time    0.0195
     EDDAV:  cpu time   10.4005: real time   10.4031
       DOS:  cpu time    0.0013: real time    0.0013
    CHARGE:  cpu time    0.2915: real time    0.2915
    MIXING:  cpu time    0.0127: real time    0.0127
    --------------------------------------------
      LOOP:  cpu time   11.0695: real time   11.0722

 eigenvalue-minimisations  :  1352
 total energy-change (2. order) : 0.2636188E+02  (-0.6806245E+01)
 number of electron     813.9998054 magnetization 
 augmentation part      319.3869410 magnetization 

 Broyden mixing:
  rms(total) = 0.51392E+01    rms(broyden)= 0.51355E+01
  rms(prec ) = 0.61794E+01
  weight for this iteration     100.00

 eigenvalues of (default mixing * dielectric matrix)
  average eigenvalue GAMMA=   0.6149
  2.3444  0.4318  0.4318  0.2274  0.1534  0.1009

 Free energy of the ion-electron system (eV)
  ---------------------------------------------------
  alpha Z        PSCENC =      1458.83996183
  Ewald energy   TEWEN  =    169082.92304008
  -Hartree energ DENC   =   -291845.95386684
  -exchange      EXHF   =         0.00000000
  -V(xc)+E(xc)   XCENC  =      3754.99674320
  PAW double counting   =    147892.13110666  -153056.39111749
  entropy T*S    EENTRO =        -0.96865587
  eigenvalues    EBANDS =    -17436.18996723
  atomic energy  EATOM  =    139780.45519414
  Solvation  Ediel_sol  =         0.00000000
  ---------------------------------------------------
  free energy    TOTEN  =      -370.15756152 eV

  energy without entropy =     -369.18890565  energy(sigma->0) =     -369.67323358


--------------------------------------------------------------------------------------------------------




--------------------------------------- Iteration      1(  12)  ---------------------------------------


    POTLOK:  cpu time    0.3460: real time    0.3459
    SETDIJ:  cpu time    0.0192: real time    0.0192
     EDDAV:  cpu time   10.2675: real time   10.2732
       DOS:  cpu time    0.0013: real time    0.0013
    CHARGE:  cpu time    0.2909: real time    0.2909
    MIXING:  cpu time    0.0135: real time    0.0135
    --------------------------------------------
      LOOP:  cpu time   10.9384: real time   10.9440

 eigenvalue-minimisations  :  1336
 total energy-change (2. order) : 0.9532464E+01  (-0.2861993E+01)
 number of electron     813.9998085 magnetization 
 augmentation part      321.4085171 magnetization 

 Broyden mixing:
  rms(total) = 0.29767E+01    rms(broyden)= 0.29735E+01
  rms(prec ) = 0.34973E+01
  weight for this iteration     100.00

 eigenvalues of (default mixing * dielectric matrix)
  average eigenvalue GAMMA=   0.5911
  2.2902  0.5357  0.4510  0.4510  0.1583  0.1257  0.1257

 Free energy of the ion-electron system (eV)
  ---------------------------------------------------
  alpha Z        PSCENC =      1458.83996183
  Ewald energy   TEWEN  =    169082.92304008
  -Hartree energ DENC   =   -291823.08022985
  -exchange      EXHF   =         0.00000000
  -V(xc)+E(xc)   XCENC  =      3753.95147880
  PAW double counting   =    148544.32417297  -153710.09175295
  entropy T*S    EENTRO =        -1.08452771
  eigenvalues    EBANDS =    -17446.86243437
  atomic energy  EATOM  =    139780.45519414
  Solvation  Ediel_sol  =         0.00000000
  ---------------------------------------------------
  free energy    TOTEN  =      -360.62509705 eV

  energy without entropy =     -359.54056934  energy(sigma->0) =     -360.08283319


--------------------------------------------------------------------------------------------------------




--------------------------------------- Iteration      1(  13)  ---------------------------------------


    POTLOK:  cpu time    0.3450: real time    0.3453
    SETDIJ:  cpu time    0.0193: real time    0.0193
     EDDAV:  cpu time    9.8751: real time    9.8768
       DOS:  cpu time    0.0014: real time    0.0014
    CHARGE:  cpu time    0.2997: real time    0.2997
    MIXING:  cpu time    0.0136: real time    0.0136
    --------------------------------------------
      LOOP:  cpu time   10.5541: real time   10.5561

 eigenvalue-minimisations  :  1272
 total energy-change (2. order) : 0.2639476E+01  (-0.1723843E+01)
 number of electron     813.9998062 magnetization 
 augmentation part      321.4773233 magnetization 

 Broyden mixing:
  rms(total) = 0.30264E+01    rms(broyden)= 0.30249E+01
  rms(prec ) = 0.38131E+01
  weight for this iteration     100.00

 eigenvalues of (default mixing * dielectric matrix)
  average eigenvalue GAMMA=   0.5616
  2.2424  0.7195  0.4593  0.4593  0.1956  0.1541  0.1541  0.1081

 Free energy of the ion-electron system (eV)
  ---------------------------------------------------
  alpha Z        PSCENC =      1458.83996183
  Ewald energy   TEWEN  =    169082.92304008
  -Hartree energ DENC   =   -291847.22747531
  -exchange      EXHF   =         0.00000000
  -V(xc)+E(xc)   XCENC  =      3754.13244071
  PAW double counting   =    147970.28634767  -153133.12390758
  entropy T*S    EENTRO =        -1.04513128
  eigenvalues    EBANDS =    -17423.22609083
  atomic energy  EATOM  =    139780.45519414
  Solvation  Ediel_sol  =         0.00000000
  ---------------------------------------------------
  free energy    TOTEN  =      -357.98562058 eV

  energy without entropy =     -356.94048929  energy(sigma->0) =     -357.46305493


--------------------------------------------------------------------------------------------------------




--------------------------------------- Iteration      1(  14)  ---------------------------------------


    POTLOK:  cpu time    0.3434: real time    0.3434
    SETDIJ:  cpu time    0.0192: real time    0.0192
     EDDAV:  cpu time   10.2756: real time   10.2769
       DOS:  cpu time    0.0014: real time    0.0014
    CHARGE:  cpu time    0.2939: real time    0.2940
    MIXING:  cpu time    0.0153: real time    0.0153
    --------------------------------------------
      LOOP:  cpu time   10.9488: real time   10.9502

 eigenvalue-minimisations  :  1344
 total energy-change (2. order) : 0.3518403E+01  (-0.9136432E+00)
 number of electron     813.9998073 magnetization 
 augmentation part      321.2437064 magnetization 

 Broyden mixing:
  rms(total) = 0.18194E+01    rms(broyden)= 0.18178E+01
  rms(prec ) = 0.21257E+01
  weight for this iteration     100.00

 eigenvalues of (default mixing * dielectric matrix)
  average eigenvalue GAMMA=   0.5326
  2.2010  0.5812  0.5812  0.4330  0.4330  0.1579  0.1579  0.1391  0.1091

 Free energy of the ion-electron system (eV)
  ---------------------------------------------------
  alpha Z        PSCENC =      1458.83996183
  Ewald energy   TEWEN  =    169082.92304008
  -Hartree energ DENC   =   -291876.27798902
  -exchange      EXHF   =         0.00000000
  -V(xc)+E(xc)   XCENC  =      3754.44531758
  PAW double counting   =    147557.41576233  -152718.27028556
  entropy T*S    EENTRO =        -1.02053082
  eigenvalues    EBANDS =    -17392.97768809
  atomic energy  EATOM  =    139780.45519414
  Solvation  Ediel_sol  =         0.00000000
  ---------------------------------------------------
  free energy    TOTEN  =      -354.46721752 eV

  energy without entropy =     -353.44668670  energy(sigma->0) =     -353.95695211


--------------------------------------------------------------------------------------------------------




--------------------------------------- Iteration      1(  15)  ---------------------------------------


    POTLOK:  cpu time    0.3457: real time    0.3457
    SETDIJ:  cpu time    0.0192: real time    0.0192
     EDDAV:  cpu time   10.3352: real time   10.3376
       DOS:  cpu time    0.0012: real time    0.0012
    CHARGE:  cpu time    0.2931: real time    0.2931
    MIXING:  cpu time    0.0147: real time    0.0147
    --------------------------------------------
      LOOP:  cpu time   11.0091: real time   11.0115

 eigenvalue-minimisations  :  1352
 total energy-change (2. order) : 0.9360416E+00  (-0.2143223E+00)
 number of electron     813.9998061 magnetization 
 augmentation part      321.1068098 magnetization 

 Broyden mixing:
  rms(total) = 0.15740E+01    rms(broyden)= 0.15737E+01
  rms(prec ) = 0.18484E+01
  weight for this iteration     100.00

 eigenvalues of (default mixing * dielectric matrix)
  average eigenvalue GAMMA=   0.5287
  2.2023  0.7207  0.7207  0.4363  0.4363  0.1871  0.1871  0.1444  0.1444  0.1075

 Free energy of the ion-electron system (eV)
  ---------------------------------------------------
  alpha Z        PSCENC =      1458.83996183
  Ewald energy   TEWEN  =    169082.92304008
  -Hartree energ DENC   =   -291889.05921413
  -exchange      EXHF   =         0.00000000
  -V(xc)+E(xc)   XCENC  =      3754.71705249
  PAW double counting   =    147201.43815805  -152359.80613970
  entropy T*S    EENTRO =        -1.09156239
  eigenvalues    EBANDS =    -17381.94766625
  atomic energy  EATOM  =    139780.45519414
  Solvation  Ediel_sol  =         0.00000000
  ---------------------------------------------------
  free energy    TOTEN  =      -353.53117588 eV

  energy without entropy =     -352.43961349  energy(sigma->0) =     -352.98539468


--------------------------------------------------------------------------------------------------------




--------------------------------------- Iteration      1(  16)  ---------------------------------------


    POTLOK:  cpu time    0.3470: real time    0.3480
    SETDIJ:  cpu time    0.0192: real time    0.0192
     EDDAV:  cpu time    9.9556: real time    9.9610
       DOS:  cpu time    0.0013: real time    0.0013
    CHARGE:  cpu time    0.2936: real time    0.2936
    MIXING:  cpu time    0.0150: real time    0.0150
    --------------------------------------------
      LOOP:  cpu time   10.6316: real time   10.6381

 eigenvalue-minimisations  :  1280
 total energy-change (2. order) : 0.4023612E+00  (-0.9649197E-01)
 number of electron     813.9998072 magnetization 
 augmentation part      321.0463800 magnetization 

 Broyden mixing:
  rms(total) = 0.13625E+01    rms(broyden)= 0.13623E+01
  rms(prec ) = 0.16305E+01
  weight for this iteration     100.00

 eigenvalues of (default mixing * dielectric matrix)
  average eigenvalue GAMMA=   0.5181
  2.1858  0.8192  0.8192  0.4332  0.4332  0.2784  0.1801  0.1549  0.1549  0.1091
  0.1312

 Free energy of the ion-electron system (eV)
  ---------------------------------------------------
  alpha Z        PSCENC =      1458.83996183
  Ewald energy   TEWEN  =    169082.92304008
  -Hartree energ DENC   =   -291899.83078794
  -exchange      EXHF   =         0.00000000
  -V(xc)+E(xc)   XCENC  =      3754.90509178
  PAW double counting   =    147032.87035518  -152189.64649509
  entropy T*S    EENTRO =        -1.03653304
  eigenvalues    EBANDS =    -17372.60864161
  atomic energy  EATOM  =    139780.45519414
  Solvation  Ediel_sol  =         0.00000000
  ---------------------------------------------------
  free energy    TOTEN  =      -353.12881467 eV

  energy without entropy =     -352.09228163  energy(sigma->0) =     -352.61054815


--------------------------------------------------------------------------------------------------------




--------------------------------------- Iteration      1(  17)  ---------------------------------------


    POTLOK:  cpu time    0.3447: real time    0.3447
    SETDIJ:  cpu time    0.0191: real time    0.0191
     EDDAV:  cpu time   10.2372: real time   10.2395
       DOS:  cpu time    0.0013: real time    0.0013
    CHARGE:  cpu time    0.2990: real time    0.2990
    MIXING:  cpu time    0.0162: real time    0.0162
    --------------------------------------------
      LOOP:  cpu time   10.9177: real time   10.9199

 eigenvalue-minimisations  :  1336
 total energy-change (2. order) : 0.3066539E+00  (-0.3290636E-01)
 number of electron     813.9998070 magnetization 
 augmentation part      320.9208945 magnetization 

 Broyden mixing:
  rms(total) = 0.12671E+01    rms(broyden)= 0.12671E+01
  rms(prec ) = 0.15110E+01
  weight for this iteration     100.00

 eigenvalues of (default mixing * dielectric matrix)
  average eigenvalue GAMMA=   0.5367
  2.1848  1.0059  1.0059  0.4440  0.4440  0.4234  0.2144  0.1680  0.1680  0.1079
  0.1370  0.1370

 Free energy of the ion-electron system (eV)
  ---------------------------------------------------
  alpha Z        PSCENC =      1458.83996183
  Ewald energy   TEWEN  =    169082.92304008
  -Hartree energ DENC   =   -291909.55515230
  -exchange      EXHF   =         0.00000000
  -V(xc)+E(xc)   XCENC  =      3754.99525115
  PAW double counting   =    146841.85645116  -151996.62393561
  entropy T*S    EENTRO =        -1.06623912
  eigenvalues    EBANDS =    -17364.64673212
  atomic energy  EATOM  =    139780.45519414
  Solvation  Ediel_sol  =         0.00000000
  ---------------------------------------------------
  free energy    TOTEN  =      -352.82216079 eV

  energy without entropy =     -351.75592167  energy(sigma->0) =     -352.28904123


--------------------------------------------------------------------------------------------------------




--------------------------------------- Iteration      1(  18)  ---------------------------------------


    POTLOK:  cpu time    0.3471: real time    0.3472
    SETDIJ:  cpu time    0.0191: real time    0.0192
     EDDAV:  cpu time   10.3230: real time   10.3243
       DOS:  cpu time    0.0013: real time    0.0013
    CHARGE:  cpu time    0.3002: real time    0.3003
    MIXING:  cpu time    0.0170: real time    0.0170
    --------------------------------------------
      LOOP:  cpu time   11.0077: real time   11.0091

 eigenvalue-minimisations  :  1352
 total energy-change (2. order) : 0.4188829E+00  (-0.2708065E-01)
 number of electron     813.9998068 magnetization 
 augmentation part      320.6848398 magnetization 

 Broyden mixing:
  rms(total) = 0.11171E+01    rms(broyden)= 0.11170E+01
  rms(prec ) = 0.13343E+01
  weight for this iteration     100.00

 eigenvalues of (default mixing * dielectric matrix)
  average eigenvalue GAMMA=   0.5834
  2.1769  1.3612  1.3612  0.4660  0.4660  0.4316  0.4316  0.1749  0.1749  0.1082
  0.1492  0.1492  0.1326

 Free energy of the ion-electron system (eV)
  ---------------------------------------------------
  alpha Z        PSCENC =      1458.83996183
  Ewald energy   TEWEN  =    169082.92304008
  -Hartree energ DENC   =   -291929.21599406
  -exchange      EXHF   =         0.00000000
  -V(xc)+E(xc)   XCENC  =      3755.11740712
  PAW double counting   =    146515.06225525  -151665.91673493
  entropy T*S    EENTRO =        -1.07074942
  eigenvalues    EBANDS =    -17348.59765795
  atomic energy  EATOM  =    139780.45519414
  Solvation  Ediel_sol  =         0.00000000
  ---------------------------------------------------
  free energy    TOTEN  =      -352.40327793 eV

  energy without entropy =     -351.33252851  energy(sigma->0) =     -351.86790322


--------------------------------------------------------------------------------------------------------




--------------------------------------- Iteration      1(  19)  ---------------------------------------


    POTLOK:  cpu time    0.3477: real time    0.3477
    SETDIJ:  cpu time    0.0194: real time    0.0194
     EDDAV:  cpu time   10.3110: real time   10.3130
       DOS:  cpu time    0.0015: real time    0.0015
    CHARGE:  cpu time    0.2991: real time    0.2991
    MIXING:  cpu time    0.0179: real time    0.0179
    --------------------------------------------
      LOOP:  cpu time   10.9965: real time   10.9985

 eigenvalue-minimisations  :  1344
 total energy-change (2. order) : 0.4618617E+00  (-0.4154335E-01)
 number of electron     813.9998074 magnetization 
 augmentation part      320.6052555 magnetization 

 Broyden mixing:
  rms(total) = 0.90382E+00    rms(broyden)= 0.90365E+00
  rms(prec ) = 0.10592E+01
  weight for this iteration     100.00

 eigenvalues of (default mixing * dielectric matrix)
  average eigenvalue GAMMA=   0.6262
  2.1494  1.7491  1.7491  0.5751  0.5751  0.4472  0.4472  0.1970  0.1082  0.1691
  0.1691  0.1484  0.1484  0.1341

 Free energy of the ion-electron system (eV)
  ---------------------------------------------------
  alpha Z        PSCENC =      1458.83996183
  Ewald energy   TEWEN  =    169082.92304008
  -Hartree energ DENC   =   -291951.00630136
  -exchange      EXHF   =         0.00000000
  -V(xc)+E(xc)   XCENC  =      3755.16690273
  PAW double counting   =    146052.38385750  -151197.55971994
  entropy T*S    EENTRO =        -1.08706541
  eigenvalues    EBANDS =    -17332.05728577
  atomic energy  EATOM  =    139780.45519414
  Solvation  Ediel_sol  =         0.00000000
  ---------------------------------------------------
  free energy    TOTEN  =      -351.94141620 eV

  energy without entropy =     -350.85435079  energy(sigma->0) =     -351.39788349


--------------------------------------------------------------------------------------------------------




--------------------------------------- Iteration      1(  20)  ---------------------------------------


    POTLOK:  cpu time    0.3487: real time    0.3490
    SETDIJ:  cpu time    0.0192: real time    0.0192
     EDDAV:  cpu time   10.8223: real time   10.8244
       DOS:  cpu time    0.0014: real time    0.0014
    CHARGE:  cpu time    0.3049: real time    0.3050
    MIXING:  cpu time    0.0176: real time    0.0176
    --------------------------------------------
      LOOP:  cpu time   11.5141: real time   11.5166

 eigenvalue-minimisations  :  1440
 total energy-change (2. order) : 0.5216807E+00  (-0.6243735E-01)
 number of electron     813.9998074 magnetization 
 augmentation part      320.5239084 magnetization 

 Broyden mixing:
  rms(total) = 0.45415E+00    rms(broyden)= 0.45365E+00
  rms(prec ) = 0.52435E+00
  weight for this iteration     100.00

 eigenvalues of (default mixing * dielectric matrix)
  average eigenvalue GAMMA=   0.6264
  2.1313  1.8971  1.8971  0.6225  0.6225  0.4418  0.4418  0.2865  0.1082  0.1792
  0.1792  0.1568  0.1493  0.1493  0.1328

 Free energy of the ion-electron system (eV)
  ---------------------------------------------------
  alpha Z        PSCENC =      1458.83996183
  Ewald energy   TEWEN  =    169082.92304008
  -Hartree energ DENC   =   -291983.01528570
  -exchange      EXHF   =         0.00000000
  -V(xc)+E(xc)   XCENC  =      3755.28531339
  PAW double counting   =    145307.79205683  -150444.08615924
  entropy T*S    EENTRO =        -1.10666117
  eigenvalues    EBANDS =    -17308.50719567
  atomic energy  EATOM  =    139780.45519414
  Solvation  Ediel_sol  =         0.00000000
  ---------------------------------------------------
  free energy    TOTEN  =      -351.41973550 eV

  energy without entropy =     -350.31307433  energy(sigma->0) =     -350.86640492


--------------------------------------------------------------------------------------------------------




--------------------------------------- Iteration      1(  21)  ---------------------------------------


    POTLOK:  cpu time    0.3504: real time    0.3504
    SETDIJ:  cpu time    0.0192: real time    0.0192
     EDDAV:  cpu time   10.1732: real time   10.1755
       DOS:  cpu time    0.0014: real time    0.0014
    CHARGE:  cpu time    0.3035: real time    0.3035
    MIXING:  cpu time    0.0186: real time    0.0186
    --------------------------------------------
      LOOP:  cpu time   10.8663: real time   10.8686

 eigenvalue-minimisations  :  1328
 total energy-change (2. order) : 0.6338375E-01  (-0.4973934E-01)
 number of electron     813.9998066 magnetization 
 augmentation part      320.5800304 magnetization 

 Broyden mixing:
  rms(total) = 0.33124E+00    rms(broyden)= 0.33071E+00
  rms(prec ) = 0.38008E+00
  weight for this iteration     100.00

 eigenvalues of (default mixing * dielectric matrix)
  average eigenvalue GAMMA=   0.6138
  2.1061  1.9479  1.9479  0.6497  0.6497  0.4399  0.4399  0.4315  0.2000  0.1082
  0.1640  0.1640  0.1584  0.1438  0.1438  0.1264

 Free energy of the ion-electron system (eV)
  ---------------------------------------------------
  alpha Z        PSCENC =      1458.83996183
  Ewald energy   TEWEN  =    169082.92304008
  -Hartree energ DENC   =   -291997.98743312
  -exchange      EXHF   =         0.00000000
  -V(xc)+E(xc)   XCENC  =      3755.28703253
  PAW double counting   =    144945.85664022  -150077.62007996
  entropy T*S    EENTRO =        -1.11390765
  eigenvalues    EBANDS =    -17297.99679984
  atomic energy  EATOM  =    139780.45519414
  Solvation  Ediel_sol  =         0.00000000
  ---------------------------------------------------
  free energy    TOTEN  =      -351.35635176 eV

  energy without entropy =     -350.24244411  energy(sigma->0) =     -350.79939793


--------------------------------------------------------------------------------------------------------




--------------------------------------- Iteration      1(  22)  ---------------------------------------


    POTLOK:  cpu time    0.3518: real time    0.3519
    SETDIJ:  cpu time    0.0200: real time    0.0200
     EDDAV:  cpu time    9.4926: real time    9.4945
       DOS:  cpu time    0.0012: real time    0.0012
    CHARGE:  cpu time    0.2953: real time    0.2953
    MIXING:  cpu time    0.0194: real time    0.0194
    --------------------------------------------
      LOOP:  cpu time   10.1803: real time   10.1823

 eigenvalue-minimisations  :  1192
 total energy-change (2. order) : 0.2128269E-01  (-0.1558314E-01)
 number of electron     813.9998072 magnetization 
 augmentation part      320.5458161 magnetization 

 Broyden mixing:
  rms(total) = 0.23678E+00    rms(broyden)= 0.23667E+00
  rms(prec ) = 0.26170E+00
  weight for this iteration     100.00

 eigenvalues of (default mixing * dielectric matrix)
  average eigenvalue GAMMA=   0.5962
  2.0866  1.9612  1.9612  0.6771  0.6771  0.4422  0.4422  0.4481  0.2318  0.1801
  0.1801  0.1082  0.1572  0.1572  0.1466  0.1466  0.1327

 Free energy of the ion-electron system (eV)
  ---------------------------------------------------
  alpha Z        PSCENC =      1458.83996183
  Ewald energy   TEWEN  =    169082.92304008
  -Hartree energ DENC   =   -292007.48873759
  -exchange      EXHF   =         0.00000000
  -V(xc)+E(xc)   XCENC  =      3755.30600016
  PAW double counting   =    144797.70352217  -149927.81472006
  entropy T*S    EENTRO =        -1.11980929
  eigenvalues    EBANDS =    -17290.13952051
  atomic energy  EATOM  =    139780.45519414
  Solvation  Ediel_sol  =         0.00000000
  ---------------------------------------------------
  free energy    TOTEN  =      -351.33506907 eV

  energy without entropy =     -350.21525978  energy(sigma->0) =     -350.77516442


--------------------------------------------------------------------------------------------------------




--------------------------------------- Iteration      1(  23)  ---------------------------------------


    POTLOK:  cpu time    0.3562: real time    0.3562
    SETDIJ:  cpu time    0.0194: real time    0.0194
     EDDAV:  cpu time    8.8338: real time    8.8354
       DOS:  cpu time    0.0013: real time    0.0013
    CHARGE:  cpu time    0.3000: real time    0.3000
    MIXING:  cpu time    0.0200: real time    0.0200
    --------------------------------------------
      LOOP:  cpu time    9.5307: real time    9.5323

 eigenvalue-minimisations  :  1144
 total energy-change (2. order) : 0.2885610E-02  (-0.5612467E-02)
 number of electron     813.9998068 magnetization 
 augmentation part      320.5553793 magnetization 

 Broyden mixing:
  rms(total) = 0.22551E+00    rms(broyden)= 0.22543E+00
  rms(prec ) = 0.25448E+00
  weight for this iteration     100.00

 eigenvalues of (default mixing * dielectric matrix)
  average eigenvalue GAMMA=   0.6147
  2.0675  1.9171  1.9171  0.8882  0.8882  0.5531  0.5531  0.4497  0.4497  0.2067
  0.1746  0.1684  0.1684  0.1082  0.1478  0.1478  0.1350  0.1239

 Free energy of the ion-electron system (eV)
  ---------------------------------------------------
  alpha Z        PSCENC =      1458.83996183
  Ewald energy   TEWEN  =    169082.92304008
  -Hartree energ DENC   =   -292012.15928831
  -exchange      EXHF   =         0.00000000
  -V(xc)+E(xc)   XCENC  =      3755.32421792
  PAW double counting   =    144729.42672178  -149858.97773108
  entropy T*S    EENTRO =        -1.13227272
  eigenvalues    EBANDS =    -17286.03202710
  atomic energy  EATOM  =    139780.45519414
  Solvation  Ediel_sol  =         0.00000000
  ---------------------------------------------------
  free energy    TOTEN  =      -351.33218346 eV

  energy without entropy =     -350.19991074  energy(sigma->0) =     -350.76604710


--------------------------------------------------------------------------------------------------------




--------------------------------------- Iteration      1(  24)  ---------------------------------------


    POTLOK:  cpu time    0.4517: real time    0.4520
    SETDIJ:  cpu time    0.0373: real time    0.0373
     EDDAV:  cpu time    9.4406: real time    9.4421
       DOS:  cpu time    0.0013: real time    0.0013
    CHARGE:  cpu time    0.2952: real time    0.2952
    MIXING:  cpu time    0.0223: real time    0.0223
    --------------------------------------------
      LOOP:  cpu time   10.2484: real time   10.2502

 eigenvalue-minimisations  :  1240
 total energy-change (2. order) : 0.5073690E-02  (-0.4845652E-02)
 number of electron     813.9998069 magnetization 
 augmentation part      320.7049816 magnetization 

 Broyden mixing:
  rms(total) = 0.20026E+00    rms(broyden)= 0.20015E+00
  rms(prec ) = 0.22305E+00
  weight for this iteration     100.00

 eigenvalues of (default mixing * dielectric matrix)
  average eigenvalue GAMMA=   0.6107
  2.0094  1.8317  1.8317  1.1211  1.1211  0.5968  0.5968  0.4478  0.4478  0.2526
  0.1900  0.1082  0.1715  0.1715  0.1518  0.1518  0.1389  0.1389  0.1239

 Free energy of the ion-electron system (eV)
  ---------------------------------------------------
  alpha Z        PSCENC =      1458.83996183
  Ewald energy   TEWEN  =    169082.92304008
  -Hartree energ DENC   =   -292014.96889529
  -exchange      EXHF   =         0.00000000
  -V(xc)+E(xc)   XCENC  =      3755.31359251
  PAW double counting   =    144719.76965657  -149849.70004462
  entropy T*S    EENTRO =        -1.10519940
  eigenvalues    EBANDS =    -17282.85441558
  atomic energy  EATOM  =    139780.45519414
  Solvation  Ediel_sol  =         0.00000000
  ---------------------------------------------------
  free energy    TOTEN  =      -351.32710977 eV

  energy without entropy =     -350.22191037  energy(sigma->0) =     -350.77451007


--------------------------------------------------------------------------------------------------------




--------------------------------------- Iteration      1(  25)  ---------------------------------------


    POTLOK:  cpu time    0.3540: real time    0.3541
    SETDIJ:  cpu time    0.0192: real time    0.0192
     EDDAV:  cpu time    9.6544: real time    9.6561
       DOS:  cpu time    0.0013: real time    0.0013
    CHARGE:  cpu time    0.2902: real time    0.2903
    MIXING:  cpu time    0.0249: real time    0.0249
    --------------------------------------------
      LOOP:  cpu time   10.3441: real time   10.3460

 eigenvalue-minimisations  :  1240
 total energy-change (2. order) : 0.2064888E-02  (-0.5115629E-02)
 number of electron     813.9998070 magnetization 
 augmentation part      320.7146162 magnetization 

 Broyden mixing:
  rms(total) = 0.16978E+00    rms(broyden)= 0.16963E+00
  rms(prec ) = 0.19624E+00
  weight for this iteration     100.00

 eigenvalues of (default mixing * dielectric matrix)
  average eigenvalue GAMMA=   0.6336
  2.0831  1.6800  1.6800  1.5156  1.5156  0.6603  0.6603  0.4463  0.4463  0.4540
  0.1945  0.1945  0.1686  0.1686  0.1082  0.1495  0.1495  0.1377  0.1377  0.1219

 Free energy of the ion-electron system (eV)
  ---------------------------------------------------
  alpha Z        PSCENC =      1458.83996183
  Ewald energy   TEWEN  =    169082.92304008
  -Hartree energ DENC   =   -292020.49217133
  -exchange      EXHF   =         0.00000000
  -V(xc)+E(xc)   XCENC  =      3755.33493058
  PAW double counting   =    144685.82058004  -149815.78978332
  entropy T*S    EENTRO =        -1.12258001
  eigenvalues    EBANDS =    -17277.29421690
  atomic energy  EATOM  =    139780.45519414
  Solvation  Ediel_sol  =         0.00000000
  ---------------------------------------------------
[...]
  Alpha Z  1458.83996  1458.83996  1458.83996
  Ewald  220431.09670218512.62073************   403.37466   646.08324   684.84928
  Hartree254841.27389253899.30313************   404.77177   562.77545   345.20418
  E(xc)   -5194.47467 -5195.70359 -5203.74335    -0.17659     0.18800     0.91588
  Local  ************************473548.03617  -816.64989 -1201.05159 -1010.62121
  n-local  -595.65827  -610.57684  -615.90824    -2.54332    -1.25265     3.81330
  augment  5930.60431  5952.10119  5973.65275     2.41408    -2.04080    -9.98261
  Kinetic 11379.16344 11400.53425 11522.52516     8.02559    -4.04520   -15.31398
  Fock        0.00000     0.00000     0.00000     0.00000     0.00000     0.00000
  -------------------------------------------------------------------------------------
  Total     125.86327   120.22890   146.65116    -0.78369     0.65646    -1.13517
  in kB      74.86651    71.51505    87.23165    -0.46616     0.39048    -0.67523
  external pressure =       77.87 kB  Pullay stress =        0.00 kB


 VOLUME and BASIS-vectors are now :
 -----------------------------------------------------------------------------
  energy-cutoff  :      450.00
  volume of cell :     2693.53
      direct lattice vectors                 reciprocal lattice vectors
    16.884694054  0.000000000  0.000000000     0.059225237  0.000000000  0.000000000
     0.000000000  9.578410000  0.000000000     0.000000000  0.104401461  0.000000000
     0.000000000  0.000000000 16.654645685     0.000000000  0.000000000  0.060043307

  length of vectors
    16.884694054  9.578410000 16.654645685     0.059225237  0.104401461  0.060043307


 FORCES acting on ions
    electron-ion (+dipol)            ewald-force                    non-local-force                 convergence-correction
 -----------------------------------------------------------------------------------------------
   0.635E+03 0.636E+03 0.205E+04   -.639E+03 -.638E+03 -.206E+04   0.392E+01 0.303E+01 0.477E+01   0.467E-02 -.897E-02 -.922E-02
   0.496E+03 0.163E+03 -.285E+04   -.499E+03 -.165E+03 0.285E+04   0.237E+01 0.201E+01 0.151E+01   0.946E-02 -.105E-01 -.655E-02
   0.142E+03 0.564E+02 0.288E+04   -.142E+03 -.568E+02 -.289E+04   0.135E+01 0.565E+00 0.719E+01   -.997E-02 0.140E-02 0.132E-01
   0.268E+03 -.163E+02 -.133E+04   -.270E+03 0.162E+02 0.134E+04   0.234E+01 -.270E+00 -.513E+01   -.155E-01 0.776E-02 -.231E-01
   -.181E+03 -.294E+03 0.207E+04   0.183E+03 0.294E+03 -.207E+04   -.758E+00 0.911E+00 0.493E+01   0.100E-01 0.143E-02 -.102E-01
   0.827E+02 0.141E+03 -.207E+04   -.862E+02 -.140E+03 0.208E+04   0.257E+01 -.147E+00 -.713E+01   -.122E-01 -.155E-01 -.364E-01
   0.957E+03 -.139E+03 0.143E+04   -.963E+03 0.139E+03 -.143E+04   0.522E+01 -.595E+00 0.424E+01   0.186E-01 0.856E-02 0.653E-03
   0.771E+03 -.328E+02 -.320E+04   -.776E+03 0.328E+02 0.321E+04   0.330E+01 0.190E+00 -.369E+01   0.153E-01 0.434E-02 -.213E-01
   0.507E+03 -.126E+02 0.421E+04   -.511E+03 0.124E+02 -.422E+04   0.343E+01 0.208E+00 0.361E+01   0.663E-02 0.323E-02 0.974E-03
   0.741E+03 0.919E+01 0.310E+03   -.746E+03 -.914E+01 -.308E+03   0.362E+01 -.578E-02 -.721E+00   -.151E-02 -.631E-03 -.261E-01
   0.460E+02 0.598E+01 -.361E+04   -.494E+02 -.574E+01 0.361E+04   0.442E+01 -.337E+00 -.413E-01   -.539E-02 -.450E-02 -.745E-02
   -.574E+03 -.375E+03 0.190E+04   0.576E+03 0.376E+03 -.190E+04   -.108E+01 -.129E+01 0.319E+01   -.100E-01 0.344E-02 -.164E-01
   0.224E+03 -.272E+03 -.236E+04   -.228E+03 0.271E+03 0.237E+04   0.257E+01 0.402E+00 -.724E+01   0.572E-02 0.143E-01 -.118E-01
   0.744E+02 0.533E+03 0.240E+04   -.703E+02 -.537E+03 -.241E+04   -.323E+01 0.422E+01 0.542E+01   0.549E-02 -.166E-01 0.422E-03
   0.275E+03 0.547E+03 -.225E+04   -.275E+03 -.550E+03 0.225E+04   -.864E+00 0.242E+01 -.381E+01   -.387E-02 -.226E-01 -.161E-01
   -.242E+03 0.419E+03 0.394E+04   0.241E+03 -.420E+03 -.395E+04   0.103E+01 0.810E+00 0.561E+01   -.158E-01 -.437E-02 0.173E-01
   -.368E+03 0.427E+03 0.292E+03   0.367E+03 -.431E+03 -.294E+03   0.428E+00 0.343E+01 -.332E+00   -.250E-01 0.128E-01 -.470E-01
   -.278E+03 -.111E+03 -.361E+04   0.279E+03 0.107E+03 0.361E+04   -.122E+01 0.457E+01 0.975E+00   -.709E-02 0.673E-02 -.218E-01
   -.371E+03 0.239E+03 0.344E+04   0.371E+03 -.238E+03 -.345E+04   0.195E+00 -.777E+00 0.559E+01   -.134E-01 0.281E-02 -.832E-02
   -.666E+03 0.774E+03 -.811E+03   0.671E+03 -.780E+03 0.815E+03   -.331E+01 0.559E+01 -.487E+01   -.847E-02 -.407E-02 -.204E-01
   0.278E+03 0.520E+03 0.198E+04   -.279E+03 -.523E+03 -.199E+04   0.116E+01 0.285E+01 0.409E+01   0.817E-02 0.260E-01 0.406E-02
   -.250E+03 0.384E+03 -.279E+04   0.253E+03 -.391E+03 0.279E+04   -.183E+01 0.478E+01 -.344E+01   -.521E-02 0.298E-01 -.203E-01
   -.624E+01 0.563E+03 0.916E+03   0.557E+01 -.567E+03 -.917E+03   0.949E+00 0.271E+01 0.120E+01   0.182E-01 -.181E-01 -.608E-02
   -.331E+03 0.199E+03 -.347E+04   0.331E+03 -.202E+03 0.347E+04   -.329E+00 0.388E+01 0.294E+01   0.944E-02 -.237E-01 -.155E-01
   0.113E+03 -.652E+03 0.250E+04   -.115E+03 0.655E+03 -.251E+04   0.154E+01 -.187E+01 0.783E+01   0.312E-02 0.301E-02 -.102E-01
   -.183E+03 0.130E+03 -.170E+04   0.185E+03 -.133E+03 0.171E+04   -.148E+01 0.265E+01 -.698E+01   0.166E-01 0.817E-02 -.112E-01
   -.320E+03 -.217E+03 0.247E+04   0.326E+03 0.219E+03 -.248E+04   -.522E+01 -.272E+01 0.568E+01   0.531E-02 0.268E-02 -.704E-02
   0.196E+03 -.456E+03 -.228E+04   -.194E+03 0.459E+03 0.228E+04   -.318E+01 -.199E+01 -.400E+01   -.143E-03 0.731E-02 -.108E-01
   -.616E+03 -.205E+03 0.383E+04   0.614E+03 0.205E+03 -.383E+04   0.207E+01 0.244E-01 -.165E+01   -.300E-02 0.716E-02 0.126E-01
   -.686E+03 -.349E+03 -.590E+03   0.687E+03 0.351E+03 0.595E+03   -.247E+00 -.290E+01 -.429E+01   -.173E-01 0.269E-03 -.872E-02
   -.123E+03 -.481E+03 0.343E+04   0.125E+03 0.479E+03 -.343E+04   -.196E+01 0.269E+01 -.942E+00   -.131E-01 -.780E-02 -.142E-01
   -.498E+03 -.236E+03 -.119E+04   0.501E+03 0.240E+03 0.119E+04   -.202E+01 -.405E+01 -.432E+01   -.304E-02 -.891E-02 -.335E-01
   0.240E+03 -.549E+03 0.199E+04   -.241E+03 0.553E+03 -.200E+04   0.771E+00 -.276E+01 0.428E+01   -.144E-02 -.228E-01 0.352E-02
   -.251E+03 -.404E+03 -.277E+04   0.254E+03 0.410E+03 0.278E+04   -.178E+01 -.477E+01 -.385E+01   -.486E-02 -.270E-01 -.204E-01
   -.212E+03 -.580E+03 0.105E+04   0.212E+03 0.584E+03 -.105E+04   0.664E+00 -.342E+01 0.722E+00   0.119E-01 0.185E-01 -.204E-01
   -.176E+03 -.129E+03 -.322E+04   0.177E+03 0.132E+03 0.322E+04   -.944E+00 -.323E+01 0.169E+01   -.762E-02 0.103E-01 -.266E-01
   -.116E+03 -.572E+03 -.107E+04   0.119E+03 0.577E+03 0.107E+04   -.226E+01 -.476E+01 -.135E+01   0.148E-01 0.416E-02 -.760E-02
   0.142E+03 0.852E+01 -.162E+04   -.141E+03 -.855E+01 0.163E+04   -.104E+01 0.653E-01 -.166E+01   -.155E-01 -.452E-02 -.118E-02
   -.143E+03 0.128E+02 0.336E+03   0.145E+03 -.130E+02 -.340E+03   0.161E+00 0.270E+00 0.151E+01   -.647E-02 -.690E-02 -.569E-02
   -.424E+03 0.104E+03 0.130E+04   0.427E+03 -.107E+03 -.130E+04   -.227E+01 0.286E+01 0.257E+01   -.373E-02 -.122E-02 0.341E-02
   -.119E+03 -.254E+03 -.898E+03   0.118E+03 0.257E+03 0.904E+03   0.108E+01 -.139E+01 -.386E+01   -.410E-02 0.154E-01 -.169E-01
   -.288E+03 0.357E+03 0.907E+03   0.290E+03 -.359E+03 -.910E+03   -.453E+00 0.144E+01 0.175E+01   -.654E-02 0.128E-02 -.782E-02
   -.900E+02 0.903E+02 -.111E+04   0.915E+02 -.903E+02 0.112E+04   -.694E+00 0.221E+00 -.205E+01   0.260E-02 -.286E-02 -.266E-02
   0.155E+03 -.274E+02 0.176E+04   -.155E+03 0.275E+02 -.176E+04   0.374E+00 -.346E-01 0.181E+01   0.316E-02 -.841E-04 0.101E-01
   -.115E+03 -.254E+02 -.293E+03   0.116E+03 0.254E+02 0.295E+03   0.659E+00 0.132E+00 -.296E+01   -.945E-03 -.841E-03 -.598E-02
   -.564E+02 -.245E+01 -.178E+04   0.568E+02 0.247E+01 0.179E+04   0.788E-01 -.122E-01 -.779E+00   -.456E-03 -.616E-03 -.117E-01
   -.203E+03 -.955E+02 0.159E+04   0.204E+03 0.964E+02 -.159E+04   -.296E+00 -.768E+00 0.271E+01   0.148E-01 0.165E-02 0.437E-02
   -.161E+03 -.150E+02 -.739E+03   0.162E+03 0.151E+02 0.745E+03   0.193E+00 0.362E+00 -.460E+01   0.575E-02 -.753E-02 -.139E-01
   0.617E+02 -.296E+03 0.736E+03   -.628E+02 0.298E+03 -.740E+03   0.147E+01 -.629E+00 0.194E+01   0.982E-02 0.345E-02 -.290E-02
   0.226E+02 -.397E+02 -.122E+04   -.211E+02 0.402E+02 0.123E+04   -.681E+00 -.506E+00 -.251E+01   0.100E-01 0.275E-02 -.365E-02
   0.403E+02 -.706E+02 0.173E+04   -.400E+02 0.723E+02 -.174E+04   -.520E+00 -.153E+01 0.249E+01   0.932E-03 -.179E-03 -.115E-02
   0.101E+03 -.137E+03 -.362E+03   -.101E+03 0.137E+03 0.366E+03   -.986E+00 0.136E+01 -.193E+01   0.307E-02 0.499E-03 -.409E-02
   0.210E+03 -.176E+03 0.746E+03   -.212E+03 0.178E+03 -.747E+03   0.937E+00 -.101E+01 0.267E+00   -.310E-02 -.627E-02 0.480E-02
   -.151E+03 0.157E+02 -.132E+04   0.152E+03 -.148E+02 0.133E+04   -.824E+00 -.535E+00 -.260E+01   -.406E-02 -.229E-02 -.117E-01
   0.752E+02 -.252E+03 0.597E+03   -.773E+02 0.254E+03 -.598E+03   0.119E+01 -.117E+01 0.501E+00   -.427E-02 -.462E-02 -.130E-01
   -.158E+03 0.103E+03 -.155E+04   0.159E+03 -.101E+03 0.156E+04   -.711E+00 -.224E+01 -.214E+01   0.479E-02 -.176E-01 -.298E-02
   0.234E+03 -.185E+03 -.433E+03   -.236E+03 0.188E+03 0.434E+03   0.939E-01 -.688E+00 -.894E+00   0.545E-03 -.752E-02 -.541E-02
   0.268E+03 -.533E+02 0.134E+04   -.270E+03 0.528E+02 -.135E+04   0.835E+00 0.123E+01 0.407E+01   0.225E-02 -.339E-02 0.654E-02
   0.225E+03 -.181E+03 0.103E+04   -.226E+03 0.181E+03 -.103E+04   -.113E+00 -.173E+00 0.937E+00   0.429E-03 0.171E-01 0.284E-02
   0.418E+02 -.119E+03 -.905E+03   -.421E+02 0.120E+03 0.907E+03   0.681E-01 -.132E+01 -.854E+00   -.883E-03 0.202E-01 -.116E-01
   -.140E+03 -.209E+03 0.319E+03   0.139E+03 0.211E+03 -.322E+03   0.416E+00 -.853E-02 0.233E+01   -.427E-03 0.128E-02 -.491E-02
   0.548E+02 -.260E+03 -.154E+04   -.553E+02 0.264E+03 0.154E+04   0.555E-01 -.257E+01 -.154E+01   0.245E-02 0.247E-02 -.228E-03
   -.483E+02 0.323E+03 0.867E+03   0.487E+02 -.325E+03 -.870E+03   -.120E+01 0.828E+00 0.267E+01   -.412E-02 0.561E-02 0.134E-02
   0.707E+02 -.122E+03 -.133E+04   -.724E+02 0.121E+03 0.133E+04   0.602E+00 0.111E+01 -.206E+01   -.160E-01 0.148E-01 -.163E-01
   0.214E+03 0.347E+03 0.154E+04   -.215E+03 -.351E+03 -.155E+04   0.359E+00 0.209E+01 0.138E+01   0.474E-02 -.247E-02 0.265E-02
   0.275E+03 0.327E+03 -.135E+03   -.278E+03 -.329E+03 0.136E+03   0.114E+01 -.161E+00 -.238E+00   0.835E-02 -.289E-02 -.463E-02
   0.208E+03 0.169E+03 -.449E+03   -.209E+03 -.172E+03 0.449E+03   -.112E-01 0.491E+00 -.728E+00   0.601E-02 0.133E-01 -.401E-02
   0.175E+03 0.249E+02 0.134E+04   -.177E+03 -.247E+02 -.135E+04   0.990E+00 -.967E+00 0.433E+01   0.459E-02 0.825E-02 0.375E-02
   -.318E+03 0.252E+03 0.374E+03   0.318E+03 -.255E+03 -.374E+03   -.963E+00 0.155E+01 0.211E+00   -.556E-02 0.412E-02 -.516E-02
   -.422E+02 0.273E+03 -.146E+04   0.415E+02 -.277E+03 0.146E+04   -.441E-01 0.158E+01 -.789E+00   -.401E-02 -.237E-02 -.461E-02
   -.478E+02 -.119E+03 0.169E+03   0.455E+02 0.117E+03 -.168E+03   0.182E+01 0.767E+00 -.100E+01   -.124E-02 -.608E-03 -.104E-01
   0.206E+02 0.209E+03 -.157E+04   -.217E+02 -.213E+03 0.157E+04   0.528E+00 0.226E+01 -.307E+00   0.421E-02 0.138E-02 0.733E-03
   0.240E+03 0.204E+03 0.102E+04   -.241E+03 -.205E+03 -.102E+04   0.868E-01 0.141E+00 0.960E+00   -.342E-02 -.169E-01 0.282E-02
   0.535E+02 0.139E+03 -.891E+03   -.540E+02 -.140E+03 0.892E+03   -.225E+00 0.125E+01 -.457E+00   0.551E-02 -.203E-01 -.868E-02
 -----------------------------------------------------------------------------------------------
   -.144E+02 -.163E+02 -.965E+01   0.838E-12 -.909E-12 0.159E-11   0.143E+02 0.163E+02 0.102E+02   -.112E-01 -.103E-01 -.580E+00
 
 
 POSITION                                       TOTAL-FORCE (eV/Angst)
 -----------------------------------------------------------------------------------
     13.17084      1.39171      2.05636        -0.155698      0.294800      1.589986
     13.50047      1.37554      4.71072        -0.056052      0.358563      1.026194
      3.64478      5.99244      1.64522         0.963091      0.207118     -0.309911
      5.02033      6.18092      3.59863        -0.337008     -0.364487     -0.144196
      6.55609      1.11644      2.16198         0.335074      0.398465     -0.424732
      7.93172      1.39171      4.11272        -0.908318      0.697617     -0.901932
     16.08224      6.18092      2.57045        -0.324493     -0.400448      2.151892
     16.44026      6.18265      5.27974        -1.536112      0.148087      0.506912
      2.88637      1.39168      0.77001        -0.840098      0.020437     -1.838282
      2.10894      1.39171      3.08454        -0.889571      0.034708      0.546848
      1.85313      1.39171      5.43857         0.961849     -0.097641      0.983110
      9.76035      6.18367      2.54497         0.800003     -0.187019     -0.962304
     10.84312      6.18092      4.62682        -1.207836     -0.083510     -0.488177
     15.41899      0.04383      2.04914         0.861753      0.469408      0.035764
     15.90150      0.11951      4.50383        -0.633027     -0.786367      0.212538
      6.04223      6.17137      1.04147        -0.375721      0.027482     -1.590322
      7.17375      4.91558      3.19116         0.214167     -0.298941     -1.992416
      8.10058      4.42286      5.31996        -0.298054      0.852571      0.981598
      8.94249      1.39302      1.53171        -0.280320     -0.202946     -1.799058
     10.08514      0.12638      3.70525         1.147300     -0.468801     -1.603536
      1.35096      4.91558      2.16298        -0.068587     -0.446178      1.357747
      1.89149      4.85007      4.91842         1.278193     -1.308723      0.399392
      4.26235      0.12638      2.67707         0.305961     -0.608035      0.387243
      4.91336      9.35419      5.08465         0.212117      0.057472      0.810096
     12.95160      4.03271      2.00590        -0.833143      0.767202      0.036432
     12.99653      4.91558      4.21934         1.086005     -0.467433     -0.592906
     15.34782      2.70563      1.98712         1.236681     -0.430357      0.082591
     15.92980      2.66110      4.49351        -0.921462      1.043958     -0.021668
      7.05816      8.41219      1.05965         0.065196      0.162123     -0.855808
      7.17375      7.44626      3.19116         0.726124     -0.500607      0.334246
     10.47768      3.35561      1.48779        -0.185790      0.609536     -0.843907
     10.08514      2.65705      3.70525         0.390413      0.046709     -0.387225
      1.35096      7.44626      2.16298         0.200036      0.403150      1.637580
      1.88755      7.50815      4.92255         1.138802      1.250931      0.478244
      4.26235      2.65705      2.67707         0.663167      0.649983      0.510316
      4.97469      3.14149      4.95472        -0.143497     -0.335937      0.933008
     12.99653      7.44626      4.21934         1.042453      0.417996     -2.962703
     16.76469      1.38675      5.88805        -0.066108      0.030139      3.085595
     16.74052      1.39171      3.05601         2.155223      0.063778     -2.039090
      8.00634      6.18092      1.51374         1.232916      0.443919     -2.772519
      8.63291      6.16419      4.31818         0.071239      0.875291      2.095142
     10.91773      1.39171      2.02783         1.804648     -0.861828     -1.807867
     11.43703      1.35767      4.72431         0.743247      0.150997      2.681262
      1.89400      6.18204      0.63471         0.136333      0.083750     -3.829114
      2.76722      6.18092      3.57010         1.509582      0.083550     -0.527323
      1.29973      6.17686      6.35800         0.525796      0.007499      4.159433
      4.88047      1.42195      1.05064         1.521171      0.111713     -2.948263
      5.67861      1.39171      4.08419         0.762232      0.495947      1.253815
     13.87754      5.91900      2.60447         0.386764      1.598841     -1.681952
     14.34878      6.21215      5.21967         0.789782     -0.028089      2.460038
     13.78706      2.78590      0.63959        -0.170627      0.210883     -3.835041
     13.99844      3.00295      3.57488        -0.690521      0.841795      1.808623
      5.26426      7.79215      2.03261        -1.475666      1.312430     -0.771749
      5.90961      7.61998      4.84211         0.067011      0.387053      2.469929
      8.17565      3.00295      2.54670        -0.843477      1.266663     -0.387387
      8.95166      2.62103      5.45530         0.333797     -0.225781      2.824445
      0.02514      7.79215      4.08897        -1.091389      1.795506     -0.612842
     16.33920      7.85752      1.39716        -0.923216      0.718928     -2.947032
      2.36736      3.09229      1.78756        -0.900693      0.576068     -1.339724
      2.93654      3.00295      4.60306        -0.294110      0.169784      0.879142
     11.04158      7.76761      3.26714         0.216107      1.755625     -1.468219
     11.82063      7.49330      5.83767        -0.522171      1.075990      3.783337
      5.26426      4.56969      2.03261        -0.863328     -1.934271      0.041639
      6.08560      4.84526      4.98757        -1.148355     -0.348207      2.155024
     13.92147      0.08657      0.71825        -0.821143     -1.640826     -3.517397
     13.99844      9.35889      3.57488        -1.201200     -2.153364      0.829055
      0.02514      4.56969      4.08897        -1.058643     -1.658805     -0.539504
     16.33311      4.47518      1.40852        -0.450816     -0.727172     -2.810195
      8.17565      9.35889      2.54670        -0.134195     -1.816107     -0.183926
      8.78344      9.48519      5.23537        -0.696088     -1.645233      3.418806
     11.08705      4.56969      3.06079        -0.485653     -0.826117     -0.632881
     11.72501      4.76161      5.78912        -0.558939     -1.319713      3.821063
      2.35457      9.27987      1.79326        -0.798957     -0.759685     -1.244658
      2.93654      9.35889      4.60306        -0.694154     -0.041838      0.847679
 -----------------------------------------------------------------------------------
    total drift:                               -0.120140      0.028497     -0.021095


--------------------------------------------------------------------------------------------------------



  FREE ENERGIE OF THE ION-ELECTRON SYSTEM (eV)
  ---------------------------------------------------
  free  energy   TOTEN  =      -351.31436925 eV

  energy  without entropy=     -350.20578073  energy(sigma->0) =     -350.76007499
 


--------------------------------------------------------------------------------------------------------


    POTLOK:  cpu time    0.3703: real time    0.3703


--------------------------------------------------------------------------------------------------------


     LOOP+:  cpu time  426.5470: real time  426.6446
    4ORBIT:  cpu time    0.0000: real time    0.0000

 total amount of memory used by VASP MPI-rank0    80249. kBytes
=======================================================================

   base      :      30000. kBytes
   nonlr-proj:       2209. kBytes
   fftplans  :      10634. kBytes
   grid      :      17961. kBytes
   one-center:        101. kBytes
   wavefun   :      19344. kBytes
 
  
  
 General timing and accounting informations for this job:
 ========================================================
  
                  Total CPU time used (sec):      430.106
                            User time (sec):      429.760
                          System time (sec):        0.346
                         Elapsed time (sec):      430.447
  
                   Maximum memory used (kb):      218788.
                   Average memory used (kb):           0.
  
                          Minor page faults:       133232
                          Major page faults:            0
                 Voluntary context switches:          201
