 vasp.5.4.4.18Apr17-6-g9f103f2a35 (build Aug 13 2019 17:33:20) gamma-only       
  
 executed on             LinuxIFC date 2020.05.11  22:09:10
 running on   12 total cores
 distrk:  each k-point on   12 cores,    1 groups
 distr:  one band on NCORES_PER_BAND=   6 cores,    2 groups


--------------------------------------------------------------------------------------------------------


 INCAR:
 POTCAR:    PAW_PBE Ni_pv 06Sep2000               
 POTCAR:    PAW_PBE S 06Sep2000                   
 POTCAR:    PAW_PBE Ni_pv 06Sep2000               
   VRHFIN =Ni:                                                                  
   LEXCH  = PE                                                                  
   EATOM  =  3501.1230 eV,  257.3253 Ry                                         
                                                                                
   TITEL  = PAW_PBE Ni_pv 06Sep2000                                             
   LULTRA =        F    use ultrasoft PP ?                                      
   IUNSCR =        1    unscreen: 0-lin 1-nonlin 2-no                           
   RPACOR =    1.500    partial core radius                                     
   POMASS =   58.690; ZVAL   =   16.000    mass and valenz                      
   RCORE  =    2.000    outmost cutoff radius                                   
   RWIGS  =    2.000; RWIGS  =    1.058    wigner-seitz radius (au A)           
   ENMAX  =  367.986; ENMIN  =  275.989 eV                                      
   RCLOC  =    1.301    cutoff for local pot                                    
   LCOR   =        T    correct aug charges                                     
   LPAW   =        T    paw PP                                                  
   EAUG   =  703.443                                                            
   DEXC   =    0.000                                                            
   RMAX   =    2.041    core radius for proj-oper                               
   RAUG   =    1.300    factor for augmentation sphere                          
   RDEP   =    2.103    radius for radial grids                                 
   RDEPT  =    1.618    core radius for aug-charge                              
                                                                                
   Atomic configuration                                                         
    8 entries                                                                   
     n  l   j            E        occ.                                          
     1  0  0.50     -8206.4253   2.0000                                         
     2  0  0.50      -976.1748   2.0000                                         
     2  1  1.50      -839.0571   6.0000                                         
     3  0  0.50      -105.9991   2.0000                                         
     3  1  1.50       -66.4603   6.0000                                         
     3  2  2.50        -4.6458   9.0000                                         
     4  0  0.50        -4.4926   1.0000                                         
     4  3  2.50        -1.3606   0.0000                                         
   Description                                                                  
     l       E           TYP  RCUT    TYP  RCUT                                 
     1    -66.4602962     23  1.700                                             
     1     -1.3605826     23  1.700                                             
     2     -4.6457867     23  2.000                                             
     2     -6.0063693     23  2.000                                             
     0     -4.4925576     23  1.900                                             
     0     16.3626226     23  1.900                                             
  local pseudopotential read in
  partial core-charges read in
  partial kinetic energy density read in
  atomic valenz-charges read in
  non local Contribution for L=           1  read in
    real space projection operators read in
  non local Contribution for L=           1  read in
    real space projection operators read in
  non local Contribution for L=           2  read in
    real space projection operators read in
  non local Contribution for L=           2  read in
    real space projection operators read in
  non local Contribution for L=           0  read in
    real space projection operators read in
  non local Contribution for L=           0  read in
    real space projection operators read in
    PAW grid and wavefunctions read in
 
   number of l-projection  operators is LMAX  =           6
   number of lm-projection operators is LMMAX =          18
 
 POTCAR:    PAW_PBE S 06Sep2000                   
   VRHFIN =S : s2p4                                                             
   LEXCH  = PE                                                                  
   EATOM  =   276.8230 eV,   20.3459 Ry                                         
                                                                                
   TITEL  = PAW_PBE S 06Sep2000                                                 
   LULTRA =        F    use ultrasoft PP ?                                      
   IUNSCR =        1    unscreen: 0-lin 1-nonlin 2-no                           
   RPACOR =    1.500    partial core radius                                     
   POMASS =   32.066; ZVAL   =    6.000    mass and valenz                      
   RCORE  =    1.900    outmost cutoff radius                                   
   RWIGS  =    2.200; RWIGS  =    1.164    wigner-seitz radius (au A)           
   ENMAX  =  258.689; ENMIN  =  194.016 eV                                      
   ICORE  =        2    local potential                                         
   LCOR   =        T    correct aug charges                                     
   LPAW   =        T    paw PP                                                  
   EAUG   =  335.092                                                            
   DEXC   =    0.000                                                            
   RMAX   =    1.942    core radius for proj-oper                               
   RAUG   =    1.300    factor for augmentation sphere                          
   RDEP   =    1.954    radius for radial grids                                 
   RDEPT  =    1.744    core radius for aug-charge                              
                                                                                
   Atomic configuration                                                         
    6 entries                                                                   
     n  l   j            E        occ.                                          
     1  0  0.50     -2405.8406   2.0000                                         
     2  0  0.50      -211.7007   2.0000                                         
     2  1  1.50      -156.4958   6.0000                                         
     3  0  0.50       -17.2562   2.0000                                         
     3  1  0.50        -7.0085   4.0000                                         
     3  2  1.50        -6.8029   0.0000                                         
   Description                                                                  
     l       E           TYP  RCUT    TYP  RCUT                                 
     0    -17.2561641     23  1.900                                             
     0    -15.8743224     23  1.900                                             
     1     -7.0085400     23  1.900                                             
     1     -2.7779785     23  1.900                                             
     2     -6.8029130     23  1.900                                             
  local pseudopotential read in
  partial core-charges read in
  partial kinetic energy density read in
  atomic valenz-charges read in
  non local Contribution for L=           0  read in
    real space projection operators read in
  non local Contribution for L=           0  read in
    real space projection operators read in
  non local Contribution for L=           1  read in
    real space projection operators read in
  non local Contribution for L=           1  read in
    real space projection operators read in
    PAW grid and wavefunctions read in
 
   number of l-projection  operators is LMAX  =           4
   number of lm-projection operators is LMMAX =           8
 
 Optimization of the real space projectors (new method)

 maximal supplied QI-value         = 18.90
 optimisation between [QCUT,QGAM] = [ 10.77, 21.73] = [ 32.49,132.25] Ry 
 Optimized for a Real-space Cutoff    1.38 Angstroem

   l    n(q)    QCUT    max X(q) W(low)/X(q) W(high)/X(q)  e(spline) 
   1      8    10.771     2.836    0.40E-04    0.29E-04    0.12E-06
   1      8    10.771     4.023    0.10E-03    0.48E-04    0.29E-06
   2      8    10.771    73.368    0.42E-03    0.97E-04    0.44E-06
   2      8    10.771    69.010    0.42E-03    0.99E-04    0.45E-06
   0      9    10.771    54.797    0.10E-03    0.56E-04    0.74E-07
   0      9    10.771    24.266    0.89E-04    0.49E-04    0.67E-07
 Optimization of the real space projectors (new method)

 maximal supplied QI-value         = 19.84
 optimisation between [QCUT,QGAM] = [ 10.71, 21.63] = [ 32.15,130.99] Ry 
 Optimized for a Real-space Cutoff    1.19 Angstroem

   l    n(q)    QCUT    max X(q) W(low)/X(q) W(high)/X(q)  e(spline) 
   0      8    10.715   187.594    0.41E-03    0.53E-04    0.66E-07
   0      8    10.715   164.243    0.41E-03    0.53E-04    0.65E-07
   1      7    10.715    67.533    0.19E-03    0.59E-03    0.68E-07
   1      7    10.715    50.729    0.19E-03    0.58E-03    0.67E-07
  PAW_PBE Ni_pv 06Sep2000               :
 energy of atom  1       EATOM=-3501.1230
 kinetic energy error for atom=    0.0925 (will be added to EATOM!!)
  PAW_PBE S 06Sep2000                   :
 energy of atom  2       EATOM= -276.8230
 kinetic energy error for atom=    0.0033 (will be added to EATOM!!)
 
 
 POSCAR: Type_036 Type_136                       
  positions in cartesian coordinates
  No initial velocities read in
 exchange correlation table for  LEXCH =        8
   RHO(1)=    0.500       N(1)  =     2000
   RHO(2)=  100.500       N(2)  =     4000
 


--------------------------------------------------------------------------------------------------------


 ion  position               nearest neighbor table
   1  0.766  0.152  0.132-  50 2.09  41 2.10  51 2.11  64 2.20  42 2.24   2 2.42
   2  0.816  0.143  0.272-  64 2.07  51 2.10  42 2.12   1 2.42
   3  0.217  0.645  0.073-  43 2.03  44 2.11  52 2.18  62 2.19   4 2.37
   4  0.297  0.645  0.193-  52 2.08  62 2.09  63 2.14  53 2.18  44 2.25   3 2.37  27 2.53  15 2.53

   5  0.388  0.168  0.104-  46 2.03  47 2.11  54 2.18   6 2.40  67 2.48  29 2.50
   6  0.470  0.145  0.224-  68 2.12  55 2.12  47 2.25  54 2.26  67 2.26   5 2.40  30 2.53  18 2.53

   7  0.952  0.645  0.129-  66 2.07  57 2.08  48 2.25  56 2.36  65 2.36  31 2.53  19 2.53
   8  0.974  0.645  0.297-  45 2.05  56 2.06  65 2.06  49 2.10
   9  0.125  0.145  0.161-  71 2.09  58 2.09  38 2.25  10 2.34  59 2.36  72 2.36  33 2.53  21 2.53

  10  0.104  0.145  0.304-  37 2.02  59 2.15  72 2.15   9 2.34
  11  0.559  0.668  0.135-  39 2.04  40 2.12  60 2.20  12 2.42  69 2.49  35 2.50  17 2.53
  12  0.642  0.645  0.256-  70 2.03  61 2.03  40 2.25  60 2.26  69 2.26  11 2.42  36 2.53  24 2.53

  13  0.913  0.008  0.100-  64 2.07  57 2.07  38 2.09  14 2.48
  14  0.945  0.011  0.250-  37 2.06  38 2.10  56 2.16  64 2.20  13 2.48
  15  0.425  0.513  0.167-  39 2.07  63 2.14  54 2.25  62 2.32  40 2.36  16 2.43   4 2.53  27 2.53

  16  0.468  0.462  0.308-  55 2.00  63 2.04  40 2.07  15 2.43
  17  0.586  0.903  0.068-  60 2.08  67 2.09  18 2.38  29 2.51  11 2.53  41 2.58
  18  0.597  0.013  0.199-  68 2.06  42 2.21  60 2.25  41 2.26  67 2.26  17 2.38  30 2.53   6 2.53

  19  0.080  0.513  0.104-  43 2.05  58 2.11  66 2.12  44 2.36  65 2.36   7 2.53  31 2.53
  20  0.112  0.506  0.274-  45 2.05  65 2.06  44 2.09  59 2.14
  21  0.252  0.013  0.136-  46 2.06  71 2.10  52 2.17  47 2.36  72 2.36  22 2.46   9 2.53  33 2.53

  22  0.293  0.968  0.279-  53 2.02  72 2.05  47 2.06  21 2.46
  23  0.788  0.432  0.090-  50 2.06  51 2.11  48 2.19  24 2.43  35 2.51  69 2.52
  24  0.770  0.513  0.231-  70 2.02  49 2.12  51 2.25  69 2.26  48 2.26  23 2.43  36 2.53  12 2.53

  25  0.911  0.279  0.094-  50 2.06  66 2.11  51 2.11  38 2.14
  26  0.946  0.278  0.249-  37 2.06  38 2.08  65 2.16  51 2.22
  27  0.425  0.777  0.167-  39 2.07  53 2.13  67 2.25  52 2.33  40 2.36  28 2.39   4 2.53  15 2.53

  28  0.473  0.838  0.302-  68 1.99  53 2.06  40 2.08  27 2.39
  29  0.530  0.146  0.067-  41 2.02  54 2.04  67 2.04   5 2.50  17 2.51
  30  0.597  0.277  0.199-  55 2.04  42 2.18  69 2.25  41 2.26  54 2.26  18 2.53   6 2.53
  31  0.080  0.777  0.104-  43 2.05  57 2.10  71 2.11  44 2.36  56 2.36   7 2.53  19 2.53
  32  0.112  0.785  0.274-  45 2.05  56 2.06  44 2.09  72 2.14
  33  0.252  0.277  0.136-  46 2.06  58 2.10  62 2.18  47 2.36  59 2.36  34 2.47   9 2.53  21 2.53

  34  0.293  0.319  0.281-  63 2.03  47 2.05  59 2.05  33 2.47
  35  0.702  0.645  0.097-  48 2.04  69 2.04  60 2.05  11 2.50  23 2.51
  36  0.770  0.777  0.231-  61 2.01  49 2.10  64 2.25  60 2.26  48 2.26  24 2.53  12 2.53
  37  0.989  0.145  0.338-  10 2.02  14 2.06  26 2.06
  38  0.991  0.145  0.159-  26 2.08  13 2.09  14 2.10  25 2.14   9 2.25
  39  0.455  0.645  0.071-  11 2.04  15 2.07  27 2.07
  40  0.509  0.645  0.254-  16 2.07  28 2.08  11 2.12  12 2.25  27 2.36  15 2.36
  41  0.647  0.145  0.095-  29 2.02   1 2.10  18 2.26  30 2.26  42 2.58  17 2.58
  42  0.693  0.147  0.247-   2 2.12  30 2.18  18 2.21   1 2.24  41 2.58
  43  0.113  0.645  0.010-   3 2.03  19 2.05  31 2.05
  44  0.164  0.645  0.191-  32 2.09  20 2.09   3 2.11   4 2.25  31 2.36  19 2.36
  45  0.078  0.645  0.363-  20 2.05  32 2.05   8 2.05
  46  0.285  0.145  0.041-   5 2.03  21 2.06  33 2.06
  47  0.336  0.145  0.223-  34 2.05  22 2.06   5 2.11   6 2.25  33 2.36  21 2.36
  48  0.819  0.645  0.127-  35 2.04  23 2.19   7 2.25  24 2.26  36 2.26  49 2.74
  49  0.850  0.647  0.293-   8 2.10  36 2.10  24 2.12  48 2.74
  50  0.810  0.250  0.026-  25 2.06  23 2.06   1 2.09  51 2.76
  51  0.829  0.314  0.191-   2 2.10  25 2.11   1 2.11  23 2.11  26 2.22  24 2.25  50 2.76
  52  0.300  0.808  0.107-   4 2.08  21 2.17   3 2.18  27 2.33
  53  0.356  0.789  0.278-  22 2.02  28 2.06  27 2.13   4 2.18  63 2.74
  54  0.484  0.314  0.127-  29 2.04   5 2.18  15 2.25   6 2.26  30 2.26
  55  0.530  0.286  0.304-  16 2.00  30 2.04   6 2.12  68 2.58
  56  0.001  0.814  0.223-   8 2.06  32 2.06  14 2.16  31 2.36   7 2.36  57 2.71
  57  0.967  0.826  0.059-  13 2.07   7 2.08  31 2.10  56 2.71
  58  0.140  0.322  0.087-   9 2.09  33 2.10  19 2.11  59 2.78
  59  0.174  0.314  0.255-  34 2.05  20 2.14  10 2.15   9 2.36  33 2.36  58 2.78
  60  0.657  0.814  0.159-  35 2.05  17 2.08  11 2.20  18 2.25  36 2.26  12 2.26
  61  0.697  0.788  0.329-  36 2.01  12 2.03  70 2.76
  62  0.302  0.482  0.107-   4 2.09  33 2.18   3 2.19  15 2.32
  63  0.353  0.502  0.276-  34 2.03  16 2.04   4 2.14  15 2.14  53 2.74
  64  0.829  0.977  0.191-  13 2.07   2 2.07   1 2.20  14 2.20  36 2.25
  65  0.001  0.477  0.223-  20 2.06   8 2.06  26 2.16  19 2.36   7 2.36  66 2.74
  66  0.966  0.467  0.058-   7 2.07  25 2.11  19 2.12  65 2.74
  67  0.484  0.977  0.127-  29 2.04  17 2.09  27 2.25   6 2.26  18 2.26   5 2.48
  68  0.533  0.016  0.308-  28 1.99  18 2.06   6 2.12  55 2.58
  69  0.657  0.477  0.159-  35 2.04  30 2.25  24 2.26  12 2.26  11 2.49  23 2.52
  70  0.696  0.500  0.329-  24 2.02  12 2.03  61 2.76
  71  0.140  0.968  0.087-   9 2.09  21 2.10  31 2.11  72 2.78
  72  0.174  0.977  0.255-  22 2.05  32 2.14  10 2.15   9 2.36  21 2.36  71 2.78
 
  LATTYP: Found a simple orthorhombic cell.
 ALAT       =     9.5784100000
 B/A-ratio  =     1.6880763216
 C/A-ratio  =     1.7627867312
  
  Lattice vectors:
  
 A1 = (   0.0000000000,   9.5784100000,   0.0000000000)
 A2 = (   0.0000000000,   0.0000000000, -16.1690871197)
 A3 = ( -16.8846940542,   0.0000000000,   0.0000000000)


Analysis of symmetry for initial positions (statically):
=====================================================================
 Subroutine PRICEL returns:
 Original cell was already a primitive cell.
 

 Routine SETGRP: Setting up the symmetry group for a 
 simple orthorhombic supercell.


 Subroutine GETGRP returns: Found  1 space group operations
 (whereof  1 operations were pure point group operations)
 out of a pool of  8 trial point group operations.


The static configuration has the point symmetry C_1 .


Analysis of symmetry for dynamics (positions and initial velocities):
=====================================================================
 Subroutine PRICEL returns:
 Original cell was already a primitive cell.
 

 Routine SETGRP: Setting up the symmetry group for a 
 simple orthorhombic supercell.


 Subroutine GETGRP returns: Found  1 space group operations
 (whereof  1 operations were pure point group operations)
 out of a pool of  8 trial point group operations.


The dynamic configuration has the point symmetry C_1 .


 Subroutine INISYM returns: Found  1 space group operations
 (whereof  1 operations are pure point group operations),
 and found     1 'primitive' translations

 
 
 KPOINTS: gamma-point-only calculation. no periodi

Automatic generation of k-mesh.
Space group operators:
 irot       det(A)        alpha          n_x          n_y          n_z        tau_x        tau_y        tau_z
    1     1.000000     0.000000     1.000000     0.000000     0.000000     0.000000     0.000000     0.000000
 
 Subroutine IBZKPT returns following result:
 ===========================================
 
 Found      1 irreducible k-points:
 
 Following reciprocal coordinates:
            Coordinates               Weight
  0.000000  0.000000  0.000000      1.000000
 
 Following cartesian coordinates:
            Coordinates               Weight
  0.000000  0.000000  0.000000      1.000000
 


--------------------------------------------------------------------------------------------------------




 Dimension of arrays:
   k-points           NKPTS =      1   k-points in BZ     NKDIM =      1   number of bands    NBANDS=    476
   number of dos      NEDOS =    301   number of ions     NIONS =     72
   non local maximal  LDIM  =      6   non local SUM 2l+1 LMDIM =     18
   total plane-waves  NPLWV = 378000
   max r-space proj   IRMAX =   1644   max aug-charges    IRDMAX=   4753
   dimension x,y,z NGX =    90 NGY =   50 NGZ =   84
   dimension x,y,z NGXF=   180 NGYF=  100 NGZF=  168
   support grid    NGXF=   180 NGYF=  100 NGZF=  168
   ions per type =              36  36
   NGX,Y,Z   is equivalent  to a cutoff of   8.86,  8.68,  8.64 a.u.
   NGXF,Y,Z  is equivalent  to a cutoff of  17.72, 17.36, 17.27 a.u.

 SYSTEM =  "Millerite NiS"                         
 POSCAR =  Type_036 Type_136                       

 Startparameter for this run:
   NWRITE =      2    write-flag & timer
   PREC   = normal    normal or accurate (medium, high low for compatibility)
   ISTART =      0    job   : 0-new  1-cont  2-samecut
   ICHARG =      2    charge: 1-file 2-atom 10-const
   ISPIN  =      1    spin polarized calculation?
   LNONCOLLINEAR =      F non collinear calculations
   LSORBIT =      F    spin-orbit coupling
   INIWAV =      1    electr: 0-lowe 1-rand  2-diag
   LASPH  =      F    aspherical Exc in radial PAW
   METAGGA=      F    non-selfconsistent MetaGGA calc.

 Electronic Relaxation 1
   ENCUT  =  450.0 eV  33.07 Ry    5.75 a.u.  29.20 16.57 27.97*2*pi/ulx,y,z
   ENINI  =  450.0     initial cutoff
   ENAUG  =  703.4 eV  augmentation charge cutoff
   NELM   =    100;   NELMIN=  2; NELMDL= -5     # of ELM steps 
   EDIFF  = 0.1E-03   stopping-criterion for ELM
   LREAL  =      T    real-space projection
   NLSPLINE    = F    spline interpolate recip. space projectors
   LCOMPAT=      F    compatible to vasp.4.4
   GGA_COMPAT  = T    GGA compatible to vasp.4.4-vasp.4.6
   LMAXPAW     = -100 max onsite density
   LMAXMIX     =    2 max onsite mixed and CHGCAR
   VOSKOWN=      0    Vosko Wilk Nusair interpolation
   ROPT   =   -0.00050  -0.00050
 Ionic relaxation
   EDIFFG = 0.1E-02   stopping-criterion for IOM
   NSW    =      0    number of steps for IOM
   NBLOCK =      1;   KBLOCK =      1    inner block; outer block 
   IBRION =     -1    ionic relax: 0-MD 1-quasi-New 2-CG
   NFREE  =      0    steps in history (QN), initial steepest desc. (CG)
   ISIF   =      2    stress and relaxation
   IWAVPR =     10    prediction:  0-non 1-charg 2-wave 3-comb
   ISYM   =      2    0-nonsym 1-usesym 2-fastsym
   LCORR  =      T    Harris-Foulkes like correction to forces

   POTIM  = 0.5000    time-step for ionic-motion
   TEIN   =    0.0    initial temperature
   TEBEG  =    0.0;   TEEND  =   0.0 temperature during run
   SMASS  =  -3.00    Nose mass-parameter (am)
   estimated Nose-frequenzy (Omega)   =  0.10E-29 period in steps =****** mass=  -0.652E-26a.u.
   SCALEE = 1.0000    scale energy and forces
   NPACO  =    256;   APACO  = 16.0  distance and # of slots for P.C.
   PSTRESS=    0.0 pullay stress

  Mass of Ions in am
   POMASS =  58.69 32.07
  Ionic Valenz
   ZVAL   =  16.00  6.00
  Atomic Wigner-Seitz radii
   RWIGS  =  -1.00 -1.00
  virtual crystal weights 
   VCA    =   1.00  1.00
   NELECT =     792.0000    total number of electrons
   NUPDOWN=      -1.0000    fix difference up-down

 DOS related values:
   EMIN   =  10.00;   EMAX   =-10.00  energy-range for DOS
   EFERMI =   0.00
   ISMEAR =     0;   SIGMA  =   0.20  broadening in eV -4-tet -1-fermi 0-gaus

 Electronic relaxation 2 (details)
   IALGO  =     38    algorithm
   LDIAG  =      T    sub-space diagonalisation (order eigenvalues)
   LSUBROT=      F    optimize rotation matrix (better conditioning)
   TURBO    =      0    0=normal 1=particle mesh
   IRESTART =      0    0=no restart 2=restart with 2 vectors
   NREBOOT  =      0    no. of reboots
   NMIN     =      0    reboot dimension
   EREF     =   0.00    reference energy to select bands
   IMIX   =      4    mixing-type and parameters
     AMIX     =   0.40;   BMIX     =  1.00
     AMIX_MAG =   1.60;   BMIX_MAG =  1.00
     AMIN     =   0.10
     WC   =   100.;   INIMIX=   1;  MIXPRE=   1;  MAXMIX= -45

 Intra band minimization:
   WEIMIN = 0.0000     energy-eigenvalue tresh-hold
   EBREAK =  0.53E-07  absolut break condition
   DEPER  =   0.30     relativ break condition  

   TIME   =   0.40     timestep for ELM

  volume/ion in A,a.u.               =      36.32       245.10
  Fermi-wavevector in a.u.,A,eV,Ry     =   1.099409  2.077581 16.445356  1.208700
  Thomas-Fermi vector in A             =   2.235803
 
 Write flags
   LWAVE        =      F    write WAVECAR
   LDOWNSAMPLE  =      F    k-point downsampling of WAVECAR
   LCHARG       =      F    write CHGCAR
   LVTOT        =      F    write LOCPOT, total local potential
   LVHAR        =      F    write LOCPOT, Hartree potential only
   LELF         =      F    write electronic localiz. function (ELF)
   LORBIT       =      0    0 simple, 1 ext, 2 COOP (PROOUT), +10 PAW based schemes


 Dipole corrections
   LMONO  =      F    monopole corrections only (constant potential shift)
   LDIPOL =      F    correct potential (dipole corrections)
   IDIPOL =      0    1-x, 2-y, 3-z, 4-all directions 
   EPSILON=  1.0000000 bulk dielectric constant

 Exchange correlation treatment:
   GGA     =    --    GGA type
   LEXCH   =     8    internal setting for exchange type
   VOSKOWN=      0    Vosko Wilk Nusair interpolation
   LHFCALC =     F    Hartree Fock is set to
   LHFONE  =     F    Hartree Fock one center treatment
   AEXX    =    0.0000 exact exchange contribution

 Linear response parameters
   LEPSILON=     F    determine dielectric tensor
   LRPA    =     F    only Hartree local field effects (RPA)
   LNABLA  =     F    use nabla operator in PAW spheres
   LVEL    =     F    velocity operator in full k-point grid
   LINTERFAST=   F  fast interpolation
   KINTER  =     0    interpolate to denser k-point grid
   CSHIFT  =0.1000    complex shift for real part using Kramers Kronig
   OMEGAMAX=  -1.0    maximum frequency
   DEG_THRESHOLD= 0.2000000E-02 threshold for treating states as degnerate
   RTIME   =   -0.100 relaxation time in fs
  (WPLASMAI=    0.000 imaginary part of plasma frequency in eV, 0.658/RTIME)
   DFIELD  = 0.0000000 0.0000000 0.0000000 field for delta impulse in time
 
 Orbital magnetization related:
   ORBITALMAG=     F  switch on orbital magnetization
   LCHIMAG   =     F  perturbation theory with respect to B field
   DQ        =  0.001000  dq finite difference perturbation B field
   LLRAUG    =     F  two centre corrections for induced B field



--------------------------------------------------------------------------------------------------------


 Static calculation
 charge density and potential will be updated during run
 non-spin polarized calculation
 Variant of blocked Davidson
 Davidson routine will perform the subspace rotation
 perform sub-space diagonalisation
    after iterative eigenvector-optimisation
 modified Broyden-mixing scheme, WC =      100.0
 initial mixing is a Kerker type mixing with AMIX =  0.4000 and BMIX =      1.0000
 Hartree-type preconditioning will be used
 using additional bands           80
 real space projection scheme for non local part
 use partial core corrections
 calculate Harris-corrections to forces 
   (improved forces if not selfconsistent)
 use gradient corrections 
 use of overlap-Matrix (Vanderbilt PP)
 Gauss-broadening in eV      SIGMA  =   0.20


--------------------------------------------------------------------------------------------------------


  energy-cutoff  :      450.00
  volume of cell :     2615.00
      direct lattice vectors                 reciprocal lattice vectors
    16.884694054  0.000000000  0.000000000     0.059225237  0.000000000  0.000000000
     0.000000000  9.578410000  0.000000000     0.000000000  0.104401461  0.000000000
     0.000000000  0.000000000 16.169087120     0.000000000  0.000000000  0.061846411

  length of vectors
    16.884694054  9.578410000 16.169087120     0.059225237  0.104401461  0.061846411


 
 k-points in units of 2pi/SCALE and weight: gamma-point-only calculation. no periodi
   0.00000000  0.00000000  0.00000000       1.000
 
 k-points in reciprocal lattice and weights: gamma-point-only calculation. no periodi
   0.00000000  0.00000000  0.00000000       1.000
 
 position of ions in fractional coordinates (direct lattice) 
   0.76623827  0.15152644  0.13179056
   0.81636319  0.14291186  0.27173795
   0.21674061  0.64481798  0.07275905
   0.29733028  0.64529696  0.19253255
   0.38762024  0.16784568  0.10424734
   0.46975828  0.14529696  0.22432721
   0.95247430  0.64529696  0.12894323
   0.97408170  0.64541844  0.29686675
   0.12490229  0.14529696  0.16073789
   0.10397589  0.14532200  0.30360273
   0.55891111  0.66801929  0.13495084
   0.64218627  0.64529696  0.25612187
   0.91343249  0.00769193  0.10032831
   0.94522262  0.01093902  0.24977972
   0.42486675  0.51319396  0.16733153
   0.46755111  0.46219335  0.30760832
   0.58572059  0.90251073  0.06805833
   0.59729475  0.01319396  0.19912619
   0.08001077  0.51319396  0.10374222
   0.11201106  0.50578546  0.27390320
   0.25243876  0.01319396  0.13553687
   0.29317031  0.96838407  0.27897508
   0.78779591  0.43208072  0.08984554
   0.76972274  0.51319396  0.23092085
   0.91069053  0.27934459  0.09445647
   0.94623266  0.27842309  0.24908758
   0.42486675  0.77739996  0.16733153
   0.47302327  0.83767035  0.30162342
   0.53044868  0.14559997  0.06678300
   0.59729475  0.27739996  0.19912619
   0.08001077  0.77739996  0.10374222
   0.11205938  0.78485253  0.27389951
   0.25243876  0.27739996  0.13553687
   0.29273639  0.31927012  0.28054860
   0.70182110  0.64498206  0.09745189
   0.76972274  0.77739996  0.23092085
   0.98884940  0.14481737  0.33849845
   0.99146120  0.14529696  0.15897329
   0.45516597  0.64494122  0.07118840
   0.50874518  0.64529696  0.25435726
   0.64660522  0.14529696  0.09538397
   0.69300748  0.14725531  0.24716616
   0.11295195  0.64521280  0.00981525
   0.16388920  0.64529696  0.19076795
   0.07764527  0.64533844  0.36289764
   0.28473520  0.14515103  0.04073943
   0.33631719  0.14529696  0.22256260
   0.81903321  0.64529696  0.12717863
   0.84995079  0.64661861  0.29331331
   0.80954803  0.25012708  0.02588853
   0.82906105  0.31351196  0.19106332
   0.30035769  0.80845453  0.10731147
   0.35623866  0.78864062  0.27752808
   0.48420507  0.31351196  0.12747400
   0.53007663  0.28551562  0.30416256
   0.00148905  0.81351196  0.22285798
   0.96669661  0.82597370  0.05919554
   0.13995473  0.32242228  0.08668898
   0.17391704  0.31351196  0.25465264
   0.65663306  0.81351196  0.15926866
   0.69704856  0.78837157  0.32933917
   0.30168277  0.48206942  0.10672058
   0.35277511  0.50218174  0.27633074
   0.82906105  0.97708196  0.19106332
   0.00148905  0.47708196  0.22285798
   0.96575919  0.46667373  0.05770873
   0.48420507  0.97708196  0.12747400
   0.53341473  0.01629838  0.30778942
   0.65663306  0.47708196  0.15926866
   0.69554460  0.49982200  0.32875228
   0.14010031  0.96830268  0.08666296
   0.17391704  0.97708196  0.25465264
 
 position of ions in cartesian coordinates  (Angst):
  12.93769880  1.45138236  2.13093300
  13.78404263  1.36886840  4.39375463
   3.65959887  6.17633101  1.17644736
   5.02033088  6.18091883  3.11307559
   6.54484919  1.60769479  1.68558433
   7.93172477  1.39171383  3.62716619
  16.08223712  6.18091883  2.08489440
  16.44707147  6.18208244  4.80006441
   2.10893697  1.39171383  2.59898500
   1.75560103  1.39195370  4.90897893
   9.43704303  6.39856268  2.18203186
  10.84311868  6.18091883  4.14125678
  15.42302820  0.07367646  1.62221716
  15.95979472  0.10477838  4.03871008
   7.17374514  4.91558213  2.70559813
   7.89445745  4.42707738  4.97374567
   9.88971301  8.64461778  1.10044107
  10.08513905  0.12637713  3.21968873
   1.35095732  4.91558213  1.67741694
   1.89127241  4.84462054  4.42876470
   4.26235123  0.12637713  2.19150754
   4.95009095  9.27557963  4.51077243
  13.30169285  4.13864632  1.45272029
  12.99653294  4.91558213  3.73377931
  15.37673090  2.67567702  1.52727497
  15.97684889  2.66685055  4.02751879
   7.17374514  7.44625552  2.70559813
   7.98685320  8.02355008  4.87697530
   8.95646364  1.39461619  1.07982015
  10.08513905  2.65705052  3.21968873
   1.35095732  7.44625552  1.67741694
   1.89208840  7.51763936  4.42870505
   4.26235123  2.65705052  2.19150754
   4.94276436  3.05810011  4.53621469
  11.85003458  6.17790264  1.57570813
  12.99653294  7.44625552  3.73377931
  16.69641959  1.38712012  5.47321087
  16.74051910  1.39171383  2.57045296
   7.68533819  6.17751146  1.15105141
   8.59000675  6.18091883  4.11272474
  10.91773128  1.39171383  1.54227179
  11.70121930  1.41047175  3.99645117
   1.90715915  6.18011269  0.15870365
   2.76721895  6.18091883  3.08454355
   1.31101663  6.18131619  5.86772356
   4.80766680  1.39031607  0.65871942
   5.67861284  1.39171383  3.59863415
  13.82912519  6.18091883  2.05636238
  14.35115906  6.19357813  4.74260853
  13.66897077  2.39581973  0.41859389
  13.99844223  3.00294606  3.08931947
   5.07144762  7.74370900  1.73512844
   6.01498079  7.55392317  4.48737572
   8.17565442  3.00294606  2.06113828
   8.95018181  2.73478567  4.91803099
   0.02514209  7.79215106  3.60341006
  16.32237647  7.91151477  0.95713787
   2.36309274  3.08829276  1.40168160
   2.93653598  3.00294606  4.11750064
  11.08704832  7.79215106  2.57522887
  11.76945170  7.55134614  5.32511381
   5.09382126  4.61745860  1.72557434
   5.95649980  4.81010261  4.46801577
  13.99844223  9.35889159  3.08931947
   0.02514209  4.56968659  3.60341006
  16.30654839  4.46999237  0.93309753
   8.17565442  9.35889159  2.06113828
   9.00654445  0.15611255  4.97667398
  11.08704832  4.56968659  2.57522887
  11.74405785  4.78750000  5.31562420
   2.36555085  9.27480006  1.40126090
   2.93653598  9.35889159  4.11750064
 


--------------------------------------------------------------------------------------------------------


 use parallel FFT for orbitals z direction half grid
 k-point  1 :   0.0000 0.0000 0.0000  plane waves:   28369

 maximum and minimum number of plane-waves per node :      4733     4722

 maximum number of plane-waves:     28369
 maximum index in each direction: 
   IXMAX=   29   IYMAX=   16   IZMAX=   27
   IXMIN=  -29   IYMIN=  -16   IZMIN=    0


 real space projection operators:
  total allocation   :      10065.33 KBytes
  max/ min on nodes  :       1684.06       1668.66


 parallel 3D FFT for wavefunctions:
    minimum data exchange during FFTs selected (reduces bandwidth)
 parallel 3D FFT for charge:
    minimum data exchange during FFTs selected (reduces bandwidth)


 total amount of memory used by VASP MPI-rank0    77170. kBytes
=======================================================================

   base      :      30000. kBytes
   nonlr-proj:       2061. kBytes
   fftplans  :       9935. kBytes
   grid      :      16773. kBytes
   one-center:         93. kBytes
   wavefun   :      18308. kBytes
 
     INWAV:  cpu time    0.0000: real time    0.0000
 Broyden mixing: mesh for mixing (old mesh)
   NGX = 59   NGY = 33   NGZ = 55
  (NGX  =180   NGY  =100   NGZ  =168)
  gives a total of 107085 points

 initial charge density was supplied:
 charge density of overlapping atoms calculated
 number of electron     792.0000000 magnetization 
 keeping initial charge density in first step


--------------------------------------------------------------------------------------------------------


 Maximum index for non-local projection operator          265
 Maximum index for augmentation-charges          429 (set IRDMAX)


--------------------------------------------------------------------------------------------------------


 First call to EWALD:  gamma=   0.129
 Maximum number of real-space cells 2x 4x 2
 Maximum number of reciprocal cells 3x 2x 3

    FEWALD:  cpu time    0.0048: real time    0.0048


--------------------------------------- Iteration      1(   1)  ---------------------------------------


    POTLOK:  cpu time    0.3227: real time    0.3227
    SETDIJ:  cpu time    0.0170: real time    0.0170
     EDDAV:  cpu time    8.5755: real time    8.5768
       DOS:  cpu time    0.0014: real time    0.0014
    --------------------------------------------
      LOOP:  cpu time    8.9167: real time    8.9181

 eigenvalue-minimisations  :  1176
 total energy-change (2. order) : 0.8894796E+04  (-0.5063828E+05)
 number of electron     792.0000000 magnetization 
 augmentation part      792.0000000 magnetization 

 Free energy of the ion-electron system (eV)
  ---------------------------------------------------
  alpha Z        PSCENC =      1422.52235994
  Ewald energy   TEWEN  =    154801.24681466
  -Hartree energ DENC   =   -275085.84854342
  -exchange      EXHF   =         0.00000000
  -V(xc)+E(xc)   XCENC  =      3682.91405605
  PAW double counting   =    112729.53333415  -117641.51188735
  entropy T*S    EENTRO =        -0.56790665
  eigenvalues    EBANDS =     -7016.09739939
  atomic energy  EATOM  =    136002.60505376
  Solvation  Ediel_sol  =         0.00000000
  ---------------------------------------------------
  free energy    TOTEN  =      8894.79588176 eV

  energy without entropy =     8895.36378841  energy(sigma->0) =     8895.07983508


--------------------------------------------------------------------------------------------------------




--------------------------------------- Iteration      1(   2)  ---------------------------------------


     EDDAV:  cpu time    7.5392: real time    7.5411
       DOS:  cpu time    0.0011: real time    0.0011
    --------------------------------------------
      LOOP:  cpu time    7.5402: real time    7.5421

 eigenvalue-minimisations  :  1028
 total energy-change (2. order) :-0.8424822E+04  (-0.8121186E+04)
 number of electron     792.0000000 magnetization 
 augmentation part      792.0000000 magnetization 

 Free energy of the ion-electron system (eV)
  ---------------------------------------------------
  alpha Z        PSCENC =      1422.52235994
  Ewald energy   TEWEN  =    154801.24681466
  -Hartree energ DENC   =   -275085.84854342
  -exchange      EXHF   =         0.00000000
  -V(xc)+E(xc)   XCENC  =      3682.91405605
  PAW double counting   =    112729.53333415  -117641.51188735
  entropy T*S    EENTRO =        -0.85990954
  eigenvalues    EBANDS =    -15440.62739072
  atomic energy  EATOM  =    136002.60505376
  Solvation  Ediel_sol  =         0.00000000
  ---------------------------------------------------
  free energy    TOTEN  =       469.97388753 eV

  energy without entropy =      470.83379708  energy(sigma->0) =      470.40384231


--------------------------------------------------------------------------------------------------------




--------------------------------------- Iteration      1(   3)  ---------------------------------------


     EDDAV:  cpu time    8.1793: real time    8.1808
       DOS:  cpu time    0.0011: real time    0.0011
    --------------------------------------------
      LOOP:  cpu time    8.1804: real time    8.1819

 eigenvalue-minimisations  :  1104
 total energy-change (2. order) :-0.8208770E+03  (-0.7894130E+03)
 number of electron     792.0000000 magnetization 
 augmentation part      792.0000000 magnetization 

 Free energy of the ion-electron system (eV)
  ---------------------------------------------------
  alpha Z        PSCENC =      1422.52235994
  Ewald energy   TEWEN  =    154801.24681466
  -Hartree energ DENC   =   -275085.84854342
  -exchange      EXHF   =         0.00000000
  -V(xc)+E(xc)   XCENC  =      3682.91405605
  PAW double counting   =    112729.53333415  -117641.51188735
  entropy T*S    EENTRO =        -1.05344322
  eigenvalues    EBANDS =    -16261.31087495
  atomic energy  EATOM  =    136002.60505376
  Solvation  Ediel_sol  =         0.00000000
  ---------------------------------------------------
  free energy    TOTEN  =      -350.90313037 eV

  energy without entropy =     -349.84968715  energy(sigma->0) =     -350.37640876


--------------------------------------------------------------------------------------------------------




--------------------------------------- Iteration      1(   4)  ---------------------------------------


     EDDAV:  cpu time    7.8823: real time    7.8845
       DOS:  cpu time    0.0012: real time    0.0012
    --------------------------------------------
      LOOP:  cpu time    7.8835: real time    7.8857

 eigenvalue-minimisations  :  1096
 total energy-change (2. order) :-0.4117988E+02  (-0.4077582E+02)
 number of electron     792.0000000 magnetization 
 augmentation part      792.0000000 magnetization 

 Free energy of the ion-electron system (eV)
  ---------------------------------------------------
  alpha Z        PSCENC =      1422.52235994
  Ewald energy   TEWEN  =    154801.24681466
  -Hartree energ DENC   =   -275085.84854342
  -exchange      EXHF   =         0.00000000
  -V(xc)+E(xc)   XCENC  =      3682.91405605
  PAW double counting   =    112729.53333415  -117641.51188735
  entropy T*S    EENTRO =        -1.06846039
  eigenvalues    EBANDS =    -16302.47573435
  atomic energy  EATOM  =    136002.60505376
  Solvation  Ediel_sol  =         0.00000000
  ---------------------------------------------------
  free energy    TOTEN  =      -392.08300694 eV

  energy without entropy =     -391.01454656  energy(sigma->0) =     -391.54877675


--------------------------------------------------------------------------------------------------------




--------------------------------------- Iteration      1(   5)  ---------------------------------------


     EDDAV:  cpu time    8.7259: real time    8.7277
       DOS:  cpu time    0.0013: real time    0.0013
    CHARGE:  cpu time    0.2607: real time    0.2607
    MIXING:  cpu time    0.0092: real time    0.0092
    --------------------------------------------
      LOOP:  cpu time    8.9970: real time    8.9988

 eigenvalue-minimisations  :  1208
 total energy-change (2. order) :-0.1615824E+01  (-0.1613800E+01)
 number of electron     791.9998463 magnetization 
 augmentation part      286.2837085 magnetization 

 Broyden mixing:
  rms(total) = 0.99186E+01    rms(broyden)= 0.99107E+01
  rms(prec ) = 0.10432E+02
  weight for this iteration     100.00

 Free energy of the ion-electron system (eV)
  ---------------------------------------------------
  alpha Z        PSCENC =      1422.52235994
  Ewald energy   TEWEN  =    154801.24681466
  -Hartree energ DENC   =   -275085.84854342
  -exchange      EXHF   =         0.00000000
  -V(xc)+E(xc)   XCENC  =      3682.91405605
  PAW double counting   =    112729.53333415  -117641.51188735
  entropy T*S    EENTRO =        -1.06074309
  eigenvalues    EBANDS =    -16304.09927555
  atomic energy  EATOM  =    136002.60505376
  Solvation  Ediel_sol  =         0.00000000
  ---------------------------------------------------
  free energy    TOTEN  =      -393.69883085 eV

  energy without entropy =     -392.63808775  energy(sigma->0) =     -393.16845930


--------------------------------------------------------------------------------------------------------




--------------------------------------- Iteration      1(   6)  ---------------------------------------


    POTLOK:  cpu time    0.3090: real time    0.3090
    SETDIJ:  cpu time    0.0168: real time    0.0168
     EDDAV:  cpu time    8.5704: real time    8.5723
       DOS:  cpu time    0.0012: real time    0.0012
    CHARGE:  cpu time    0.2528: real time    0.2528
    MIXING:  cpu time    0.0099: real time    0.0099
    --------------------------------------------
      LOOP:  cpu time    9.1601: real time    9.1620

 eigenvalue-minimisations  :  1200
 total energy-change (2. order) :-0.6493249E+02  (-0.9716396E+02)
 number of electron     791.9998072 magnetization 
 augmentation part      346.0377590 magnetization 

 Broyden mixing:
  rms(total) = 0.16181E+02    rms(broyden)= 0.16179E+02
  rms(prec ) = 0.16890E+02
  weight for this iteration     100.00

 eigenvalues of (default mixing * dielectric matrix)
  average eigenvalue GAMMA=   0.2283
  0.2283

 Free energy of the ion-electron system (eV)
  ---------------------------------------------------
  alpha Z        PSCENC =      1422.52235994
  Ewald energy   TEWEN  =    154801.24681466
  -Hartree energ DENC   =   -272445.53872503
  -exchange      EXHF   =         0.00000000
  -V(xc)+E(xc)   XCENC  =      3609.50103764
  PAW double counting   =    118010.22578753  -122691.67416153
  entropy T*S    EENTRO =        -0.75890374
  eigenvalues    EBANDS =    -19166.76058038
  atomic energy  EATOM  =    136002.60505376
  Solvation  Ediel_sol  =         0.00000000
  ---------------------------------------------------
  free energy    TOTEN  =      -458.63131716 eV

  energy without entropy =     -457.87241342  energy(sigma->0) =     -458.25186529


--------------------------------------------------------------------------------------------------------




--------------------------------------- Iteration      1(   7)  ---------------------------------------


    POTLOK:  cpu time    0.3142: real time    0.3146
    SETDIJ:  cpu time    0.0168: real time    0.0168
     EDDAV:  cpu time    8.1247: real time    8.1261
       DOS:  cpu time    0.0012: real time    0.0012
    CHARGE:  cpu time    0.2548: real time    0.2548
    MIXING:  cpu time    0.0101: real time    0.0101
    --------------------------------------------
      LOOP:  cpu time    8.7218: real time    8.7236

 eigenvalue-minimisations  :  1080
 total energy-change (2. order) : 0.9696347E+02  (-0.1944419E+02)
 number of electron     791.9998170 magnetization 
 augmentation part      331.3890952 magnetization 

 Broyden mixing:
  rms(total) = 0.68955E+01    rms(broyden)= 0.68946E+01
  rms(prec ) = 0.72797E+01
  weight for this iteration     100.00

 eigenvalues of (default mixing * dielectric matrix)
  average eigenvalue GAMMA=   0.5449
  0.5518  0.5380

 Free energy of the ion-electron system (eV)
  ---------------------------------------------------
  alpha Z        PSCENC =      1422.52235994
  Ewald energy   TEWEN  =    154801.24681466
  -Hartree energ DENC   =   -273463.96020193
  -exchange      EXHF   =         0.00000000
  -V(xc)+E(xc)   XCENC  =      3635.12355419
  PAW double counting   =    122599.73097920  -127420.38015468
  entropy T*S    EENTRO =        -0.81833853
  eigenvalues    EBANDS =    -17937.73791715
  atomic energy  EATOM  =    136002.60505376
  Solvation  Ediel_sol  =         0.00000000
  ---------------------------------------------------
  free energy    TOTEN  =      -361.66785055 eV

  energy without entropy =     -360.84951202  energy(sigma->0) =     -361.25868128


--------------------------------------------------------------------------------------------------------




--------------------------------------- Iteration      1(   8)  ---------------------------------------


    POTLOK:  cpu time    0.3087: real time    0.3087
    SETDIJ:  cpu time    0.0169: real time    0.0169
     EDDAV:  cpu time    9.3778: real time    9.3793
       DOS:  cpu time    0.0012: real time    0.0011
    CHARGE:  cpu time    0.2546: real time    0.2547
    MIXING:  cpu time    0.0103: real time    0.0103
    --------------------------------------------
      LOOP:  cpu time    9.9695: real time    9.9710

 eigenvalue-minimisations  :  1328
 total energy-change (2. order) :-0.4010743E+02  (-0.2410172E+02)
 number of electron     791.9998271 magnetization 
 augmentation part      300.7841132 magnetization 

 Broyden mixing:
  rms(total) = 0.14174E+02    rms(broyden)= 0.14172E+02
  rms(prec ) = 0.17048E+02
  weight for this iteration     100.00

 eigenvalues of (default mixing * dielectric matrix)
  average eigenvalue GAMMA=   0.4732
  0.8193  0.4480  0.1523

 Free energy of the ion-electron system (eV)
  ---------------------------------------------------
  alpha Z        PSCENC =      1422.52235994
  Ewald energy   TEWEN  =    154801.24681466
  -Hartree energ DENC   =   -274553.37012968
  -exchange      EXHF   =         0.00000000
  -V(xc)+E(xc)   XCENC  =      3662.75563686
  PAW double counting   =    131014.50100123  -135983.22098425
  entropy T*S    EENTRO =        -0.96565814
  eigenvalues    EBANDS =    -16767.84937732
  atomic energy  EATOM  =    136002.60505376
  Solvation  Ediel_sol  =         0.00000000
  ---------------------------------------------------
  free energy    TOTEN  =      -401.77528294 eV

  energy without entropy =     -400.80962480  energy(sigma->0) =     -401.29245387


--------------------------------------------------------------------------------------------------------




--------------------------------------- Iteration      1(   9)  ---------------------------------------


    POTLOK:  cpu time    0.3084: real time    0.3084
    SETDIJ:  cpu time    0.0167: real time    0.0167
     EDDAV:  cpu time    8.7787: real time    8.7804
       DOS:  cpu time    0.0012: real time    0.0012
    CHARGE:  cpu time    0.5045: real time    0.5045
    MIXING:  cpu time    0.0109: real time    0.0109
    --------------------------------------------
      LOOP:  cpu time    9.6204: real time    9.6221

 eigenvalue-minimisations  :  1256
 total energy-change (2. order) : 0.3908574E+02  (-0.1360468E+02)
 number of electron     791.9998409 magnetization 
 augmentation part      304.1713644 magnetization 

 Broyden mixing:
  rms(total) = 0.55250E+01    rms(broyden)= 0.55183E+01
  rms(prec ) = 0.62436E+01
  weight for this iteration     100.00

 eigenvalues of (default mixing * dielectric matrix)
  average eigenvalue GAMMA=   0.6790
  1.7674  0.4182  0.4182  0.1121

 Free energy of the ion-electron system (eV)
  ---------------------------------------------------
  alpha Z        PSCENC =      1422.52235994
  Ewald energy   TEWEN  =    154801.24681466
  -Hartree energ DENC   =   -274496.07413172
  -exchange      EXHF   =         0.00000000
  -V(xc)+E(xc)   XCENC  =      3660.48947807
  PAW double counting   =    133284.23412357  -138260.11618438
  entropy T*S    EENTRO =        -1.07819846
  eigenvalues    EBANDS =    -16776.51886054
  atomic energy  EATOM  =    136002.60505376
  Solvation  Ediel_sol  =         0.00000000
  ---------------------------------------------------
  free energy    TOTEN  =      -362.68954511 eV

  energy without entropy =     -361.61134665  energy(sigma->0) =     -362.15044588


--------------------------------------------------------------------------------------------------------




--------------------------------------- Iteration      1(  10)  ---------------------------------------


    POTLOK:  cpu time    0.3137: real time    0.3142
    SETDIJ:  cpu time    0.0171: real time    0.0171
     EDDAV:  cpu time    9.2439: real time    9.2458
       DOS:  cpu time    0.0013: real time    0.0013
    CHARGE:  cpu time    0.2542: real time    0.2542
    MIXING:  cpu time    0.0113: real time    0.0113
    --------------------------------------------
      LOOP:  cpu time    9.8415: real time    9.8439

 eigenvalue-minimisations  :  1328
 total energy-change (2. order) :-0.2901348E+02  (-0.9540580E+01)
 number of electron     791.9998258 magnetization 
 augmentation part      303.6414133 magnetization 

 Broyden mixing:
  rms(total) = 0.10606E+02    rms(broyden)= 0.10603E+02
  rms(prec ) = 0.12394E+02
  weight for this iteration     100.00

 eigenvalues of (default mixing * dielectric matrix)
  average eigenvalue GAMMA=   0.6746
  2.2666  0.4294  0.4294  0.1238  0.1238

 Free energy of the ion-electron system (eV)
  ---------------------------------------------------
  alpha Z        PSCENC =      1422.52235994
  Ewald energy   TEWEN  =    154801.24681466
  -Hartree energ DENC   =   -274357.22692983
  -exchange      EXHF   =         0.00000000
  -V(xc)+E(xc)   XCENC  =      3657.07748938
  PAW double counting   =    140171.40869702  -145184.15822791
  entropy T*S    EENTRO =        -0.97878175
  eigenvalues    EBANDS =    -16904.19950311
  atomic energy  EATOM  =    136002.60505376
  Solvation  Ediel_sol  =         0.00000000
  ---------------------------------------------------
  free energy    TOTEN  =      -391.70302786 eV

  energy without entropy =     -390.72424611  energy(sigma->0) =     -391.21363698


--------------------------------------------------------------------------------------------------------




--------------------------------------- Iteration      1(  11)  ---------------------------------------


    POTLOK:  cpu time    0.3120: real time    0.3121
    SETDIJ:  cpu time    0.0168: real time    0.0168
     EDDAV:  cpu time    9.3325: real time    9.3344
       DOS:  cpu time    0.0027: real time    0.0027
    CHARGE:  cpu time    0.2525: real time    0.2525
    MIXING:  cpu time    0.0116: real time    0.0116
    --------------------------------------------
      LOOP:  cpu time    9.9281: real time    9.9300

 eigenvalue-minimisations  :  1312
 total energy-change (2. order) : 0.2939532E+02  (-0.4551261E+01)
 number of electron     791.9998304 magnetization 
 augmentation part      310.7404155 magnetization 

 Broyden mixing:
  rms(total) = 0.51891E+01    rms(broyden)= 0.51863E+01
  rms(prec ) = 0.59773E+01
  weight for this iteration     100.00

 eigenvalues of (default mixing * dielectric matrix)
  average eigenvalue GAMMA=   0.6025
  2.3302  0.4270  0.4270  0.1804  0.1455  0.1048

 Free energy of the ion-electron system (eV)
  ---------------------------------------------------
  alpha Z        PSCENC =      1422.52235994
  Ewald energy   TEWEN  =    154801.24681466
  -Hartree energ DENC   =   -274203.87954464
  -exchange      EXHF   =         0.00000000
  -V(xc)+E(xc)   XCENC  =      3653.10218222
  PAW double counting   =    144200.53539917  -149226.93107159
  entropy T*S    EENTRO =        -0.99443678
  eigenvalues    EBANDS =    -17010.51446037
  atomic energy  EATOM  =    136002.60505376
  Solvation  Ediel_sol  =         0.00000000
  ---------------------------------------------------
  free energy    TOTEN  =      -362.30770364 eV

  energy without entropy =     -361.31326686  energy(sigma->0) =     -361.81048525


--------------------------------------------------------------------------------------------------------




--------------------------------------- Iteration      1(  12)  ---------------------------------------


    POTLOK:  cpu time    0.3115: real time    0.3115
    SETDIJ:  cpu time    0.0167: real time    0.0167
     EDDAV:  cpu time    9.3070: real time    9.3087
       DOS:  cpu time    0.0034: real time    0.0034
    CHARGE:  cpu time    0.2531: real time    0.2531
    MIXING:  cpu time    0.0123: real time    0.0123
    --------------------------------------------
      LOOP:  cpu time    9.9041: real time    9.9058

 eigenvalue-minimisations  :  1312
 total energy-change (2. order) : 0.1176873E+02  (-0.2512654E+01)
 number of electron     791.9998332 magnetization 
 augmentation part      313.2815560 magnetization 

 Broyden mixing:
  rms(total) = 0.28759E+01    rms(broyden)= 0.28735E+01
  rms(prec ) = 0.34295E+01
  weight for this iteration     100.00

 eigenvalues of (default mixing * dielectric matrix)
  average eigenvalue GAMMA=   0.5879
  2.2977  0.5290  0.4352  0.4352  0.1703  0.1240  0.1240

 Free energy of the ion-electron system (eV)
  ---------------------------------------------------
  alpha Z        PSCENC =      1422.52235994
  Ewald energy   TEWEN  =    154801.24681466
  -Hartree energ DENC   =   -274188.29138208
  -exchange      EXHF   =         0.00000000
  -V(xc)+E(xc)   XCENC  =      3652.51127563
  PAW double counting   =    144749.14545590  -149778.49655712
  entropy T*S    EENTRO =        -0.97125037
  eigenvalues    EBANDS =    -17010.81074225
  atomic energy  EATOM  =    136002.60505376
  Solvation  Ediel_sol  =         0.00000000
  ---------------------------------------------------
  free energy    TOTEN  =      -350.53897193 eV

  energy without entropy =     -349.56772155  energy(sigma->0) =     -350.05334674


--------------------------------------------------------------------------------------------------------




--------------------------------------- Iteration      1(  13)  ---------------------------------------


    POTLOK:  cpu time    0.3114: real time    0.3114
    SETDIJ:  cpu time    0.0176: real time    0.0176
     EDDAV:  cpu time    9.2098: real time    9.2112
       DOS:  cpu time    0.0032: real time    0.0032
    CHARGE:  cpu time    0.2623: real time    0.2623
    MIXING:  cpu time    0.0142: real time    0.0142
    --------------------------------------------
      LOOP:  cpu time    9.8184: real time    9.8199

 eigenvalue-minimisations  :  1288
 total energy-change (2. order) :-0.2949033E-02  (-0.1763842E+01)
 number of electron     791.9998298 magnetization 
 augmentation part      311.5803416 magnetization 

 Broyden mixing:
  rms(total) = 0.38179E+01    rms(broyden)= 0.38164E+01
  rms(prec ) = 0.46025E+01
  weight for this iteration     100.00

 eigenvalues of (default mixing * dielectric matrix)
  average eigenvalue GAMMA=   0.5561
  2.2731  0.7071  0.4426  0.4426  0.1884  0.1401  0.1401  0.1148

 Free energy of the ion-electron system (eV)
  ---------------------------------------------------
  alpha Z        PSCENC =      1422.52235994
  Ewald energy   TEWEN  =    154801.24681466
  -Hartree energ DENC   =   -274236.46913461
  -exchange      EXHF   =         0.00000000
  -V(xc)+E(xc)   XCENC  =      3653.23274813
  PAW double counting   =    144342.15693196  -149371.18209692
  entropy T*S    EENTRO =        -1.10249404
  eigenvalues    EBANDS =    -16963.55210383
  atomic energy  EATOM  =    136002.60505376
  Solvation  Ediel_sol  =         0.00000000
  ---------------------------------------------------
  free energy    TOTEN  =      -350.54192096 eV

  energy without entropy =     -349.43942692  energy(sigma->0) =     -349.99067394


--------------------------------------------------------------------------------------------------------




--------------------------------------- Iteration      1(  14)  ---------------------------------------


    POTLOK:  cpu time    0.3164: real time    0.3169
    SETDIJ:  cpu time    0.0224: real time    0.0224
     EDDAV:  cpu time    8.7953: real time    8.7968
       DOS:  cpu time    0.0041: real time    0.0041
    CHARGE:  cpu time    0.4679: real time    0.4679
    MIXING:  cpu time    0.0132: real time    0.0133
    --------------------------------------------
      LOOP:  cpu time    9.6195: real time    9.6214

 eigenvalue-minimisations  :  1248
 total energy-change (2. order) : 0.4033991E+01  (-0.1525381E+01)
 number of electron     791.9998322 magnetization 
 augmentation part      312.5893325 magnetization 

 Broyden mixing:
  rms(total) = 0.21960E+01    rms(broyden)= 0.21943E+01
  rms(prec ) = 0.25750E+01
  weight for this iteration     100.00

 eigenvalues of (default mixing * dielectric matrix)
  average eigenvalue GAMMA=   0.5138
  2.2452  0.4660  0.4660  0.5021  0.4127  0.1475  0.1475  0.1187  0.1187

 Free energy of the ion-electron system (eV)
  ---------------------------------------------------
  alpha Z        PSCENC =      1422.52235994
  Ewald energy   TEWEN  =    154801.24681466
  -Hartree energ DENC   =   -274245.50679648
  -exchange      EXHF   =         0.00000000
  -V(xc)+E(xc)   XCENC  =      3652.99219890
  PAW double counting   =    144005.78072450  -149031.56400860
  entropy T*S    EENTRO =        -1.00254264
  eigenvalues    EBANDS =    -16953.58173402
  atomic energy  EATOM  =    136002.60505376
  Solvation  Ediel_sol  =         0.00000000
  ---------------------------------------------------
  free energy    TOTEN  =      -346.50792998 eV

  energy without entropy =     -345.50538735  energy(sigma->0) =     -346.00665867


--------------------------------------------------------------------------------------------------------




--------------------------------------- Iteration      1(  15)  ---------------------------------------


    POTLOK:  cpu time    0.3169: real time    0.3170
    SETDIJ:  cpu time    0.0168: real time    0.0168
     EDDAV:  cpu time    9.0280: real time    9.0299
       DOS:  cpu time    0.0041: real time    0.0041
    CHARGE:  cpu time    0.2561: real time    0.2561
    MIXING:  cpu time    0.0143: real time    0.0143
    --------------------------------------------
      LOOP:  cpu time    9.6362: real time    9.6382

 eigenvalue-minimisations  :  1312
 total energy-change (2. order) : 0.1482190E+01  (-0.3535743E+00)
 number of electron     791.9998315 magnetization 
 augmentation part      312.5247447 magnetization 

 Broyden mixing:
  rms(total) = 0.17344E+01    rms(broyden)= 0.17339E+01
  rms(prec ) = 0.20555E+01
  weight for this iteration     100.00

 eigenvalues of (default mixing * dielectric matrix)
  average eigenvalue GAMMA=   0.5234
  2.2386  0.7009  0.7009  0.4276  0.4276  0.1787  0.1787  0.1158  0.1326  0.1326

 Free energy of the ion-electron system (eV)
  ---------------------------------------------------
  alpha Z        PSCENC =      1422.52235994
  Ewald energy   TEWEN  =    154801.24681466
  -Hartree energ DENC   =   -274256.29321880
  -exchange      EXHF   =         0.00000000
  -V(xc)+E(xc)   XCENC  =      3653.16542076
  PAW double counting   =    143724.01361695  -148747.79623954
  entropy T*S    EENTRO =        -1.00077487
  eigenvalues    EBANDS =    -16943.48877322
  atomic energy  EATOM  =    136002.60505376
  Solvation  Ediel_sol  =         0.00000000
  ---------------------------------------------------
  free energy    TOTEN  =      -345.02574037 eV

  energy without entropy =     -344.02496550  energy(sigma->0) =     -344.52535294


--------------------------------------------------------------------------------------------------------




--------------------------------------- Iteration      1(  16)  ---------------------------------------


    POTLOK:  cpu time    0.3126: real time    0.3126
    SETDIJ:  cpu time    0.0171: real time    0.0171
     EDDAV:  cpu time    9.2861: real time    9.2879
       DOS:  cpu time    0.0011: real time    0.0011
    CHARGE:  cpu time    0.2593: real time    0.2593
    MIXING:  cpu time    0.0155: real time    0.0155
    --------------------------------------------
      LOOP:  cpu time    9.8918: real time    9.8936

 eigenvalue-minimisations  :  1312
 total energy-change (2. order) : 0.4679159E+00  (-0.1654210E+00)
 number of electron     791.9998304 magnetization 
 augmentation part      312.4544628 magnetization 

 Broyden mixing:
  rms(total) = 0.15480E+01    rms(broyden)= 0.15476E+01
  rms(prec ) = 0.18474E+01
  weight for this iteration     100.00

 eigenvalues of (default mixing * dielectric matrix)
  average eigenvalue GAMMA=   0.5210
  2.2021  0.8686  0.8686  0.4268  0.4268  0.2055  0.2055  0.1432  0.1432  0.1204
  0.1204

 Free energy of the ion-electron system (eV)
  ---------------------------------------------------
  alpha Z        PSCENC =      1422.52235994
  Ewald energy   TEWEN  =    154801.24681466
  -Hartree energ DENC   =   -274268.21994745
  -exchange      EXHF   =         0.00000000
  -V(xc)+E(xc)   XCENC  =      3653.35591209
  PAW double counting   =    143479.50276009  -148500.88517760
  entropy T*S    EENTRO =        -0.98445069
  eigenvalues    EBANDS =    -16933.70114928
  atomic energy  EATOM  =    136002.60505376
  Solvation  Ediel_sol  =         0.00000000
  ---------------------------------------------------
  free energy    TOTEN  =      -344.55782449 eV

  energy without entropy =     -343.57337379  energy(sigma->0) =     -344.06559914


--------------------------------------------------------------------------------------------------------




--------------------------------------- Iteration      1(  17)  ---------------------------------------


    POTLOK:  cpu time    0.3125: real time    0.3125
    SETDIJ:  cpu time    0.0170: real time    0.0170
     EDDAV:  cpu time    9.1061: real time    9.1078
       DOS:  cpu time    0.0011: real time    0.0011
    CHARGE:  cpu time    0.2698: real time    0.2698
    MIXING:  cpu time    0.0148: real time    0.0148
    --------------------------------------------
      LOOP:  cpu time    9.7212: real time    9.7229

 eigenvalue-minimisations  :  1280
 total energy-change (2. order) : 0.5555698E+00  (-0.7788382E-01)
 number of electron     791.9998314 magnetization 
 augmentation part      312.3545421 magnetization 

 Broyden mixing:
  rms(total) = 0.13300E+01    rms(broyden)= 0.13298E+01
  rms(prec ) = 0.15860E+01
  weight for this iteration     100.00

 eigenvalues of (default mixing * dielectric matrix)
  average eigenvalue GAMMA=   0.5297
  2.1970  1.0278  1.0278  0.4271  0.4271  0.3512  0.2104  0.1612  0.1612  0.1258
  0.1258  0.1140

 Free energy of the ion-electron system (eV)
  ---------------------------------------------------
  alpha Z        PSCENC =      1422.52235994
  Ewald energy   TEWEN  =    154801.24681466
  -Hartree energ DENC   =   -274278.89839052
  -exchange      EXHF   =         0.00000000
  -V(xc)+E(xc)   XCENC  =      3653.42951873
  PAW double counting   =    143162.93584962  -148180.88991385
  entropy T*S    EENTRO =        -1.01031614
  eigenvalues    EBANDS =    -16925.94323084
  atomic energy  EATOM  =    136002.60505376
  Solvation  Ediel_sol  =         0.00000000
  ---------------------------------------------------
  free energy    TOTEN  =      -344.00225464 eV

  energy without entropy =     -342.99193850  energy(sigma->0) =     -343.49709657


--------------------------------------------------------------------------------------------------------




--------------------------------------- Iteration      1(  18)  ---------------------------------------


    POTLOK:  cpu time    0.3182: real time    0.3183
    SETDIJ:  cpu time    0.0168: real time    0.0168
     EDDAV:  cpu time    9.1978: real time    9.1995
       DOS:  cpu time    0.0011: real time    0.0011
    CHARGE:  cpu time    0.2534: real time    0.2536
    MIXING:  cpu time    0.0154: real time    0.0154
    --------------------------------------------
      LOOP:  cpu time    9.8027: real time    9.8047

 eigenvalue-minimisations  :  1296
 total energy-change (2. order) : 0.3797531E+00  (-0.3855913E-01)
 number of electron     791.9998303 magnetization 
 augmentation part      312.1648181 magnetization 

 Broyden mixing:
  rms(total) = 0.11830E+01    rms(broyden)= 0.11829E+01
  rms(prec ) = 0.14301E+01
  weight for this iteration     100.00

 eigenvalues of (default mixing * dielectric matrix)
  average eigenvalue GAMMA=   0.5606
  2.1925  1.3044  1.3044  0.4763  0.4376  0.4376  0.2777  0.1708  0.1708  0.1165
  0.1317  0.1317  0.1353

 Free energy of the ion-electron system (eV)
  ---------------------------------------------------
  alpha Z        PSCENC =      1422.52235994
  Ewald energy   TEWEN  =    154801.24681466
  -Hartree energ DENC   =   -274295.17304466
  -exchange      EXHF   =         0.00000000
  -V(xc)+E(xc)   XCENC  =      3653.53459145
  PAW double counting   =    142880.69361526  -147895.14842662
  entropy T*S    EENTRO =        -1.01010241
  eigenvalues    EBANDS =    -16912.89336295
  atomic energy  EATOM  =    136002.60505376
  Solvation  Ediel_sol  =         0.00000000
  ---------------------------------------------------
  free energy    TOTEN  =      -343.62250158 eV

  energy without entropy =     -342.61239917  energy(sigma->0) =     -343.11745037


--------------------------------------------------------------------------------------------------------




--------------------------------------- Iteration      1(  19)  ---------------------------------------


    POTLOK:  cpu time    0.3158: real time    0.3158
    SETDIJ:  cpu time    0.0175: real time    0.0175
     EDDAV:  cpu time    8.9554: real time    8.9573
       DOS:  cpu time    0.0012: real time    0.0012
    CHARGE:  cpu time    0.5130: real time    0.5130
    MIXING:  cpu time    0.0161: real time    0.0161
    --------------------------------------------
      LOOP:  cpu time    9.8190: real time    9.8210

 eigenvalue-minimisations  :  1296
 total energy-change (2. order) : 0.3979165E+00  (-0.3940347E-01)
 number of electron     791.9998312 magnetization 
 augmentation part      312.0140067 magnetization 

 Broyden mixing:
  rms(total) = 0.98217E+00    rms(broyden)= 0.98201E+00
  rms(prec ) = 0.11509E+01
  weight for this iteration     100.00

 eigenvalues of (default mixing * dielectric matrix)
  average eigenvalue GAMMA=   0.5795
  2.1572  1.5534  1.5534  0.4471  0.4471  0.4647  0.4647  0.1753  0.1753  0.1595
  0.1154  0.1279  0.1279  0.1438

 Free energy of the ion-electron system (eV)
  ---------------------------------------------------
  alpha Z        PSCENC =      1422.52235994
  Ewald energy   TEWEN  =    154801.24681466
  -Hartree energ DENC   =   -274316.25451722
  -exchange      EXHF   =         0.00000000
  -V(xc)+E(xc)   XCENC  =      3653.56539449
  PAW double counting   =    142484.48726843  -147493.57123487
  entropy T*S    EENTRO =        -1.01820512
  eigenvalues    EBANDS =    -16896.80751912
  atomic energy  EATOM  =    136002.60505376
  Solvation  Ediel_sol  =         0.00000000
  ---------------------------------------------------
  free energy    TOTEN  =      -343.22458507 eV

  energy without entropy =     -342.20637995  energy(sigma->0) =     -342.71548251


--------------------------------------------------------------------------------------------------------




--------------------------------------- Iteration      1(  20)  ---------------------------------------


    POTLOK:  cpu time    0.3237: real time    0.3237
    SETDIJ:  cpu time    0.0176: real time    0.0176
     EDDAV:  cpu time    9.0973: real time    9.1007
       DOS:  cpu time    0.0012: real time    0.0012
    CHARGE:  cpu time    0.2560: real time    0.2560
    MIXING:  cpu time    0.0182: real time    0.0181
    --------------------------------------------
      LOOP:  cpu time    9.7139: real time    9.7173

 eigenvalue-minimisations  :  1312
 total energy-change (2. order) : 0.4215494E+00  (-0.3619619E-01)
 number of electron     791.9998303 magnetization 
 augmentation part      311.9978837 magnetization 

 Broyden mixing:
  rms(total) = 0.71781E+00    rms(broyden)= 0.71767E+00
  rms(prec ) = 0.85633E+00
  weight for this iteration     100.00

 eigenvalues of (default mixing * dielectric matrix)
  average eigenvalue GAMMA=   0.6028
  2.1276  1.8142  1.8142  0.5851  0.5851  0.4311  0.4311  0.2074  0.2074  0.1661
  0.1661  0.1158  0.1298  0.1298  0.1318

 Free energy of the ion-electron system (eV)
  ---------------------------------------------------
  alpha Z        PSCENC =      1422.52235994
  Ewald energy   TEWEN  =    154801.24681466
  -Hartree energ DENC   =   -274335.22376738
  -exchange      EXHF   =         0.00000000
  -V(xc)+E(xc)   XCENC  =      3653.63802421
  PAW double counting   =    142029.25757046  -147033.00462756
  entropy T*S    EENTRO =        -1.03079192
  eigenvalues    EBANDS =    -16882.81367181
  atomic energy  EATOM  =    136002.60505376
  Solvation  Ediel_sol  =         0.00000000
  ---------------------------------------------------
  free energy    TOTEN  =      -342.80303564 eV

  energy without entropy =     -341.77224372  energy(sigma->0) =     -342.28763968


--------------------------------------------------------------------------------------------------------




--------------------------------------- Iteration      1(  21)  ---------------------------------------


    POTLOK:  cpu time    0.3182: real time    0.3182
    SETDIJ:  cpu time    0.0169: real time    0.0169
     EDDAV:  cpu time    9.2188: real time    9.2247
       DOS:  cpu time    0.0012: real time    0.0012
    CHARGE:  cpu time    0.2594: real time    0.2595
    MIXING:  cpu time    0.0187: real time    0.0187
    --------------------------------------------
      LOOP:  cpu time    9.8332: real time    9.8392

 eigenvalue-minimisations  :  1296
 total energy-change (2. order) : 0.2606935E+00  (-0.3517140E-01)
 number of electron     791.9998302 magnetization 
 augmentation part      311.9614946 magnetization 

 Broyden mixing:
  rms(total) = 0.44072E+00    rms(broyden)= 0.44040E+00
  rms(prec ) = 0.50714E+00
  weight for this iteration     100.00

 eigenvalues of (default mixing * dielectric matrix)
  average eigenvalue GAMMA=   0.5968
  2.0901  1.8894  1.8894  0.6369  0.6369  0.4274  0.4274  0.3465  0.2128  0.1687
  0.1687  0.1504  0.1293  0.1293  0.1157  0.1305

 Free energy of the ion-electron system (eV)
  ---------------------------------------------------
  alpha Z        PSCENC =      1422.52235994
  Ewald energy   TEWEN  =    154801.24681466
  -Hartree energ DENC   =   -274357.02613122
  -exchange      EXHF   =         0.00000000
  -V(xc)+E(xc)   XCENC  =      3653.66473082
  PAW double counting   =    141563.03290062  -146560.98198054
  entropy T*S    EENTRO =        -1.00476515
  eigenvalues    EBANDS =    -16866.60132506
  atomic energy  EATOM  =    136002.60505376
  Solvation  Ediel_sol  =         0.00000000
  ---------------------------------------------------
  free energy    TOTEN  =      -342.54234218 eV

  energy without entropy =     -341.53757703  energy(sigma->0) =     -342.03995961


--------------------------------------------------------------------------------------------------------




--------------------------------------- Iteration      1(  22)  ---------------------------------------


    POTLOK:  cpu time    0.3184: real time    0.3188
    SETDIJ:  cpu time    0.0170: real time    0.0170
     EDDAV:  cpu time    9.1229: real time    9.1243
       DOS:  cpu time    0.0012: real time    0.0012
    CHARGE:  cpu time    0.2547: real time    0.2548
    MIXING:  cpu time    0.0184: real time    0.0184
    --------------------------------------------
      LOOP:  cpu time    9.7326: real time    9.7345

 eigenvalue-minimisations  :  1280
 total energy-change (2. order) : 0.7340220E-01  (-0.2046502E-01)
 number of electron     791.9998302 magnetization 
 augmentation part      311.9587617 magnetization 

 Broyden mixing:
  rms(total) = 0.28622E+00    rms(broyden)= 0.28598E+00
  rms(prec ) = 0.33070E+00
  weight for this iteration     100.00

 eigenvalues of (default mixing * dielectric matrix)
  average eigenvalue GAMMA=   0.5925
  2.0672  1.9359  1.9359  0.7094  0.7094  0.4793  0.4304  0.4304  0.2257  0.1744
  0.1744  0.1518  0.1518  0.1284  0.1284  0.1161  0.1232

 Free energy of the ion-electron system (eV)
  ---------------------------------------------------
  alpha Z        PSCENC =      1422.52235994
  Ewald energy   TEWEN  =    154801.24681466
  -Hartree energ DENC   =   -274368.56923808
  -exchange      EXHF   =         0.00000000
  -V(xc)+E(xc)   XCENC  =      3653.71437212
  PAW double counting   =    141328.71791466  -146324.11346066
  entropy T*S    EENTRO =        -1.02491276
  eigenvalues    EBANDS =    -16857.56784362
  atomic energy  EATOM  =    136002.60505376
  Solvation  Ediel_sol  =         0.00000000
  ---------------------------------------------------
  free energy    TOTEN  =      -342.46893998 eV

  energy without entropy =     -341.44402722  energy(sigma->0) =     -341.95648360


--------------------------------------------------------------------------------------------------------




--------------------------------------- Iteration      1(  23)  ---------------------------------------


    POTLOK:  cpu time    0.3174: real time    0.3175
    SETDIJ:  cpu time    0.0170: real time    0.0170
     EDDAV:  cpu time    8.5842: real time    8.5856
       DOS:  cpu time    0.0011: real time    0.0011
    CHARGE:  cpu time    0.2777: real time    0.2778
    MIXING:  cpu time    0.0193: real time    0.0193
    --------------------------------------------
      LOOP:  cpu time    9.2167: real time    9.2184

 eigenvalue-minimisations  :  1200
 total energy-change (2. order) : 0.2069360E-01  (-0.9025668E-02)
 number of electron     791.9998300 magnetization 
 augmentation part      311.9652994 magnetization 

 Broyden mixing:
  rms(total) = 0.22619E+00    rms(broyden)= 0.22610E+00
  rms(prec ) = 0.24965E+00
  weight for this iteration     100.00

 eigenvalues of (default mixing * dielectric matrix)
  average eigenvalue GAMMA=   0.5923
  2.0524  1.9645  1.9645  0.8193  0.8193  0.4823  0.4338  0.4338  0.3418  0.1918
  0.1918  0.1642  0.1642  0.1292  0.1292  0.1390  0.1159  0.1240

 Free energy of the ion-electron system (eV)
  ---------------------------------------------------
  alpha Z        PSCENC =      1422.52235994
  Ewald energy   TEWEN  =    154801.24681466
  -Hartree energ DENC   =   -274374.88202311
  -exchange      EXHF   =         0.00000000
  -V(xc)+E(xc)   XCENC  =      3653.73911340
  PAW double counting   =    141235.68852901  -146230.31057982
  entropy T*S    EENTRO =        -1.01827323
  eigenvalues    EBANDS =    -16852.03924098
  atomic energy  EATOM  =    136002.60505376
  Solvation  Ediel_sol  =         0.00000000
  ---------------------------------------------------
  free energy    TOTEN  =      -342.44824638 eV

  energy without entropy =     -341.42997315  energy(sigma->0) =     -341.93910977


--------------------------------------------------------------------------------------------------------




--------------------------------------- Iteration      1(  24)  ---------------------------------------


    POTLOK:  cpu time    0.3203: real time    0.3203
    SETDIJ:  cpu time    0.0167: real time    0.0167
     EDDAV:  cpu time    8.4042: real time    8.4058
       DOS:  cpu time    0.0013: real time    0.0013
    CHARGE:  cpu time    0.2574: real time    0.2575
    MIXING:  cpu time    0.0198: real time    0.0198
    --------------------------------------------
      LOOP:  cpu time    9.0196: real time    9.0214

 eigenvalue-minimisations  :  1192
 total energy-change (2. order) : 0.4274144E-02  (-0.4639424E-02)
 number of electron     791.9998299 magnetization 
 augmentation part      312.0016143 magnetization 

 Broyden mixing:
  rms(total) = 0.18702E+00    rms(broyden)= 0.18694E+00
  rms(prec ) = 0.21128E+00
  weight for this iteration     100.00

 eigenvalues of (default mixing * dielectric matrix)
  average eigenvalue GAMMA=   0.6189
  2.0774  2.0029  2.0029  1.0635  1.0635  0.5639  0.5639  0.4329  0.4329  0.2089
  0.2089  0.1696  0.1696  0.1632  0.1289  0.1289  0.1397  0.1159  0.1224

 Free energy of the ion-electron system (eV)
  ---------------------------------------------------
  alpha Z        PSCENC =      1422.52235994
  Ewald energy   TEWEN  =    154801.24681466
  -Hartree energ DENC   =   -274379.45981179
  -exchange      EXHF   =         0.00000000
  -V(xc)+E(xc)   XCENC  =      3653.76223105
  PAW double counting   =    141181.54968252  -146175.97883033
  entropy T*S    EENTRO =        -1.02807782
  eigenvalues    EBANDS =    -16847.66339422
  atomic energy  EATOM  =    136002.60505376
  Solvation  Ediel_sol  =         0.00000000
  ---------------------------------------------------
  free energy    TOTEN  =      -342.44397224 eV

  energy without entropy =     -341.41589442  energy(sigma->0) =     -341.92993333


--------------------------------------------------------------------------------------------------------




--------------------------------------- Iteration      1(  25)  ---------------------------------------


    POTLOK:  cpu time    0.3197: real time    0.3197
    SETDIJ:  cpu time    0.0168: real time    0.0168
     EDDAV:  cpu time    8.6451: real time    8.6468
       DOS:  cpu time    0.0012: real time    0.0012
    CHARGE:  cpu time    0.2587: real time    0.2587
    MIXING:  cpu time    0.0210: real time    0.0210
    --------------------------------------------
      LOOP:  cpu time    9.2624: real time    9.2641

 eigenvalue-minimisations  :  1192
 total energy-change (2. order) : 0.3231633E-02  (-0.4967891E-02)
 number of electron     791.9998300 magnetization 
 augmentation part      312.1177330 magnetization 

 Broyden mixing:
  rms(total) = 0.15953E+00    rms(broyden)= 0.15944E+00
  rms(prec ) = 0.18525E+00
  weight for this iteration     100.00

 eigenvalues of (default mixing * dielectric matrix)
  average eigenvalue GAMMA=   0.6260
  2.0961  1.8830  1.8830  1.3114  1.3114  0.6523  0.6523  0.4325  0.4325  0.3444
  0.2048  0.1705  0.1705  0.1717  0.1717  0.1291  0.1291  0.1353  0.1159  0.1218

 Free energy of the ion-electron system (eV)
  ---------------------------------------------------
  alpha Z        PSCENC =      1422.52235994
  Ewald energy   TEWEN  =    154801.24681466
  -Hartree energ DENC   =   -274384.50635180
  -exchange      EXHF   =         0.00000000
  -V(xc)+E(xc)   XCENC  =      3653.78009901
  PAW double counting   =    141154.90828237  -146149.60020855
  entropy T*S    EENTRO =        -1.00971110
  eigenvalues    EBANDS =    -16842.38707890
  atomic energy  EATOM  =    136002.60505376
  Solvation  Ediel_sol  =         0.00000000
  ---------------------------------------------------
  free energy    TOTEN  =      -342.44074061 eV

  energy without entropy =     -341.43102951  energy(sigma->0) =     -341.93588506


--------------------------------------------------------------------------------------------------------




[...]
    FORCOR:  cpu time    0.5303: real time    0.5304
    FORHAR:  cpu time    0.1856: real time    0.1856
    MIXING:  cpu time    0.0324: real time    0.0324
    OFIELD:  cpu time    0.0001: real time    0.0001

  FORCE on cell =-STRESS in cart. coord.  units (eV):
  Direction    XX          YY          ZZ          XY          YZ          ZX
  --------------------------------------------------------------------------------------
  Alpha Z  1422.52236  1422.52236  1422.52236
  Ewald  207911.38523205254.62420************ -1383.78401    67.27129   601.25605
  Hartree241174.66309239308.66083************ -1160.38457    18.26222   306.84960
  E(xc)   -5053.75645 -5054.75857 -5063.62173    -0.21386     0.13127     0.95519
  Local  ************************451756.88285  2540.31680   -86.91570  -880.27587
  n-local  -578.35591  -582.51395  -593.12939     2.13864     1.71237     0.25493
  augment  5774.13869  5790.04334  5813.42042     0.17985     0.85010   -12.15471
  Kinetic 11069.88069 11085.15216 11218.92493     4.24460     0.80390   -20.78703
  Fock        0.00000     0.00000     0.00000     0.00000     0.00000     0.00000
  -------------------------------------------------------------------------------------
  Total     122.86457   118.65560   144.31934     2.49744     2.11544    -3.90184
  in kB      75.27749    72.69871    88.42254     1.53015     1.29610    -2.39061
  external pressure =       78.80 kB  Pullay stress =        0.00 kB


 VOLUME and BASIS-vectors are now :
 -----------------------------------------------------------------------------
  energy-cutoff  :      450.00
  volume of cell :     2615.00
      direct lattice vectors                 reciprocal lattice vectors
    16.884694054  0.000000000  0.000000000     0.059225237  0.000000000  0.000000000
     0.000000000  9.578410000  0.000000000     0.000000000  0.104401461  0.000000000
     0.000000000  0.000000000 16.169087120     0.000000000  0.000000000  0.061846411

  length of vectors
    16.884694054  9.578410000 16.169087120     0.059225237  0.104401461  0.061846411


 FORCES acting on ions
    electron-ion (+dipol)            ewald-force                    non-local-force                 convergence-correction
 -----------------------------------------------------------------------------------------------
   0.423E+03 0.430E+03 0.168E+04   -.425E+03 -.433E+03 -.169E+04   0.179E+01 0.255E+01 0.517E+01   0.100E+00 -.877E-01 0.392E-01
   0.479E+03 0.851E+02 -.306E+04   -.477E+03 -.869E+02 0.306E+04   -.203E+01 0.208E+01 -.145E+01   0.149E+00 -.628E-01 0.800E-01
   -.419E+03 -.212E+01 0.322E+04   0.420E+03 0.214E+01 -.323E+04   -.635E-01 -.708E-01 0.849E+01   -.557E-01 0.128E-01 -.353E-01
   0.243E+03 0.320E+00 -.586E+03   -.244E+03 -.113E+00 0.590E+03   0.138E+01 -.784E-01 -.241E+01   -.172E+00 0.105E-01 -.416E-02
   0.375E+02 -.946E+02 0.261E+04   -.379E+02 0.953E+02 -.262E+04   0.122E+01 -.103E+01 0.740E+01   -.342E-01 0.207E-02 -.948E-02
   0.279E+03 -.632E+02 -.163E+04   -.282E+03 0.637E+02 0.163E+04   0.258E+01 -.317E+00 -.571E+01   -.514E-01 0.534E-02 0.111E+00
   0.666E+03 -.139E+03 0.155E+04   -.669E+03 0.139E+03 -.156E+04   0.318E+01 0.412E-01 0.519E+01   0.104E+00 0.973E-01 0.146E-01
   0.626E+03 -.252E+02 -.308E+04   -.631E+03 0.251E+02 0.308E+04   0.317E+01 0.984E-01 -.395E+01   0.130E+00 0.278E-01 0.501E-01
   0.422E+03 0.138E+02 0.105E+04   -.426E+03 -.137E+02 -.105E+04   0.359E+01 -.692E-01 0.292E+01   -.873E-01 -.228E-01 0.153E+00
   -.896E+02 0.919E+01 -.330E+04   0.874E+02 -.904E+01 0.330E+04   0.338E+01 -.137E+00 -.137E+01   -.104E-01 -.944E-02 0.135E-01
   0.112E+02 0.402E+03 0.184E+04   -.120E+02 -.402E+03 -.185E+04   0.138E+01 -.112E+00 0.738E+01   0.966E-02 0.664E-02 -.586E-01
   0.238E+03 0.706E+02 -.238E+04   -.243E+03 -.710E+02 0.238E+04   0.300E+01 -.113E-01 -.783E+01   0.235E-01 0.683E-01 0.498E-01
   0.125E+03 0.398E+03 0.275E+04   -.122E+03 -.403E+03 -.276E+04   -.343E+01 0.607E+01 0.105E+01   0.697E-01 -.752E-01 0.130E-01
   0.615E+02 0.572E+03 -.204E+04   -.615E+02 -.575E+03 0.204E+04   -.834E+00 0.230E+01 -.412E+01   0.448E-01 0.453E-01 0.198E-01
   -.896E+02 0.449E+03 0.977E+03   0.894E+02 -.453E+03 -.981E+03   0.416E+00 0.328E+01 0.313E+01   -.103E+00 0.220E-01 0.386E-01
   -.163E+03 0.126E+03 -.343E+04   0.166E+03 -.130E+03 0.343E+04   -.343E+01 0.425E+01 0.155E+01   -.128E+00 -.858E-02 0.147E+00
   -.320E+03 0.217E+03 0.357E+04   0.318E+03 -.218E+03 -.357E+04   0.243E+01 0.789E+00 -.170E+01   0.444E-01 -.799E-02 -.111E+00
   -.620E+03 0.205E+03 -.916E+03   0.622E+03 -.207E+03 0.921E+03   -.140E+01 0.265E+01 -.481E+01   0.546E-01 0.142E-01 0.352E-01
   -.151E+02 0.611E+03 0.220E+04   0.147E+02 -.617E+03 -.220E+04   0.310E+00 0.496E+01 0.446E+01   0.727E-01 0.890E-01 0.354E-01
   -.347E+03 0.398E+03 -.253E+04   0.350E+03 -.404E+03 0.254E+04   -.162E+01 0.437E+01 -.381E+01   -.932E-02 0.689E-03 0.587E-01
   -.375E+02 0.435E+03 0.164E+04   0.375E+02 -.440E+03 -.164E+04   0.427E+00 0.368E+01 0.380E+01   -.148E+00 -.638E-01 0.113E+00
   -.404E+02 0.958E+02 -.293E+04   0.414E+02 -.993E+02 0.293E+04   -.102E+01 0.391E+01 0.849E+00   -.112E+00 0.844E-02 0.150E+00
   0.235E+03 -.143E+03 0.287E+04   -.237E+03 0.145E+03 -.288E+04   0.148E+01 -.113E+01 0.725E+01   0.702E-02 0.241E-01 -.743E-01
   -.261E+03 0.424E+03 -.172E+04   0.263E+03 -.428E+03 0.172E+04   -.211E+01 0.333E+01 -.656E+01   0.712E-01 -.206E-01 0.383E-02
   -.430E+03 -.194E+02 0.270E+04   0.436E+03 0.214E+02 -.271E+04   -.447E+01 -.219E+01 0.664E+01   0.756E-01 -.113E+00 0.559E-01
   0.173E+01 -.500E+03 -.206E+04   -.640E+00 0.503E+03 0.207E+04   -.205E+01 -.206E+01 -.469E+01   0.889E-01 -.979E-01 0.121E+00
   0.190E+03 -.343E+03 0.908E+03   -.191E+03 0.346E+03 -.912E+03   0.799E+00 -.282E+01 0.299E+01   -.106E+00 0.302E-02 0.134E-01
   -.117E+03 -.110E+03 -.343E+04   0.120E+03 0.114E+03 0.343E+04   -.343E+01 -.446E+01 0.112E+00   -.109E+00 -.686E-02 0.101E+00
   -.103E+03 -.425E+03 0.366E+04   0.101E+03 0.426E+03 -.367E+04   0.133E+01 -.583E+00 0.597E+01   0.481E-01 0.597E-02 -.837E-01
   -.448E+03 -.540E+03 -.526E+03   0.450E+03 0.544E+03 0.528E+03   -.843E+00 -.376E+01 -.365E+01   0.225E-01 -.243E-01 0.201E-01
   0.225E+02 -.643E+03 0.221E+04   -.220E+02 0.648E+03 -.221E+04   -.516E+00 -.488E+01 0.448E+01   0.733E-02 -.215E-01 0.193E-01
   -.337E+03 -.409E+03 -.252E+04   0.340E+03 0.415E+03 0.253E+04   -.174E+01 -.432E+01 -.401E+01   -.167E-01 0.248E-01 0.542E-01
   0.294E+02 -.442E+03 0.162E+04   -.296E+02 0.446E+03 -.162E+04   0.409E+00 -.383E+01 0.378E+01   -.141E+00 0.632E-01 0.135E+00
   -.503E+02 -.925E+02 -.297E+04   0.509E+02 0.957E+02 0.297E+04   -.656E+00 -.356E+01 0.124E+01   -.991E-01 -.640E-02 0.171E+00
   -.888E+02 -.196E+03 0.309E+04   0.879E+02 0.196E+03 -.310E+04   0.453E+00 0.599E-01 0.491E+01   0.523E-01 0.400E-01 -.751E-01
   -.393E+03 -.678E+03 -.130E+04   0.397E+03 0.684E+03 0.130E+04   -.273E+01 -.479E+01 -.533E+01   0.696E-01 0.137E+00 0.102E-01
   0.904E+02 0.505E+01 -.161E+04   -.893E+02 -.499E+01 0.162E+04   -.143E+01 0.365E-01 -.180E+01   0.159E-01 -.249E-02 -.328E-02
   -.248E+03 0.145E+02 0.464E+03   0.250E+03 -.145E+02 -.466E+03   0.603E+00 0.656E-01 0.734E+00   0.170E-01 -.474E-01 0.574E-01
   0.651E+02 0.939E+02 0.155E+04   -.661E+02 -.942E+02 -.155E+04   0.146E+01 0.133E+00 0.209E+01   -.292E-01 0.768E-02 -.577E-01
   -.935E+02 0.592E+02 -.862E+03   0.951E+02 -.591E+02 0.868E+03   0.870E-01 -.135E+00 -.455E+01   -.264E-01 -.227E-02 0.350E-01
   -.239E+03 -.900E+02 0.109E+04   0.240E+03 0.921E+02 -.110E+04   -.997E+00 -.287E+01 0.382E+01   0.172E-01 0.483E-03 -.195E-01
   -.735E+01 0.970E+01 -.934E+03   0.674E+01 -.100E+02 0.940E+03   0.529E+00 0.127E+00 -.417E+01   0.415E-01 -.113E-01 0.291E-01
   0.379E+02 -.735E+01 0.175E+04   -.383E+02 0.737E+01 -.176E+04   0.418E+00 -.299E-01 0.160E+01   0.419E-01 0.108E-01 0.204E-02
   -.161E+03 -.275E+01 -.171E+03   0.162E+03 0.294E+01 0.174E+03   0.304E+00 -.181E+00 -.326E+01   -.159E-02 0.112E-01 -.231E-01
   -.849E+02 -.228E+01 -.172E+04   0.853E+02 0.223E+01 0.173E+04   0.113E+00 0.341E-01 -.925E+00   -.580E-02 0.111E-01 0.276E-01
   0.543E+02 0.252E+02 0.167E+04   -.548E+02 -.254E+02 -.168E+04   0.960E+00 0.971E-01 0.181E+01   -.399E-01 -.219E-03 -.653E-01
   -.825E+02 0.187E+02 -.556E+03   0.838E+02 -.187E+02 0.562E+03   -.155E+00 -.132E+00 -.471E+01   -.622E-01 0.128E-01 0.101E+00
   -.204E+03 -.243E+03 0.753E+03   0.205E+03 0.245E+03 -.756E+03   0.233E+00 -.219E+01 0.172E+01   0.385E-01 0.369E-01 -.234E-01
   -.383E+02 -.255E+02 -.122E+04   0.398E+02 0.253E+02 0.122E+04   -.790E+00 0.907E-01 -.191E+01   0.645E-01 0.303E-01 0.250E-01
   0.134E+03 0.140E+03 0.167E+04   -.136E+03 -.140E+03 -.168E+04   0.801E+00 -.197E+00 0.263E+01   -.795E-02 -.280E-01 -.593E-01
   0.783E+02 -.139E+03 -.298E+03   -.778E+02 0.141E+03 0.303E+03   -.167E+00 -.965E-01 -.162E+01   0.384E-01 -.441E-01 0.536E-01
   -.914E+02 -.133E+03 0.101E+04   0.921E+02 0.135E+03 -.102E+04   -.947E-01 0.309E-01 0.310E+01   -.563E-01 -.525E-01 -.207E-01
   0.167E+03 0.792E+02 -.115E+04   -.168E+03 -.783E+02 0.116E+04   -.259E+00 -.470E+00 -.280E+01   -.573E-01 0.132E-01 0.431E-01
   -.328E+02 -.353E+03 0.759E+03   0.323E+02 0.356E+03 -.762E+03   -.492E+00 -.856E+00 0.271E+01   0.123E-01 0.631E-02 -.571E-02
   -.161E+03 0.407E+02 -.140E+04   0.163E+03 -.390E+02 0.141E+04   -.163E+01 -.149E+01 -.214E+01   -.162E-01 -.163E-02 0.483E-01
   0.164E+03 -.180E+03 -.357E+03   -.165E+03 0.183E+03 0.358E+03   0.329E-01 -.105E+01 -.834E+00   0.679E-02 0.702E-02 0.152E-01
   0.178E+03 -.106E+03 0.137E+04   -.180E+03 0.107E+03 -.137E+04   0.147E+01 -.328E-01 0.301E+01   -.254E-02 0.145E-01 0.308E-02
   0.900E+02 0.330E+02 0.119E+04   -.912E+02 -.339E+02 -.119E+04   0.402E+00 0.813E+00 0.383E+01   -.183E-01 0.433E-02 0.135E-01
   0.288E+02 -.962E+02 -.774E+03   -.292E+02 0.978E+02 0.776E+03   -.322E+00 -.184E+01 -.819E+00   0.108E-02 -.276E-01 0.445E-01
   -.213E+03 -.235E+03 0.249E+03   0.213E+03 0.238E+03 -.248E+03   -.913E+00 -.150E+01 -.407E-01   0.439E-01 0.453E-02 -.100E-02
   -.936E+01 -.260E+03 -.154E+04   0.859E+01 0.263E+03 0.155E+04   0.279E+00 -.245E+01 -.537E+00   0.282E-01 0.340E-01 0.443E-01
   -.101E+03 0.121E+03 0.102E+04   0.102E+03 -.122E+03 -.102E+04   -.148E+00 0.187E+00 0.347E+01   -.665E-01 0.487E-01 -.206E-01
   0.162E+03 -.710E+02 -.112E+04   -.163E+03 0.697E+02 0.112E+04   -.315E+00 0.717E+00 -.260E+01   -.612E-01 -.328E-01 0.605E-01
   0.183E+03 0.294E+03 -.397E+02   -.184E+03 -.297E+03 0.396E+02   0.920E-01 0.744E-01 0.815E+00   0.618E-01 0.973E-02 0.113E-01
   0.140E+03 0.169E+03 -.375E+03   -.141E+03 -.172E+03 0.375E+03   -.139E+00 0.131E+01 -.472E+00   0.130E-01 0.693E-02 0.342E-01
   0.647E+02 0.651E+02 0.137E+04   -.663E+02 -.650E+02 -.138E+04   0.143E+01 -.750E+00 0.353E+01   0.347E-01 0.539E-01 -.611E-02
   0.253E+03 0.173E+03 0.664E+03   -.256E+03 -.175E+03 -.665E+03   0.932E+00 0.745E+00 0.581E+00   -.872E-02 -.122E-01 -.443E-02
   -.167E+03 -.832E+02 -.148E+04   0.169E+03 0.815E+02 0.148E+04   -.105E+01 0.139E+01 -.212E+01   -.613E-02 0.839E-02 0.554E-01
   0.175E+03 0.283E+03 0.372E+03   -.177E+03 -.286E+03 -.373E+03   0.125E+01 0.120E+01 0.346E+00   0.603E-02 -.633E-02 -.233E-01
   0.176E+02 0.260E+03 -.154E+04   -.184E+02 -.263E+03 0.155E+04   0.314E+00 0.238E+01 -.117E+01   0.627E-02 -.137E-01 0.669E-01
   0.975E+02 -.280E+02 0.119E+04   -.984E+02 0.288E+02 -.119E+04   0.236E+00 -.693E+00 0.410E+01   -.405E-01 -.118E-01 0.914E-02
   0.295E+02 0.958E+02 -.774E+03   -.297E+02 -.972E+02 0.777E+03   -.485E+00 0.168E+01 -.946E+00   -.265E-01 0.161E-01 0.418E-01
 -----------------------------------------------------------------------------------------------
   -.280E+01 0.145E+01 -.317E+02   0.618E-12 0.188E-11 -.398E-11   0.294E+01 -.162E+01 0.298E+02   -.183E+00 0.134E+00 0.186E+01
 
 
 POSITION                                       TOTAL-FORCE (eV/Angst)
 -----------------------------------------------------------------------------------
     12.93770      1.45138      2.13093        -0.026555     -0.632471     -0.291640
     13.78404      1.36887      4.39375         0.268403      0.173543      1.312219
      3.65960      6.17633      1.17645         1.079900     -0.032053     -0.372346
      5.02033      6.18092      3.11308        -0.124935      0.140146      1.602288
      6.54485      1.60769      1.68558         0.806359     -0.419262     -0.192819
      7.93172      1.39171      3.62717        -0.360115      0.174192     -0.373224
     16.08224      6.18092      2.08489        -0.022939      0.010307      1.884841
     16.44707      6.18208      4.80006        -1.769081     -0.011157      0.471414
      2.10894      1.39171      2.59898        -0.573900     -0.033624      0.278181
      1.75560      1.39195      4.90898         1.177756      0.003673      0.858145
      9.43704      6.39856      2.18203         0.584522     -0.455249     -0.484482
     10.84312      6.18092      4.14126        -1.364465     -0.324484     -1.524067
     15.42303      0.07368      1.62222        -0.412494      0.573838     -1.339797
     15.95979      0.10478      4.03871        -0.697068     -0.837371     -0.034254
      7.17375      4.91558      2.70560         0.079984     -0.597085     -0.777045
      7.89446      4.42708      4.97375        -0.216169      0.608837      0.711301
      9.88971      8.64462      1.10044         0.256922     -0.101588     -0.985520
     10.08514      0.12638      3.21969         1.028962      0.442549     -0.540811
      1.35096      4.91558      1.67742         0.064409     -0.424822      1.661279
      1.89127      4.84462      4.42876         1.233589     -1.165725      0.458538
      4.26235      0.12638      2.19151         0.345572     -0.832218      1.053578
      4.95009      9.27558      4.51077        -0.118987      0.416274      0.836649
     13.30169      4.13865      1.45272        -0.378402      0.598323      0.021807
     12.99653      4.91558      3.73378         0.618481     -0.497562     -1.383262
     15.37673      2.67568      1.52727         1.174242     -0.266896     -0.209519
     15.97685      2.66685      4.02752        -0.864094      1.071981     -0.103138
      7.17375      7.44626      2.70560        -0.352096      0.685426     -0.965852
      7.98685      8.02355      4.87698        -0.347463     -0.780808      0.853627
      8.95646      1.39462      1.07982        -0.402052      0.058025     -1.881438
     10.08514      2.65705      3.21969         1.160167      0.211110     -1.873934
      1.35096      7.44626      1.67742         0.015648      0.428611      1.699101
      1.89209      7.51764      4.42871         1.255682      1.145140      0.430145
      4.26235      2.65705      2.19151         0.123324      0.973788      1.004748
      4.94276      3.05810      4.53621        -0.144949     -0.333885      0.966965
     11.85003      6.17790      1.57571        -0.414549      0.142649     -2.082122
     12.99653      7.44626      3.73378         1.322598      0.752428     -1.980421
     16.69642      1.38712      5.47321        -0.332363      0.100327      3.532486
     16.74052      1.39171      2.57045         2.218529      0.064044     -1.681064
      7.68534      6.17751      1.15105         0.487717     -0.119786     -3.738558
      8.59001      6.18092      4.11272         1.618658     -0.062113      1.573216
     10.91773      1.39171      1.54227         0.425078     -0.690721     -2.341542
     11.70122      1.41047      3.99645        -0.037273     -0.188433      2.406913
      1.90716      6.18011      0.15870         0.095628     -0.002745     -4.036104
      2.76722      6.18092      3.08454         0.695727      0.016324     -0.006946
      1.31102      6.18132      5.86772         0.542530     -0.001927      4.170876
      4.80767      1.39032      0.65872         0.397022     -0.021859     -3.890255
      5.67861      1.39171      3.59863         0.996795     -0.173666      1.398449
     13.82913      6.18092      2.05636         1.723720      0.353983     -1.341089
     14.35116      6.19358      4.74261         0.772390     -0.088844      2.583354
     13.66897      2.39582      0.41859        -0.566593     -0.744299     -4.146066
     13.99844      3.00295      3.08932         0.301125      1.736465      2.944258
      5.07145      7.74371      1.73513         0.550641      1.441992     -2.122989
      6.01498      7.55392      4.48738        -1.336945      0.529792      2.274314
      8.17565      3.00295      2.06114        -0.971881      1.829475     -0.120042
      8.95018      2.73479      4.91803         0.207662      0.284505      2.822500
      0.02514      7.79215      3.60341        -0.991416      1.450235     -0.541192
     16.32238      7.91151      0.95714        -0.949509      0.801461     -2.716670
      2.36309      3.08829      1.40168        -0.786473     -0.132389     -2.614223
      2.93654      3.00295      4.11750        -0.734829     -0.289839      1.234629
     11.08705      7.79215      2.57523        -0.266164      1.608504      0.164577
     11.76945      7.55135      5.32511        -0.457429      1.268066      3.697988
      5.09382      4.61746      1.72557         0.324526     -1.281407     -2.127377
      5.95650      4.81010      4.46802        -1.428085     -0.642987      2.235643
     13.99844      9.35889      3.08932        -0.668556     -2.268388      0.631788
      0.02514      4.56969      3.60341        -1.010935     -1.346076     -0.584489
     16.30655      4.46999      0.93310        -0.190249     -0.656798     -2.799386
      8.17565      9.35889      2.06114        -1.915477     -1.240212     -0.296167
      9.00654      0.15611      4.97667         0.265023     -0.261109      2.827036
     11.08705      4.56969      2.57523        -1.047714     -1.383560     -0.089669
     11.74406      4.78750      5.31562        -0.470499     -1.084247      3.441421
      2.36555      9.27480      1.40126        -0.730396      0.053729     -2.597901
      2.93654      9.35889      4.11750        -0.736190      0.277925      1.143147
 -----------------------------------------------------------------------------------
    total drift:                               -0.053036     -0.029108     -0.020342


--------------------------------------------------------------------------------------------------------



  FREE ENERGIE OF THE ION-ELECTRON SYSTEM (eV)
  ---------------------------------------------------
  free  energy   TOTEN  =      -342.43019788 eV

  energy  without entropy=     -341.41208594  energy(sigma->0) =     -341.92114191
 


--------------------------------------------------------------------------------------------------------


    POTLOK:  cpu time    0.3359: real time    0.3363


--------------------------------------------------------------------------------------------------------


     LOOP+:  cpu time  313.9329: real time  314.0008
    4ORBIT:  cpu time    0.0000: real time    0.0000

 total amount of memory used by VASP MPI-rank0    77170. kBytes
=======================================================================

   base      :      30000. kBytes
   nonlr-proj:       2061. kBytes
   fftplans  :       9935. kBytes
   grid      :      16773. kBytes
   one-center:         93. kBytes
   wavefun   :      18308. kBytes
 
  
  
 General timing and accounting informations for this job:
 ========================================================
  
                  Total CPU time used (sec):      317.204
                            User time (sec):      316.837
                          System time (sec):        0.367
                         Elapsed time (sec):      317.520
  
                   Maximum memory used (kb):      207380.
                   Average memory used (kb):           0.
  
                          Minor page faults:       117740
                          Major page faults:            0
                 Voluntary context switches:          182
