       N       E                     dE             d eps       ncg     rms          rms(c)
DAV:   1     0.981737790012E+04    0.98174E+04   -0.50814E+05  1168   0.164E+03
DAV:   2     0.619604931191E+03   -0.91978E+04   -0.88575E+04  1016   0.526E+02
DAV:   3    -0.339918047946E+03   -0.95952E+03   -0.90496E+03  1096   0.181E+02
DAV:   4    -0.404410581150E+03   -0.64493E+02   -0.63542E+02  1136   0.411E+01
DAV:   5    -0.406766979090E+03   -0.23564E+01   -0.23524E+01  1216   0.849E+00    0.817E+01
DAV:   6    -0.490340487173E+03   -0.83574E+02   -0.94911E+02  1160   0.117E+02    0.157E+02
DAV:   7    -0.377156803556E+03    0.11318E+03   -0.17365E+02  1120   0.643E+01    0.623E+01
DAV:   8    -0.469129774731E+03   -0.91973E+02   -0.15349E+02  1360   0.800E+01    0.163E+02
DAV:   9    -0.377620004386E+03    0.91510E+02   -0.10229E+02  1200   0.474E+01    0.820E+01
DAV:  10    -0.376752144423E+03    0.86786E+00   -0.68715E+01  1312   0.336E+01    0.515E+01
DAV:  11    -0.379229315367E+03   -0.24772E+01   -0.34064E+01  1304   0.395E+01    0.741E+01
DAV:  12    -0.369031608511E+03    0.10198E+02   -0.38214E+01  1304   0.303E+01    0.369E+01
DAV:  13    -0.365740088463E+03    0.32915E+01   -0.18512E+01  1272   0.287E+01    0.374E+01
DAV:  14    -0.362471757087E+03    0.32683E+01   -0.14763E+01  1312   0.213E+01    0.275E+01
DAV:  15    -0.359814461372E+03    0.26573E+01   -0.42293E+00  1216   0.137E+01    0.193E+01
DAV:  16    -0.358879057667E+03    0.93540E+00   -0.15864E+00  1312   0.803E+00    0.159E+01
DAV:  17    -0.358342545258E+03    0.53651E+00   -0.88672E-01  1280   0.613E+00    0.141E+01
DAV:  18    -0.357978012823E+03    0.36453E+00   -0.46322E-01  1320   0.432E+00    0.121E+01
DAV:  19    -0.357649329273E+03    0.32868E+00   -0.42269E-01  1304   0.444E+00    0.102E+01
DAV:  20    -0.357325907407E+03    0.32342E+00   -0.31824E-01  1344   0.389E+00    0.748E+00
DAV:  21    -0.357161952267E+03    0.16396E+00   -0.31690E-01  1336   0.333E+00    0.487E+00
DAV:  22    -0.357108381411E+03    0.53571E-01   -0.16958E-01  1296   0.230E+00    0.371E+00
DAV:  23    -0.357073653243E+03    0.34728E-01   -0.11263E-01  1160   0.212E+00    0.246E+00
DAV:  24    -0.357075602299E+03   -0.19491E-02   -0.74085E-02  1312   0.163E+00    0.268E+00
DAV:  25    -0.357055439509E+03    0.20163E-01   -0.57747E-02  1232   0.155E+00    0.166E+00
DAV:  26    -0.357077456930E+03   -0.22017E-01   -0.71512E-02  1312   0.170E+00    0.267E+00
DAV:  27    -0.357056235071E+03    0.21222E-01   -0.66466E-02  1224   0.173E+00    0.136E+00
DAV:  28    -0.357060004100E+03   -0.37690E-02   -0.37183E-02  1312   0.121E+00    0.149E+00
DAV:  29    -0.357050414193E+03    0.95899E-02   -0.16641E-02  1176   0.899E-01    0.580E-01
DAV:  30    -0.357050261389E+03    0.15280E-03   -0.50248E-03  1296   0.394E-01    0.478E-01
DAV:  31    -0.357049995504E+03    0.26588E-03   -0.20165E-03  1136   0.280E-01    0.366E-01
DAV:  32    -0.357049923500E+03    0.72005E-04   -0.11531E-03  1064   0.237E-01    0.284E-01
DAV:  33    -0.357050288366E+03   -0.36487E-03   -0.82210E-04   928   0.199E-01    0.282E-01
DAV:  34    -0.357050322591E+03   -0.34225E-04   -0.54397E-04   864   0.173E-01
   1 F= -.35705032E+03 E0= -.35657885E+03  d E =-.942943E+00
