  72  72   0   0
  0.3633021E+02  0.1688469E-08  0.9578410E-09  0.1617386E-08  0.5000000E-15
  1.000000000000000E-004
  CAR 
 "Millerite NiS"                         
      9.12954990    -68.01537258  301     -0.36969819      1.00000000
    -68.015  0.0000E+00  0.0000E+00
    -67.758  0.0000E+00  0.0000E+00
    -67.501  0.0000E+00  0.0000E+00
    -67.244  0.0000E+00  0.0000E+00
    -66.987  0.0000E+00  0.0000E+00
    -66.730  0.0000E+00  0.0000E+00
    -66.472  0.0000E+00  0.0000E+00
    -66.215  0.0000E+00  0.0000E+00
    -65.958  0.0000E+00  0.0000E+00
    -65.701  0.0000E+00  0.0000E+00
    -65.444  0.3761E-09  0.9670E-10
    -65.187  0.2038E-04  0.5241E-05
    -64.930  0.5302E-01  0.1364E-01
    -64.672  0.8120E+01  0.2102E+01
    -64.415  0.1019E+03  0.2831E+02
    -64.158  0.1993E+03  0.7955E+02
    -63.901  0.1744E+03  0.1244E+03
    -63.644  0.1332E+03  0.1586E+03
    -63.387  0.1024E+03  0.1850E+03
    -63.130  0.7249E+02  0.2036E+03
    -62.872  0.4289E+02  0.2146E+03
    -62.615  0.5262E+01  0.2160E+03
    -62.358  0.6088E-01  0.2160E+03
    -62.101  0.4086E-04  0.2160E+03
    -61.844  0.1240E-08  0.2160E+03
    -61.587  0.8635E-15  0.2160E+03
    -61.329  0.0000E+00  0.2160E+03
    -61.072  0.0000E+00  0.2160E+03
    -60.815  0.0000E+00  0.2160E+03
    -60.558  0.0000E+00  0.2160E+03
    -60.301  0.0000E+00  0.2160E+03
    -60.044  0.0000E+00  0.2160E+03
    -59.787  0.0000E+00  0.2160E+03
    -59.529  0.0000E+00  0.2160E+03
    -59.272  0.0000E+00  0.2160E+03
    -59.015  0.0000E+00  0.2160E+03
    -58.758  0.0000E+00  0.2160E+03
    -58.501  0.0000E+00  0.2160E+03
    -58.244  0.0000E+00  0.2160E+03
    -57.987  0.0000E+00  0.2160E+03
    -57.729  0.0000E+00  0.2160E+03
    -57.472  0.0000E+00  0.2160E+03
    -57.215  0.0000E+00  0.2160E+03
    -56.958  0.0000E+00  0.2160E+03
    -56.701  0.0000E+00  0.2160E+03
    -56.444  0.0000E+00  0.2160E+03
    -56.186  0.0000E+00  0.2160E+03
    -55.929  0.0000E+00  0.2160E+03
    -55.672  0.0000E+00  0.2160E+03
    -55.415  0.0000E+00  0.2160E+03
    -55.158  0.0000E+00  0.2160E+03
    -54.901  0.0000E+00  0.2160E+03
    -54.644  0.0000E+00  0.2160E+03
    -54.386  0.0000E+00  0.2160E+03
    -54.129  0.0000E+00  0.2160E+03
    -53.872  0.0000E+00  0.2160E+03
    -53.615  0.0000E+00  0.2160E+03
    -53.358  0.0000E+00  0.2160E+03
    -53.101  0.0000E+00  0.2160E+03
    -52.844  0.0000E+00  0.2160E+03
    -52.586  0.0000E+00  0.2160E+03
    -52.329  0.0000E+00  0.2160E+03
    -52.072  0.0000E+00  0.2160E+03
    -51.815  0.0000E+00  0.2160E+03
    -51.558  0.0000E+00  0.2160E+03
    -51.301  0.0000E+00  0.2160E+03
    -51.043  0.0000E+00  0.2160E+03
    -50.786  0.0000E+00  0.2160E+03
    -50.529  0.0000E+00  0.2160E+03
    -50.272  0.0000E+00  0.2160E+03
    -50.015  0.0000E+00  0.2160E+03
    -49.758  0.0000E+00  0.2160E+03
    -49.501  0.0000E+00  0.2160E+03
    -49.243  0.0000E+00  0.2160E+03
    -48.986  0.0000E+00  0.2160E+03
    -48.729  0.0000E+00  0.2160E+03
    -48.472  0.0000E+00  0.2160E+03
    -48.215  0.0000E+00  0.2160E+03
    -47.958  0.0000E+00  0.2160E+03
    -47.701  0.0000E+00  0.2160E+03
    -47.443  0.0000E+00  0.2160E+03
    -47.186  0.0000E+00  0.2160E+03
    -46.929  0.0000E+00  0.2160E+03
    -46.672  0.0000E+00  0.2160E+03
    -46.415  0.0000E+00  0.2160E+03
    -46.158  0.0000E+00  0.2160E+03
    -45.900  0.0000E+00  0.2160E+03
    -45.643  0.0000E+00  0.2160E+03
    -45.386  0.0000E+00  0.2160E+03
    -45.129  0.0000E+00  0.2160E+03
    -44.872  0.0000E+00  0.2160E+03
    -44.615  0.0000E+00  0.2160E+03
    -44.358  0.0000E+00  0.2160E+03
    -44.100  0.0000E+00  0.2160E+03
    -43.843  0.0000E+00  0.2160E+03
    -43.586  0.0000E+00  0.2160E+03
    -43.329  0.0000E+00  0.2160E+03
    -43.072  0.0000E+00  0.2160E+03
    -42.815  0.0000E+00  0.2160E+03
    -42.558  0.0000E+00  0.2160E+03
    -42.300  0.0000E+00  0.2160E+03
    -42.043  0.0000E+00  0.2160E+03
    -41.786  0.0000E+00  0.2160E+03
    -41.529  0.0000E+00  0.2160E+03
    -41.272  0.0000E+00  0.2160E+03
    -41.015  0.0000E+00  0.2160E+03
    -40.757  0.0000E+00  0.2160E+03
    -40.500  0.0000E+00  0.2160E+03
    -40.243  0.0000E+00  0.2160E+03
    -39.986  0.0000E+00  0.2160E+03
    -39.729  0.0000E+00  0.2160E+03
    -39.472  0.0000E+00  0.2160E+03
    -39.215  0.0000E+00  0.2160E+03
    -38.957  0.0000E+00  0.2160E+03
    -38.700  0.0000E+00  0.2160E+03
    -38.443  0.0000E+00  0.2160E+03
    -38.186  0.0000E+00  0.2160E+03
    -37.929  0.0000E+00  0.2160E+03
    -37.672  0.0000E+00  0.2160E+03
    -37.415  0.0000E+00  0.2160E+03
    -37.157  0.0000E+00  0.2160E+03
    -36.900  0.0000E+00  0.2160E+03
    -36.643  0.0000E+00  0.2160E+03
    -36.386  0.0000E+00  0.2160E+03
    -36.129  0.0000E+00  0.2160E+03
    -35.872  0.0000E+00  0.2160E+03
    -35.615  0.0000E+00  0.2160E+03
    -35.357  0.0000E+00  0.2160E+03
    -35.100  0.0000E+00  0.2160E+03
    -34.843  0.0000E+00  0.2160E+03
    -34.586  0.0000E+00  0.2160E+03
    -34.329  0.0000E+00  0.2160E+03
    -34.072  0.0000E+00  0.2160E+03
    -33.814  0.0000E+00  0.2160E+03
    -33.557  0.0000E+00  0.2160E+03
    -33.300  0.0000E+00  0.2160E+03
    -33.043  0.0000E+00  0.2160E+03
    -32.786  0.0000E+00  0.2160E+03
    -32.529  0.0000E+00  0.2160E+03
    -32.272  0.0000E+00  0.2160E+03
    -32.014  0.0000E+00  0.2160E+03
    -31.757  0.0000E+00  0.2160E+03
    -31.500  0.0000E+00  0.2160E+03
    -31.243  0.0000E+00  0.2160E+03
    -30.986  0.0000E+00  0.2160E+03
    -30.729  0.0000E+00  0.2160E+03
    -30.472  0.0000E+00  0.2160E+03
    -30.214  0.0000E+00  0.2160E+03
    -29.957  0.0000E+00  0.2160E+03
    -29.700  0.0000E+00  0.2160E+03
    -29.443  0.0000E+00  0.2160E+03
    -29.186  0.0000E+00  0.2160E+03
    -28.929  0.0000E+00  0.2160E+03
    -28.671  0.0000E+00  0.2160E+03
    -28.414  0.0000E+00  0.2160E+03
    -28.157  0.0000E+00  0.2160E+03
    -27.900  0.0000E+00  0.2160E+03
    -27.643  0.0000E+00  0.2160E+03
    -27.386  0.0000E+00  0.2160E+03
    -27.129  0.0000E+00  0.2160E+03
    -26.871  0.0000E+00  0.2160E+03
    -26.614  0.0000E+00  0.2160E+03
    -26.357  0.0000E+00  0.2160E+03
    -26.100  0.0000E+00  0.2160E+03
    -25.843  0.0000E+00  0.2160E+03
    -25.586  0.0000E+00  0.2160E+03
    -25.329  0.0000E+00  0.2160E+03
    -25.071  0.0000E+00  0.2160E+03
    -24.814  0.0000E+00  0.2160E+03
    -24.557  0.0000E+00  0.2160E+03
    -24.300  0.0000E+00  0.2160E+03
    -24.043  0.0000E+00  0.2160E+03
    -23.786  0.0000E+00  0.2160E+03
    -23.528  0.0000E+00  0.2160E+03
    -23.271  0.0000E+00  0.2160E+03
    -23.014  0.0000E+00  0.2160E+03
    -22.757  0.0000E+00  0.2160E+03
    -22.500  0.0000E+00  0.2160E+03
    -22.243  0.0000E+00  0.2160E+03
    -21.986  0.0000E+00  0.2160E+03
    -21.728  0.0000E+00  0.2160E+03
    -21.471  0.0000E+00  0.2160E+03
    -21.214  0.0000E+00  0.2160E+03
    -20.957  0.0000E+00  0.2160E+03
    -20.700  0.0000E+00  0.2160E+03
    -20.443  0.0000E+00  0.2160E+03
    -20.186  0.0000E+00  0.2160E+03
    -19.928  0.0000E+00  0.2160E+03
    -19.671  0.0000E+00  0.2160E+03
    -19.414  0.0000E+00  0.2160E+03
    -19.157  0.0000E+00  0.2160E+03
    -18.900  0.0000E+00  0.2160E+03
    -18.643  0.0000E+00  0.2160E+03
    -18.385  0.0000E+00  0.2160E+03
    -18.128  0.0000E+00  0.2160E+03
    -17.871  0.0000E+00  0.2160E+03
    -17.614  0.0000E+00  0.2160E+03
    -17.357  0.0000E+00  0.2160E+03
    -17.100  0.0000E+00  0.2160E+03
    -16.843  0.0000E+00  0.2160E+03
    -16.585  0.0000E+00  0.2160E+03
    -16.328  0.1228E-11  0.2160E+03
    -16.071  0.1758E-06  0.2160E+03
    -15.814  0.1017E-02  0.2160E+03
    -15.557  0.2616E+00  0.2161E+03
    -15.300  0.4075E+01  0.2171E+03
    -15.043  0.9915E+01  0.2197E+03
    -14.785  0.9299E+01  0.2221E+03
    -14.528  0.1228E+02  0.2252E+03
    -14.271  0.2136E+02  0.2307E+03
    -14.014  0.2807E+02  0.2379E+03
    -13.757  0.2969E+02  0.2456E+03
    -13.500  0.2362E+02  0.2516E+03
    -13.242  0.2038E+02  0.2569E+03
    -12.985  0.2326E+02  0.2629E+03
    -12.728  0.2763E+02  0.2700E+03
    -12.471  0.2563E+02  0.2766E+03
    -12.214  0.1542E+02  0.2805E+03
    -11.957  0.1291E+02  0.2838E+03
    -11.700  0.1250E+02  0.2871E+03
    -11.442  0.3595E+01  0.2880E+03
    -11.185  0.9571E-01  0.2880E+03
    -10.928  0.1427E-03  0.2880E+03
    -10.671  0.9662E-08  0.2880E+03
    -10.414  0.2590E-13  0.2880E+03
    -10.157  0.0000E+00  0.2880E+03
     -9.900  0.0000E+00  0.2880E+03
     -9.642  0.0000E+00  0.2880E+03
     -9.385  0.0000E+00  0.2880E+03
     -9.128  0.0000E+00  0.2880E+03
     -8.871  0.0000E+00  0.2880E+03
     -8.614  0.0000E+00  0.2880E+03
     -8.357  0.0000E+00  0.2880E+03
     -8.099  0.4218E-12  0.2880E+03
     -7.842  0.8874E-07  0.2880E+03
     -7.585  0.7974E-03  0.2880E+03
     -7.328  0.3483E+00  0.2881E+03
     -7.071  0.9502E+01  0.2905E+03
     -6.814  0.2384E+02  0.2967E+03
     -6.557  0.2147E+02  0.3022E+03
     -6.299  0.4137E+02  0.3128E+03
     -6.042  0.3997E+02  0.3231E+03
     -5.785  0.4307E+02  0.3342E+03
     -5.528  0.4924E+02  0.3468E+03
     -5.271  0.4770E+02  0.3591E+03
     -5.014  0.3821E+02  0.3689E+03
     -4.757  0.4513E+02  0.3805E+03
     -4.499  0.5747E+02  0.3953E+03
     -4.242  0.4933E+02  0.4080E+03
     -3.985  0.6383E+02  0.4244E+03
     -3.728  0.6149E+02  0.4402E+03
     -3.471  0.6294E+02  0.4564E+03
     -3.214  0.6496E+02  0.4731E+03
     -2.956  0.6147E+02  0.4889E+03
     -2.699  0.6585E+02  0.5059E+03
     -2.442  0.9036E+02  0.5291E+03
     -2.185  0.1241E+03  0.5610E+03
     -1.928  0.1500E+03  0.5996E+03
     -1.671  0.1633E+03  0.6416E+03
     -1.414  0.1523E+03  0.6807E+03
     -1.156  0.1348E+03  0.7154E+03
     -0.899  0.1152E+03  0.7450E+03
     -0.642  0.9711E+02  0.7700E+03
     -0.385  0.8122E+02  0.7909E+03
     -0.128  0.6454E+02  0.8075E+03
      0.129  0.5077E+02  0.8205E+03
      0.386  0.5540E+02  0.8348E+03
      0.644  0.5909E+02  0.8500E+03
      0.901  0.5079E+02  0.8630E+03
      1.158  0.2460E+02  0.8694E+03
      1.415  0.5986E+01  0.8709E+03
      1.672  0.7145E+01  0.8727E+03
      1.929  0.1015E+02  0.8753E+03
      2.187  0.1021E+02  0.8780E+03
      2.444  0.6567E+01  0.8797E+03
      2.701  0.8867E+01  0.8819E+03
      2.958  0.1302E+02  0.8853E+03
      3.215  0.8207E+01  0.8874E+03
      3.472  0.1383E+02  0.8910E+03
      3.729  0.2056E+02  0.8962E+03
      3.987  0.1889E+02  0.9011E+03
      4.244  0.2453E+02  0.9074E+03
      4.501  0.2985E+02  0.9151E+03
      4.758  0.3016E+02  0.9228E+03
      5.015  0.3204E+02  0.9311E+03
      5.272  0.4004E+02  0.9414E+03
      5.529  0.4520E+02  0.9530E+03
      5.787  0.2484E+02  0.9594E+03
      6.044  0.2353E+01  0.9600E+03
      6.301  0.1838E-01  0.9600E+03
      6.558  0.8110E-05  0.9600E+03
      6.815  0.1660E-09  0.9600E+03
      7.072  0.0000E+00  0.9600E+03
      7.330  0.0000E+00  0.9600E+03
      7.587  0.0000E+00  0.9600E+03
      7.844  0.0000E+00  0.9600E+03
      8.101  0.0000E+00  0.9600E+03
      8.358  0.0000E+00  0.9600E+03
      8.615  0.0000E+00  0.9600E+03
      8.872  0.0000E+00  0.9600E+03
      9.130  0.0000E+00  0.9600E+03
