  72  72   0   0
  0.2729146E+02  0.1007973E-08  0.1007973E-08  0.2068350E-08  0.5000000E-15
  1.000000000000000E-004
  CAR 
 "Millerite NiS"                         
     11.04859318    -66.97650136  301      1.45516859      1.00000000
    -66.977  0.0000E+00  0.0000E+00
    -66.716  0.0000E+00  0.0000E+00
    -66.456  0.0000E+00  0.0000E+00
    -66.196  0.0000E+00  0.0000E+00
    -65.936  0.0000E+00  0.0000E+00
    -65.676  0.0000E+00  0.0000E+00
    -65.416  0.0000E+00  0.0000E+00
    -65.156  0.0000E+00  0.0000E+00
    -64.896  0.0000E+00  0.0000E+00
    -64.636  0.0000E+00  0.0000E+00
    -64.376  0.9657E-10  0.2512E-10
    -64.116  0.5759E-05  0.1498E-05
    -63.855  0.1419E-01  0.3691E-02
    -63.595  0.1796E+01  0.4708E+00
    -63.335  0.2232E+02  0.6276E+01
    -63.075  0.9154E+02  0.3008E+02
    -62.815  0.2100E+03  0.8469E+02
    -62.555  0.2697E+03  0.1548E+03
    -62.295  0.1762E+03  0.2007E+03
    -62.035  0.4122E+02  0.2114E+03
    -61.775  0.1368E+02  0.2149E+03
    -61.515  0.3953E+01  0.2160E+03
    -61.255  0.1371E+00  0.2160E+03
    -60.995  0.2763E-03  0.2160E+03
    -60.734  0.2355E-07  0.2160E+03
    -60.474  0.7513E-13  0.2160E+03
    -60.214  0.0000E+00  0.2160E+03
    -59.954  0.0000E+00  0.2160E+03
    -59.694  0.0000E+00  0.2160E+03
    -59.434  0.0000E+00  0.2160E+03
    -59.174  0.0000E+00  0.2160E+03
    -58.914  0.0000E+00  0.2160E+03
    -58.654  0.0000E+00  0.2160E+03
    -58.394  0.0000E+00  0.2160E+03
    -58.134  0.0000E+00  0.2160E+03
    -57.874  0.0000E+00  0.2160E+03
    -57.613  0.0000E+00  0.2160E+03
    -57.353  0.0000E+00  0.2160E+03
    -57.093  0.0000E+00  0.2160E+03
    -56.833  0.0000E+00  0.2160E+03
    -56.573  0.0000E+00  0.2160E+03
    -56.313  0.0000E+00  0.2160E+03
    -56.053  0.0000E+00  0.2160E+03
    -55.793  0.0000E+00  0.2160E+03
    -55.533  0.0000E+00  0.2160E+03
    -55.273  0.0000E+00  0.2160E+03
    -55.013  0.0000E+00  0.2160E+03
    -54.753  0.0000E+00  0.2160E+03
    -54.492  0.0000E+00  0.2160E+03
    -54.232  0.0000E+00  0.2160E+03
    -53.972  0.0000E+00  0.2160E+03
    -53.712  0.0000E+00  0.2160E+03
    -53.452  0.0000E+00  0.2160E+03
    -53.192  0.0000E+00  0.2160E+03
    -52.932  0.0000E+00  0.2160E+03
    -52.672  0.0000E+00  0.2160E+03
    -52.412  0.0000E+00  0.2160E+03
    -52.152  0.0000E+00  0.2160E+03
    -51.892  0.0000E+00  0.2160E+03
    -51.632  0.0000E+00  0.2160E+03
    -51.371  0.0000E+00  0.2160E+03
    -51.111  0.0000E+00  0.2160E+03
    -50.851  0.0000E+00  0.2160E+03
    -50.591  0.0000E+00  0.2160E+03
    -50.331  0.0000E+00  0.2160E+03
    -50.071  0.0000E+00  0.2160E+03
    -49.811  0.0000E+00  0.2160E+03
    -49.551  0.0000E+00  0.2160E+03
    -49.291  0.0000E+00  0.2160E+03
    -49.031  0.0000E+00  0.2160E+03
    -48.771  0.0000E+00  0.2160E+03
    -48.511  0.0000E+00  0.2160E+03
    -48.250  0.0000E+00  0.2160E+03
    -47.990  0.0000E+00  0.2160E+03
    -47.730  0.0000E+00  0.2160E+03
    -47.470  0.0000E+00  0.2160E+03
    -47.210  0.0000E+00  0.2160E+03
    -46.950  0.0000E+00  0.2160E+03
    -46.690  0.0000E+00  0.2160E+03
    -46.430  0.0000E+00  0.2160E+03
    -46.170  0.0000E+00  0.2160E+03
    -45.910  0.0000E+00  0.2160E+03
    -45.650  0.0000E+00  0.2160E+03
    -45.390  0.0000E+00  0.2160E+03
    -45.129  0.0000E+00  0.2160E+03
    -44.869  0.0000E+00  0.2160E+03
    -44.609  0.0000E+00  0.2160E+03
    -44.349  0.0000E+00  0.2160E+03
    -44.089  0.0000E+00  0.2160E+03
    -43.829  0.0000E+00  0.2160E+03
    -43.569  0.0000E+00  0.2160E+03
    -43.309  0.0000E+00  0.2160E+03
    -43.049  0.0000E+00  0.2160E+03
    -42.789  0.0000E+00  0.2160E+03
    -42.529  0.0000E+00  0.2160E+03
    -42.269  0.0000E+00  0.2160E+03
    -42.008  0.0000E+00  0.2160E+03
    -41.748  0.0000E+00  0.2160E+03
    -41.488  0.0000E+00  0.2160E+03
    -41.228  0.0000E+00  0.2160E+03
    -40.968  0.0000E+00  0.2160E+03
    -40.708  0.0000E+00  0.2160E+03
    -40.448  0.0000E+00  0.2160E+03
    -40.188  0.0000E+00  0.2160E+03
    -39.928  0.0000E+00  0.2160E+03
    -39.668  0.0000E+00  0.2160E+03
    -39.408  0.0000E+00  0.2160E+03
    -39.148  0.0000E+00  0.2160E+03
    -38.887  0.0000E+00  0.2160E+03
    -38.627  0.0000E+00  0.2160E+03
    -38.367  0.0000E+00  0.2160E+03
    -38.107  0.0000E+00  0.2160E+03
    -37.847  0.0000E+00  0.2160E+03
    -37.587  0.0000E+00  0.2160E+03
    -37.327  0.0000E+00  0.2160E+03
    -37.067  0.0000E+00  0.2160E+03
    -36.807  0.0000E+00  0.2160E+03
    -36.547  0.0000E+00  0.2160E+03
    -36.287  0.0000E+00  0.2160E+03
    -36.027  0.0000E+00  0.2160E+03
    -35.766  0.0000E+00  0.2160E+03
    -35.506  0.0000E+00  0.2160E+03
    -35.246  0.0000E+00  0.2160E+03
    -34.986  0.0000E+00  0.2160E+03
    -34.726  0.0000E+00  0.2160E+03
    -34.466  0.0000E+00  0.2160E+03
    -34.206  0.0000E+00  0.2160E+03
    -33.946  0.0000E+00  0.2160E+03
    -33.686  0.0000E+00  0.2160E+03
    -33.426  0.0000E+00  0.2160E+03
    -33.166  0.0000E+00  0.2160E+03
    -32.906  0.0000E+00  0.2160E+03
    -32.645  0.0000E+00  0.2160E+03
    -32.385  0.0000E+00  0.2160E+03
    -32.125  0.0000E+00  0.2160E+03
    -31.865  0.0000E+00  0.2160E+03
    -31.605  0.0000E+00  0.2160E+03
    -31.345  0.0000E+00  0.2160E+03
    -31.085  0.0000E+00  0.2160E+03
    -30.825  0.0000E+00  0.2160E+03
    -30.565  0.0000E+00  0.2160E+03
    -30.305  0.0000E+00  0.2160E+03
    -30.045  0.0000E+00  0.2160E+03
    -29.785  0.0000E+00  0.2160E+03
    -29.524  0.0000E+00  0.2160E+03
    -29.264  0.0000E+00  0.2160E+03
    -29.004  0.0000E+00  0.2160E+03
    -28.744  0.0000E+00  0.2160E+03
    -28.484  0.0000E+00  0.2160E+03
    -28.224  0.0000E+00  0.2160E+03
    -27.964  0.0000E+00  0.2160E+03
    -27.704  0.0000E+00  0.2160E+03
    -27.444  0.0000E+00  0.2160E+03
    -27.184  0.0000E+00  0.2160E+03
    -26.924  0.0000E+00  0.2160E+03
    -26.664  0.0000E+00  0.2160E+03
    -26.403  0.0000E+00  0.2160E+03
    -26.143  0.0000E+00  0.2160E+03
    -25.883  0.0000E+00  0.2160E+03
    -25.623  0.0000E+00  0.2160E+03
    -25.363  0.0000E+00  0.2160E+03
    -25.103  0.0000E+00  0.2160E+03
    -24.843  0.0000E+00  0.2160E+03
    -24.583  0.0000E+00  0.2160E+03
    -24.323  0.0000E+00  0.2160E+03
    -24.063  0.0000E+00  0.2160E+03
    -23.803  0.0000E+00  0.2160E+03
    -23.543  0.0000E+00  0.2160E+03
    -23.282  0.0000E+00  0.2160E+03
    -23.022  0.0000E+00  0.2160E+03
    -22.762  0.0000E+00  0.2160E+03
    -22.502  0.0000E+00  0.2160E+03
    -22.242  0.0000E+00  0.2160E+03
    -21.982  0.0000E+00  0.2160E+03
    -21.722  0.0000E+00  0.2160E+03
    -21.462  0.0000E+00  0.2160E+03
    -21.202  0.0000E+00  0.2160E+03
    -20.942  0.0000E+00  0.2160E+03
    -20.682  0.0000E+00  0.2160E+03
    -20.422  0.0000E+00  0.2160E+03
    -20.161  0.0000E+00  0.2160E+03
    -19.901  0.0000E+00  0.2160E+03
    -19.641  0.0000E+00  0.2160E+03
    -19.381  0.0000E+00  0.2160E+03
    -19.121  0.0000E+00  0.2160E+03
    -18.861  0.0000E+00  0.2160E+03
    -18.601  0.0000E+00  0.2160E+03
    -18.341  0.0000E+00  0.2160E+03
    -18.081  0.0000E+00  0.2160E+03
    -17.821  0.0000E+00  0.2160E+03
    -17.561  0.0000E+00  0.2160E+03
    -17.301  0.0000E+00  0.2160E+03
    -17.040  0.0000E+00  0.2160E+03
    -16.780  0.0000E+00  0.2160E+03
    -16.520  0.0000E+00  0.2160E+03
    -16.260  0.0000E+00  0.2160E+03
    -16.000  0.1024E-13  0.2160E+03
    -15.740  0.5074E-08  0.2160E+03
    -15.480  0.9152E-04  0.2160E+03
    -15.220  0.6551E-01  0.2160E+03
    -14.960  0.2302E+01  0.2166E+03
    -14.700  0.7490E+01  0.2186E+03
    -14.440  0.5553E+01  0.2200E+03
    -14.180  0.7142E+01  0.2219E+03
    -13.919  0.1433E+02  0.2256E+03
    -13.659  0.1724E+02  0.2301E+03
    -13.399  0.2335E+02  0.2361E+03
    -13.139  0.1975E+02  0.2413E+03
    -12.879  0.2932E+02  0.2489E+03
    -12.619  0.3176E+02  0.2572E+03
    -12.359  0.2765E+02  0.2644E+03
    -12.099  0.2947E+02  0.2720E+03
    -11.839  0.2435E+02  0.2784E+03
    -11.579  0.1801E+02  0.2830E+03
    -11.319  0.1312E+02  0.2865E+03
    -11.059  0.5599E+01  0.2879E+03
    -10.798  0.3270E+00  0.2880E+03
    -10.538  0.1199E-02  0.2880E+03
    -10.278  0.1932E-06  0.2880E+03
    -10.018  0.1188E-11  0.2880E+03
     -9.758  0.0000E+00  0.2880E+03
     -9.498  0.0000E+00  0.2880E+03
     -9.238  0.0000E+00  0.2880E+03
     -8.978  0.0000E+00  0.2880E+03
     -8.718  0.0000E+00  0.2880E+03
     -8.458  0.0000E+00  0.2880E+03
     -8.198  0.0000E+00  0.2880E+03
     -7.938  0.0000E+00  0.2880E+03
     -7.677  0.1208E-12  0.2880E+03
     -7.417  0.3451E-07  0.2880E+03
     -7.157  0.3780E-03  0.2880E+03
     -6.897  0.1809E+00  0.2880E+03
     -6.637  0.5122E+01  0.2894E+03
     -6.377  0.1678E+02  0.2937E+03
     -6.117  0.2535E+02  0.3003E+03
     -5.857  0.3236E+02  0.3088E+03
     -5.597  0.4055E+02  0.3193E+03
     -5.337  0.4830E+02  0.3319E+03
     -5.077  0.3683E+02  0.3414E+03
     -4.817  0.4176E+02  0.3523E+03
     -4.556  0.3849E+02  0.3623E+03
     -4.296  0.4265E+02  0.3734E+03
     -4.036  0.5116E+02  0.3867E+03
     -3.776  0.5734E+02  0.4016E+03
     -3.516  0.6097E+02  0.4175E+03
     -3.256  0.6389E+02  0.4341E+03
     -2.996  0.6201E+02  0.4502E+03
     -2.736  0.5927E+02  0.4656E+03
     -2.476  0.4546E+02  0.4775E+03
     -2.216  0.3835E+02  0.4874E+03
     -1.956  0.4931E+02  0.5003E+03
     -1.696  0.6186E+02  0.5164E+03
     -1.435  0.6676E+02  0.5337E+03
     -1.175  0.8215E+02  0.5551E+03
     -0.915  0.1011E+03  0.5814E+03
     -0.655  0.1224E+03  0.6132E+03
     -0.395  0.1390E+03  0.6494E+03
     -0.135  0.1404E+03  0.6859E+03
      0.125  0.1100E+03  0.7145E+03
      0.385  0.7769E+02  0.7347E+03
      0.645  0.6968E+02  0.7528E+03
      0.905  0.5294E+02  0.7666E+03
      1.165  0.4660E+02  0.7787E+03
      1.425  0.4583E+02  0.7906E+03
      1.686  0.4820E+02  0.8031E+03
      1.946  0.4901E+02  0.8159E+03
      2.206  0.4871E+02  0.8286E+03
      2.466  0.5289E+02  0.8423E+03
      2.726  0.4078E+02  0.8529E+03
      2.986  0.3009E+02  0.8608E+03
      3.246  0.1171E+02  0.8638E+03
      3.506  0.7812E+00  0.8640E+03
      3.766  0.4305E-01  0.8640E+03
      4.026  0.1794E+01  0.8645E+03
      4.286  0.6880E+01  0.8663E+03
      4.547  0.9806E+01  0.8688E+03
      4.807  0.1086E+02  0.8716E+03
      5.067  0.1057E+02  0.8744E+03
      5.327  0.8804E+01  0.8767E+03
      5.587  0.1932E+02  0.8817E+03
      5.847  0.3152E+02  0.8899E+03
      6.107  0.3334E+02  0.8986E+03
      6.367  0.2888E+02  0.9061E+03
      6.627  0.3141E+02  0.9143E+03
      6.887  0.3403E+02  0.9231E+03
      7.147  0.4544E+02  0.9349E+03
      7.407  0.4210E+02  0.9459E+03
      7.668  0.2143E+02  0.9514E+03
      7.928  0.2121E+01  0.9520E+03
      8.188  0.1613E-01  0.9520E+03
      8.448  0.6197E-05  0.9520E+03
      8.708  0.1002E-09  0.9520E+03
      8.968  0.0000E+00  0.9520E+03
      9.228  0.0000E+00  0.9520E+03
      9.488  0.0000E+00  0.9520E+03
      9.748  0.0000E+00  0.9520E+03
     10.008  0.0000E+00  0.9520E+03
     10.268  0.0000E+00  0.9520E+03
     10.528  0.0000E+00  0.9520E+03
     10.789  0.0000E+00  0.9520E+03
     11.049  0.0000E+00  0.9520E+03
