 vasp.5.4.4.18Apr17-6-g9f103f2a35 (build Aug 13 2019 17:33:20) gamma-only       
  
 executed on             LinuxIFC date 2020.05.12  21:22:50
 running on   12 total cores
 distrk:  each k-point on   12 cores,    1 groups
 distr:  one band on NCORES_PER_BAND=   6 cores,    2 groups


--------------------------------------------------------------------------------------------------------


 INCAR:
 POTCAR:    PAW_PBE Ni_pv 06Sep2000               
 POTCAR:    PAW_PBE S 06Sep2000                   
 POTCAR:    PAW_PBE Ni_pv 06Sep2000               
   VRHFIN =Ni:                                                                  
   LEXCH  = PE                                                                  
   EATOM  =  3501.1230 eV,  257.3253 Ry                                         
                                                                                
   TITEL  = PAW_PBE Ni_pv 06Sep2000                                             
   LULTRA =        F    use ultrasoft PP ?                                      
   IUNSCR =        1    unscreen: 0-lin 1-nonlin 2-no                           
   RPACOR =    1.500    partial core radius                                     
   POMASS =   58.690; ZVAL   =   16.000    mass and valenz                      
   RCORE  =    2.000    outmost cutoff radius                                   
   RWIGS  =    2.000; RWIGS  =    1.058    wigner-seitz radius (au A)           
   ENMAX  =  367.986; ENMIN  =  275.989 eV                                      
   RCLOC  =    1.301    cutoff for local pot                                    
   LCOR   =        T    correct aug charges                                     
   LPAW   =        T    paw PP                                                  
   EAUG   =  703.443                                                            
   DEXC   =    0.000                                                            
   RMAX   =    2.041    core radius for proj-oper                               
   RAUG   =    1.300    factor for augmentation sphere                          
   RDEP   =    2.103    radius for radial grids                                 
   RDEPT  =    1.618    core radius for aug-charge                              
                                                                                
   Atomic configuration                                                         
    8 entries                                                                   
     n  l   j            E        occ.                                          
     1  0  0.50     -8206.4253   2.0000                                         
     2  0  0.50      -976.1748   2.0000                                         
     2  1  1.50      -839.0571   6.0000                                         
     3  0  0.50      -105.9991   2.0000                                         
     3  1  1.50       -66.4603   6.0000                                         
     3  2  2.50        -4.6458   9.0000                                         
     4  0  0.50        -4.4926   1.0000                                         
     4  3  2.50        -1.3606   0.0000                                         
   Description                                                                  
     l       E           TYP  RCUT    TYP  RCUT                                 
     1    -66.4602962     23  1.700                                             
     1     -1.3605826     23  1.700                                             
     2     -4.6457867     23  2.000                                             
     2     -6.0063693     23  2.000                                             
     0     -4.4925576     23  1.900                                             
     0     16.3626226     23  1.900                                             
  local pseudopotential read in
  partial core-charges read in
  partial kinetic energy density read in
  atomic valenz-charges read in
  non local Contribution for L=           1  read in
    real space projection operators read in
  non local Contribution for L=           1  read in
    real space projection operators read in
  non local Contribution for L=           2  read in
    real space projection operators read in
  non local Contribution for L=           2  read in
    real space projection operators read in
  non local Contribution for L=           0  read in
    real space projection operators read in
  non local Contribution for L=           0  read in
    real space projection operators read in
    PAW grid and wavefunctions read in
 
   number of l-projection  operators is LMAX  =           6
   number of lm-projection operators is LMMAX =          18
 
 POTCAR:    PAW_PBE S 06Sep2000                   
   VRHFIN =S : s2p4                                                             
   LEXCH  = PE                                                                  
   EATOM  =   276.8230 eV,   20.3459 Ry                                         
                                                                                
   TITEL  = PAW_PBE S 06Sep2000                                                 
   LULTRA =        F    use ultrasoft PP ?                                      
   IUNSCR =        1    unscreen: 0-lin 1-nonlin 2-no                           
   RPACOR =    1.500    partial core radius                                     
   POMASS =   32.066; ZVAL   =    6.000    mass and valenz                      
   RCORE  =    1.900    outmost cutoff radius                                   
   RWIGS  =    2.200; RWIGS  =    1.164    wigner-seitz radius (au A)           
   ENMAX  =  258.689; ENMIN  =  194.016 eV                                      
   ICORE  =        2    local potential                                         
   LCOR   =        T    correct aug charges                                     
   LPAW   =        T    paw PP                                                  
   EAUG   =  335.092                                                            
   DEXC   =    0.000                                                            
   RMAX   =    1.942    core radius for proj-oper                               
   RAUG   =    1.300    factor for augmentation sphere                          
   RDEP   =    1.954    radius for radial grids                                 
   RDEPT  =    1.744    core radius for aug-charge                              
                                                                                
   Atomic configuration                                                         
    6 entries                                                                   
     n  l   j            E        occ.                                          
     1  0  0.50     -2405.8406   2.0000                                         
     2  0  0.50      -211.7007   2.0000                                         
     2  1  1.50      -156.4958   6.0000                                         
     3  0  0.50       -17.2562   2.0000                                         
     3  1  0.50        -7.0085   4.0000                                         
     3  2  1.50        -6.8029   0.0000                                         
   Description                                                                  
     l       E           TYP  RCUT    TYP  RCUT                                 
     0    -17.2561641     23  1.900                                             
     0    -15.8743224     23  1.900                                             
     1     -7.0085400     23  1.900                                             
     1     -2.7779785     23  1.900                                             
     2     -6.8029130     23  1.900                                             
  local pseudopotential read in
  partial core-charges read in
  partial kinetic energy density read in
  atomic valenz-charges read in
  non local Contribution for L=           0  read in
    real space projection operators read in
  non local Contribution for L=           0  read in
    real space projection operators read in
  non local Contribution for L=           1  read in
    real space projection operators read in
  non local Contribution for L=           1  read in
    real space projection operators read in
    PAW grid and wavefunctions read in
 
   number of l-projection  operators is LMAX  =           4
   number of lm-projection operators is LMMAX =           8
 
 Optimization of the real space projectors (new method)

 maximal supplied QI-value         = 18.90
 optimisation between [QCUT,QGAM] = [ 10.77, 21.73] = [ 32.49,132.25] Ry 
 Optimized for a Real-space Cutoff    1.38 Angstroem

   l    n(q)    QCUT    max X(q) W(low)/X(q) W(high)/X(q)  e(spline) 
   1      8    10.771     2.836    0.40E-04    0.29E-04    0.12E-06
   1      8    10.771     4.023    0.10E-03    0.48E-04    0.29E-06
   2      8    10.771    73.368    0.42E-03    0.97E-04    0.44E-06
   2      8    10.771    69.010    0.42E-03    0.99E-04    0.45E-06
   0      9    10.771    54.797    0.10E-03    0.56E-04    0.74E-07
   0      9    10.771    24.266    0.89E-04    0.49E-04    0.67E-07
 Optimization of the real space projectors (new method)

 maximal supplied QI-value         = 19.84
 optimisation between [QCUT,QGAM] = [ 10.71, 21.63] = [ 32.15,130.99] Ry 
 Optimized for a Real-space Cutoff    1.19 Angstroem

   l    n(q)    QCUT    max X(q) W(low)/X(q) W(high)/X(q)  e(spline) 
   0      8    10.715   187.594    0.41E-03    0.53E-04    0.66E-07
   0      8    10.715   164.243    0.41E-03    0.53E-04    0.65E-07
   1      7    10.715    67.533    0.19E-03    0.59E-03    0.68E-07
   1      7    10.715    50.729    0.19E-03    0.58E-03    0.67E-07
  PAW_PBE Ni_pv 06Sep2000               :
 energy of atom  1       EATOM=-3501.1230
 kinetic energy error for atom=    0.0925 (will be added to EATOM!!)
  PAW_PBE S 06Sep2000                   :
 energy of atom  2       EATOM= -276.8230
 kinetic energy error for atom=    0.0033 (will be added to EATOM!!)
 
 
 POSCAR: Type_036 Type_136                       
  positions in cartesian coordinates
  No initial velocities read in
 exchange correlation table for  LEXCH =        8
   RHO(1)=    0.500       N(1)  =     2000
   RHO(2)=  100.500       N(2)  =     4000
 


--------------------------------------------------------------------------------------------------------


 ion  position               nearest neighbor table
   1  0.311  0.982  0.057-  41 2.03  69 2.06  49 2.14  42 2.16  61 2.18   2 2.29
   2  0.397  0.795  0.127-  49 2.08  61 2.10  42 2.25   1 2.29  50 2.36  62 2.36  28 2.41  24 2.47

   3  0.547  0.645  0.254-  43 2.25  62 2.26  50 2.26  63 2.36  51 2.36  29 2.53  15 2.53
   4  0.698  0.494  0.381-  64 2.17  44 2.24  51 2.26  63 2.26  52 2.36  16 2.53  30 2.53
   5  0.827  0.331  0.481-  64 2.00  52 2.00  27 2.42  17 2.44
   6  0.114  0.412  0.169-  53 2.13  45 2.25  68 2.26  65 2.36  54 2.36   9 2.40  31 2.53  18 2.53

   7  0.264  0.261  0.296-  46 2.25  65 2.26  54 2.26  55 2.36  66 2.36  19 2.53  32 2.53
   8  0.414  0.111  0.423-  56 2.05  67 2.22  47 2.22  55 2.26  66 2.26  33 2.53  20 2.53
   9  0.964  0.607  0.106-  48 2.06  45 2.11  53 2.21  68 2.23   6 2.40  22 2.50
  10  0.070  0.825  0.449-  59 2.09  72 2.11  37 2.13  58 2.14  13 2.44  21 2.46
  11  0.698  0.209  0.147-  38 2.00  39 2.14  60 2.18  70 2.19  12 2.27
  12  0.831  0.028  0.212-  60 2.06  39 2.25  70 2.26  11 2.27  57 2.36  71 2.36  25 2.53  34 2.53

  13  0.981  0.878  0.338-  72 2.12  40 2.25  57 2.26  71 2.26  58 2.36  10 2.44  35 2.53  26 2.53

  14  0.356  0.475  0.134-  53 2.04  62 2.18  38 2.20  54 2.21  15 2.29
  15  0.508  0.420  0.220-  54 2.25  62 2.26  38 2.26  14 2.29  39 2.36  63 2.36  29 2.53   3 2.53

  16  0.658  0.270  0.347-  64 2.07  55 2.25  63 2.26  39 2.26  40 2.36   4 2.53  30 2.53
  17  0.767  0.125  0.453-  40 2.05  56 2.08  37 2.09  64 2.15   5 2.44
  18  0.074  0.187  0.136-  41 2.09  60 2.18  68 2.26  42 2.36  65 2.36   6 2.53  31 2.53
  19  0.224  0.037  0.263-  57 2.25  42 2.26  65 2.26  66 2.36  43 2.36   7 2.53  32 2.53
  20  0.375  0.886  0.390-  67 1.99  44 2.16  58 2.25  66 2.26  43 2.26  21 2.31  33 2.53   8 2.53

  21  0.327  0.747  0.468-  44 2.08  59 2.11  67 2.23  58 2.24  20 2.31  10 2.46
  22  0.056  0.380  0.044-  41 2.00  53 2.02  68 2.03   9 2.50
  23  0.093  0.512  0.422-  46 2.06  72 2.14  59 2.17  47 2.17  52 2.32  36 2.42
  24  0.587  0.883  0.096-  49 2.10  70 2.12  69 2.12  50 2.24   2 2.47  48 2.55
  25  0.791  0.804  0.178-  48 2.05  50 2.25  70 2.26  71 2.36  45 2.36  12 2.53  34 2.53
  26  0.941  0.653  0.305-  72 2.08  51 2.25  71 2.26  45 2.26  46 2.36  35 2.53  13 2.53
  27  0.027  0.165  0.425-  40 2.05  37 2.10  66 2.10  52 2.15   5 2.42
  28  0.586  0.596  0.081-  50 2.04  38 2.06  49 2.08   2 2.41
  29  0.732  0.460  0.187-  68 2.25  50 2.26  38 2.26  51 2.36  39 2.36  15 2.53   3 2.53
  30  0.882  0.310  0.314-  65 2.25  39 2.26  51 2.26  40 2.36  52 2.36   4 2.53  16 2.53
  31  0.299  0.227  0.102-  69 2.09  41 2.19  54 2.36  42 2.36  53 2.39   6 2.53  18 2.53
  32  0.449  0.076  0.229-  70 2.25  42 2.26  54 2.26  55 2.36  43 2.36  19 2.53   7 2.53
  33  0.599  0.926  0.356-  56 2.04  71 2.25  55 2.26  43 2.26   8 2.53  20 2.53
  34  0.015  0.843  0.144-  48 2.11  61 2.12  60 2.25  45 2.36  57 2.36  25 2.53  12 2.53
  35  0.166  0.693  0.271-  62 2.25  57 2.26  45 2.26  46 2.36  58 2.36  13 2.53  26 2.53
  36  0.316  0.543  0.398-  59 2.09  47 2.16  63 2.25  58 2.26  46 2.26  23 2.42
  37  0.973  0.032  0.489-  17 2.09  27 2.10  10 2.13  40 2.61
  38  0.586  0.406  0.117-  11 2.00  28 2.06  14 2.20  15 2.26  29 2.26
  39  0.736  0.256  0.244-  11 2.14  12 2.25  30 2.26  16 2.26  15 2.36  29 2.36
  40  0.886  0.105  0.371-  17 2.05  27 2.05  13 2.25  16 2.36  30 2.36  37 2.61
  41  0.150  0.169  0.041-  22 2.00   1 2.03  18 2.09  31 2.19
  42  0.303  0.023  0.160-   1 2.16   2 2.25  32 2.26  19 2.26  18 2.36  31 2.36  61 2.76
  43  0.453  0.872  0.286-   3 2.25  20 2.26  33 2.26  19 2.36  32 2.36
  44  0.519  0.681  0.419-  21 2.08  20 2.16   4 2.24  63 2.72
  45  0.019  0.639  0.202-   9 2.11   6 2.25  26 2.26  35 2.26  25 2.36  34 2.36
  46  0.170  0.489  0.329-  23 2.06   7 2.25  36 2.26  35 2.36  26 2.36  47 2.59
  47  0.299  0.343  0.428-  36 2.16  23 2.17   8 2.22  46 2.59
  48  0.855  0.818  0.085-  25 2.05   9 2.06  34 2.11  24 2.55
  49  0.482  0.788  0.035-   2 2.08  28 2.08  24 2.10   1 2.14
  50  0.636  0.692  0.160-  28 2.04  24 2.24  25 2.25  29 2.26   3 2.26   2 2.36
  51  0.787  0.542  0.287-  26 2.25   4 2.26  30 2.26  29 2.36   3 2.36
  52  0.937  0.391  0.414-   5 2.00  27 2.15  23 2.32   4 2.36  30 2.36
  53  0.185  0.475  0.082-  22 2.02  14 2.04   6 2.13   9 2.21  31 2.39
  54  0.353  0.308  0.202-  14 2.21  15 2.25   7 2.26  32 2.26  31 2.36   6 2.36
  55  0.503  0.158  0.329-  16 2.25   8 2.26  33 2.26   7 2.36  32 2.36  56 2.77
  56  0.627  0.016  0.441-  33 2.04   8 2.05  17 2.08  55 2.77
  57  0.070  0.925  0.245-  19 2.25  35 2.26  13 2.26  12 2.36  34 2.36
  58  0.220  0.775  0.372-  10 2.14  21 2.24  20 2.25  36 2.26  35 2.36  13 2.36  59 2.79
  59  0.198  0.623  0.482-  36 2.09  10 2.09  21 2.11  23 2.17  58 2.79
  60  0.921  0.080  0.131-  12 2.06  18 2.18  11 2.18  34 2.25
  61  0.190  0.853  0.090-   2 2.10  34 2.12   1 2.18  42 2.76
  62  0.350  0.641  0.203-  14 2.18  35 2.25  15 2.26   3 2.26   2 2.36
  63  0.501  0.491  0.330-  36 2.25   4 2.26  16 2.26   3 2.36  15 2.36  44 2.72
  64  0.642  0.346  0.441-   5 2.00  16 2.07  17 2.15   4 2.17
  65  0.067  0.258  0.245-  30 2.25   7 2.26  19 2.26   6 2.36  18 2.36
  66  0.218  0.108  0.372-  27 2.10  20 2.26   8 2.26  19 2.36   7 2.36
  67  0.365  0.949  0.481-  20 1.99   8 2.22  21 2.23
  68  0.917  0.408  0.118-  22 2.03   9 2.23  29 2.25  18 2.26   6 2.26
  69  0.462  0.076  0.051-   1 2.06  31 2.09  24 2.12  70 2.78
  70  0.634  0.025  0.160-  24 2.12  11 2.19  32 2.25  12 2.26  25 2.26  69 2.78
  71  0.784  0.874  0.287-  33 2.25  26 2.26  13 2.26  25 2.36  12 2.36
  72  0.951  0.721  0.399-  26 2.08  10 2.11  13 2.12  23 2.14
 
  LATTYP: Found a base centered orthorhombic cell.
 ALAT       =    11.4527836704
 B/A-ratio  =     1.4485816945
 C/A-ratio  =     1.8059804630
  
  Lattice vectors:
  
 A1 = (  10.0797329849,   0.0000000000,   0.0000000000)
 A2 = (  -3.5732980427,  -9.4251025535,   0.0000000000)
 A3 = (   0.0000000000,   0.0000000000, -20.6835035552)


Analysis of symmetry for initial positions (statically):
=====================================================================
 Subroutine PRICEL returns:
 Original cell was already a primitive cell.
 

 Routine SETGRP: Setting up the symmetry group for a 
 base centered orthorhombic supercell.


 Subroutine GETGRP returns: Found  1 space group operations
 (whereof  1 operations were pure point group operations)
 out of a pool of  8 trial point group operations.


The static configuration has the point symmetry C_1 .


Analysis of symmetry for dynamics (positions and initial velocities):
=====================================================================
 Subroutine PRICEL returns:
 Original cell was already a primitive cell.
 

 Routine SETGRP: Setting up the symmetry group for a 
 base centered orthorhombic supercell.


 Subroutine GETGRP returns: Found  1 space group operations
 (whereof  1 operations were pure point group operations)
 out of a pool of  8 trial point group operations.


The dynamic configuration has the point symmetry C_1 .


 Subroutine INISYM returns: Found  1 space group operations
 (whereof  1 operations are pure point group operations),
 and found     1 'primitive' translations

 
 
 KPOINTS: gamma-point-only calculation. no periodi

Automatic generation of k-mesh.
Space group operators:
 irot       det(A)        alpha          n_x          n_y          n_z        tau_x        tau_y        tau_z
    1     1.000000     0.000000     1.000000     0.000000     0.000000     0.000000     0.000000     0.000000
 
 Subroutine IBZKPT returns following result:
 ===========================================
 
 Found      1 irreducible k-points:
 
 Following reciprocal coordinates:
            Coordinates               Weight
  0.000000  0.000000  0.000000      1.000000
 
 Following cartesian coordinates:
            Coordinates               Weight
  0.000000  0.000000  0.000000      1.000000
 


--------------------------------------------------------------------------------------------------------




 Dimension of arrays:
   k-points           NKPTS =      1   k-points in BZ     NKDIM =      1   number of bands    NBANDS=    476
   number of dos      NEDOS =    301   number of ions     NIONS =     72
   non local maximal  LDIM  =      6   non local SUM 2l+1 LMDIM =     18
   total plane-waves  NPLWV = 314928
   max r-space proj   IRMAX =   1817   max aug-charges    IRDMAX=   5248
   dimension x,y,z NGX =    54 NGY =   54 NGZ =  108
   dimension x,y,z NGXF=   108 NGYF=  108 NGZF=  216
   support grid    NGXF=   108 NGYF=  108 NGZF=  216
   ions per type =              36  36
   NGX,Y,Z   is equivalent  to a cutoff of   8.91,  8.91,  8.68 a.u.
   NGXF,Y,Z  is equivalent  to a cutoff of  17.81, 17.81, 17.36 a.u.

 SYSTEM =  "Millerite NiS"                         
 POSCAR =  Type_036 Type_136                       

 Startparameter for this run:
   NWRITE =      2    write-flag & timer
   PREC   = normal    normal or accurate (medium, high low for compatibility)
   ISTART =      0    job   : 0-new  1-cont  2-samecut
   ICHARG =      2    charge: 1-file 2-atom 10-const
   ISPIN  =      1    spin polarized calculation?
   LNONCOLLINEAR =      F non collinear calculations
   LSORBIT =      F    spin-orbit coupling
   INIWAV =      1    electr: 0-lowe 1-rand  2-diag
   LASPH  =      F    aspherical Exc in radial PAW
   METAGGA=      F    non-selfconsistent MetaGGA calc.

 Electronic Relaxation 1
   ENCUT  =  450.0 eV  33.07 Ry    5.75 a.u.  17.43 17.43 35.78*2*pi/ulx,y,z
   ENINI  =  450.0     initial cutoff
   ENAUG  =  703.4 eV  augmentation charge cutoff
   NELM   =    100;   NELMIN=  2; NELMDL= -5     # of ELM steps 
   EDIFF  = 0.1E-03   stopping-criterion for ELM
   LREAL  =      T    real-space projection
   NLSPLINE    = F    spline interpolate recip. space projectors
   LCOMPAT=      F    compatible to vasp.4.4
   GGA_COMPAT  = T    GGA compatible to vasp.4.4-vasp.4.6
   LMAXPAW     = -100 max onsite density
   LMAXMIX     =    2 max onsite mixed and CHGCAR
   VOSKOWN=      0    Vosko Wilk Nusair interpolation
   ROPT   =   -0.00050  -0.00050
 Ionic relaxation
   EDIFFG = 0.1E-02   stopping-criterion for IOM
   NSW    =      0    number of steps for IOM
   NBLOCK =      1;   KBLOCK =      1    inner block; outer block 
   IBRION =     -1    ionic relax: 0-MD 1-quasi-New 2-CG
   NFREE  =      0    steps in history (QN), initial steepest desc. (CG)
   ISIF   =      2    stress and relaxation
   IWAVPR =     10    prediction:  0-non 1-charg 2-wave 3-comb
   ISYM   =      2    0-nonsym 1-usesym 2-fastsym
   LCORR  =      T    Harris-Foulkes like correction to forces

   POTIM  = 0.5000    time-step for ionic-motion
   TEIN   =    0.0    initial temperature
   TEBEG  =    0.0;   TEEND  =   0.0 temperature during run
   SMASS  =  -3.00    Nose mass-parameter (am)
   estimated Nose-frequenzy (Omega)   =  0.10E-29 period in steps =****** mass=  -0.232E-26a.u.
   SCALEE = 1.0000    scale energy and forces
   NPACO  =    256;   APACO  = 16.0  distance and # of slots for P.C.
   PSTRESS=    0.0 pullay stress

  Mass of Ions in am
   POMASS =  58.69 32.07
  Ionic Valenz
   ZVAL   =  16.00  6.00
  Atomic Wigner-Seitz radii
   RWIGS  =  -1.00 -1.00
  virtual crystal weights 
   VCA    =   1.00  1.00
   NELECT =     792.0000    total number of electrons
   NUPDOWN=      -1.0000    fix difference up-down

 DOS related values:
   EMIN   =  10.00;   EMAX   =-10.00  energy-range for DOS
   EFERMI =   0.00
   ISMEAR =     0;   SIGMA  =   0.20  broadening in eV -4-tet -1-fermi 0-gaus

 Electronic relaxation 2 (details)
   IALGO  =     38    algorithm
   LDIAG  =      T    sub-space diagonalisation (order eigenvalues)
   LSUBROT=      F    optimize rotation matrix (better conditioning)
   TURBO    =      0    0=normal 1=particle mesh
   IRESTART =      0    0=no restart 2=restart with 2 vectors
   NREBOOT  =      0    no. of reboots
   NMIN     =      0    reboot dimension
   EREF     =   0.00    reference energy to select bands
   IMIX   =      4    mixing-type and parameters
     AMIX     =   0.40;   BMIX     =  1.00
     AMIX_MAG =   1.60;   BMIX_MAG =  1.00
     AMIN     =   0.10
     WC   =   100.;   INIMIX=   1;  MIXPRE=   1;  MAXMIX= -45

 Intra band minimization:
   WEIMIN = 0.0000     energy-eigenvalue tresh-hold
   EBREAK =  0.53E-07  absolut break condition
   DEPER  =   0.30     relativ break condition  

   TIME   =   0.40     timestep for ELM

  volume/ion in A,a.u.               =      27.29       184.17
  Fermi-wavevector in a.u.,A,eV,Ry     =   1.209289  2.285225 19.896891  1.462380
  Thomas-Fermi vector in A             =   2.344871
 
 Write flags
   LWAVE        =      F    write WAVECAR
   LDOWNSAMPLE  =      F    k-point downsampling of WAVECAR
   LCHARG       =      F    write CHGCAR
   LVTOT        =      F    write LOCPOT, total local potential
   LVHAR        =      F    write LOCPOT, Hartree potential only
   LELF         =      F    write electronic localiz. function (ELF)
   LORBIT       =      0    0 simple, 1 ext, 2 COOP (PROOUT), +10 PAW based schemes


 Dipole corrections
   LMONO  =      F    monopole corrections only (constant potential shift)
   LDIPOL =      F    correct potential (dipole corrections)
   IDIPOL =      0    1-x, 2-y, 3-z, 4-all directions 
   EPSILON=  1.0000000 bulk dielectric constant

 Exchange correlation treatment:
   GGA     =    --    GGA type
   LEXCH   =     8    internal setting for exchange type
   VOSKOWN=      0    Vosko Wilk Nusair interpolation
   LHFCALC =     F    Hartree Fock is set to
   LHFONE  =     F    Hartree Fock one center treatment
   AEXX    =    0.0000 exact exchange contribution

 Linear response parameters
   LEPSILON=     F    determine dielectric tensor
   LRPA    =     F    only Hartree local field effects (RPA)
   LNABLA  =     F    use nabla operator in PAW spheres
   LVEL    =     F    velocity operator in full k-point grid
   LINTERFAST=   F  fast interpolation
   KINTER  =     0    interpolate to denser k-point grid
   CSHIFT  =0.1000    complex shift for real part using Kramers Kronig
   OMEGAMAX=  -1.0    maximum frequency
   DEG_THRESHOLD= 0.2000000E-02 threshold for treating states as degnerate
   RTIME   =   -0.100 relaxation time in fs
  (WPLASMAI=    0.000 imaginary part of plasma frequency in eV, 0.658/RTIME)
   DFIELD  = 0.0000000 0.0000000 0.0000000 field for delta impulse in time
 
 Orbital magnetization related:
   ORBITALMAG=     F  switch on orbital magnetization
   LCHIMAG   =     F  perturbation theory with respect to B field
   DQ        =  0.001000  dq finite difference perturbation B field
   LLRAUG    =     F  two centre corrections for induced B field



--------------------------------------------------------------------------------------------------------


 Static calculation
 charge density and potential will be updated during run
 non-spin polarized calculation
 Variant of blocked Davidson
 Davidson routine will perform the subspace rotation
 perform sub-space diagonalisation
    after iterative eigenvector-optimisation
 modified Broyden-mixing scheme, WC =      100.0
 initial mixing is a Kerker type mixing with AMIX =  0.4000 and BMIX =      1.0000
 Hartree-type preconditioning will be used
 using additional bands           80
 real space projection scheme for non local part
 use partial core corrections
 calculate Harris-corrections to forces 
   (improved forces if not selfconsistent)
 use gradient corrections 
 use of overlap-Matrix (Vanderbilt PP)
 Gauss-broadening in eV      SIGMA  =   0.20


--------------------------------------------------------------------------------------------------------


  energy-cutoff  :      450.00
  volume of cell :     1964.98
      direct lattice vectors                 reciprocal lattice vectors
    10.079732985  0.000000000  0.000000000     0.099208977 -0.037612667  0.000000000
     3.573298043  9.425102554  0.000000000     0.000000000  0.106099641  0.000000000
     0.000000000  0.000000000 20.683503555     0.000000000  0.000000000  0.048347708

  length of vectors
    10.079732985 10.079732985 20.683503555     0.106099641  0.106099641  0.048347708


 
 k-points in units of 2pi/SCALE and weight: gamma-point-only calculation. no periodi
   0.00000000  0.00000000  0.00000000       1.000
 
 k-points in reciprocal lattice and weights: gamma-point-only calculation. no periodi
   0.00000000  0.00000000  0.00000000       1.000
 
 position of ions in fractional coordinates (direct lattice) 
   0.31112182  0.98154000  0.05675442
   0.39705889  0.79495179  0.12693702
   0.54732740  0.64468328  0.25387405
   0.69759592  0.49441476  0.38081107
   0.82740942  0.33108259  0.48134065
   0.11381506  0.41152895  0.16924937
   0.26408357  0.26126044  0.29618639
   0.41435209  0.11099193  0.42312341
   0.96395008  0.60729690  0.10625093
   0.06971727  0.82482979  0.44898381
   0.69833979  0.20876273  0.14667392
   0.83057123  0.02810611  0.21156171
   0.98083975  0.87783760  0.33849873
   0.35584207  0.47534607  0.13390886
   0.50762556  0.42017912  0.22033653
   0.65789407  0.26991061  0.34727355
   0.76695111  0.12466369  0.45294218
   0.07411322  0.18702479  0.13571184
   0.22438173  0.03675628  0.26264887
   0.37465025  0.88648777  0.38958589
   0.32656769  0.74698683  0.46828527
   0.05625230  0.38000298  0.04393450
   0.09313273  0.51248239  0.42216953
   0.58729977  0.88330431  0.09630409
   0.79086939  0.80360196  0.17802418
   0.94113790  0.65333344  0.30496121
   0.02687104  0.16464305  0.42463291
   0.58598636  0.59633854  0.08148604
   0.73212972  0.45988096  0.18679900
   0.88239823  0.30961245  0.31373603
   0.29861738  0.22672664  0.10217432
   0.44888589  0.07645812  0.22911134
   0.59915440  0.92618961  0.35604837
   0.01537355  0.84330380  0.14448666
   0.16564206  0.69303529  0.27142369
   0.31591057  0.54276677  0.39836071
   0.97328383  0.03163198  0.48931478
   0.58579929  0.40599939  0.11724657
   0.73606781  0.25573088  0.24418359
   0.88633632  0.10546236  0.37112062
   0.14991267  0.16872379  0.04101778
   0.30255546  0.02257655  0.15955891
   0.45282398  0.87230804  0.28649593
   0.51938420  0.68114790  0.41916208
   0.01931164  0.63915371  0.20187125
   0.16958015  0.48888520  0.32880827
   0.29906738  0.34342441  0.42804185
   0.85529516  0.81812743  0.08518948
   0.48156334  0.78776346  0.03493992
   0.63635413  0.69187455  0.15995199
   0.78662264  0.54160604  0.28688901
   0.93689115  0.39133753  0.41382604
   0.18468083  0.47514210  0.08150912
   0.35311030  0.30845171  0.20226433
   0.50337881  0.15818320  0.32920136
   0.62713139  0.01603592  0.44089561
   0.06986647  0.92502888  0.24457667
   0.22013498  0.77476036  0.37151370
   0.19800859  0.62345344  0.48157132
   0.92074012  0.08038648  0.13083683
   0.19001832  0.85306505  0.09040546
   0.35047896  0.64131972  0.20265741
   0.50074748  0.49105120  0.32959444
   0.64247214  0.34554435  0.44084789
   0.06723514  0.25789688  0.24496976
   0.21750365  0.10762837  0.37190678
   0.36524189  0.94942565  0.48119898
   0.91696662  0.40816539  0.11803273
   0.46198861  0.07598608  0.05103241
   0.63372279  0.02474255  0.16034507
   0.78399131  0.87447404  0.28728210
   0.95137509  0.72120623  0.39934952
 
 position of ions in cartesian coordinates  (Angst):
   6.64335983  9.25111516  1.17388024
   6.84284728  7.49250214  2.62550239
   7.82055958  6.07620600  5.25100480
   8.79827188  4.65990985  7.87650718
   9.52312278  3.12048734  9.95581103
   2.61774104  3.87870257  3.50066986
   3.59545334  2.46240643  6.12617225
   4.57316564  1.04611029  8.75167464
  11.88641228  5.72383560  2.19764150
   3.65009411  7.77410540  9.28655817
   7.78505006  1.96761018  3.03373064
   8.47236779  0.26490301  4.37583732
  13.02337813  8.27370942  7.00133973
   5.28534619  4.48018548  2.76970431
   6.61815534  3.96023129  4.55733130
   7.59586764  2.54393515  7.18283371
   8.17612291  1.17496803  9.36843114
   1.41533680  1.76272786  2.80699637
   2.39304911  0.34643173  5.43249877
   6.94405944  8.35523814  8.05800116
   5.96092171  7.04042747  9.68577999
   1.92487206  3.58156708  0.90871933
   2.77000534  4.83019904  8.73194491
   9.07613440  8.32523371  1.99190604
  10.84326159  7.57403086  3.68216384
  11.82097388  6.15773471  6.30766623
   0.85917158  1.55177759  8.78289640
   8.03748139  5.62055194  1.68541670
   9.02296382  4.33442523  3.86365782
  10.00067612  2.91812908  6.48916021
   3.82014528  2.13692181  2.11332289
   4.79785758  0.72062566  4.73882528
   9.34886792  8.72943208  7.36432769
   3.16833707  7.94822479  2.98849035
   4.14604938  6.53192865  5.61399275
   5.12376167  5.11563251  8.23949514
   9.92347160  0.29813463 10.12074395
   7.35545728  3.82658586  2.42506979
   8.33316958  2.41028972  5.05057219
   9.31088188  0.99399359  7.67607458
   2.11398006  1.59023907  0.84839136
   3.13035103  0.21278630  3.30023726
   7.68136138  8.22159271  5.92573965
   7.66919849  6.41988884  8.66974030
   2.47854283  6.02408928  4.17540472
   3.45625514  4.60779315  6.80090710
   4.24167706  3.23681024  8.85340506
  11.54456004  7.71093495  1.76201698
   7.66894352  7.42475143  0.72268006
   8.88655369  6.52098861  3.30836755
   9.86426599  5.10469246  5.93386996
  10.84197829  3.68839633  8.55937235
   3.55935782  4.47826305  1.68589428
   4.66144744  2.90718904  4.18353503
   5.63915974  1.49089290  6.80903742
   6.37861808  0.15114019  9.11926592
   4.00963925  8.71849203  5.05870249
   4.98735154  7.30219589  7.68420489
   4.22365870  5.87611259  9.96058205
   9.56805942  0.75765080  2.70616406
   4.96358964  8.04022557  1.86990174
   5.82436087  6.04450409  4.19166532
   6.80207317  4.62820796  6.81716773
   7.71068059  3.25679095  9.11827892
   1.59925463  2.43070453  5.06683280
   2.57696692  1.01440839  7.69233519
   7.07412150  8.94843410  9.95288087
  10.70127531  3.84700067  2.44133041
   4.92824281  0.71617664  1.05552895
   6.47616907  0.23320111  3.31649787
  11.02717941  8.24200752  5.94200025
  12.16669171  6.79744267  8.25994715
 


--------------------------------------------------------------------------------------------------------


 use parallel FFT for orbitals z direction half grid
 k-point  1 :   0.0000 0.0000 0.0000  plane waves:   21301

 maximum and minimum number of plane-waves per node :      3554     3548

 maximum number of plane-waves:     21301
 maximum index in each direction: 
   IXMAX=   17   IYMAX=   17   IZMAX=   35
   IXMIN=  -17   IYMIN=  -17   IZMIN=    0


 real space projection operators:
  total allocation   :      11159.91 KBytes
  max/ min on nodes  :       1864.30       1855.27


 parallel 3D FFT for wavefunctions:
    minimum data exchange during FFTs selected (reduces bandwidth)
 parallel 3D FFT for charge:
    minimum data exchange during FFTs selected (reduces bandwidth)


 total amount of memory used by VASP MPI-rank0    68401. kBytes
=======================================================================

   base      :      30000. kBytes
   nonlr-proj:       2286. kBytes
   fftplans  :       8265. kBytes
   grid      :      13942. kBytes
   one-center:         93. kBytes
   wavefun   :      13815. kBytes
 
     INWAV:  cpu time    0.0000: real time    0.0000
 Broyden mixing: mesh for mixing (old mesh)
   NGX = 35   NGY = 35   NGZ = 71
  (NGX  =108   NGY  =108   NGZ  =216)
  gives a total of  86975 points

 initial charge density was supplied:
 charge density of overlapping atoms calculated
 number of electron     792.0000000 magnetization 
 keeping initial charge density in first step


--------------------------------------------------------------------------------------------------------


 Maximum index for non-local projection operator          303
 Maximum index for augmentation-charges          469 (set IRDMAX)


--------------------------------------------------------------------------------------------------------


 First call to EWALD:  gamma=   0.142
 Maximum number of real-space cells 3x 3x 2
 Maximum number of reciprocal cells 2x 2x 4

    FEWALD:  cpu time    0.0050: real time    0.0050


--------------------------------------- Iteration      1(   1)  ---------------------------------------


    POTLOK:  cpu time    0.2588: real time    0.2596
    SETDIJ:  cpu time    0.0170: real time    0.0170
     EDDAV:  cpu time    6.8113: real time    6.8201
       DOS:  cpu time    0.0015: real time    0.0015
    --------------------------------------------
      LOOP:  cpu time    7.0886: real time    7.0982

 eigenvalue-minimisations  :  1160
 total energy-change (2. order) : 0.9931481E+04  (-0.5135547E+05)
 number of electron     792.0000000 magnetization 
 augmentation part      792.0000000 magnetization 

 Free energy of the ion-electron system (eV)
  ---------------------------------------------------
  alpha Z        PSCENC =      1893.09323658
  Ewald energy   TEWEN  =    221750.37854563
  -Hartree energ DENC   =   -343933.00228385
  -exchange      EXHF   =         0.00000000
  -V(xc)+E(xc)   XCENC  =      3681.60545885
  PAW double counting   =    112729.53333415  -117641.51188735
  entropy T*S    EENTRO =        -0.41017923
  eigenvalues    EBANDS =     -4550.81045091
  atomic energy  EATOM  =    136002.60505376
  Solvation  Ediel_sol  =         0.00000000
  ---------------------------------------------------
  free energy    TOTEN  =      9931.48082763 eV

  energy without entropy =     9931.89100686  energy(sigma->0) =     9931.68591724


--------------------------------------------------------------------------------------------------------




--------------------------------------- Iteration      1(   2)  ---------------------------------------


     EDDAV:  cpu time    6.2841: real time    6.2891
       DOS:  cpu time    0.0011: real time    0.0011
    --------------------------------------------
      LOOP:  cpu time    6.2853: real time    6.2902

 eigenvalue-minimisations  :  1012
 total energy-change (2. order) :-0.9322093E+04  (-0.8987514E+04)
 number of electron     792.0000000 magnetization 
 augmentation part      792.0000000 magnetization 

 Free energy of the ion-electron system (eV)
  ---------------------------------------------------
  alpha Z        PSCENC =      1893.09323658
  Ewald energy   TEWEN  =    221750.37854563
  -Hartree energ DENC   =   -343933.00228385
  -exchange      EXHF   =         0.00000000
  -V(xc)+E(xc)   XCENC  =      3681.60545885
  PAW double counting   =    112729.53333415  -117641.51188735
  entropy T*S    EENTRO =        -0.71746019
  eigenvalues    EBANDS =    -13872.59644371
  atomic energy  EATOM  =    136002.60505376
  Solvation  Ediel_sol  =         0.00000000
  ---------------------------------------------------
  free energy    TOTEN  =       609.38755386 eV

  energy without entropy =      610.10501406  energy(sigma->0) =      609.74628396


--------------------------------------------------------------------------------------------------------




--------------------------------------- Iteration      1(   3)  ---------------------------------------


     EDDAV:  cpu time    6.5362: real time    6.5417
       DOS:  cpu time    0.0012: real time    0.0012
    --------------------------------------------
      LOOP:  cpu time    6.5374: real time    6.5429

 eigenvalue-minimisations  :  1088
 total energy-change (2. order) :-0.9486711E+03  (-0.9027838E+03)
 number of electron     792.0000000 magnetization 
 augmentation part      792.0000000 magnetization 

 Free energy of the ion-electron system (eV)
  ---------------------------------------------------
  alpha Z        PSCENC =      1893.09323658
  Ewald energy   TEWEN  =    221750.37854563
  -Hartree energ DENC   =   -343933.00228385
  -exchange      EXHF   =         0.00000000
  -V(xc)+E(xc)   XCENC  =      3681.60545885
  PAW double counting   =    112729.53333415  -117641.51188735
  entropy T*S    EENTRO =        -1.00428054
  eigenvalues    EBANDS =    -14820.98074676
  atomic energy  EATOM  =    136002.60505376
  Solvation  Ediel_sol  =         0.00000000
  ---------------------------------------------------
  free energy    TOTEN  =      -339.28356953 eV

  energy without entropy =     -338.27928900  energy(sigma->0) =     -338.78142926


--------------------------------------------------------------------------------------------------------




--------------------------------------- Iteration      1(   4)  ---------------------------------------


     EDDAV:  cpu time    6.6414: real time    6.6470
       DOS:  cpu time    0.0014: real time    0.0014
    --------------------------------------------
      LOOP:  cpu time    6.6428: real time    6.6484

 eigenvalue-minimisations  :  1120
 total energy-change (2. order) :-0.5768352E+02  (-0.5702267E+02)
 number of electron     792.0000000 magnetization 
 augmentation part      792.0000000 magnetization 

 Free energy of the ion-electron system (eV)
  ---------------------------------------------------
  alpha Z        PSCENC =      1893.09323658
  Ewald energy   TEWEN  =    221750.37854563
  -Hartree energ DENC   =   -343933.00228385
  -exchange      EXHF   =         0.00000000
  -V(xc)+E(xc)   XCENC  =      3681.60545885
  PAW double counting   =    112729.53333415  -117641.51188735
  entropy T*S    EENTRO =        -1.02633289
  eigenvalues    EBANDS =    -14878.64221705
  atomic energy  EATOM  =    136002.60505376
  Solvation  Ediel_sol  =         0.00000000
  ---------------------------------------------------
  free energy    TOTEN  =      -396.96709218 eV

  energy without entropy =     -395.94075929  energy(sigma->0) =     -396.45392573


--------------------------------------------------------------------------------------------------------




--------------------------------------- Iteration      1(   5)  ---------------------------------------


     EDDAV:  cpu time    7.2072: real time    7.2142
       DOS:  cpu time    0.0013: real time    0.0013
    CHARGE:  cpu time    0.2175: real time    0.2176
    MIXING:  cpu time    0.0079: real time    0.0079
    --------------------------------------------
      LOOP:  cpu time    7.4339: real time    7.4409

 eigenvalue-minimisations  :  1248
 total energy-change (2. order) :-0.2116460E+01  (-0.2113241E+01)
 number of electron     792.0000110 magnetization 
 augmentation part      286.8673410 magnetization 

 Broyden mixing:
  rms(total) = 0.96308E+01    rms(broyden)= 0.96216E+01
  rms(prec ) = 0.99622E+01
  weight for this iteration     100.00

 Free energy of the ion-electron system (eV)
  ---------------------------------------------------
  alpha Z        PSCENC =      1893.09323658
  Ewald energy   TEWEN  =    221750.37854563
  -Hartree energ DENC   =   -343933.00228385
  -exchange      EXHF   =         0.00000000
  -V(xc)+E(xc)   XCENC  =      3681.60545885
  PAW double counting   =    112729.53333415  -117641.51188735
  entropy T*S    EENTRO =        -1.02563370
  eigenvalues    EBANDS =    -14880.75937590
  atomic energy  EATOM  =    136002.60505376
  Solvation  Ediel_sol  =         0.00000000
  ---------------------------------------------------
  free energy    TOTEN  =      -399.08355183 eV

  energy without entropy =     -398.05791813  energy(sigma->0) =     -398.57073498


--------------------------------------------------------------------------------------------------------




--------------------------------------- Iteration      1(   6)  ---------------------------------------


    POTLOK:  cpu time    0.2463: real time    0.2464
    SETDIJ:  cpu time    0.0173: real time    0.0173
     EDDAV:  cpu time    7.1897: real time    7.1927
       DOS:  cpu time    0.0013: real time    0.0013
    CHARGE:  cpu time    0.2100: real time    0.2100
    MIXING:  cpu time    0.0084: real time    0.0084
    --------------------------------------------
      LOOP:  cpu time    7.6730: real time    7.6760

 eigenvalue-minimisations  :  1192
 total energy-change (2. order) :-0.6078238E+02  (-0.9126543E+02)
 number of electron     792.0000096 magnetization 
 augmentation part      346.4286588 magnetization 

 Broyden mixing:
  rms(total) = 0.15060E+02    rms(broyden)= 0.15057E+02
  rms(prec ) = 0.15585E+02
  weight for this iteration     100.00

 eigenvalues of (default mixing * dielectric matrix)
  average eigenvalue GAMMA=   0.2626
  0.2626

 Free energy of the ion-electron system (eV)
  ---------------------------------------------------
  alpha Z        PSCENC =      1893.09323658
  Ewald energy   TEWEN  =    221750.37854563
  -Hartree energ DENC   =   -341264.87658371
  -exchange      EXHF   =         0.00000000
  -V(xc)+E(xc)   XCENC  =      3608.09463572
  PAW double counting   =    117540.33591267  -122222.54478688
  entropy T*S    EENTRO =        -0.82623382
  eigenvalues    EBANDS =    -17766.12570959
  atomic energy  EATOM  =    136002.60505376
  Solvation  Ediel_sol  =         0.00000000
  ---------------------------------------------------
  free energy    TOTEN  =      -459.86592964 eV

  energy without entropy =     -459.03969582  energy(sigma->0) =     -459.45281273


--------------------------------------------------------------------------------------------------------




--------------------------------------- Iteration      1(   7)  ---------------------------------------


    POTLOK:  cpu time    0.2462: real time    0.2463
    SETDIJ:  cpu time    0.0172: real time    0.0172
     EDDAV:  cpu time    6.4923: real time    6.4964
       DOS:  cpu time    0.0016: real time    0.0016
    CHARGE:  cpu time    0.2157: real time    0.2157
    MIXING:  cpu time    0.0084: real time    0.0084
    --------------------------------------------
      LOOP:  cpu time    6.9814: real time    6.9855

 eigenvalue-minimisations  :  1088
 total energy-change (2. order) : 0.9600164E+02  (-0.1932735E+02)
 number of electron     792.0000093 magnetization 
 augmentation part      328.8092719 magnetization 

 Broyden mixing:
  rms(total) = 0.62301E+01    rms(broyden)= 0.62285E+01
  rms(prec ) = 0.64506E+01
  weight for this iteration     100.00

 eigenvalues of (default mixing * dielectric matrix)
  average eigenvalue GAMMA=   0.5568
  0.6673  0.4464

 Free energy of the ion-electron system (eV)
  ---------------------------------------------------
  alpha Z        PSCENC =      1893.09323658
  Ewald energy   TEWEN  =    221750.37854563
  -Hartree energ DENC   =   -342466.63196072
  -exchange      EXHF   =         0.00000000
  -V(xc)+E(xc)   XCENC  =      3635.96663485
  PAW double counting   =    122231.41836506  -127061.55478950
  entropy T*S    EENTRO =        -0.78764194
  eigenvalues    EBANDS =    -16348.35173618
  atomic energy  EATOM  =    136002.60505376
  Solvation  Ediel_sol  =         0.00000000
  ---------------------------------------------------
  free energy    TOTEN  =      -363.86429247 eV

  energy without entropy =     -363.07665053  energy(sigma->0) =     -363.47047150


--------------------------------------------------------------------------------------------------------




--------------------------------------- Iteration      1(   8)  ---------------------------------------


    POTLOK:  cpu time    0.2497: real time    0.2500
    SETDIJ:  cpu time    0.0180: real time    0.0180
     EDDAV:  cpu time    7.2782: real time    7.2849
       DOS:  cpu time    0.0010: real time    0.0010
    CHARGE:  cpu time    0.2036: real time    0.2036
    MIXING:  cpu time    0.0090: real time    0.0092
    --------------------------------------------
      LOOP:  cpu time    7.7596: real time    7.7668

 eigenvalue-minimisations  :  1256
 total energy-change (2. order) :-0.7718301E+02  (-0.2157856E+02)
 number of electron     792.0000146 magnetization 
 augmentation part      305.1244767 magnetization 

 Broyden mixing:
  rms(total) = 0.13812E+02    rms(broyden)= 0.13810E+02
  rms(prec ) = 0.16171E+02
  weight for this iteration     100.00

 eigenvalues of (default mixing * dielectric matrix)
  average eigenvalue GAMMA=   0.5181
  0.9678  0.4198  0.1666

 Free energy of the ion-electron system (eV)
  ---------------------------------------------------
  alpha Z        PSCENC =      1893.09323658
  Ewald energy   TEWEN  =    221750.37854563
  -Hartree energ DENC   =   -343135.54481434
  -exchange      EXHF   =         0.00000000
  -V(xc)+E(xc)   XCENC  =      3660.15758007
  PAW double counting   =    129849.44951556  -134814.96901320
  entropy T*S    EENTRO =        -0.85752375
  eigenvalues    EBANDS =    -15645.35987868
  atomic energy  EATOM  =    136002.60505376
  Solvation  Ediel_sol  =         0.00000000
  ---------------------------------------------------
  free energy    TOTEN  =      -441.04729838 eV

  energy without entropy =     -440.18977463  energy(sigma->0) =     -440.61853651


--------------------------------------------------------------------------------------------------------




--------------------------------------- Iteration      1(   9)  ---------------------------------------


    POTLOK:  cpu time    0.3168: real time    0.3168
    SETDIJ:  cpu time    0.0360: real time    0.0360
     EDDAV:  cpu time    7.1999: real time    7.2060
       DOS:  cpu time    0.0012: real time    0.0012
    CHARGE:  cpu time    0.2128: real time    0.2129
    MIXING:  cpu time    0.0097: real time    0.0097
    --------------------------------------------
      LOOP:  cpu time    7.7765: real time    7.7827

 eigenvalue-minimisations  :  1224
 total energy-change (2. order) : 0.6454673E+02  (-0.1310007E+02)
 number of electron     792.0000083 magnetization 
 augmentation part      303.7218898 magnetization 

 Broyden mixing:
  rms(total) = 0.68564E+01    rms(broyden)= 0.68488E+01
  rms(prec ) = 0.81987E+01
  weight for this iteration     100.00

 eigenvalues of (default mixing * dielectric matrix)
  average eigenvalue GAMMA=   0.6098
  1.5475  0.3864  0.3864  0.1190

 Free energy of the ion-electron system (eV)
  ---------------------------------------------------
  alpha Z        PSCENC =      1893.09323658
  Ewald energy   TEWEN  =    221750.37854563
  -Hartree energ DENC   =   -343339.98039304
  -exchange      EXHF   =         0.00000000
  -V(xc)+E(xc)   XCENC  =      3659.43625982
  PAW double counting   =    133030.80798486  -138016.20991867
  entropy T*S    EENTRO =        -0.98961553
  eigenvalues    EBANDS =    -15355.64172187
  atomic energy  EATOM  =    136002.60505376
  Solvation  Ediel_sol  =         0.00000000
  ---------------------------------------------------
  free energy    TOTEN  =      -376.50056847 eV

  energy without entropy =     -375.51095294  energy(sigma->0) =     -376.00576071


--------------------------------------------------------------------------------------------------------




--------------------------------------- Iteration      1(  10)  ---------------------------------------


    POTLOK:  cpu time    0.2470: real time    0.2471
    SETDIJ:  cpu time    0.0172: real time    0.0172
     EDDAV:  cpu time    7.6718: real time    7.6765
       DOS:  cpu time    0.0013: real time    0.0013
    CHARGE:  cpu time    0.2142: real time    0.2142
    MIXING:  cpu time    0.0095: real time    0.0095
    --------------------------------------------
      LOOP:  cpu time    8.1610: real time    8.1658

 eigenvalue-minimisations  :  1344
 total energy-change (2. order) :-0.2746936E+02  (-0.1188496E+02)
 number of electron     792.0000098 magnetization 
 augmentation part      303.4076724 magnetization 

 Broyden mixing:
  rms(total) = 0.88952E+01    rms(broyden)= 0.88910E+01
  rms(prec ) = 0.10403E+02
  weight for this iteration     100.00

 eigenvalues of (default mixing * dielectric matrix)
  average eigenvalue GAMMA=   0.6732
  2.2473  0.4334  0.4334  0.1383  0.1135

 Free energy of the ion-electron system (eV)
  ---------------------------------------------------
  alpha Z        PSCENC =      1893.09323658
  Ewald energy   TEWEN  =    221750.37854563
  -Hartree energ DENC   =   -343276.21076460
  -exchange      EXHF   =         0.00000000
  -V(xc)+E(xc)   XCENC  =      3655.12919041
  PAW double counting   =    137275.65477863  -142277.09753058
  entropy T*S    EENTRO =        -1.13621800
  eigenvalues    EBANDS =    -15426.38622270
  atomic energy  EATOM  =    136002.60505376
  Solvation  Ediel_sol  =         0.00000000
  ---------------------------------------------------
  free energy    TOTEN  =      -403.96993087 eV

  energy without entropy =     -402.83371287  energy(sigma->0) =     -403.40182187


--------------------------------------------------------------------------------------------------------




--------------------------------------- Iteration      1(  11)  ---------------------------------------


    POTLOK:  cpu time    0.2423: real time    0.2439
    SETDIJ:  cpu time    0.0173: real time    0.0173
     EDDAV:  cpu time    7.6423: real time    7.6473
       DOS:  cpu time    0.0011: real time    0.0011
    CHARGE:  cpu time    0.2085: real time    0.2085
    MIXING:  cpu time    0.0102: real time    0.0102
    --------------------------------------------
      LOOP:  cpu time    8.1216: real time    8.1283

 eigenvalue-minimisations  :  1288
 total energy-change (2. order) : 0.2969516E+02  (-0.5166616E+01)
 number of electron     792.0000054 magnetization 
 augmentation part      309.3410550 magnetization 

 Broyden mixing:
  rms(total) = 0.61383E+01    rms(broyden)= 0.61348E+01
  rms(prec ) = 0.68216E+01
  weight for this iteration     100.00

 eigenvalues of (default mixing * dielectric matrix)
  average eigenvalue GAMMA=   0.6277
  2.4354  0.4404  0.4404  0.1714  0.1714  0.1073

 Free energy of the ion-electron system (eV)
  ---------------------------------------------------
  alpha Z        PSCENC =      1893.09323658
  Ewald energy   TEWEN  =    221750.37854563
  -Hartree energ DENC   =   -343101.42182990
  -exchange      EXHF   =         0.00000000
  -V(xc)+E(xc)   XCENC  =      3651.09342665
  PAW double counting   =    142689.94909355  -147717.75535618
  entropy T*S    EENTRO =        -0.91914678
  eigenvalues    EBANDS =    -15541.29779660
  atomic energy  EATOM  =    136002.60505376
  Solvation  Ediel_sol  =         0.00000000
  ---------------------------------------------------
  free energy    TOTEN  =      -374.27477331 eV

  energy without entropy =     -373.35562652  energy(sigma->0) =     -373.81519991


--------------------------------------------------------------------------------------------------------




--------------------------------------- Iteration      1(  12)  ---------------------------------------


    POTLOK:  cpu time    0.2420: real time    0.2420
    SETDIJ:  cpu time    0.0172: real time    0.0172
     EDDAV:  cpu time    7.4220: real time    7.4233
       DOS:  cpu time    0.0011: real time    0.0011
    CHARGE:  cpu time    0.2106: real time    0.2106
    MIXING:  cpu time    0.0104: real time    0.0104
    --------------------------------------------
      LOOP:  cpu time    7.9034: real time    7.9047

 eigenvalue-minimisations  :  1304
 total energy-change (2. order) : 0.1229002E+02  (-0.4171359E+01)
 number of electron     792.0000115 magnetization 
 augmentation part      312.9131986 magnetization 

 Broyden mixing:
  rms(total) = 0.36542E+01    rms(broyden)= 0.36503E+01
  rms(prec ) = 0.41076E+01
  weight for this iteration     100.00

 eigenvalues of (default mixing * dielectric matrix)
  average eigenvalue GAMMA=   0.5921
  2.3775  0.4656  0.4262  0.4262  0.2093  0.1341  0.1060

 Free energy of the ion-electron system (eV)
  ---------------------------------------------------
  alpha Z        PSCENC =      1893.09323658
  Ewald energy   TEWEN  =    221750.37854563
  -Hartree energ DENC   =   -343047.46221768
  -exchange      EXHF   =         0.00000000
  -V(xc)+E(xc)   XCENC  =      3649.58815981
  PAW double counting   =    144008.82789996  -149040.04860275
  entropy T*S    EENTRO =        -0.88531727
  eigenvalues    EBANDS =    -15578.08151537
  atomic energy  EATOM  =    136002.60505376
  Solvation  Ediel_sol  =         0.00000000
  ---------------------------------------------------
  free energy    TOTEN  =      -361.98475734 eV

  energy without entropy =     -361.09944007  energy(sigma->0) =     -361.54209870


--------------------------------------------------------------------------------------------------------




--------------------------------------- Iteration      1(  13)  ---------------------------------------


    POTLOK:  cpu time    0.2452: real time    0.2452
    SETDIJ:  cpu time    0.0172: real time    0.0172
     EDDAV:  cpu time    7.4473: real time    7.4534
       DOS:  cpu time    0.0011: real time    0.0011
    CHARGE:  cpu time    0.2110: real time    0.2110
    MIXING:  cpu time    0.0103: real time    0.0103
    --------------------------------------------
      LOOP:  cpu time    7.9321: real time    7.9383

 eigenvalue-minimisations  :  1248
 total energy-change (2. order) : 0.5106616E+01  (-0.1714656E+01)
 number of electron     792.0000106 magnetization 
 augmentation part      312.6785112 magnetization 

 Broyden mixing:
  rms(total) = 0.31275E+01    rms(broyden)= 0.31258E+01
  rms(prec ) = 0.34684E+01
  weight for this iteration     100.00

 eigenvalues of (default mixing * dielectric matrix)
  average eigenvalue GAMMA=   0.5409
  2.2892  0.4945  0.4288  0.4288  0.2764  0.1516  0.1516  0.1061

 Free energy of the ion-electron system (eV)
  ---------------------------------------------------
  alpha Z        PSCENC =      1893.09323658
  Ewald energy   TEWEN  =    221750.37854563
  -Hartree energ DENC   =   -343071.69206175
  -exchange      EXHF   =         0.00000000
  -V(xc)+E(xc)   XCENC  =      3650.40597602
  PAW double counting   =    143266.31537653  -148294.10505404
  entropy T*S    EENTRO =        -0.83540694
  eigenvalues    EBANDS =    -15553.04380728
  atomic energy  EATOM  =    136002.60505376
  Solvation  Ediel_sol  =         0.00000000
  ---------------------------------------------------
  free energy    TOTEN  =      -356.87814150 eV

  energy without entropy =     -356.04273455  energy(sigma->0) =     -356.46043802


--------------------------------------------------------------------------------------------------------




--------------------------------------- Iteration      1(  14)  ---------------------------------------


    POTLOK:  cpu time    0.2439: real time    0.2439
    SETDIJ:  cpu time    0.0172: real time    0.0172
     EDDAV:  cpu time    7.3584: real time    7.3649
       DOS:  cpu time    0.0011: real time    0.0011
    CHARGE:  cpu time    0.2124: real time    0.2124
    MIXING:  cpu time    0.0107: real time    0.0107
    --------------------------------------------
      LOOP:  cpu time    7.8436: real time    7.8502

 eigenvalue-minimisations  :  1288
 total energy-change (2. order) : 0.2535514E+01  (-0.9951248E+00)
 number of electron     792.0000099 magnetization 
 augmentation part      312.6427000 magnetization 

 Broyden mixing:
  rms(total) = 0.22106E+01    rms(broyden)= 0.22089E+01
  rms(prec ) = 0.24911E+01
  weight for this iteration     100.00

 eigenvalues of (default mixing * dielectric matrix)
  average eigenvalue GAMMA=   0.5217
  2.2009  0.5364  0.5364  0.4275  0.4275  0.1657  0.1657  0.1063  0.1291

 Free energy of the ion-electron system (eV)
  ---------------------------------------------------
  alpha Z        PSCENC =      1893.09323658
  Ewald energy   TEWEN  =    221750.37854563
  -Hartree energ DENC   =   -343090.45521392
  -exchange      EXHF   =         0.00000000
  -V(xc)+E(xc)   XCENC  =      3650.67985409
  PAW double counting   =    142651.79211493  -147674.90890319
  entropy T*S    EENTRO =        -0.87895848
  eigenvalues    EBANDS =    -15536.64835725
  atomic energy  EATOM  =    136002.60505376
  Solvation  Ediel_sol  =         0.00000000
  ---------------------------------------------------
  free energy    TOTEN  =      -354.34262786 eV

  energy without entropy =     -353.46366938  energy(sigma->0) =     -353.90314862


--------------------------------------------------------------------------------------------------------




--------------------------------------- Iteration      1(  15)  ---------------------------------------


    POTLOK:  cpu time    0.2450: real time    0.2450
    SETDIJ:  cpu time    0.0173: real time    0.0263
     EDDAV:  cpu time    7.6861: real time    7.6879
       DOS:  cpu time    0.0011: real time    0.0011
    CHARGE:  cpu time    0.2108: real time    0.2108
    MIXING:  cpu time    0.0120: real time    0.0120
    --------------------------------------------
      LOOP:  cpu time    8.1723: real time    8.1830

 eigenvalue-minimisations  :  1304
 total energy-change (2. order) : 0.1638034E+01  (-0.2879934E+00)
 number of electron     792.0000109 magnetization 
 augmentation part      312.3780794 magnetization 

 Broyden mixing:
  rms(total) = 0.16164E+01    rms(broyden)= 0.16158E+01
  rms(prec ) = 0.18085E+01
  weight for this iteration     100.00

 eigenvalues of (default mixing * dielectric matrix)
  average eigenvalue GAMMA=   0.5044
  2.1569  0.6307  0.6307  0.4248  0.4248  0.1944  0.1944  0.1059  0.1407  0.1407

 Free energy of the ion-electron system (eV)
  ---------------------------------------------------
  alpha Z        PSCENC =      1893.09323658
  Ewald energy   TEWEN  =    221750.37854563
  -Hartree energ DENC   =   -343102.97738830
  -exchange      EXHF   =         0.00000000
  -V(xc)+E(xc)   XCENC  =      3651.17496228
  PAW double counting   =    142013.44227104  -147032.63342106
  entropy T*S    EENTRO =        -0.85537946
  eigenvalues    EBANDS =    -15526.93247394
  atomic energy  EATOM  =    136002.60505376
  Solvation  Ediel_sol  =         0.00000000
  ---------------------------------------------------
  free energy    TOTEN  =      -352.70459348 eV

  energy without entropy =     -351.84921402  energy(sigma->0) =     -352.27690375


--------------------------------------------------------------------------------------------------------




--------------------------------------- Iteration      1(  16)  ---------------------------------------


    POTLOK:  cpu time    0.2453: real time    0.2465
    SETDIJ:  cpu time    0.0173: real time    0.0173
     EDDAV:  cpu time    7.4544: real time    7.4576
       DOS:  cpu time    0.0012: real time    0.0012
    CHARGE:  cpu time    0.2125: real time    0.2125
    MIXING:  cpu time    0.0121: real time    0.0121
    --------------------------------------------
      LOOP:  cpu time    7.9428: real time    7.9471

 eigenvalue-minimisations  :  1296
 total energy-change (2. order) : 0.6757819E+00  (-0.1094600E+00)
 number of electron     792.0000100 magnetization 
 augmentation part      312.1177384 magnetization 

 Broyden mixing:
  rms(total) = 0.13733E+01    rms(broyden)= 0.13730E+01
  rms(prec ) = 0.15404E+01
  weight for this iteration     100.00

 eigenvalues of (default mixing * dielectric matrix)
  average eigenvalue GAMMA=   0.5102
  2.1559  0.7329  0.7329  0.4283  0.4283  0.3556  0.2272  0.1562  0.1562  0.1061
  0.1320

 Free energy of the ion-electron system (eV)
  ---------------------------------------------------
  alpha Z        PSCENC =      1893.09323658
  Ewald energy   TEWEN  =    221750.37854563
  -Hartree energ DENC   =   -343113.07321135
  -exchange      EXHF   =         0.00000000
  -V(xc)+E(xc)   XCENC  =      3651.41905237
  PAW double counting   =    141630.17143633  -146646.35861552
  entropy T*S    EENTRO =        -0.87959097
  eigenvalues    EBANDS =    -15519.38471840
  atomic energy  EATOM  =    136002.60505376
  Solvation  Ediel_sol  =         0.00000000
  ---------------------------------------------------
  free energy    TOTEN  =      -352.02881157 eV

  energy without entropy =     -351.14922060  energy(sigma->0) =     -351.58901608


--------------------------------------------------------------------------------------------------------




--------------------------------------- Iteration      1(  17)  ---------------------------------------


    POTLOK:  cpu time    0.2445: real time    0.2448
    SETDIJ:  cpu time    0.0172: real time    0.0172
     EDDAV:  cpu time    7.6887: real time    7.6897
       DOS:  cpu time    0.0011: real time    0.0011
    CHARGE:  cpu time    0.2158: real time    0.2158
    MIXING:  cpu time    0.0124: real time    0.0124
    --------------------------------------------
      LOOP:  cpu time    8.1798: real time    8.1811

 eigenvalue-minimisations  :  1304
 total energy-change (2. order) : 0.2523721E+00  (-0.4647005E-01)
 number of electron     792.0000101 magnetization 
 augmentation part      312.0261776 magnetization 

 Broyden mixing:
  rms(total) = 0.13007E+01    rms(broyden)= 0.13005E+01
  rms(prec ) = 0.14615E+01
  weight for this iteration     100.00

 eigenvalues of (default mixing * dielectric matrix)
  average eigenvalue GAMMA=   0.5432
  2.1569  1.0175  1.0175  0.4695  0.4396  0.4396  0.2580  0.1684  0.1684  0.1061
  0.1383  0.1383

 Free energy of the ion-electron system (eV)
  ---------------------------------------------------
  alpha Z        PSCENC =      1893.09323658
  Ewald energy   TEWEN  =    221750.37854563
  -Hartree energ DENC   =   -343119.90156449
  -exchange      EXHF   =         0.00000000
  -V(xc)+E(xc)   XCENC  =      3651.47213114
  PAW double counting   =    141357.95969001  -146371.29097526
  entropy T*S    EENTRO =        -0.88535408
  eigenvalues    EBANDS =    -15515.20720278
  atomic energy  EATOM  =    136002.60505376
  Solvation  Ediel_sol  =         0.00000000
  ---------------------------------------------------
  free energy    TOTEN  =      -351.77643950 eV

  energy without entropy =     -350.89108542  energy(sigma->0) =     -351.33376246


--------------------------------------------------------------------------------------------------------




--------------------------------------- Iteration      1(  18)  ---------------------------------------


    POTLOK:  cpu time    0.2456: real time    0.2456
    SETDIJ:  cpu time    0.0171: real time    0.0171
     EDDAV:  cpu time    7.3574: real time    7.3584
       DOS:  cpu time    0.0012: real time    0.0012
    CHARGE:  cpu time    0.2125: real time    0.2126
    MIXING:  cpu time    0.0126: real time    0.0126
    --------------------------------------------
      LOOP:  cpu time    7.8464: real time    7.8474

 eigenvalue-minimisations  :  1288
 total energy-change (2. order) : 0.4027742E+00  (-0.4658543E-01)
 number of electron     792.0000106 magnetization 
 augmentation part      312.0155860 magnetization 

 Broyden mixing:
  rms(total) = 0.11108E+01    rms(broyden)= 0.11106E+01
  rms(prec ) = 0.12430E+01
  weight for this iteration     100.00

 eigenvalues of (default mixing * dielectric matrix)
  average eigenvalue GAMMA=   0.5361
  2.1422  1.1466  1.1466  0.4465  0.4465  0.4473  0.3310  0.1765  0.1765  0.1061
  0.1394  0.1394  0.1248

 Free energy of the ion-electron system (eV)
  ---------------------------------------------------
  alpha Z        PSCENC =      1893.09323658
  Ewald energy   TEWEN  =    221750.37854563
  -Hartree energ DENC   =   -343130.54979885
  -exchange      EXHF   =         0.00000000
  -V(xc)+E(xc)   XCENC  =      3651.49997527
  PAW double counting   =    140867.95006756  -145875.84503983
  entropy T*S    EENTRO =        -0.87865229
  eigenvalues    EBANDS =    -15509.62705311
  atomic energy  EATOM  =    136002.60505376
  Solvation  Ediel_sol  =         0.00000000
  ---------------------------------------------------
  free energy    TOTEN  =      -351.37366528 eV

  energy without entropy =     -350.49501299  energy(sigma->0) =     -350.93433914


--------------------------------------------------------------------------------------------------------




--------------------------------------- Iteration      1(  19)  ---------------------------------------


    POTLOK:  cpu time    0.2465: real time    0.2466
    SETDIJ:  cpu time    0.0171: real time    0.0171
     EDDAV:  cpu time    7.2917: real time    7.2978
       DOS:  cpu time    0.0012: real time    0.0012
    CHARGE:  cpu time    0.4002: real time    0.4002
    MIXING:  cpu time    0.0136: real time    0.0136
    --------------------------------------------
      LOOP:  cpu time    7.9703: real time    7.9765

 eigenvalue-minimisations  :  1264
 total energy-change (2. order) : 0.2863803E+00  (-0.1811125E-01)
 number of electron     792.0000105 magnetization 
 augmentation part      311.9489208 magnetization 

 Broyden mixing:
  rms(total) = 0.95080E+00    rms(broyden)= 0.95076E+00
  rms(prec ) = 0.10615E+01
  weight for this iteration     100.00

 eigenvalues of (default mixing * dielectric matrix)
  average eigenvalue GAMMA=   0.6031
  2.1078  1.5887  1.5887  0.5804  0.5804  0.4336  0.4336  0.2127  0.2127  0.1061
  0.1614  0.1614  0.1380  0.1380

 Free energy of the ion-electron system (eV)
  ---------------------------------------------------
  alpha Z        PSCENC =      1893.09323658
  Ewald energy   TEWEN  =    221750.37854563
  -Hartree energ DENC   =   -343138.33563230
  -exchange      EXHF   =         0.00000000
  -V(xc)+E(xc)   XCENC  =      3651.58974826
  PAW double counting   =    140563.68900403  -145568.54308850
  entropy T*S    EENTRO =        -0.89282476
  eigenvalues    EBANDS =    -15504.67132767
  atomic energy  EATOM  =    136002.60505376
  Solvation  Ediel_sol  =         0.00000000
  ---------------------------------------------------
  free energy    TOTEN  =      -351.08728497 eV

  energy without entropy =     -350.19446021  energy(sigma->0) =     -350.64087259


--------------------------------------------------------------------------------------------------------




--------------------------------------- Iteration      1(  20)  ---------------------------------------


    POTLOK:  cpu time    0.2481: real time    0.2485
    SETDIJ:  cpu time    0.0182: real time    0.0182
     EDDAV:  cpu time    7.9946: real time    7.9956
       DOS:  cpu time    0.0012: real time    0.0012
    CHARGE:  cpu time    0.2111: real time    0.2113
    MIXING:  cpu time    0.0136: real time    0.0136
    --------------------------------------------
      LOOP:  cpu time    8.4868: real time    8.4883

 eigenvalue-minimisations  :  1432
 total energy-change (2. order) : 0.5252469E+00  (-0.4323652E-01)
 number of electron     792.0000105 magnetization 
 augmentation part      311.9185714 magnetization 

 Broyden mixing:
  rms(total) = 0.56172E+00    rms(broyden)= 0.56126E+00
  rms(prec ) = 0.62634E+00
  weight for this iteration     100.00

 eigenvalues of (default mixing * dielectric matrix)
  average eigenvalue GAMMA=   0.6111
  2.1468  1.7173  1.7173  0.6418  0.6418  0.4305  0.4305  0.3384  0.2235  0.1061
  0.1672  0.1672  0.1583  0.1438  0.1356

 Free energy of the ion-electron system (eV)
  ---------------------------------------------------
  alpha Z        PSCENC =      1893.09323658
  Ewald energy   TEWEN  =    221750.37854563
  -Hartree energ DENC   =   -343161.76250925
  -exchange      EXHF   =         0.00000000
  -V(xc)+E(xc)   XCENC  =      3651.72737055
  PAW double counting   =    139529.51064230  -144522.92911802
  entropy T*S    EENTRO =        -0.92131011
  eigenvalues    EBANDS =    -15492.26394954
  atomic energy  EATOM  =    136002.60505376
  Solvation  Ediel_sol  =         0.00000000
  ---------------------------------------------------
  free energy    TOTEN  =      -350.56203811 eV

  energy without entropy =     -349.64072800  energy(sigma->0) =     -350.10138306


--------------------------------------------------------------------------------------------------------




--------------------------------------- Iteration      1(  21)  ---------------------------------------


    POTLOK:  cpu time    0.2488: real time    0.2488
    SETDIJ:  cpu time    0.0172: real time    0.0172
     EDDAV:  cpu time    7.6492: real time    7.6501
       DOS:  cpu time    0.0012: real time    0.0012
    CHARGE:  cpu time    0.2102: real time    0.2103
    MIXING:  cpu time    0.0141: real time    0.0141
    --------------------------------------------
      LOOP:  cpu time    8.1407: real time    8.1418

 eigenvalue-minimisations  :  1304
 total energy-change (2. order) : 0.1045765E+00  (-0.4133008E-01)
 number of electron     792.0000109 magnetization 
 augmentation part      311.9807837 magnetization 

 Broyden mixing:
  rms(total) = 0.38641E+00    rms(broyden)= 0.38605E+00
  rms(prec ) = 0.41316E+00
  weight for this iteration     100.00

 eigenvalues of (default mixing * dielectric matrix)
  average eigenvalue GAMMA=   0.6269
  2.1711  1.7705  1.7705  0.7919  0.7919  0.5518  0.4383  0.4383  0.2364  0.1061
  0.1834  0.1834  0.1603  0.1603  0.1380  0.1380

 Free energy of the ion-electron system (eV)
  ---------------------------------------------------
  alpha Z        PSCENC =      1893.09323658
  Ewald energy   TEWEN  =    221750.37854563
  -Hartree energ DENC   =   -343169.24939274
  -exchange      EXHF   =         0.00000000
  -V(xc)+E(xc)   XCENC  =      3651.67840840
  PAW double counting   =    139222.99966309  -144212.14825233
  entropy T*S    EENTRO =        -0.93555153
  eigenvalues    EBANDS =    -15488.87917249
  atomic energy  EATOM  =    136002.60505376
  Solvation  Ediel_sol  =         0.00000000
  ---------------------------------------------------
  free energy    TOTEN  =      -350.45746162 eV

  energy without entropy =     -349.52191010  energy(sigma->0) =     -349.98968586


--------------------------------------------------------------------------------------------------------




--------------------------------------- Iteration      1(  22)  ---------------------------------------


    POTLOK:  cpu time    0.2505: real time    0.2505
    SETDIJ:  cpu time    0.0171: real time    0.0171
     EDDAV:  cpu time    6.8644: real time    6.8653
       DOS:  cpu time    0.0013: real time    0.0013
    CHARGE:  cpu time    0.2108: real time    0.2108
    MIXING:  cpu time    0.0149: real time    0.0149
    --------------------------------------------
      LOOP:  cpu time    7.3589: real time    7.3598

 eigenvalue-minimisations  :  1176
 total energy-change (2. order) : 0.1910918E-01  (-0.1961048E-01)
 number of electron     792.0000106 magnetization 
 augmentation part      312.1013975 magnetization 

 Broyden mixing:
  rms(total) = 0.30570E+00    rms(broyden)= 0.30554E+00
  rms(prec ) = 0.34091E+00
  weight for this iteration     100.00

 eigenvalues of (default mixing * dielectric matrix)
  average eigenvalue GAMMA=   0.6264
  2.1008  1.7597  1.7597  0.9518  0.9518  0.5903  0.4403  0.4403  0.3698  0.2073
  0.2073  0.1061  0.1637  0.1637  0.1590  0.1396  0.1368

 Free energy of the ion-electron system (eV)
  ---------------------------------------------------
  alpha Z        PSCENC =      1893.09323658
  Ewald energy   TEWEN  =    221750.37854563
  -Hartree energ DENC   =   -343176.89162139
  -exchange      EXHF   =         0.00000000
  -V(xc)+E(xc)   XCENC  =      3651.60679099
  PAW double counting   =    139131.46368219  -144118.95948186
  entropy T*S    EENTRO =        -0.93718937
  eigenvalues    EBANDS =    -15482.79736897
  atomic energy  EATOM  =    136002.60505376
  Solvation  Ediel_sol  =         0.00000000
  ---------------------------------------------------
  free energy    TOTEN  =      -350.43835245 eV

  energy without entropy =     -349.50116308  energy(sigma->0) =     -349.96975777


--------------------------------------------------------------------------------------------------------




--------------------------------------- Iteration      1(  23)  ---------------------------------------


    POTLOK:  cpu time    0.2511: real time    0.2511
    SETDIJ:  cpu time    0.0171: real time    0.0171
     EDDAV:  cpu time    7.2050: real time    7.2105
       DOS:  cpu time    0.0012: real time    0.0012
    CHARGE:  cpu time    0.2476: real time    0.2476
    MIXING:  cpu time    0.0154: real time    0.0154
    --------------------------------------------
      LOOP:  cpu time    7.7373: real time    7.7429

 eigenvalue-minimisations  :  1256
 total energy-change (2. order) :-0.4637448E-02  (-0.1341883E-01)
 number of electron     792.0000105 magnetization 
 augmentation part      312.0963772 magnetization 

 Broyden mixing:
  rms(total) = 0.28868E+00    rms(broyden)= 0.28846E+00
  rms(prec ) = 0.31794E+00
  weight for this iteration     100.00

 eigenvalues of (default mixing * dielectric matrix)
  average eigenvalue GAMMA=   0.6582
  1.9986  1.9986  1.5823  1.5823  0.8497  0.8497  0.6362  0.4379  0.4379  0.2133
  0.2133  0.1061  0.1782  0.1641  0.1641  0.1365  0.1401  0.1587

 Free energy of the ion-electron system (eV)
  ---------------------------------------------------
  alpha Z        PSCENC =      1893.09323658
  Ewald energy   TEWEN  =    221750.37854563
  -Hartree energ DENC   =   -343187.18563963
  -exchange      EXHF   =         0.00000000
  -V(xc)+E(xc)   XCENC  =      3651.64912325
  PAW double counting   =    138906.11122952  -143891.21672854
  entropy T*S    EENTRO =        -0.94591482
  eigenvalues    EBANDS =    -15474.93189564
  atomic energy  EATOM  =    136002.60505376
  Solvation  Ediel_sol  =         0.00000000
  ---------------------------------------------------
  free energy    TOTEN  =      -350.44298990 eV

  energy without entropy =     -349.49707507  energy(sigma->0) =     -349.97003248


--------------------------------------------------------------------------------------------------------




--------------------------------------- Iteration      1(  24)  ---------------------------------------


    POTLOK:  cpu time    0.2499: real time    0.2499
    SETDIJ:  cpu time    0.0178: real time    0.0178
     EDDAV:  cpu time    6.8945: real time    6.8955
       DOS:  cpu time    0.0012: real time    0.0012
    CHARGE:  cpu time    0.2087: real time    0.2109
    MIXING:  cpu time    0.0182: real time    0.0182
    --------------------------------------------
      LOOP:  cpu time    7.3903: real time    7.3935

 eigenvalue-minimisations  :  1128
 total energy-change (2. order) : 0.2106123E-01  (-0.9998698E-02)
 number of electron     792.0000108 magnetization 
 augmentation part      312.2425641 magnetization 

 Broyden mixing:
  rms(total) = 0.19532E+00    rms(broyden)= 0.19507E+00
  rms(prec ) = 0.21169E+00
  weight for this iteration     100.00

 eigenvalues of (default mixing * dielectric matrix)
  average eigenvalue GAMMA=   0.6496
  2.1160  2.1160  1.5879  1.5879  0.7997  0.7997  0.7343  0.4375  0.4375  0.2704
  0.1061  0.2061  0.2061  0.1798  0.1628  0.1628  0.1368  0.1395  0.1563

 Free energy of the ion-electron system (eV)
  ---------------------------------------------------
  alpha Z        PSCENC =      1893.09323658
  Ewald energy   TEWEN  =    221750.37854563
  -Hartree energ DENC   =   -343195.74173739
  -exchange      EXHF   =         0.00000000
  -V(xc)+E(xc)   XCENC  =      3651.61579543
  PAW double counting   =    138835.25546509  -143819.58795846
  entropy T*S    EENTRO =        -0.94107878
  eigenvalues    EBANDS =    -15467.09925052
  atomic energy  EATOM  =    136002.60505376
  Solvation  Ediel_sol  =         0.00000000
  ---------------------------------------------------
  free energy    TOTEN  =      -350.42192867 eV

  energy without entropy =     -349.48084989  energy(sigma->0) =     -349.95138928


--------------------------------------------------------------------------------------------------------




--------------------------------------- Iteration      1(  25)  ---------------------------------------


    POTLOK:  cpu time    0.2510: real time    0.2510
    SETDIJ:  cpu time    0.0171: real time    0.0171
     EDDAV:  cpu time    6.8164: real time    6.8171
       DOS:  cpu time    0.0011: real time    0.0011
    CHARGE:  cpu time    0.2097: real time    0.2097
    MIXING:  cpu time    0.0167: real time    0.0167
    --------------------------------------------
      LOOP:  cpu time    7.3120: real time    7.3127

 eigenvalue-minimisations  :  1168
 total energy-change (2. order) : 0.7729806E-02  (-0.5779203E-02)
 number of electron     792.0000105 magnetization 
 augmentation part      312.2649731 magnetization 

 Broyden mixing:
  rms(total) = 0.13968E+00    rms(broyden)= 0.13952E+00
  rms(prec ) = 0.15264E+00
  weight for this iteration     100.00

 eigenvalues of (default mixing * dielectric matrix)
  average eigenvalue GAMMA=   0.6795
  2.3484  2.3484  1.6771  1.6771  0.8580  0.8580  0.7155  0.5815  0.4376  0.4376
  0.2158  0.2158  0.1061  0.1802  0.1802  0.1623  0.1623  0.1365  0.1401  0.1513

 Free energy of the ion-electron system (eV)
  ---------------------------------------------------
  alpha Z        PSCENC =      1893.09323658
  Ewald energy   TEWEN  =    221750.37854563
  -Hartree energ DENC   =   -343199.48937528
  -exchange      EXHF   =         0.00000000
  -V(xc)+E(xc)   XCENC  =      3651.61496446
  PAW double counting   =    138826.02758867  -143810.26072924
  entropy T*S    EENTRO =        -0.94634458
  eigenvalues    EBANDS =    -15463.43713887
  atomic energy  EATOM  =    136002.60505376
  Solvation  Ediel_sol  =         0.00000000
  ---------------------------------------------------
  free energy    TOTEN  =      -350.41419886 eV

[...]
    FORCOR:  cpu time    0.3349: real time    0.3350
    FORHAR:  cpu time    0.1484: real time    0.1484
    MIXING:  cpu time    0.0230: real time    0.0230
    OFIELD:  cpu time    0.0001: real time    0.0001

  FORCE on cell =-STRESS in cart. coord.  units (eV):
  Direction    XX          YY          ZZ          XY          YZ          ZX
  --------------------------------------------------------------------------------------
  Alpha Z  1893.09324  1893.09324  1893.09324
  Ewald  268632.44046274280.25494************ -1242.63027  -446.55099  1579.32420
  Hartree305059.96004309585.58627************ -1128.13319  -248.93231  1251.95072
  E(xc)   -5052.75814 -5050.85513 -5056.68056    -0.13147    -0.68650     0.69497
  Local  ************************579516.19501  2370.80803   667.18259 -2800.30254
  n-local  -618.37684  -617.59585  -616.56664     2.80575    -0.31391    -2.64979
  augment  5793.38262  5785.80710  5798.83834    -1.71185     9.92419   -10.68784
  Kinetic 11095.59117 11064.17074 11140.66082    -7.71703    18.11113   -20.47158
  Fock        0.00000     0.00000     0.00000     0.00000     0.00000     0.00000
  -------------------------------------------------------------------------------------
  Total      85.28038    85.68793   108.49960    -6.71003    -1.26580    -2.14185
  in kB      69.53452    69.86682    88.46663    -5.47112    -1.03209    -1.74639
  external pressure =       75.96 kB  Pullay stress =        0.00 kB


 VOLUME and BASIS-vectors are now :
 -----------------------------------------------------------------------------
  energy-cutoff  :      450.00
  volume of cell :     1964.98
      direct lattice vectors                 reciprocal lattice vectors
    10.079732985  0.000000000  0.000000000     0.099208977 -0.037612667  0.000000000
     3.573298043  9.425102554  0.000000000     0.000000000  0.106099641  0.000000000
     0.000000000  0.000000000 20.683503555     0.000000000  0.000000000  0.048347708

  length of vectors
    10.079732985 10.079732985 20.683503555     0.106099641  0.106099641  0.048347708


 FORCES acting on ions
    electron-ion (+dipol)            ewald-force                    non-local-force                 convergence-correction
 -----------------------------------------------------------------------------------------------
   0.430E+03 0.966E+02 0.541E+04   -.433E+03 -.977E+02 -.542E+04   0.881E+00 0.836E+00 0.723E+01   -.553E-01 -.804E-01 -.200E+00
   0.547E+03 0.295E+03 0.299E+04   -.551E+03 -.300E+03 -.299E+04   0.309E+01 0.318E+01 -.161E+01   -.493E-01 -.307E-01 -.344E-01
   -.665E+02 -.458E+03 -.276E+03   0.655E+02 0.459E+03 0.277E+03   0.797E+00 -.172E+01 -.434E+00   0.425E-01 -.236E+00 0.110E+00
   -.189E+03 -.875E+03 -.339E+04   0.190E+03 0.876E+03 0.339E+04   -.125E+01 -.115E+01 0.126E+01   0.620E-01 -.212E+00 -.508E-01
   -.157E+03 -.680E+03 -.565E+04   0.157E+03 0.679E+03 0.565E+04   0.581E+00 0.441E+00 0.484E+01   -.241E-01 -.264E-01 -.988E-01
   0.412E+02 -.228E+03 0.168E+04   -.419E+02 0.226E+03 -.167E+04   0.851E+00 0.127E+01 -.367E+01   -.175E+00 0.389E+00 0.122E+00
   -.183E+02 -.399E+03 -.129E+04   0.176E+02 0.400E+03 0.129E+04   0.771E+00 -.624E+00 0.144E+00   -.121E+00 0.212E+00 0.281E+00
   -.947E+02 -.435E+03 -.457E+04   0.944E+02 0.437E+03 0.457E+04   -.718E+00 -.121E+01 -.390E+01   -.110E+00 0.251E+00 0.255E+00
   0.137E+03 -.374E+03 0.445E+04   -.140E+03 0.377E+03 -.446E+04   0.342E+01 -.357E+01 0.561E+01   -.726E-01 0.223E+00 0.301E-01
   0.499E+03 -.146E+03 -.494E+04   -.499E+03 0.151E+03 0.495E+04   0.497E+00 -.463E+01 -.506E+01   -.113E+00 0.504E-01 0.140E-01
   0.461E+02 0.672E+02 0.383E+04   -.475E+02 -.690E+02 -.384E+04   0.140E+01 0.122E+01 0.573E+01   0.107E+00 0.816E-01 0.953E-01
   -.804E+02 -.128E+03 0.964E+03   0.804E+02 0.126E+03 -.960E+03   -.118E+00 0.637E+00 -.162E+01   0.143E+00 -.149E+00 0.229E+00
   0.212E+03 -.414E+03 -.197E+04   -.212E+03 0.418E+03 0.197E+04   -.452E-01 -.299E+01 0.984E+00   0.259E-01 -.456E-01 0.610E-01
   -.419E+02 -.275E+03 0.387E+04   0.435E+02 0.278E+03 -.388E+04   -.135E+01 -.265E+01 0.136E+01   0.311E-01 0.128E+00 0.112E+00
   0.248E+03 0.218E+03 0.677E+03   -.248E+03 -.217E+03 -.674E+03   0.389E+00 -.147E+01 -.226E+01   0.126E+00 0.106E+00 0.303E+00
   0.543E+03 0.223E+03 -.209E+04   -.545E+03 -.225E+03 0.209E+04   0.219E+01 0.901E+00 0.111E+01   0.212E+00 0.141E+00 0.118E+00
   0.655E+03 0.460E+03 -.491E+04   -.659E+03 -.463E+03 0.492E+04   0.322E+01 0.284E+01 -.293E+01   0.813E-01 0.608E-01 0.252E-02
   0.819E+03 0.364E+03 0.306E+04   -.824E+03 -.365E+03 -.306E+04   0.383E+01 0.177E+01 -.787E+00   -.145E+00 -.476E-01 0.493E-01
   0.400E+03 0.321E+03 -.155E+03   -.401E+03 -.320E+03 0.155E+03   0.153E+01 -.346E+00 -.194E+00   -.265E+00 0.290E-02 0.200E+00
   -.175E+03 0.112E+03 -.303E+04   0.177E+03 -.112E+03 0.303E+04   -.163E+01 -.145E+00 0.218E+01   -.256E+00 0.215E-01 0.149E+00
   -.485E+03 0.224E+03 -.543E+04   0.486E+03 -.224E+03 0.543E+04   -.166E+01 -.409E+00 -.401E+01   -.742E-01 0.362E-01 0.832E-01
   0.434E+03 -.246E+03 0.584E+04   -.436E+03 0.247E+03 -.585E+04   0.105E+01 -.437E+00 0.483E+01   -.691E-01 0.247E+00 -.529E-01
   0.615E+03 0.308E+03 -.445E+04   -.621E+03 -.311E+03 0.445E+04   0.409E+01 0.204E+01 -.505E+00   -.105E+00 -.759E-02 0.346E-01
   -.671E+03 -.176E+03 0.445E+04   0.673E+03 0.180E+03 -.445E+04   -.225E+00 -.313E+01 0.397E+01   0.120E+00 -.155E+00 -.115E+00
   0.267E+03 0.813E+02 0.188E+04   -.268E+03 -.807E+02 -.187E+04   0.166E+00 -.258E+00 -.199E+01   0.197E+00 -.303E+00 -.293E-01
   0.598E+03 0.288E+03 -.128E+04   -.601E+03 -.289E+03 0.128E+04   0.235E+01 0.961E+00 0.514E+00   0.509E-01 -.613E-01 0.292E-01
   -.702E+03 0.260E+02 -.411E+04   0.707E+03 -.268E+02 0.411E+04   -.404E+01 0.105E+01 -.933E+00   -.695E-01 0.315E-01 -.217E-01
   -.109E+03 0.610E+03 0.517E+04   0.106E+03 -.611E+03 -.517E+04   0.265E+01 -.361E+00 0.669E+00   0.105E+00 -.792E-02 -.665E-01
   -.500E+03 0.155E+03 0.204E+04   0.501E+03 -.155E+03 -.204E+04   -.137E+01 -.456E+00 -.154E+01   0.850E-01 0.891E-01 0.224E+00
   -.463E+03 0.313E+02 -.108E+04   0.464E+03 -.304E+02 0.108E+04   -.145E+01 -.938E+00 0.166E+01   -.931E-01 0.747E-01 0.212E+00
   -.784E+03 -.848E+02 0.420E+04   0.789E+03 0.853E+02 -.420E+04   -.486E+01 0.685E+00 0.118E+01   0.872E-02 -.352E-01 -.131E+00
   -.463E+03 0.182E+03 0.775E+03   0.465E+03 -.183E+03 -.776E+03   -.187E+01 0.796E+00 0.829E+00   -.682E-02 0.583E-01 0.838E-01
   -.449E+03 0.545E+03 -.253E+04   0.451E+03 -.545E+03 0.253E+04   -.263E+01 -.289E+00 0.131E+01   0.144E+00 -.185E-01 0.144E+00
   -.467E+03 -.682E+02 0.350E+04   0.470E+03 0.702E+02 -.350E+04   -.238E+01 -.109E+01 0.235E+01   -.146E+00 -.220E+00 0.318E-01
   -.432E+03 0.143E+03 -.569E+02   0.434E+03 -.142E+03 0.550E+02   -.135E+01 -.528E+00 0.154E+01   -.171E+00 0.120E-01 0.103E+00
   -.449E+03 0.509E+03 -.340E+04   0.454E+03 -.512E+03 0.340E+04   -.336E+01 0.299E+01 0.912E+00   -.739E-01 -.836E-01 0.677E-02
   -.291E+02 0.106E+03 -.218E+04   0.307E+02 -.107E+03 0.218E+04   -.124E+01 0.134E+01 -.258E+01   -.628E-02 0.113E-01 0.103E-01
   0.781E+01 0.161E+03 0.181E+04   -.850E+01 -.163E+03 -.181E+04   -.365E+00 0.217E+01 0.338E+01   0.342E-01 0.677E-01 0.130E-01
   -.387E+02 0.985E+02 0.121E+03   0.391E+02 -.997E+02 -.119E+03   -.371E+00 0.128E+01 -.757E+00   0.517E-01 0.753E-01 0.177E+00
   0.350E+02 0.156E+03 -.823E+03   -.367E+02 -.159E+03 0.818E+03   0.124E+01 0.157E+01 0.155E+01   0.183E-01 0.554E-01 0.245E-01
   0.287E+03 0.124E+03 0.225E+04   -.291E+03 -.125E+03 -.225E+04   0.239E+01 0.331E+00 0.200E+01   -.206E-01 -.761E-01 -.103E+00
   0.750E+02 0.967E+02 0.826E+03   -.751E+02 -.966E+02 -.822E+03   0.148E-02 0.493E+00 -.635E+00   -.604E-01 -.523E-01 -.306E-01
   -.301E+02 0.141E+03 -.198E+03   0.301E+02 -.144E+03 0.196E+03   0.208E+00 0.211E+01 0.114E+01   -.895E-01 -.105E+00 -.774E-03
   -.342E+03 0.103E+03 -.157E+04   0.344E+03 -.104E+03 0.157E+04   0.347E+00 0.815E-01 -.124E+01   0.383E-01 -.900E-01 0.110E-01
   -.413E+02 0.498E+02 0.486E+03   0.431E+02 -.510E+02 -.484E+03   -.132E+01 0.925E+00 -.840E+00   -.586E-01 0.340E-01 -.638E-03
   0.162E+02 0.144E+03 -.527E+03   -.163E+02 -.146E+03 0.523E+03   0.371E+00 0.161E+01 0.147E+01   -.576E-01 0.332E-01 0.215E-01
   -.466E+02 0.149E+03 -.175E+04   0.460E+02 -.150E+03 0.175E+04   0.131E+01 -.435E+00 0.199E+00   -.241E-01 -.715E-02 0.413E-01
   -.359E+02 -.220E+03 0.214E+04   0.363E+02 0.221E+03 -.215E+04   -.101E+01 -.962E+00 0.240E+01   0.278E-01 -.130E+00 -.223E-02
   -.368E+01 0.174E+03 0.236E+04   0.468E+01 -.176E+03 -.237E+04   -.412E+00 0.294E+00 0.249E+01   0.131E-02 -.423E-02 -.958E-01
   -.137E+03 -.137E+02 0.850E+03   0.139E+03 0.138E+02 -.848E+03   -.199E+01 0.537E+00 -.301E+00   0.765E-01 -.546E-01 0.334E-01
   -.120E+03 -.154E+03 -.296E+03   0.121E+03 0.156E+03 0.296E+03   -.172E+01 -.212E+01 -.289E-01   0.229E-01 -.609E-01 0.633E-01
   -.244E+03 -.287E+03 -.145E+04   0.246E+03 0.288E+03 0.145E+04   -.149E+00 -.140E+00 -.888E+00   -.246E-01 -.933E-02 -.454E-01
   -.304E+03 -.290E+03 0.199E+04   0.308E+03 0.293E+03 -.199E+04   -.179E+01 -.210E+01 0.166E+01   -.661E-01 0.141E+00 -.316E-01
   -.958E+02 -.604E+01 0.467E+03   0.976E+02 0.483E+01 -.466E+03   -.186E+01 0.609E+00 -.697E+00   0.290E-01 0.932E-01 0.979E-01
   -.101E+03 -.851E+02 -.655E+03   0.103E+03 0.876E+02 0.654E+03   -.187E+01 -.248E+01 0.264E+00   0.651E-01 0.169E+00 0.834E-01
   -.600E+02 0.214E+03 -.190E+04   0.609E+02 -.216E+03 0.191E+04   0.335E+00 0.155E+01 -.110E+01   0.839E-01 0.844E-01 0.153E+00
   -.113E+03 -.103E+03 0.207E+03   0.115E+03 0.104E+03 -.208E+03   -.197E+01 -.190E+01 0.983E+00   -.455E-01 -.415E-01 0.775E-01
   -.115E+03 -.426E+02 -.822E+03   0.116E+03 0.447E+02 0.819E+03   -.147E+01 -.136E+01 0.138E+01   -.740E-01 0.202E-01 -.160E-01
   0.112E+03 0.230E+03 -.225E+04   -.113E+03 -.232E+03 0.226E+04   0.167E+00 0.177E+01 -.364E+01   -.714E-01 -.144E-01 0.565E-01
   -.271E+02 -.403E+02 0.161E+04   0.273E+02 0.418E+02 -.162E+04   0.550E+00 -.730E+00 0.195E+01   0.158E-01 -.580E-01 -.232E-02
   0.294E+03 0.110E+03 0.178E+04   -.296E+03 -.113E+03 -.178E+04   0.681E+00 0.172E+01 0.238E+01   -.368E-01 -.610E-02 -.369E-01
   0.126E+03 -.174E+03 0.534E+03   -.128E+03 0.176E+03 -.534E+03   0.239E+01 -.145E+01 0.830E+00   -.138E-01 -.150E-01 0.878E-01
   0.133E+03 -.700E+02 -.722E+03   -.136E+03 0.713E+02 0.721E+03   0.313E+01 -.997E+00 -.232E+00   0.736E-01 -.576E-01 0.109E-01
   0.401E+03 -.210E+03 -.189E+04   -.406E+03 0.212E+03 0.189E+04   0.289E+01 -.154E+01 -.171E+01   0.267E-01 -.115E-01 -.466E-01
   0.160E+03 -.662E+02 0.685E+02   -.162E+03 0.674E+02 -.682E+02   0.206E+01 -.131E+01 -.398E+00   -.837E-01 0.509E-01 0.135E+00
   0.534E+02 -.948E+02 -.111E+04   -.561E+02 0.962E+02 0.111E+04   0.304E+01 -.147E+01 -.104E+01   -.779E-01 0.537E-01 0.726E-01
   -.135E+03 -.116E+03 -.222E+04   0.135E+03 0.118E+03 0.222E+04   -.754E-01 -.740E+00 -.148E+01   -.161E-01 0.484E-01 0.776E-01
   0.398E+03 0.121E+02 0.142E+04   -.402E+03 -.119E+02 -.143E+04   0.233E+01 0.177E+00 0.182E+01   -.229E-01 0.140E+00 0.333E-01
   -.445E+03 -.193E+03 0.209E+04   0.449E+03 0.196E+03 -.210E+04   -.140E+01 -.123E+01 0.330E+01   0.416E-02 -.373E-01 -.103E+00
   0.427E+01 -.127E+03 0.106E+04   -.640E+01 0.130E+03 -.106E+04   0.140E+01 -.216E+01 0.174E+01   0.598E-01 -.869E-01 -.170E-01
   0.186E+03 -.424E+02 -.361E+03   -.190E+03 0.435E+02 0.361E+03   0.262E+01 -.712E+00 -.735E+00   0.153E+00 -.905E-01 -.133E-01
   0.463E+03 0.501E+01 -.157E+04   -.470E+03 -.317E+01 0.158E+04   0.452E+01 -.139E+01 -.969E+00   0.280E-01 -.271E-01 -.144E-01
 -----------------------------------------------------------------------------------------------
   -.155E+02 0.129E+02 -.334E+02   0.159E-11 -.153E-11 -.182E-11   0.164E+02 -.134E+02 0.304E+02   -.692E+00 0.538E+00 0.300E+01
 
 
 POSITION                                       TOTAL-FORCE (eV/Angst)
 -----------------------------------------------------------------------------------
      6.64336      9.25112      1.17388        -1.285627     -0.345105     -1.672829
      6.84285      7.49250      2.62550        -1.001409     -1.376603      3.135618
      7.82056      6.07621      5.25100        -0.173950     -0.301459      0.125864
      8.79827      4.65991      7.87651         0.132810      0.231387     -0.063553
      9.52312      3.12049      9.95581         0.307280     -0.162916      1.641838
      2.61774      3.87870      3.50067         0.011066     -0.519428      1.549719
      3.59545      2.46241      6.12617        -0.059142     -0.210297      0.007318
      4.57317      1.04611      8.75167        -1.097915      0.815496     -0.764133
     11.88641      5.72384      2.19764         0.164808     -0.389874     -0.795529
      3.65009      7.77411      9.28656         0.015024      0.434007      0.496826
      7.78505      1.96761      3.03373         0.132941     -0.457855     -0.842772
      8.47237      0.26490      4.37584        -0.011537     -1.515414      2.604838
     13.02338      8.27371      7.00134         0.365935      0.569259     -1.201532
      5.28535      4.48019      2.76970         0.185202      0.148528     -0.558876
      6.61816      3.96023      4.55733         0.668556     -0.370478      1.283308
      7.59587      2.54394      7.18283        -0.154801     -0.677407     -1.276813
      8.17612      1.17497      9.36843        -0.918670      0.211367      0.812576
      1.41534      1.76273      2.80700        -0.418396      0.192069      1.893492
      2.39305      0.34643      5.43250        -0.002338     -0.067598     -0.008002
      6.94406      8.35524      8.05800         0.377061      0.253329     -3.958557
      5.96092      7.04043      9.68578        -0.163046     -0.400085      0.948297
      1.92487      3.58157      0.90872        -0.172359      0.558681     -1.489190
      2.77001      4.83020      8.73194        -1.824077     -0.739415      1.055616
      9.07613      8.32523      1.99191         1.739048     -0.136318     -0.258190
     10.84326      7.57403      3.68216        -0.381589      0.101668      1.641411
     11.82097      6.15773      6.30767        -0.179366     -0.414386     -1.429982
      0.85917      1.55178      8.78290         1.019324      0.309038      0.293627
      8.03748      5.62055      1.68542         0.153490     -1.031351     -0.782699
      9.02296      4.33443      3.86366         0.120681     -0.155034     -0.090280
     10.00068      2.91813      6.48916         0.276889      0.030617     -0.176487
      3.82015      2.13692      2.11332         0.148283      1.204373      0.821519
      4.79786      0.72063      4.73883         0.059099     -0.141434      0.246908
      9.34887      8.72943      7.36433        -0.402305     -0.117710     -1.615827
      3.16834      7.94822      2.98849         0.410678      0.700172      0.678019
      4.14605      6.53193      5.61399         0.549503      0.050550     -0.271928
      5.12376      5.11563      8.23950         1.229715      0.103658     -1.170224
      9.92347      0.29813     10.12074         0.315770     -0.540080      2.159556
      7.35546      3.82659      2.42507        -1.026434      0.183209     -1.797197
      8.33317      2.41029      5.05057         0.096418      0.222990      0.979864
      9.31088      0.99399      7.67607        -0.385194     -0.752171     -3.301787
      2.11398      1.59024      0.84839        -1.242815     -0.261409     -3.066250
      3.13035      0.21279      3.30024        -0.111741      0.533115      2.819344
      7.68136      8.22159      5.92574         0.111532     -0.210493     -0.006457
      7.66920      6.41989      8.66974         2.063860     -0.816501      0.784996
      2.47854      6.02409      4.17540         0.332533     -0.211057      1.345881
      3.45626      4.60779      6.80091         0.229060      0.055617     -2.683166
      4.24168      3.23681      8.85341         0.699650     -1.066987      1.860198
     11.54456      7.71093      1.76202        -0.592022      0.427281     -3.525930
      7.66894      7.42475      0.72268         0.580874     -1.245833     -3.891152
      8.88655      6.52099      3.30837         0.421557      0.597000      1.884257
      9.86427      5.10469      5.93387         0.080667      0.158844      0.168974
     10.84198      3.68840      8.55937         1.657268      1.516015     -0.372771
      3.55936      4.47826      1.68589         1.635705      1.384957     -2.011699
      4.66145      2.90719      4.18354        -0.068285     -0.508618      0.285743
      5.63916      1.49089      6.80904        -0.275709      0.156706     -0.868249
      6.37862      0.15114      9.11927         1.350668     -1.278680      2.428439
      4.00964      8.71849      5.05870         0.476202     -0.224565      0.649529
      4.98735      7.30220      7.68420         0.058586      0.723614     -1.510105
      4.22366      5.87611      9.96058        -0.389061     -0.534146      3.738118
      9.56806      0.75765      2.70616         0.829526      0.702241     -2.049799
      4.96359      8.04023      1.86990        -1.212739     -1.439164     -1.659992
      5.82436      6.04450      4.19167        -0.167472      0.642603      0.523593
      6.80207      4.62821      6.81717         0.151071      0.181105     -1.343285
      7.71068      3.25679      9.11828        -2.136217      1.011834      2.428187
      1.59925      2.43070      5.06683         0.103206      0.003561      0.023710
      2.57697      1.01441      7.69234         0.303254      0.028303     -0.882518
      7.07412      8.94843      9.95288        -0.264552      0.927305      4.158545
     10.70128      3.84700      2.44133        -2.030869      0.513139      0.788229
      4.92824      0.71618      1.05553         2.436918      1.138807     -2.159182
      6.47617      0.23320      3.31650        -0.672040      0.967328      1.346810
     11.02718      8.24201      5.94200        -0.280627      0.209590     -0.139385
     12.16669      6.79744      8.25995        -2.899419      0.420510      2.085560
 -----------------------------------------------------------------------------------
    total drift:                                0.188949      0.031588      0.014598


--------------------------------------------------------------------------------------------------------



  FREE ENERGIE OF THE ION-ELECTRON SYSTEM (eV)
  ---------------------------------------------------
  free  energy   TOTEN  =      -350.40560217 eV

  energy  without entropy=     -349.46650504  energy(sigma->0) =     -349.93605360
 


--------------------------------------------------------------------------------------------------------


    POTLOK:  cpu time    0.2670: real time    0.2671


--------------------------------------------------------------------------------------------------------


     LOOP+:  cpu time  249.3467: real time  249.4742
    4ORBIT:  cpu time    0.0000: real time    0.0000

 total amount of memory used by VASP MPI-rank0    68401. kBytes
=======================================================================

   base      :      30000. kBytes
   nonlr-proj:       2286. kBytes
   fftplans  :       8265. kBytes
   grid      :      13942. kBytes
   one-center:         93. kBytes
   wavefun   :      13815. kBytes
 
  
  
 General timing and accounting informations for this job:
 ========================================================
  
                  Total CPU time used (sec):      252.040
                            User time (sec):      251.604
                          System time (sec):        0.436
                         Elapsed time (sec):      252.415
  
                   Maximum memory used (kb):      184564.
                   Average memory used (kb):           0.
  
                          Minor page faults:       132310
                          Major page faults:            0
                 Voluntary context switches:          237
