LAMMPS data file via write_data, version 5 Jun 2019, timestep = 67

72 atoms
2 atom types

0.0000000000000000e+00 1.0079732984900000e+01 xlo xhi
0.0000000000000000e+00 9.4251025535000004e+00 ylo yhi
0.0000000000000000e+00 2.0683503555200002e+01 zlo zhi
3.5732980426999998e+00 0.0000000000000000e+00 0.0000000000000000e+00 xy xz yz

Masses

1 58.71
2 32.06

Atoms # atomic

1 1 6.6433598285216027e+00 9.2511151649538341e+00 1.1738802352673399e+00 0 0 0
2 1 6.8428472823000002e+00 7.4925021363999997e+00 2.6255023872000001e+00 0 0 0
3 1 7.8205595795000002e+00 6.0762060003000000e+00 5.2510047951000001e+00 0 0 0
4 1 8.7982718831999964e+00 4.6599098547000004e+00 7.8765071823000001e+00 0 0 0
5 1 9.5231227804911747e+00 3.1204873431231688e+00 9.9558110295207403e+00 0 0 0
6 1 2.6177410397999989e+00 3.8787025668999999e+00 3.5006698634000006e+00 0 0 0
7 1 3.5954533369999999e+00 2.4624064308000002e+00 6.1261722505999998e+00 0 0 0
8 1 4.5731656443000004e+00 1.0461102946000000e+00 8.7516746378000008e+00 0 0 0
9 1 1.1886412284967188e+01 5.7238356019684726e+00 2.1976415006272494e+00 0 0 0
10 1 3.6500941065013768e+00 7.7741054028071064e+00 9.2865581664788657e+00 0 0 0
11 1 7.7850500561176581e+00 1.9676101817227123e+00 3.0337306367054429e+00 0 0 0
12 1 8.4723677857999995e+00 2.6490300680000001e-01 4.3758373189000004e+00 0 0 0
13 1 1.3023378125699999e+01 8.2737094241999998e+00 7.0013397268000013e+00 0 0 0
14 1 5.2853461898978935e+00 4.4801854784522339e+00 2.7697043126486491e+00 0 0 0
15 1 6.6181553447999990e+00 3.9602312874000001e+00 4.5573312982000003e+00 0 0 0
16 1 7.5958676419000000e+00 2.5439351512999999e+00 7.1828337061000003e+00 0 0 0
17 1 8.1761229114489087e+00 1.1749680266070519e+00 9.3684311365772821e+00 0 0 0
18 1 1.4153367986000001e+00 1.7627278635000001e+00 2.8069963664999995e+00 0 0 0
19 1 2.3930491057999999e+00 3.4643172729999999e-01 5.4324987744000000e+00 0 0 0
20 1 6.9440594421999968e+00 8.3552381353000005e+00 8.0580011616000000e+00 0 0 0
21 1 5.9609217114015163e+00 7.0404274690641806e+00 9.6857799945968104e+00 0 0 0
22 1 1.9248720631515959e+00 3.5815670825120902e+00 9.0871933248114722e-01 1 0 0
23 1 2.7700053432495442e+00 4.8301990421631400e+00 8.7319449092333041e+00 0 0 0
24 1 9.0761344049219019e+00 8.3252337109778054e+00 1.9919060389476964e+00 0 0 0
25 1 1.0843261587200001e+01 7.5740308570000003e+00 3.6821638427000001e+00 0 0 0
26 1 1.1820973880900000e+01 6.1577347113999998e+00 6.3076662299000006e+00 0 0 0
27 1 8.5917158007759897e-01 1.5517775891575831e+00 8.7828963965970690e+00 0 0 0
28 1 8.0374813851521889e+00 5.6205519430455650e+00 1.6854167025774027e+00 0 0 0
29 1 9.0229638191999992e+00 4.3344252292999998e+00 3.8636578220000000e+00 0 0 0
30 1 1.0000676122900000e+01 2.9181290836999998e+00 6.4891602091999996e+00 0 0 0
31 1 3.8201452831000000e+00 2.1369218053000001e+00 2.1133228903000001e+00 0 0 0
32 1 4.7978575767000002e+00 7.2062565980000015e-01 4.7388252775000002e+00 0 0 0
33 1 9.3488679165999997e+00 8.7294320771000002e+00 7.3643276854000002e+00 0 0 0
34 1 3.1683370733000000e+00 7.9482247894000002e+00 2.9884903457999998e+00 0 0 0
35 1 4.1460493804999992e+00 6.5319286531999987e+00 5.6139927537000007e+00 0 0 0
36 1 5.1237616740999989e+00 5.1156325075999991e+00 8.2394951409000008e+00 0 0 0
37 2 9.9234716026379530e+00 2.9813462670918378e-01 1.0120743945828645e+01 -1 1 0
38 2 7.3554572810999996e+00 3.8265858592000002e+00 2.4250697853999998e+00 0 0 0
39 2 8.3331695782999997e+00 2.4102897230000000e+00 5.0505721932999998e+00 0 0 0
40 2 9.3108818754999998e+00 9.9399358680000005e-01 7.6760745803999999e+00 0 0 0
41 2 2.1139800619119740e+00 1.5902390669106763e+00 8.4839135803382337e-01 0 0 0
42 2 3.1303510321999997e+00 2.1278629909999999e-01 3.3002372616000000e+00 0 0 0
43 2 7.6813613786000001e+00 8.2215927069999992e+00 5.9257396487999996e+00 0 0 0
44 2 7.6691984922759202e+00 6.4198888414596302e+00 8.6697402964039370e+00 0 0 0
45 2 2.4785428323999983e+00 6.0240892831000004e+00 4.1754047171000002e+00 0 0 0
46 2 3.4562551395999996e+00 4.6077931468999997e+00 6.8009071043000002e+00 0 0 0
47 2 4.2416770561143746e+00 3.2368102416125439e+00 8.8534050564671301e+00 0 0 0
48 2 1.1544560035486976e+01 7.7109349531670492e+00 1.7620169821423657e+00 0 0 0
49 2 7.6689435158082881e+00 7.4247514263006602e+00 7.2268005733940255e-01 0 0 0
50 2 8.8865536865999992e+00 6.5209886067999996e+00 3.3083675538000001e+00 0 0 0
51 2 9.8642659902999998e+00 5.1046924612000000e+00 5.9338699617000001e+00 0 0 0
52 2 1.0841978287500002e+01 3.6883963249999998e+00 8.5593723489000002e+00 0 0 0
53 2 3.5593578242655095e+00 4.4782630514058823e+00 1.6858942756182684e+00 0 0 0
54 2 4.6614474441000002e+00 2.9071890372999998e+00 4.1835350299999998e+00 0 0 0
55 2 5.6391597412999985e+00 1.4908929011000001e+00 6.8090374171999999e+00 0 0 0
56 2 6.3786180789265225e+00 1.5114018692053083e-01 9.1192659168669650e+00 0 0 0
57 2 4.0096392479000000e+00 8.7184920307000002e+00 5.0587024854999996e+00 0 0 0
58 2 4.9873515414999998e+00 7.3021958850999997e+00 7.6842048933999996e+00 0 0 0
59 2 4.2236586999446937e+00 5.8761125899345457e+00 9.9605820507340663e+00 0 0 0
60 2 9.5680594191750661e+00 7.5765079588697437e-01 2.7061640560690607e+00 0 0 0
61 2 4.9635896444078478e+00 8.0402255658005402e+00 1.8699017361015304e+00 0 0 0
62 2 5.8243608698999996e+00 6.0445040928999996e+00 4.1916653223000004e+00 0 0 0
63 2 6.8020731670999997e+00 4.6282079566999998e+00 6.8171677301000004e+00 0 0 0
64 2 7.7106805937786840e+00 3.2567909511637594e+00 9.1182789212886277e+00 0 0 0
65 2 1.5992546309999991e+00 2.4307045328000001e+00 5.0668327985000001e+00 0 0 0
66 2 2.5769669246000002e+00 1.0144083872000000e+00 7.6923351856000002e+00 0 0 0
67 2 7.0741214981853613e+00 8.9484341037957389e+00 9.9528808713740151e+00 0 0 0
68 2 1.0701275308600000e+01 3.8470006689999998e+00 2.4413304113000001e+00 0 0 0
69 2 4.9282428056701288e+00 7.1617664045657681e-01 1.0555289488000517e+00 0 0 0
70 2 6.4761690697000001e+00 2.3320110890000001e-01 3.3164978667999998e+00 0 0 0
71 2 1.1027179405999997e+01 8.2420075167999993e+00 5.9420002539999999e+00 0 0 0
72 2 1.2166691714579187e+01 6.7974426684714464e+00 8.2599471522382117e+00 0 0 0

Velocities

1 0.0000000000000000e+00 0.0000000000000000e+00 0.0000000000000000e+00
2 0.0000000000000000e+00 0.0000000000000000e+00 0.0000000000000000e+00
3 0.0000000000000000e+00 0.0000000000000000e+00 0.0000000000000000e+00
4 0.0000000000000000e+00 0.0000000000000000e+00 0.0000000000000000e+00
5 0.0000000000000000e+00 0.0000000000000000e+00 0.0000000000000000e+00
6 0.0000000000000000e+00 0.0000000000000000e+00 0.0000000000000000e+00
7 0.0000000000000000e+00 0.0000000000000000e+00 0.0000000000000000e+00
8 0.0000000000000000e+00 0.0000000000000000e+00 0.0000000000000000e+00
9 0.0000000000000000e+00 0.0000000000000000e+00 0.0000000000000000e+00
10 0.0000000000000000e+00 0.0000000000000000e+00 0.0000000000000000e+00
11 0.0000000000000000e+00 0.0000000000000000e+00 0.0000000000000000e+00
12 0.0000000000000000e+00 0.0000000000000000e+00 0.0000000000000000e+00
13 0.0000000000000000e+00 0.0000000000000000e+00 0.0000000000000000e+00
14 0.0000000000000000e+00 0.0000000000000000e+00 0.0000000000000000e+00
15 0.0000000000000000e+00 0.0000000000000000e+00 0.0000000000000000e+00
16 0.0000000000000000e+00 0.0000000000000000e+00 0.0000000000000000e+00
17 0.0000000000000000e+00 0.0000000000000000e+00 0.0000000000000000e+00
18 0.0000000000000000e+00 0.0000000000000000e+00 0.0000000000000000e+00
19 0.0000000000000000e+00 0.0000000000000000e+00 0.0000000000000000e+00
20 0.0000000000000000e+00 0.0000000000000000e+00 0.0000000000000000e+00
21 0.0000000000000000e+00 0.0000000000000000e+00 0.0000000000000000e+00
22 0.0000000000000000e+00 0.0000000000000000e+00 0.0000000000000000e+00
23 0.0000000000000000e+00 0.0000000000000000e+00 0.0000000000000000e+00
24 0.0000000000000000e+00 0.0000000000000000e+00 0.0000000000000000e+00
25 0.0000000000000000e+00 0.0000000000000000e+00 0.0000000000000000e+00
26 0.0000000000000000e+00 0.0000000000000000e+00 0.0000000000000000e+00
27 0.0000000000000000e+00 0.0000000000000000e+00 0.0000000000000000e+00
28 0.0000000000000000e+00 0.0000000000000000e+00 0.0000000000000000e+00
29 0.0000000000000000e+00 0.0000000000000000e+00 0.0000000000000000e+00
30 0.0000000000000000e+00 0.0000000000000000e+00 0.0000000000000000e+00
31 0.0000000000000000e+00 0.0000000000000000e+00 0.0000000000000000e+00
32 0.0000000000000000e+00 0.0000000000000000e+00 0.0000000000000000e+00
33 0.0000000000000000e+00 0.0000000000000000e+00 0.0000000000000000e+00
34 0.0000000000000000e+00 0.0000000000000000e+00 0.0000000000000000e+00
35 0.0000000000000000e+00 0.0000000000000000e+00 0.0000000000000000e+00
36 0.0000000000000000e+00 0.0000000000000000e+00 0.0000000000000000e+00
37 0.0000000000000000e+00 0.0000000000000000e+00 0.0000000000000000e+00
38 0.0000000000000000e+00 0.0000000000000000e+00 0.0000000000000000e+00
39 0.0000000000000000e+00 0.0000000000000000e+00 0.0000000000000000e+00
40 0.0000000000000000e+00 0.0000000000000000e+00 0.0000000000000000e+00
41 0.0000000000000000e+00 0.0000000000000000e+00 0.0000000000000000e+00
42 0.0000000000000000e+00 0.0000000000000000e+00 0.0000000000000000e+00
43 0.0000000000000000e+00 0.0000000000000000e+00 0.0000000000000000e+00
44 0.0000000000000000e+00 0.0000000000000000e+00 0.0000000000000000e+00
45 0.0000000000000000e+00 0.0000000000000000e+00 0.0000000000000000e+00
46 0.0000000000000000e+00 0.0000000000000000e+00 0.0000000000000000e+00
47 0.0000000000000000e+00 0.0000000000000000e+00 0.0000000000000000e+00
48 0.0000000000000000e+00 0.0000000000000000e+00 0.0000000000000000e+00
49 0.0000000000000000e+00 0.0000000000000000e+00 0.0000000000000000e+00
50 0.0000000000000000e+00 0.0000000000000000e+00 0.0000000000000000e+00
51 0.0000000000000000e+00 0.0000000000000000e+00 0.0000000000000000e+00
52 0.0000000000000000e+00 0.0000000000000000e+00 0.0000000000000000e+00
53 0.0000000000000000e+00 0.0000000000000000e+00 0.0000000000000000e+00
54 0.0000000000000000e+00 0.0000000000000000e+00 0.0000000000000000e+00
55 0.0000000000000000e+00 0.0000000000000000e+00 0.0000000000000000e+00
56 0.0000000000000000e+00 0.0000000000000000e+00 0.0000000000000000e+00
57 0.0000000000000000e+00 0.0000000000000000e+00 0.0000000000000000e+00
58 0.0000000000000000e+00 0.0000000000000000e+00 0.0000000000000000e+00
59 0.0000000000000000e+00 0.0000000000000000e+00 0.0000000000000000e+00
60 0.0000000000000000e+00 0.0000000000000000e+00 0.0000000000000000e+00
61 0.0000000000000000e+00 0.0000000000000000e+00 0.0000000000000000e+00
62 0.0000000000000000e+00 0.0000000000000000e+00 0.0000000000000000e+00
63 0.0000000000000000e+00 0.0000000000000000e+00 0.0000000000000000e+00
64 0.0000000000000000e+00 0.0000000000000000e+00 0.0000000000000000e+00
65 0.0000000000000000e+00 0.0000000000000000e+00 0.0000000000000000e+00
66 0.0000000000000000e+00 0.0000000000000000e+00 0.0000000000000000e+00
67 0.0000000000000000e+00 0.0000000000000000e+00 0.0000000000000000e+00
68 0.0000000000000000e+00 0.0000000000000000e+00 0.0000000000000000e+00
69 0.0000000000000000e+00 0.0000000000000000e+00 0.0000000000000000e+00
70 0.0000000000000000e+00 0.0000000000000000e+00 0.0000000000000000e+00
71 0.0000000000000000e+00 0.0000000000000000e+00 0.0000000000000000e+00
72 0.0000000000000000e+00 0.0000000000000000e+00 0.0000000000000000e+00
