<?xml version="1.0" encoding="ISO-8859-1"?>
<modeling>
 <generator>
  <i name="program" type="string">vasp </i>
  <i name="version" type="string">5.4.4.18Apr17-6-g9f103f2a35  </i>
  <i name="subversion" type="string">(build Aug 13 2019 17:33:20) gamma-only         parallel </i>
  <i name="platform" type="string">LinuxIFC </i>
  <i name="date" type="string">2020 05 12 </i>
  <i name="time" type="string">13:01:56 </i>
 </generator>
 <incar>
  <i type="string" name="SYSTEM">"Millerite NiS"</i>
  <i type="string" name="PREC">normal</i>
  <i type="int" name="NSIM">     4</i>
  <i type="int" name="NELM">   100</i>
  <i name="ENCUT">    450.00000000</i>
  <i type="string" name="LREAL">A</i>
  <i type="int" name="ISMEAR">     0</i>
  <i type="int" name="NWRITE">     2</i>
  <i type="logical" name="LWAVE"> F  </i>
  <i type="logical" name="LCHARG"> F  </i>
  <v type="int" name="KPOINT_BSE">    -1     0     0     0</v>
  <i type="int" name="NELM">   100</i>
 </incar>
 <structure name="primitive_cell" >
  <crystal>
   <varray name="basis" >
    <v>      10.07973298       0.00000000       0.00000000 </v>
    <v>       3.57329804       9.42510255       0.00000000 </v>
    <v>       0.00000000       0.00000000      20.51013988 </v>
   </varray>
   <i name="volume">   1948.51491473 </i>
   <varray name="rec_basis" >
    <v>       0.09920898      -0.03761267       0.00000000 </v>
    <v>       0.00000000       0.10609964       0.00000000 </v>
    <v>       0.00000000       0.00000000       0.04875637 </v>
   </varray>
  </crystal>
  <varray name="positions" >
   <v>       0.37433215      -0.24863780       0.09511235 </v>
   <v>       0.36825405      -0.36332622       0.01352385 </v>
   <v>       0.41202622      -0.06594473       0.06538768 </v>
   <v>       0.14670739      -0.15413438       0.12800997 </v>
   <v>       0.47740939      -0.48793304       0.12840637 </v>
   <v>      -0.47203578      -0.20205788       0.17147277 </v>
   <v>      -0.42736763      -0.43591930       0.04959754 </v>
   <v>      -0.37780458      -0.20954247       0.08249912 </v>
   <v>      -0.47539934      -0.39890632       0.22312232 </v>
   <v>       0.24684820      -0.47772314       0.04471356 </v>
   <v>       0.29697590      -0.30440289       0.25601994 </v>
   <v>      -0.23671545      -0.43737821       0.08533998 </v>
   <v>       0.09282582      -0.30046480       0.19815030 </v>
   <v>       0.32598014       0.13304754       0.11281032 </v>
   <v>       0.13252766      -0.07596064       0.23197130 </v>
   <v>       0.24425506       0.07855462       0.21374635 </v>
   <v>       0.14454139      -0.48530171       0.12880278 </v>
   <v>      -0.29059702       0.41629137       0.15548031 </v>
   <v>      -0.25089518      -0.35920447       0.18930132 </v>
   <v>       0.47624865      -0.01722097       0.24082029 </v>
   <v>       0.36568198       0.35755170       0.14663132 </v>
   <v>      -0.01774085       0.07430787       0.10396133 </v>
   <v>      -0.05744270      -0.15019629       0.07014033 </v>
   <v>      -0.02769147      -0.00023457       0.01577938 </v>
   <v>       0.02454798      -0.36134767       0.03228650 </v>
   <v>      -0.28992622      -0.05360285       0.05479260 </v>
   <v>       0.09117331       0.23171661       0.09721009 </v>
   <v>       0.35443765       0.29320266       0.05183828 </v>
   <v>      -0.46986977       0.12910945       0.17067996 </v>
   <v>      -0.32176726      -0.35232639       0.29948274 </v>
   <v>      -0.37232210       0.36179845       0.25641634 </v>
   <v>      -0.43751581       0.16575500       0.07303246 </v>
   <v>      -0.13916777      -0.20468921       0.17107636 </v>
   <v>      -0.08861294       0.08118595       0.21414276 </v>
   <v>      -0.24822250       0.22545566       0.09874202 </v>
   <v>       0.39452358      -0.07171389       0.34175632 </v>
   <v>       0.29480990       0.36442978       0.25681275 </v>
   <v>       0.28279617      -0.22622916       0.35998128 </v>
   <v>       0.24309433      -0.45073331       0.32616027 </v>
   <v>      -0.01268316       0.46614416       0.08525470 </v>
   <v>       0.14117783       0.31784985       0.18045233 </v>
   <v>      -0.09197650      -0.11566249       0.26579231 </v>
   <v>      -0.24224501       0.03460603       0.13778234 </v>
   <v>      -0.08644694       0.41235328       0.21334995 </v>
   <v>       0.06165557      -0.06908256       0.34215273 </v>
   <v>       0.01110074      -0.35495773       0.29908634 </v>
   <v>       0.29144634       0.16758134       0.30846230 </v>
   <v>      -0.38736656      -0.15635517       0.35124280 </v>
   <v>      -0.31960126      -0.02115906       0.29868993 </v>
   <v>       0.44724441      -0.45467140       0.38402991 </v>
   <v>      -0.32513082       0.45082517       0.35113229 </v>
   <v>      -0.48404950       0.20728318       0.27464130 </v>
   <v>      -0.10062667       0.49052701       0.31731128 </v>
   <v>      -0.14032851       0.26602286       0.28349028 </v>
   <v>       0.05829201      -0.26593100       0.39380228 </v>
   <v>       0.06382158       0.26208477       0.34135992 </v>
   <v>       0.43876313       0.02999410       0.41781963 </v>
   <v>      -0.15672218      -0.31737732       0.38359130 </v>
   <v>       0.21403443      -0.23755901       0.45301048 </v>
   <v>      -0.00620132       0.12855820       0.39528859 </v>
   <v>       0.15623753      -0.49101435       0.41503487 </v>
   <v>       0.44507841       0.21416127       0.38482272 </v>
   <v>       0.37567670       0.40664664       0.43403650 </v>
   <v>      -0.33559604       0.06806182       0.38934573 </v>
   <v>       0.40618266      -0.38265418       0.47659565 </v>
   <v>      -0.17149875       0.49740510       0.42749271 </v>
   <v>      -0.22205359       0.21152993       0.38442632 </v>
   <v>      -0.16396879      -0.12365439       0.41302524 </v>
   <v>      -0.45299755       0.41419381       0.49176840 </v>
   <v>      -0.23693580       0.33990696       0.46373807 </v>
   <v>       0.03720422       0.37072838       0.42754528 </v>
   <v>      -0.02459765       0.23141491       0.48309026 </v>
  </varray>
 </structure>
 <varray name="primitive_index" >
  <v type="int" >        1 </v>
  <v type="int" >       61 </v>
  <v type="int" >       49 </v>
  <v type="int" >       40 </v>
  <v type="int" >       62 </v>
  <v type="int" >       50 </v>
  <v type="int" >       14 </v>
  <v type="int" >       26 </v>
  <v type="int" >        2 </v>
  <v type="int" >       33 </v>
  <v type="int" >       41 </v>
  <v type="int" >       38 </v>
  <v type="int" >       17 </v>
  <v type="int" >       21 </v>
  <v type="int" >       30 </v>
  <v type="int" >       71 </v>
  <v type="int" >       57 </v>
  <v type="int" >       15 </v>
  <v type="int" >       27 </v>
  <v type="int" >       22 </v>
  <v type="int" >       34 </v>
  <v type="int" >       29 </v>
  <v type="int" >       20 </v>
  <v type="int" >       44 </v>
  <v type="int" >       60 </v>
  <v type="int" >       68 </v>
  <v type="int" >       70 </v>
  <v type="int" >       45 </v>
  <v type="int" >       46 </v>
  <v type="int" >       51 </v>
  <v type="int" >       63 </v>
  <v type="int" >        5 </v>
  <v type="int" >       69 </v>
  <v type="int" >       54 </v>
  <v type="int" >       53 </v>
  <v type="int" >       72 </v>
  <v type="int" >       58 </v>
  <v type="int" >       31 </v>
  <v type="int" >       18 </v>
  <v type="int" >       12 </v>
  <v type="int" >        9 </v>
  <v type="int" >        8 </v>
  <v type="int" >        6 </v>
  <v type="int" >       39 </v>
  <v type="int" >       55 </v>
  <v type="int" >       66 </v>
  <v type="int" >       10 </v>
  <v type="int" >       23 </v>
  <v type="int" >       47 </v>
  <v type="int" >       42 </v>
  <v type="int" >        3 </v>
  <v type="int" >       35 </v>
  <v type="int" >       28 </v>
  <v type="int" >       16 </v>
  <v type="int" >        7 </v>
  <v type="int" >       37 </v>
  <v type="int" >       11 </v>
  <v type="int" >       24 </v>
  <v type="int" >       56 </v>
  <v type="int" >       13 </v>
  <v type="int" >       67 </v>
  <v type="int" >       59 </v>
  <v type="int" >       19 </v>
  <v type="int" >       36 </v>
  <v type="int" >       32 </v>
  <v type="int" >       52 </v>
  <v type="int" >       64 </v>
  <v type="int" >       48 </v>
  <v type="int" >       43 </v>
  <v type="int" >        4 </v>
  <v type="int" >       25 </v>
  <v type="int" >       65 </v>
 </varray>
 <kpoints>
  <generation param="Gamma">
   <v type="int" name="divisions">       1        1        1 </v>
   <v name="usershift">      0.00000000       0.00000000       0.00000000 </v>
   <v name="genvec1">      1.00000000       0.00000000       0.00000000 </v>
   <v name="genvec2">      0.00000000       1.00000000       0.00000000 </v>
   <v name="genvec3">      0.00000000       0.00000000       1.00000000 </v>
   <v name="shift">      0.00000000       0.00000000       0.00000000 </v>
  </generation>
  <varray name="kpointlist" >
   <v>       0.00000000       0.00000000       0.00000000 </v>
  </varray>
  <varray name="weights" >
   <v>       1.00000000 </v>
  </varray>
 </kpoints>
 <parameters>
  <separator name="general" >
   <i type="string" name="SYSTEM">"Millerite NiS"</i>
   <i type="logical" name="LCOMPAT"> F  </i>
  </separator>
  <separator name="electronic" >
   <i type="string" name="PREC">normal</i>
   <i name="ENMAX">    450.00000000</i>
   <i name="ENAUG">    703.44300000</i>
   <i name="EDIFF">      0.00010000</i>
   <i type="int" name="IALGO">    38</i>
   <i type="int" name="IWAVPR">    10</i>
   <i type="int" name="NBANDS">   476</i>
   <i name="NELECT">    792.00000000</i>
   <i type="int" name="TURBO">     0</i>
   <i type="int" name="IRESTART">     0</i>
   <i type="int" name="NREBOOT">     0</i>
   <i type="int" name="NMIN">     0</i>
   <i name="EREF">      0.00000000</i>
   <separator name="electronic smearing" >
    <i type="int" name="ISMEAR">     0</i>
    <i name="SIGMA">      0.20000000</i>
    <i name="KSPACING">      0.50000000</i>
    <i type="logical" name="KGAMMA"> T  </i>
   </separator>
   <separator name="electronic projectors" >
    <i type="logical" name="LREAL"> T  </i>
    <v name="ROPT">     -0.00050000     -0.00050000</v>
    <i type="int" name="LMAXPAW">  -100</i>
    <i type="int" name="LMAXMIX">     2</i>
    <i type="logical" name="NLSPLINE"> F  </i>
   </separator>
   <separator name="electronic startup" >
    <i type="int" name="ISTART">     0</i>
    <i type="int" name="ICHARG">     2</i>
    <i type="int" name="INIWAV">     1</i>
   </separator>
   <separator name="electronic spin" >
    <i type="int" name="ISPIN">     1</i>
    <i type="logical" name="LNONCOLLINEAR"> F  </i>
    <v name="MAGMOM">      1.00000000      1.00000000      1.00000000      1.00000000      1.00000000      1.00000000      1.00000000      1.00000000      1.00000000      1.00000000      1.00000000      1.00000000      1.00000000      1.00000000      1.00000000      1.00000000      1.00000000      1.00000000      1.00000000      1.00000000
      1.00000000      1.00000000      1.00000000      1.00000000      1.00000000      1.00000000      1.00000000      1.00000000      1.00000000      1.00000000      1.00000000      1.00000000      1.00000000      1.00000000      1.00000000      1.00000000      1.00000000      1.00000000      1.00000000      1.00000000
      1.00000000      1.00000000      1.00000000      1.00000000      1.00000000      1.00000000      1.00000000      1.00000000      1.00000000      1.00000000      1.00000000      1.00000000      1.00000000      1.00000000      1.00000000      1.00000000      1.00000000      1.00000000      1.00000000      1.00000000
      1.00000000      1.00000000      1.00000000      1.00000000      1.00000000      1.00000000      1.00000000      1.00000000      1.00000000      1.00000000      1.00000000      1.00000000</v>
    <i name="NUPDOWN">     -1.00000000</i>
    <i type="logical" name="LSORBIT"> F  </i>
    <v name="SAXIS">      0.00000000      0.00000000      1.00000000</v>
    <i type="logical" name="LSPIRAL"> F  </i>
    <v name="QSPIRAL">      0.00000000      0.00000000      0.00000000</v>
    <i type="logical" name="LZEROZ"> F  </i>
   </separator>
   <separator name="electronic exchange-correlation" >
    <i type="logical" name="LASPH"> F  </i>
    <i type="logical" name="LMETAGGA"> F  </i>
   </separator>
   <separator name="electronic convergence" >
    <i type="int" name="NELM">   100</i>
    <i type="int" name="NELMDL">    -5</i>
    <i type="int" name="NELMIN">     2</i>
    <i name="ENINI">    450.00000000</i>
    <separator name="electronic convergence detail" >
     <i type="logical" name="LDIAG"> T  </i>
     <i type="logical" name="LSUBROT"> F  </i>
     <i name="WEIMIN">      0.00000000</i>
     <i name="EBREAK">      0.00000005</i>
     <i name="DEPER">      0.30000000</i>
     <i type="int" name="NRMM">     4</i>
     <i name="TIME">      0.40000000</i>
    </separator>
   </separator>
   <separator name="electronic mixer" >
    <i name="AMIX">      0.40000000</i>
    <i name="BMIX">      1.00000000</i>
    <i name="AMIN">      0.10000000</i>
    <i name="AMIX_MAG">      1.60000000</i>
    <i name="BMIX_MAG">      1.00000000</i>
    <separator name="electronic mixer details" >
     <i type="int" name="IMIX">     4</i>
     <i type="logical" name="MIXFIRST"> F  </i>
     <i type="int" name="MAXMIX">   -45</i>
     <i name="WC">    100.00000000</i>
     <i type="int" name="INIMIX">     1</i>
     <i type="int" name="MIXPRE">     1</i>
     <i type="int" name="MREMOVE">     5</i>
    </separator>
   </separator>
   <separator name="electronic dipolcorrection" >
    <i type="logical" name="LDIPOL"> F  </i>
    <i type="logical" name="LMONO"> F  </i>
    <i type="int" name="IDIPOL">     0</i>
    <i name="EPSILON">      1.00000000</i>
    <v name="DIPOL">   -100.00000000   -100.00000000   -100.00000000</v>
    <i name="EFIELD">      0.00000000</i>
   </separator>
  </separator>
  <separator name="grids" >
   <i type="int" name="NGX">    54</i>
   <i type="int" name="NGY">    54</i>
   <i type="int" name="NGZ">   108</i>
   <i type="int" name="NGXF">   108</i>
   <i type="int" name="NGYF">   108</i>
   <i type="int" name="NGZF">   216</i>
   <i type="logical" name="ADDGRID"> F  </i>
  </separator>
  <separator name="ionic" >
   <i type="int" name="NSW">     0</i>
   <i type="int" name="IBRION">    -1</i>
   <i type="int" name="MDALGO">     0</i>
   <i type="int" name="ISIF">     2</i>
   <i name="PSTRESS">      0.00000000</i>
   <i name="EDIFFG">      0.00100000</i>
   <i type="int" name="NFREE">     0</i>
   <i name="POTIM">      0.50000000</i>
   <i name="SMASS">     -3.00000000</i>
   <i name="SCALEE">      1.00000000</i>
  </separator>
  <separator name="ionic md" >
   <i name="TEBEG">      0.00010000</i>
   <i name="TEEND">      0.00010000</i>
   <i type="int" name="NBLOCK">     1</i>
   <i type="int" name="KBLOCK">     1</i>
   <i type="int" name="NPACO">   256</i>
   <i name="APACO">     16.00000000</i>
  </separator>
  <separator name="symmetry" >
   <i type="int" name="ISYM">     2</i>
   <i name="SYMPREC">      0.00001000</i>
  </separator>
  <separator name="dos" >
   <i type="int" name="LORBIT">     0</i>
   <v name="RWIGS">     -1.00000000     -1.00000000</v>
   <i type="int" name="NEDOS">   301</i>
   <i name="EMIN">     10.00000000</i>
   <i name="EMAX">    -10.00000000</i>
   <i name="EFERMI">      0.00000000</i>
  </separator>
  <separator name="writing" >
   <i type="int" name="NWRITE">     2</i>
   <i type="logical" name="LWAVE"> F  </i>
   <i type="logical" name="LDOWNSAMPLE"> F  </i>
   <i type="logical" name="LCHARG"> F  </i>
   <i type="logical" name="LPARD"> F  </i>
   <i type="logical" name="LVTOT"> F  </i>
   <i type="logical" name="LVHAR"> F  </i>
   <i type="logical" name="LELF"> F  </i>
   <i type="logical" name="LOPTICS"> F  </i>
   <v name="STM">      0.00000000      0.00000000      0.00000000      0.00000000      0.00000000      0.00000000      0.00000000</v>
  </separator>
  <separator name="performance" >
   <i type="int" name="NPAR">     2</i>
   <i type="int" name="NSIM">     4</i>
   <i type="int" name="NBLK">    -1</i>
   <i type="logical" name="LPLANE"> T  </i>
   <i type="logical" name="LSCALAPACK"> T  </i>
   <i type="logical" name="LSCAAWARE"> F  </i>
   <i type="logical" name="LSCALU"> F  </i>
   <i type="logical" name="LASYNC"> F  </i>
   <i type="logical" name="LORBITALREAL"> F  </i>
  </separator>
  <separator name="miscellaneous" >
   <i type="int" name="IDIOT">     3</i>
   <i type="int" name="ISPECIAL">     0</i>
   <i type="logical" name="LMUSIC"> F  </i>
   <v name="POMASS">     58.69000000     32.06600000</v>
   <v name="DARWINR">      0.00000000      0.00000000</v>
   <v name="DARWINV">      1.00000000      1.00000000</v>
   <i type="logical" name="LCORR"> T  </i>
  </separator>
  <i type="logical" name="GGA_COMPAT"> T  </i>
  <i type="logical" name="LBERRY"> F  </i>
  <i type="int" name="ICORELEVEL">     0</i>
  <i type="logical" name="LDAU"> F  </i>
  <i type="int" name="I_CONSTRAINED_M">     0</i>
  <separator name="electronic exchange-correlation" >
   <i type="string" name="GGA">--</i>
   <i type="int" name="VOSKOWN">     0</i>
   <i type="logical" name="LHFCALC"> F  </i>
   <i type="string" name="PRECFOCK"></i>
   <i type="logical" name="LSYMGRAD"> F  </i>
   <i type="logical" name="LHFONE"> F  </i>
   <i type="logical" name="LRHFCALC"> F  </i>
   <i type="logical" name="LTHOMAS"> F  </i>
   <i type="logical" name="LMODELHF"> F  </i>
   <i name="ENCUT4O">     -1.00000000</i>
   <i type="int" name="EXXOEP">     0</i>
   <i type="int" name="FOURORBIT">     0</i>
   <i name="AEXX">      0.00000000</i>
   <i name="HFALPHA">      0.00000000</i>
   <i name="MCALPHA">      0.00000000</i>
   <i name="ALDAX">      1.00000000</i>
   <i name="AGGAX">      1.00000000</i>
   <i name="ALDAC">      1.00000000</i>
   <i name="AGGAC">      1.00000000</i>
   <i type="int" name="NKREDX">     1</i>
   <i type="int" name="NKREDY">     1</i>
   <i type="int" name="NKREDZ">     1</i>
   <i type="logical" name="SHIFTRED"> F  </i>
   <i type="logical" name="ODDONLY"> F  </i>
   <i type="logical" name="EVENONLY"> F  </i>
   <i type="int" name="LMAXFOCK">     0</i>
   <i type="int" name="NMAXFOCKAE">     0</i>
   <i type="logical" name="LFOCKAEDFT"> F  </i>
   <i name="HFSCREEN">      0.00000000</i>
   <i name="HFSCREENC">      0.00000000</i>
   <i type="int" name="NBANDSGWLOW">     0</i>
  </separator>
  <separator name="vdW DFT" >
   <i type="logical" name="LUSE_VDW"> F  </i>
   <i name="Zab_VDW">     -0.84910000</i>
   <i name="PARAM1">      0.12340000</i>
   <i name="PARAM2">      1.00000000</i>
   <i name="PARAM3">      0.00000000</i>
  </separator>
  <separator name="model GW" >
   <i type="int" name="MODEL_GW">     0</i>
   <i name="MODEL_EPS0">     16.23762429</i>
   <i name="MODEL_ALPHA">      1.00000000</i>
  </separator>
  <separator name="linear response parameters" >
   <i type="logical" name="LEPSILON"> F  </i>
   <i type="logical" name="LRPA"> F  </i>
   <i type="logical" name="LNABLA"> F  </i>
   <i type="logical" name="LVEL"> F  </i>
   <i type="int" name="KINTER">     0</i>
   <i name="CSHIFT">      0.10000000</i>
   <i name="OMEGAMAX">     -1.00000000</i>
   <i name="DEG_THRESHOLD">      0.00200000</i>
   <i name="RTIME">     -0.10000000</i>
   <i name="WPLASMAI">      0.00000000</i>
   <v name="DFIELD">      0.00000000      0.00000000      0.00000000</v>
   <v name="WPLASMA">      0.00000000      0.00000000      0.00000000      0.00000000      0.00000000      0.00000000      0.00000000      0.00000000      0.00000000</v>
  </separator>
  <separator name="orbital magnetization" >
   <i type="logical" name="NUCIND"> F  </i>
   <v name="MAGPOS">      0.00000000      0.00000000      0.00000000</v>
   <i type="logical" name="LNICSALL"> T  </i>
   <i type="logical" name="ORBITALMAG"> F  </i>
   <i type="logical" name="LMAGBLOCH"> F  </i>
   <i type="logical" name="LCHIMAG"> F  </i>
   <i type="logical" name="LGAUGE"> T  </i>
   <i type="int" name="MAGATOM">     0</i>
   <v name="MAGDIPOL">      0.00000000      0.00000000      0.00000000</v>
   <v name="AVECCONST">      0.00000000      0.00000000      0.00000000</v>
  </separator>
  <separator name="response functions" >
   <i type="logical" name="LADDER"> F  </i>
   <i type="logical" name="LRPAFORCE"> F  </i>
   <i type="logical" name="LFXC"> F  </i>
   <i type="logical" name="LHARTREE"> T  </i>
   <i type="int" name="IBSE">     0</i>
   <v type="int" name="KPOINT">    -1     0     0     0</v>
   <i type="logical" name="LTCTE"> F  </i>
   <i type="logical" name="LTETE"> F  </i>
   <i type="logical" name="LTRIPLET"> F  </i>
   <i type="logical" name="LFXCEPS"> F  </i>
   <i type="logical" name="LFXHEG"> F  </i>
   <i type="int" name="NATURALO">     2</i>
   <i type="logical" name="L2ORDER"> F  </i>
   <i type="logical" name="LMP2LT"> F  </i>
   <i type="logical" name="LUSEW"> F  </i>
   <i name="ENCUTGW">     -2.00000000</i>
   <i name="ENCUTGWSOFT">     -2.00000000</i>
   <i name="ENCUTLF">     -1.00000000</i>
   <i type="int" name="LMAXMP2">    -1</i>
   <i name="SCISSOR">      0.00000000</i>
   <i type="int" name="NOMEGA">     0</i>
   <i type="int" name="NOMEGAR">     0</i>
   <i type="int" name="NBANDSGW">    -1</i>
   <i type="int" name="NBANDSO">    -1</i>
   <i type="int" name="NBANDSV">    -1</i>
   <i type="int" name="NELM">   100</i>
   <i type="int" name="NELMHF">     1</i>
   <i type="int" name="DIM">     3</i>
   <i type="int" name="ANTIRES">     0</i>
   <i name="OMEGAMAX">    -30.00000000</i>
   <i name="OMEGAMIN">    -30.00000000</i>
   <i name="OMEGATL">   -200.00000000</i>
   <i type="int" name="OMEGAGRID">   140</i>
   <i name="CSHIFT">     -0.10000000</i>
   <i type="logical" name="SELFENERGY"> F  </i>
   <i type="logical" name="LSPECTRAL"> F  </i>
   <i type="logical" name="LSPECTRALGW"> F  </i>
   <i type="logical" name="LSINGLES"> F  </i>
   <i type="logical" name="LFERMIGW"> F  </i>
   <i type="logical" name="ODDONLYGW"> F  </i>
   <i type="logical" name="EVENONLYGW"> F  </i>
   <i type="int" name="NKREDLFX">     1</i>
   <i type="int" name="NKREDLFY">     1</i>
   <i type="int" name="NKREDLFZ">     1</i>
   <i type="int" name="MAXMEM">  2800</i>
   <i type="int" name="TELESCOPE">     0</i>
   <i type="int" name="TAUPAR">     1</i>
   <i type="int" name="OMEGAPAR">    -1</i>
   <i name="LAMBDA">      1.00000000</i>
  </separator>
  <separator name="External order field" >
   <i name="OFIELD_KAPPA">      0.00000000</i>
   <v name="OFIELD_K">      0.00000000      0.00000000      0.00000000</v>
   <i name="OFIELD_Q6_NEAR">      0.00000000</i>
   <i name="OFIELD_Q6_FAR">      0.00000000</i>
   <i name="OFIELD_A">      0.00000000</i>
  </separator>
 </parameters>
 <atominfo>
  <atoms>      72 </atoms>
  <types>       2 </types>
  <array name="atoms" >
   <dimension dim="1">ion</dimension>
   <field type="string">element</field>
   <field type="int">atomtype</field>
   <set>
    <rc><c>Ni</c><c>   1</c></rc>
    <rc><c>Ni</c><c>   1</c></rc>
    <rc><c>Ni</c><c>   1</c></rc>
    <rc><c>Ni</c><c>   1</c></rc>
    <rc><c>Ni</c><c>   1</c></rc>
    <rc><c>Ni</c><c>   1</c></rc>
    <rc><c>Ni</c><c>   1</c></rc>
    <rc><c>Ni</c><c>   1</c></rc>
    <rc><c>Ni</c><c>   1</c></rc>
    <rc><c>Ni</c><c>   1</c></rc>
    <rc><c>Ni</c><c>   1</c></rc>
    <rc><c>Ni</c><c>   1</c></rc>
    <rc><c>Ni</c><c>   1</c></rc>
    <rc><c>Ni</c><c>   1</c></rc>
    <rc><c>Ni</c><c>   1</c></rc>
    <rc><c>Ni</c><c>   1</c></rc>
    <rc><c>Ni</c><c>   1</c></rc>
    <rc><c>Ni</c><c>   1</c></rc>
    <rc><c>Ni</c><c>   1</c></rc>
    <rc><c>Ni</c><c>   1</c></rc>
    <rc><c>Ni</c><c>   1</c></rc>
    <rc><c>Ni</c><c>   1</c></rc>
    <rc><c>Ni</c><c>   1</c></rc>
    <rc><c>Ni</c><c>   1</c></rc>
    <rc><c>Ni</c><c>   1</c></rc>
    <rc><c>Ni</c><c>   1</c></rc>
    <rc><c>Ni</c><c>   1</c></rc>
    <rc><c>Ni</c><c>   1</c></rc>
    <rc><c>Ni</c><c>   1</c></rc>
    <rc><c>Ni</c><c>   1</c></rc>
    <rc><c>Ni</c><c>   1</c></rc>
    <rc><c>Ni</c><c>   1</c></rc>
    <rc><c>Ni</c><c>   1</c></rc>
    <rc><c>Ni</c><c>   1</c></rc>
    <rc><c>Ni</c><c>   1</c></rc>
    <rc><c>Ni</c><c>   1</c></rc>
    <rc><c>S </c><c>   2</c></rc>
    <rc><c>S </c><c>   2</c></rc>
    <rc><c>S </c><c>   2</c></rc>
    <rc><c>S </c><c>   2</c></rc>
    <rc><c>S </c><c>   2</c></rc>
    <rc><c>S </c><c>   2</c></rc>
    <rc><c>S </c><c>   2</c></rc>
    <rc><c>S </c><c>   2</c></rc>
    <rc><c>S </c><c>   2</c></rc>
    <rc><c>S </c><c>   2</c></rc>
    <rc><c>S </c><c>   2</c></rc>
    <rc><c>S </c><c>   2</c></rc>
    <rc><c>S </c><c>   2</c></rc>
    <rc><c>S </c><c>   2</c></rc>
    <rc><c>S </c><c>   2</c></rc>
    <rc><c>S </c><c>   2</c></rc>
    <rc><c>S </c><c>   2</c></rc>
    <rc><c>S </c><c>   2</c></rc>
    <rc><c>S </c><c>   2</c></rc>
    <rc><c>S </c><c>   2</c></rc>
    <rc><c>S </c><c>   2</c></rc>
    <rc><c>S </c><c>   2</c></rc>
    <rc><c>S </c><c>   2</c></rc>
    <rc><c>S </c><c>   2</c></rc>
    <rc><c>S </c><c>   2</c></rc>
    <rc><c>S </c><c>   2</c></rc>
    <rc><c>S </c><c>   2</c></rc>
    <rc><c>S </c><c>   2</c></rc>
    <rc><c>S </c><c>   2</c></rc>
    <rc><c>S </c><c>   2</c></rc>
    <rc><c>S </c><c>   2</c></rc>
    <rc><c>S </c><c>   2</c></rc>
    <rc><c>S </c><c>   2</c></rc>
    <rc><c>S </c><c>   2</c></rc>
    <rc><c>S </c><c>   2</c></rc>
    <rc><c>S </c><c>   2</c></rc>
   </set>
  </array>
  <array name="atomtypes" >
   <dimension dim="1">type</dimension>
   <field type="int">atomspertype</field>
   <field type="string">element</field>
   <field>mass</field>
   <field>valence</field>
   <field type="string">pseudopotential</field>
   <set>
    <rc><c>  36</c><c>Ni</c><c>     58.69000000</c><c>     16.00000000</c><c>  PAW_PBE Ni_pv 06Sep2000               </c></rc>
    <rc><c>  36</c><c>S </c><c>     32.06600000</c><c>      6.00000000</c><c>  PAW_PBE S 06Sep2000                   </c></rc>
   </set>
  </array>
 </atominfo>
 <structure name="initialpos" >
  <crystal>
   <varray name="basis" >
    <v>      10.07973298       0.00000000       0.00000000 </v>
    <v>       3.57329804       9.42510255       0.00000000 </v>
    <v>       0.00000000       0.00000000      20.51013988 </v>
   </varray>
   <i name="volume">   1948.51491473 </i>
   <varray name="rec_basis" >
    <v>       0.09920898      -0.03761267       0.00000000 </v>
    <v>       0.00000000       0.10609964       0.00000000 </v>
    <v>       0.00000000       0.00000000       0.04875637 </v>
   </varray>
  </crystal>
  <varray name="positions" >
   <v>       0.37433215       0.75136220       0.09511235 </v>
   <v>       0.52460066       0.60109368       0.22312232 </v>
   <v>       0.67486918       0.45082517       0.35113229 </v>
   <v>       0.76306420       0.33990696       0.46373807 </v>
   <v>       0.56248419       0.16575500       0.07303246 </v>
   <v>       0.75775499       0.03460603       0.13778234 </v>
   <v>       0.05829201       0.73406900       0.39380228 </v>
   <v>       0.90802350       0.88433751       0.26579231 </v>
   <v>       0.14117783       0.31784985       0.18045233 </v>
   <v>       0.29144634       0.16758134       0.30846230 </v>
   <v>       0.43876313       0.02999410       0.41781963 </v>
   <v>       0.98731684       0.46614416       0.08525470 </v>
   <v>       0.99379868       0.12855820       0.39528859 </v>
   <v>       0.57263237       0.56408070       0.04959754 </v>
   <v>       0.70940298       0.41629137       0.15548031 </v>
   <v>       0.85967149       0.26602286       0.28349028 </v>
   <v>       0.09282582       0.69953520       0.19815030 </v>
   <v>       0.24309433       0.54926669       0.32616027 </v>
   <v>       0.37567670       0.40664664       0.43403650 </v>
   <v>       0.94255730       0.84980371       0.07014033 </v>
   <v>       0.32598014       0.13304754       0.11281032 </v>
   <v>       0.47624865       0.98277903       0.24082029 </v>
   <v>       0.61263344       0.84364483       0.35124280 </v>
   <v>       0.84327782       0.68262268       0.38359130 </v>
   <v>       0.03720422       0.37072838       0.42754528 </v>
   <v>       0.62219542       0.79045753       0.08249912 </v>
   <v>       0.74910482       0.64079553       0.18930132 </v>
   <v>       0.89937333       0.49052701       0.31731128 </v>
   <v>       0.98225915       0.07430787       0.10396133 </v>
   <v>       0.13252766       0.92403936       0.23197130 </v>
   <v>       0.28279617       0.77377084       0.35998128 </v>
   <v>       0.40618266       0.61734582       0.47659565 </v>
   <v>       0.24684820       0.52227686       0.04471356 </v>
   <v>       0.36568198       0.35755170       0.14663132 </v>
   <v>       0.51595050       0.20728318       0.27464130 </v>
   <v>       0.66440396       0.06806182       0.38934573 </v>
   <v>       0.06382158       0.26208477       0.34135992 </v>
   <v>       0.76328455       0.56262179       0.08533998 </v>
   <v>       0.91355306       0.41235328       0.21334995 </v>
   <v>       0.14670739       0.84586562       0.12800997 </v>
   <v>       0.29697590       0.69559711       0.25601994 </v>
   <v>       0.44724441       0.54532860       0.38402991 </v>
   <v>       0.54700245       0.41419381       0.49176840 </v>
   <v>       0.97230853       0.99976543       0.01577938 </v>
   <v>       0.35443765       0.29320266       0.05183828 </v>
   <v>       0.53013023       0.12910945       0.17067996 </v>
   <v>       0.68039874       0.97884094       0.29868993 </v>
   <v>       0.83603121       0.87634561       0.41302524 </v>
   <v>       0.41202622       0.93405527       0.06538768 </v>
   <v>       0.52796422       0.79794212       0.17147277 </v>
   <v>       0.67823274       0.64767361       0.29948274 </v>
   <v>       0.82850125       0.49740510       0.42749271 </v>
   <v>       0.75177750       0.22545566       0.09874202 </v>
   <v>       0.91138706       0.08118595       0.21414276 </v>
   <v>       0.06165557       0.93091744       0.34215273 </v>
   <v>       0.21403443       0.76244099       0.45301048 </v>
   <v>       0.14454139       0.51469829       0.12880278 </v>
   <v>       0.29480990       0.36442978       0.25681275 </v>
   <v>       0.44507841       0.21416127       0.38482272 </v>
   <v>       0.02454798       0.63865233       0.03228650 </v>
   <v>       0.36825405       0.63667378       0.01352385 </v>
   <v>       0.47740939       0.51206696       0.12840637 </v>
   <v>       0.62767790       0.36179845       0.25641634 </v>
   <v>       0.77794641       0.21152993       0.38442632 </v>
   <v>       0.97540235       0.23141491       0.48309026 </v>
   <v>       0.01110074       0.64504227       0.29908634 </v>
   <v>       0.15623753       0.50898565       0.41503487 </v>
   <v>       0.71007378       0.94639715       0.05479260 </v>
   <v>       0.86083223       0.79531079       0.17107636 </v>
   <v>       0.09117331       0.23171661       0.09721009 </v>
   <v>       0.24425506       0.07855462       0.21374635 </v>
   <v>       0.39452358       0.92828611       0.34175632 </v>
  </varray>
 </structure>
 <calculation>
  <scstep>
   <time name="dav">    6.79    6.79</time>
   <time name="total">    7.07    7.07</time>
   <energy>
    <i name="alphaZ">   1909.09476555 </i>
    <i name="ewald"> 211278.53941118 </i>
    <i name="hartreedc">-333569.64092000 </i>
    <i name="XCdc">   3678.30660925 </i>
    <i name="pawpsdc"> 112729.53333415 </i>
    <i name="pawaedc">-117641.51188735 </i>
    <i name="eentropy">     -0.34505493 </i>
    <i name="bandstr">  -4402.55217915 </i>
    <i name="atom"> 136002.60505376 </i>
    <i name="e_fr_energy">   9984.02913247 </i>
    <i name="e_wo_entrp">   9984.37418740 </i>
    <i name="e_0_energy">   9984.20165994 </i>
   </energy>
  </scstep>
  <scstep>
   <time name="dav">    6.20    6.20</time>
   <time name="total">    6.20    6.20</time>
   <energy>
    <i name="e_fr_energy">    619.68948875 </i>
    <i name="e_wo_entrp">    620.35350710 </i>
    <i name="e_0_energy">    620.02149793 </i>
   </energy>
  </scstep>
  <scstep>
   <time name="dav">    6.62    6.63</time>
   <time name="total">    6.63    6.63</time>
   <energy>
    <i name="e_fr_energy">   -341.98332726 </i>
    <i name="e_wo_entrp">   -341.09339739 </i>
    <i name="e_0_energy">   -341.53836233 </i>
   </energy>
  </scstep>
  <scstep>
   <time name="dav">    6.70    6.70</time>
   <time name="total">    6.71    6.71</time>
   <energy>
    <i name="e_fr_energy">   -401.21522601 </i>
    <i name="e_wo_entrp">   -400.29544396 </i>
    <i name="e_0_energy">   -400.75533498 </i>
   </energy>
  </scstep>
  <scstep>
   <time name="dav">    6.95    6.95</time>
   <time name="total">    7.17    7.18</time>
   <energy>
    <i name="e_fr_energy">   -403.26775666 </i>
    <i name="e_wo_entrp">   -402.34679961 </i>
    <i name="e_0_energy">   -402.80727813 </i>
   </energy>
  </scstep>
  <scstep>
   <time name="dav">    7.06    7.07</time>
   <time name="total">    7.55    7.56</time>
   <energy>
    <i name="e_fr_energy">   -465.05227079 </i>
    <i name="e_wo_entrp">   -464.24619829 </i>
    <i name="e_0_energy">   -464.64923454 </i>
   </energy>
  </scstep>
  <scstep>
   <time name="dav">    6.55    6.55</time>
   <time name="total">    7.12    7.12</time>
   <energy>
    <i name="e_fr_energy">   -367.07144373 </i>
    <i name="e_wo_entrp">   -366.29402619 </i>
    <i name="e_0_energy">   -366.68273496 </i>
   </energy>
  </scstep>
  <scstep>
   <time name="dav">    7.31    7.31</time>
   <time name="total">    7.79    7.80</time>
   <energy>
    <i name="e_fr_energy">   -439.56083533 </i>
    <i name="e_wo_entrp">   -438.63247568 </i>
    <i name="e_0_energy">   -439.09665550 </i>
   </energy>
  </scstep>
  <scstep>
   <time name="dav">    7.38    7.38</time>
   <time name="total">    7.88    7.88</time>
   <energy>
    <i name="e_fr_energy">   -393.18244861 </i>
    <i name="e_wo_entrp">   -391.96567770 </i>
    <i name="e_0_energy">   -392.57406315 </i>
   </energy>
  </scstep>
  <scstep>
   <time name="dav">    7.55    7.55</time>
   <time name="total">    8.04    8.04</time>
   <energy>
    <i name="e_fr_energy">   -391.52587483 </i>
    <i name="e_wo_entrp">   -390.41189477 </i>
    <i name="e_0_energy">   -390.96888480 </i>
   </energy>
  </scstep>
  <scstep>
   <time name="dav">    7.58    7.58</time>
   <time name="total">    8.07    8.07</time>
   <energy>
    <i name="e_fr_energy">   -379.02722633 </i>
    <i name="e_wo_entrp">   -378.09334374 </i>
    <i name="e_0_energy">   -378.56028503 </i>
   </energy>
  </scstep>
  <scstep>
   <time name="dav">    7.18    7.18</time>
   <time name="total">    7.66    7.66</time>
   <energy>
    <i name="e_fr_energy">   -366.17020988 </i>
    <i name="e_wo_entrp">   -365.34282619 </i>
    <i name="e_0_energy">   -365.75651803 </i>
   </energy>
  </scstep>
  <scstep>
   <time name="dav">    7.49    7.50</time>
   <time name="total">    7.98    7.99</time>
   <energy>
    <i name="e_fr_energy">   -362.37299351 </i>
    <i name="e_wo_entrp">   -361.45748253 </i>
    <i name="e_0_energy">   -361.91523802 </i>
   </energy>
  </scstep>
  <scstep>
   <time name="dav">    7.33    7.33</time>
   <time name="total">    7.82    7.82</time>
   <energy>
    <i name="e_fr_energy">   -358.69486218 </i>
    <i name="e_wo_entrp">   -357.85452354 </i>
    <i name="e_0_energy">   -358.27469286 </i>
   </energy>
  </scstep>
  <scstep>
   <time name="dav">    7.74    7.74</time>
   <time name="total">    8.23    8.23</time>
   <energy>
    <i name="e_fr_energy">   -356.68011524 </i>
    <i name="e_wo_entrp">   -355.84699362 </i>
    <i name="e_0_energy">   -356.26355443 </i>
   </energy>
  </scstep>
  <scstep>
   <time name="dav">    7.29    7.29</time>
   <time name="total">    7.78    7.78</time>
   <energy>
    <i name="e_fr_energy">   -355.88345316 </i>
    <i name="e_wo_entrp">   -355.04222747 </i>
    <i name="e_0_energy">   -355.46284032 </i>
   </energy>
  </scstep>
  <scstep>
   <time name="dav">    7.39    7.39</time>
   <time name="total">    8.11    8.11</time>
   <energy>
    <i name="e_fr_energy">   -355.48971213 </i>
    <i name="e_wo_entrp">   -354.65680953 </i>
    <i name="e_0_energy">   -355.07326083 </i>
   </energy>
  </scstep>
  <scstep>
   <time name="dav">    7.32    7.32</time>
   <time name="total">    7.81    7.82</time>
   <energy>
    <i name="e_fr_energy">   -355.10265959 </i>
    <i name="e_wo_entrp">   -354.26153981 </i>
    <i name="e_0_energy">   -354.68209970 </i>
   </energy>
  </scstep>
  <scstep>
   <time name="dav">    7.59    7.60</time>
   <time name="total">    8.23    8.23</time>
   <energy>
    <i name="e_fr_energy">   -354.50058098 </i>
    <i name="e_wo_entrp">   -353.64765320 </i>
    <i name="e_0_energy">   -354.07411709 </i>
   </energy>
  </scstep>
  <scstep>
   <time name="dav">    7.90    7.90</time>
   <time name="total">    8.44    8.44</time>
   <energy>
    <i name="e_fr_energy">   -353.86068868 </i>
    <i name="e_wo_entrp">   -352.98246817 </i>
    <i name="e_0_energy">   -353.42157843 </i>
   </energy>
  </scstep>
  <scstep>
   <time name="dav">    7.41    7.41</time>
   <time name="total">    8.13    8.13</time>
   <energy>
    <i name="e_fr_energy">   -353.73452230 </i>
    <i name="e_wo_entrp">   -352.83790745 </i>
    <i name="e_0_energy">   -353.28621488 </i>
   </energy>
  </scstep>
  <scstep>
   <time name="dav">    6.25    6.25</time>
   <time name="total">    6.75    6.75</time>
   <energy>
    <i name="e_fr_energy">   -353.70867833 </i>
    <i name="e_wo_entrp">   -352.81712313 </i>
    <i name="e_0_energy">   -353.26290073 </i>
   </energy>
  </scstep>
  <scstep>
   <time name="dav">    7.14    7.14</time>
   <time name="total">    7.64    7.64</time>
   <energy>
    <i name="e_fr_energy">   -353.72665996 </i>
    <i name="e_wo_entrp">   -352.83048085 </i>
    <i name="e_0_energy">   -353.27857040 </i>
   </energy>
  </scstep>
  <scstep>
   <time name="dav">    7.34    7.34</time>
   <time name="total">    7.85    7.85</time>
   <energy>
    <i name="e_fr_energy">   -353.69585216 </i>
    <i name="e_wo_entrp">   -352.80905271 </i>
    <i name="e_0_energy">   -353.25245243 </i>
   </energy>
  </scstep>
  <scstep>
   <time name="dav">    6.97    6.97</time>
   <time name="total">    7.47    7.47</time>
   <energy>
    <i name="e_fr_energy">   -353.71383128 </i>
    <i name="e_wo_entrp">   -352.82331684 </i>
    <i name="e_0_energy">   -353.26857406 </i>
   </energy>
  </scstep>
  <scstep>
   <time name="dav">    7.22    7.22</time>
   <time name="total">    7.74    7.75</time>
   <energy>
    <i name="e_fr_energy">   -353.69558593 </i>
    <i name="e_wo_entrp">   -352.80490224 </i>
    <i name="e_0_energy">   -353.25024409 </i>
   </energy>
  </scstep>
  <scstep>
   <time name="dav">    7.48    7.48</time>
   <time name="total">    8.06    8.06</time>
   <energy>
    <i name="e_fr_energy">   -353.68377547 </i>
    <i name="e_wo_entrp">   -352.79640995 </i>
    <i name="e_0_energy">   -353.24009271 </i>
   </energy>
  </scstep>
  <scstep>
   <time name="dav">    7.42    7.42</time>
   <time name="total">    7.93    7.93</time>
   <energy>
    <i name="e_fr_energy">   -353.68132269 </i>
    <i name="e_wo_entrp">   -352.79441662 </i>
    <i name="e_0_energy">   -353.23786965 </i>
   </energy>
  </scstep>
  <scstep>
   <time name="dav">    7.58    7.58</time>
   <time name="total">    8.09    8.09</time>
   <energy>
    <i name="e_fr_energy">   -353.68152621 </i>
    <i name="e_wo_entrp">   -352.79566675 </i>
    <i name="e_0_energy">   -353.23859648 </i>
   </energy>
  </scstep>
  <scstep>
   <time name="dav">    6.22    6.22</time>
   <time name="total">    6.73    6.73</time>
   <energy>
    <i name="e_fr_energy">   -353.68143186 </i>
    <i name="e_wo_entrp">   -352.79595359 </i>
    <i name="e_0_energy">   -353.23869272 </i>
   </energy>
  </scstep>
  <scstep>
   <time name="dav">    6.65    6.66</time>
   <time name="total">    7.16    7.16</time>
   <energy>
    <i name="e_fr_energy">   -353.68221188 </i>
    <i name="e_wo_entrp">   -352.79683006 </i>
    <i name="e_0_energy">   -353.23952097 </i>
   </energy>
  </scstep>
  <scstep>
   <time name="dav">    6.29    6.29</time>
   <time name="total">    6.79    6.79</time>
   <energy>
    <i name="e_fr_energy">   -353.68188486 </i>
    <i name="e_wo_entrp">   -352.79593816 </i>
    <i name="e_0_energy">   -353.23891151 </i>
   </energy>
  </scstep>
  <scstep>
   <time name="dav">    5.46    5.46</time>
   <time name="total">    5.97    5.97</time>
   <energy>
    <i name="e_fr_energy">   -353.68205907 </i>
    <i name="e_wo_entrp">   -352.79578621 </i>
    <i name="e_0_energy">   -353.23892264 </i>
   </energy>
  </scstep>
  <scstep>
   <time name="dav">    4.42    4.42</time>
   <time name="total">    4.69    4.69</time>
   <energy>
    <i name="alphaZ">   1909.09476555 </i>
    <i name="ewald"> 211278.53941118 </i>
    <i name="hartreedc">-332807.42605307 </i>
    <i name="XCdc">   3648.14766962 </i>
    <i name="pawpsdc"> 138067.88076174 </i>
    <i name="pawaedc">-143054.60513110 </i>
    <i name="eentropy">     -0.88617486 </i>
    <i name="bandstr"> -15397.03244089 </i>
    <i name="atom"> 136002.60505376 </i>
    <i name="e_fr_energy">   -353.68213807 </i>
    <i name="e_wo_entrp">   -352.79596321 </i>
    <i name="e_0_energy">   -353.23905064 </i>
   </energy>
  </scstep>
  <structure>
   <crystal>
    <varray name="basis" >
     <v>      10.07973298       0.00000000       0.00000000 </v>
     <v>       3.57329804       9.42510255       0.00000000 </v>
     <v>       0.00000000       0.00000000      20.51013988 </v>
    </varray>
    <i name="volume">   1948.51491473 </i>
    <varray name="rec_basis" >
     <v>       0.09920898      -0.03761267       0.00000000 </v>
     <v>       0.00000000       0.10609964       0.00000000 </v>
     <v>       0.00000000       0.00000000       0.04875637 </v>
    </varray>
   </crystal>
   <varray name="positions" >
    <v>       0.37433215       0.75136220       0.09511235 </v>
    <v>       0.52460066       0.60109368       0.22312232 </v>
    <v>       0.67486918       0.45082517       0.35113229 </v>
    <v>       0.76306420       0.33990696       0.46373807 </v>
    <v>       0.56248419       0.16575500       0.07303246 </v>
    <v>       0.75775499       0.03460603       0.13778234 </v>
    <v>       0.05829201       0.73406900       0.39380228 </v>
    <v>       0.90802350       0.88433751       0.26579231 </v>
    <v>       0.14117783       0.31784985       0.18045233 </v>
    <v>       0.29144634       0.16758134       0.30846230 </v>
    <v>       0.43876313       0.02999410       0.41781963 </v>
    <v>       0.98731684       0.46614416       0.08525470 </v>
    <v>       0.99379868       0.12855820       0.39528859 </v>
    <v>       0.57263237       0.56408070       0.04959754 </v>
    <v>       0.70940298       0.41629137       0.15548031 </v>
    <v>       0.85967149       0.26602286       0.28349028 </v>
    <v>       0.09282582       0.69953520       0.19815030 </v>
    <v>       0.24309433       0.54926669       0.32616027 </v>
    <v>       0.37567670       0.40664664       0.43403650 </v>
    <v>       0.94255730       0.84980371       0.07014033 </v>
    <v>       0.32598014       0.13304754       0.11281032 </v>
    <v>       0.47624865       0.98277903       0.24082029 </v>
    <v>       0.61263344       0.84364483       0.35124280 </v>
    <v>       0.84327782       0.68262268       0.38359130 </v>
    <v>       0.03720422       0.37072838       0.42754528 </v>
    <v>       0.62219542       0.79045753       0.08249912 </v>
    <v>       0.74910482       0.64079553       0.18930132 </v>
    <v>       0.89937333       0.49052701       0.31731128 </v>
    <v>       0.98225915       0.07430787       0.10396133 </v>
    <v>       0.13252766       0.92403936       0.23197130 </v>
    <v>       0.28279617       0.77377084       0.35998128 </v>
    <v>       0.40618266       0.61734582       0.47659565 </v>
    <v>       0.24684820       0.52227686       0.04471356 </v>
    <v>       0.36568198       0.35755170       0.14663132 </v>
    <v>       0.51595050       0.20728318       0.27464130 </v>
    <v>       0.66440396       0.06806182       0.38934573 </v>
    <v>       0.06382158       0.26208477       0.34135992 </v>
    <v>       0.76328455       0.56262179       0.08533998 </v>
    <v>       0.91355306       0.41235328       0.21334995 </v>
    <v>       0.14670739       0.84586562       0.12800997 </v>
    <v>       0.29697590       0.69559711       0.25601994 </v>
    <v>       0.44724441       0.54532860       0.38402991 </v>
    <v>       0.54700245       0.41419381       0.49176840 </v>
    <v>       0.97230853       0.99976543       0.01577938 </v>
    <v>       0.35443765       0.29320266       0.05183828 </v>
    <v>       0.53013023       0.12910945       0.17067996 </v>
    <v>       0.68039874       0.97884094       0.29868993 </v>
    <v>       0.83603121       0.87634561       0.41302524 </v>
    <v>       0.41202622       0.93405527       0.06538768 </v>
    <v>       0.52796422       0.79794212       0.17147277 </v>
    <v>       0.67823274       0.64767361       0.29948274 </v>
    <v>       0.82850125       0.49740510       0.42749271 </v>
    <v>       0.75177750       0.22545566       0.09874202 </v>
    <v>       0.91138706       0.08118595       0.21414276 </v>
    <v>       0.06165557       0.93091744       0.34215273 </v>
    <v>       0.21403443       0.76244099       0.45301048 </v>
    <v>       0.14454139       0.51469829       0.12880278 </v>
    <v>       0.29480990       0.36442978       0.25681275 </v>
    <v>       0.44507841       0.21416127       0.38482272 </v>
    <v>       0.02454798       0.63865233       0.03228650 </v>
    <v>       0.36825405       0.63667378       0.01352385 </v>
    <v>       0.47740939       0.51206696       0.12840637 </v>
    <v>       0.62767790       0.36179845       0.25641634 </v>
    <v>       0.77794641       0.21152993       0.38442632 </v>
    <v>       0.97540235       0.23141491       0.48309026 </v>
    <v>       0.01110074       0.64504227       0.29908634 </v>
    <v>       0.15623753       0.50898565       0.41503487 </v>
    <v>       0.71007378       0.94639715       0.05479260 </v>
    <v>       0.86083223       0.79531079       0.17107636 </v>
    <v>       0.09117331       0.23171661       0.09721009 </v>
    <v>       0.24425506       0.07855462       0.21374635 </v>
    <v>       0.39452358       0.92828611       0.34175632 </v>
   </varray>
  </structure>
  <varray name="forces" >
   <v>      -0.30986319       0.95302907       2.12244474 </v>
   <v>      -0.01424257      -0.10445947       0.08001832 </v>
   <v>      -0.04174270      -0.15188620      -0.25749629 </v>
   <v>      -1.50797878       0.30263964       1.10259163 </v>
   <v>       0.72952186       0.26215333      -1.02509087 </v>
   <v>       0.78354554      -0.98233258       2.97843332 </v>
   <v>       0.10758326      -0.19263136      -0.50780933 </v>
   <v>       0.53545653       0.10868130      -0.31616277 </v>
   <v>       0.52968546       0.05438111       1.59922174 </v>
   <v>      -0.21788917      -0.05167183       0.13258126 </v>
   <v>      -0.11284089      -0.27096287       1.25443355 </v>
   <v>      -0.34166996      -0.32786090      -1.28564645 </v>
   <v>       0.42697910      -1.77696233      -0.29809497 </v>
   <v>       0.47043044      -0.65912220      -1.22102992 </v>
   <v>      -0.23289360      -0.01195100       0.53709516 </v>
   <v>       0.00663118      -0.14067056      -0.06851234 </v>
   <v>       0.11582416       0.14565734       0.11995158 </v>
   <v>       0.14619558       0.14281144      -1.14630453 </v>
   <v>      -0.55502419      -0.37077546       0.80815812 </v>
   <v>      -0.77545211      -1.37352047       1.66938905 </v>
   <v>      -0.63909952      -0.09606067       0.53430461 </v>
   <v>      -0.15673174      -0.16633055      -0.11597162 </v>
   <v>       0.11865086      -0.83372334       0.84136018 </v>
   <v>      -0.21667625       0.59870705       0.01978807 </v>
   <v>       2.05079954       0.51315184       0.33214722 </v>
   <v>       0.28873149      -0.34659901      -0.96396693 </v>
   <v>      -0.13396816      -0.06933286      -0.00128087 </v>
   <v>      -0.00172327      -1.17133019      -0.90824296 </v>
   <v>       0.40440449       0.92291391       2.51693307 </v>
   <v>      -0.17345910      -0.07048961      -0.03866733 </v>
   <v>       0.81744321       0.28561362      -1.60871716 </v>
   <v>       0.05411462       0.30380780       1.27623834 </v>
   <v>      -0.23238324      -0.78012434      -0.87847863 </v>
   <v>       0.11985707       0.21924220       1.45448745 </v>
   <v>       0.31666480       0.07359281       0.01600971 </v>
   <v>       0.38830715       0.27755138       0.80166879 </v>
   <v>       1.23932353      -0.08245937      -2.64579812 </v>
   <v>       0.73465252       0.02022071      -0.42103726 </v>
   <v>      -0.34899546       0.24685359       0.34748182 </v>
   <v>       0.11292515       0.12911977       0.10015139 </v>
   <v>       0.33953295      -0.05509026      -0.09578698 </v>
   <v>       1.22456263       0.85173582      -2.78881372 </v>
   <v>       0.52797250      -1.01960771       2.33368392 </v>
   <v>       0.79591931       0.78769652      -4.29209479 </v>
   <v>       0.19191523       0.15188928      -3.34255414 </v>
   <v>      -0.38989580      -0.25542527       1.77651081 </v>
   <v>       0.45891317       0.66488556      -3.01437801 </v>
   <v>      -0.70971751       0.19652285       2.55546483 </v>
   <v>      -0.29509184       0.79734602      -1.91740224 </v>
   <v>      -0.88789824      -0.39336177       2.52987742 </v>
   <v>      -0.10475179      -0.19437633      -0.36721965 </v>
   <v>      -1.03152600       2.66162985      -0.02240586 </v>
   <v>       0.71975613       1.64504741      -1.65424689 </v>
   <v>       0.14972214      -0.09292856       0.29626433 </v>
   <v>       0.29178540       0.01976263      -1.10742919 </v>
   <v>      -0.15515693       2.14931468       3.21697577 </v>
   <v>       0.59776467       0.72707322       3.23062993 </v>
   <v>      -0.14028793       0.06645883      -0.08642500 </v>
   <v>      -0.01739420       0.53860107      -0.33803693 </v>
   <v>      -0.44166147       0.04841377      -1.45086809 </v>
   <v>      -0.14556779       0.13104101      -3.45971512 </v>
   <v>      -0.38046938      -0.15342195       1.97990240 </v>
   <v>       0.02035056       0.07472048       0.18982209 </v>
   <v>      -1.85474171       0.10912558      -1.36345946 </v>
   <v>       1.11570092      -1.29194008       3.45825037 </v>
   <v>      -0.30222510       0.06180309      -0.35247308 </v>
   <v>      -0.85258096      -1.16658768       1.53890216 </v>
   <v>      -0.52123342      -0.85317085      -2.81350814 </v>
   <v>       0.31239164      -0.24874420       0.45784611 </v>
   <v>      -1.33034063      -0.57385363      -2.00120328 </v>
   <v>       0.16740359      -0.39606648       0.62038354 </v>
   <v>      -1.83824384      -0.51736363      -0.65307389 </v>
  </varray>
  <varray name="stress" >
   <v>      60.23434042       4.29698694      -0.78686415 </v>
   <v>       4.29698645      58.90396507       3.31436237 </v>
   <v>      -0.78686444       3.31436248      77.50935034 </v>
  </varray>
  <energy>
   <i name="e_fr_energy">   -353.68213807 </i>
   <i name="e_wo_entrp">   -353.23905064 </i>
   <i name="e_0_energy">     -0.88617486 </i>
  </energy>
  <time name="totalsc">  259.60  259.64</time>
  <eigenvalues>
   <array>
    <dimension dim="1">band</dimension>
    <dimension dim="2">kpoint</dimension>
    <dimension dim="3">spin</dimension>
    <field>eigene</field>
    <field>occ</field>
    <set>
     <set comment="spin 1">
      <set comment="kpoint 1">
       <r>  -63.3281    1.0000 </r>
       <r>  -63.2926    1.0000 </r>
       <r>  -63.2818    1.0000 </r>
       <r>  -63.2201    1.0000 </r>
       <r>  -63.1603    1.0000 </r>
       <r>  -63.1490    1.0000 </r>
       <r>  -63.1323    1.0000 </r>
       <r>  -63.1217    1.0000 </r>
       <r>  -63.1155    1.0000 </r>
       <r>  -63.0641    1.0000 </r>
       <r>  -63.0294    1.0000 </r>
       <r>  -63.0054    1.0000 </r>
       <r>  -62.9999    1.0000 </r>
       <r>  -62.9807    1.0000 </r>
       <r>  -62.9795    1.0000 </r>
       <r>  -62.9736    1.0000 </r>
       <r>  -62.9728    1.0000 </r>
       <r>  -62.9566    1.0000 </r>
       <r>  -62.9471    1.0000 </r>
       <r>  -62.9381    1.0000 </r>
       <r>  -62.9349    1.0000 </r>
       <r>  -62.9164    1.0000 </r>
       <r>  -62.9116    1.0000 </r>
       <r>  -62.9085    1.0000 </r>
       <r>  -62.9001    1.0000 </r>
       <r>  -62.8920    1.0000 </r>
       <r>  -62.8852    1.0000 </r>
       <r>  -62.8802    1.0000 </r>
       <r>  -62.8547    1.0000 </r>
       <r>  -62.8487    1.0000 </r>
       <r>  -62.8447    1.0000 </r>
       <r>  -62.8426    1.0000 </r>
       <r>  -62.8260    1.0000 </r>
       <r>  -62.8239    1.0000 </r>
       <r>  -62.8236    1.0000 </r>
       <r>  -62.8231    1.0000 </r>
       <r>  -62.8188    1.0000 </r>
       <r>  -62.8090    1.0000 </r>
       <r>  -62.7881    1.0000 </r>
       <r>  -62.7671    1.0000 </r>
       <r>  -62.7586    1.0000 </r>
       <r>  -62.7527    1.0000 </r>
       <r>  -62.7526    1.0000 </r>
       <r>  -62.7497    1.0000 </r>
       <r>  -62.7447    1.0000 </r>
       <r>  -62.7400    1.0000 </r>
       <r>  -62.7301    1.0000 </r>
       <r>  -62.7272    1.0000 </r>
       <r>  -62.7206    1.0000 </r>
       <r>  -62.7172    1.0000 </r>
       <r>  -62.7118    1.0000 </r>
       <r>  -62.7091    1.0000 </r>
       <r>  -62.6981    1.0000 </r>
       <r>  -62.6964    1.0000 </r>
       <r>  -62.6892    1.0000 </r>
       <r>  -62.6590    1.0000 </r>
       <r>  -62.6543    1.0000 </r>
       <r>  -62.6492    1.0000 </r>
       <r>  -62.6422    1.0000 </r>
       <r>  -62.6287    1.0000 </r>
       <r>  -62.6243    1.0000 </r>
       <r>  -62.6156    1.0000 </r>
       <r>  -62.6125    1.0000 </r>
       <r>  -62.6124    1.0000 </r>
       <r>  -62.6094    1.0000 </r>
       <r>  -62.6035    1.0000 </r>
       <r>  -62.5868    1.0000 </r>
       <r>  -62.5861    1.0000 </r>
       <r>  -62.5858    1.0000 </r>
       <r>  -62.5773    1.0000 </r>
       <r>  -62.5736    1.0000 </r>
       <r>  -62.5717    1.0000 </r>
       <r>  -62.5579    1.0000 </r>
       <r>  -62.5460    1.0000 </r>
       <r>  -62.5442    1.0000 </r>
       <r>  -62.5440    1.0000 </r>
       <r>  -62.5324    1.0000 </r>
       <r>  -62.5304    1.0000 </r>
       <r>  -62.5277    1.0000 </r>
       <r>  -62.5270    1.0000 </r>
       <r>  -62.5220    1.0000 </r>
       <r>  -62.5207    1.0000 </r>
       <r>  -62.5107    1.0000 </r>
       <r>  -62.5074    1.0000 </r>
       <r>  -62.5043    1.0000 </r>
       <r>  -62.4964    1.0000 </r>
       <r>  -62.4879    1.0000 </r>
       <r>  -62.4750    1.0000 </r>
       <r>  -62.4650    1.0000 </r>
       <r>  -62.4606    1.0000 </r>
       <r>  -62.4546    1.0000 </r>
       <r>  -62.4497    1.0000 </r>
       <r>  -62.4224    1.0000 </r>
       <r>  -62.4135    1.0000 </r>
       <r>  -62.4021    1.0000 </r>
       <r>  -62.3910    1.0000 </r>
       <r>  -62.3766    1.0000 </r>
       <r>  -62.3630    1.0000 </r>
       <r>  -62.3521    1.0000 </r>
       <r>  -62.3491    1.0000 </r>
       <r>  -62.2764    1.0000 </r>
       <r>  -62.2264    1.0000 </r>
       <r>  -62.1076    1.0000 </r>
       <r>  -62.0956    1.0000 </r>
       <r>  -62.0268    1.0000 </r>
       <r>  -62.0103    1.0000 </r>
       <r>  -61.9700    1.0000 </r>
       <r>  -61.7241    1.0000 </r>
       <r>  -14.7941    1.0000 </r>
       <r>  -14.5162    1.0000 </r>
       <r>  -14.1640    1.0000 </r>
       <r>  -13.9890    1.0000 </r>
       <r>  -13.8479    1.0000 </r>
       <r>  -13.7007    1.0000 </r>
       <r>  -13.6186    1.0000 </r>
       <r>  -13.4518    1.0000 </r>
       <r>  -13.4087    1.0000 </r>
       <r>  -13.2957    1.0000 </r>
       <r>  -13.2853    1.0000 </r>
       <r>  -13.1210    1.0000 </r>
       <r>  -13.0838    1.0000 </r>
       <r>  -12.9860    1.0000 </r>
       <r>  -12.8740    1.0000 </r>
       <r>  -12.8277    1.0000 </r>
       <r>  -12.7654    1.0000 </r>
       <r>  -12.6859    1.0000 </r>
       <r>  -12.5922    1.0000 </r>
       <r>  -12.4813    1.0000 </r>
       <r>  -12.4603    1.0000 </r>
       <r>  -12.4163    1.0000 </r>
       <r>  -12.3821    1.0000 </r>
       <r>  -12.2952    1.0000 </r>
       <r>  -12.2018    1.0000 </r>
       <r>  -12.1146    1.0000 </r>
       <r>  -12.0636    1.0000 </r>
       <r>  -11.9977    1.0000 </r>
       <r>  -11.9650    1.0000 </r>
       <r>  -11.9111    1.0000 </r>
       <r>  -11.8274    1.0000 </r>
       <r>  -11.7525    1.0000 </r>
       <r>  -11.6991    1.0000 </r>
       <r>  -11.6540    1.0000 </r>
       <r>  -11.5795    1.0000 </r>
       <r>  -11.3705    1.0000 </r>
       <r>   -6.4520    1.0000 </r>
       <r>   -6.2652    1.0000 </r>
       <r>   -6.1502    1.0000 </r>
       <r>   -6.1199    1.0000 </r>
       <r>   -5.9746    1.0000 </r>
       <r>   -5.9441    1.0000 </r>
       <r>   -5.8987    1.0000 </r>
       <r>   -5.8521    1.0000 </r>
       <r>   -5.7656    1.0000 </r>
       <r>   -5.7327    1.0000 </r>
       <r>   -5.6971    1.0000 </r>
       <r>   -5.6181    1.0000 </r>
       <r>   -5.5871    1.0000 </r>
       <r>   -5.5336    1.0000 </r>
       <r>   -5.5069    1.0000 </r>
       <r>   -5.4647    1.0000 </r>
       <r>   -5.4197    1.0000 </r>
       <r>   -5.4017    1.0000 </r>
       <r>   -5.3672    1.0000 </r>
       <r>   -5.3261    1.0000 </r>
       <r>   -5.2983    1.0000 </r>
       <r>   -5.2864    1.0000 </r>
       <r>   -5.1926    1.0000 </r>
       <r>   -5.1466    1.0000 </r>
       <r>   -5.1058    1.0000 </r>
       <r>   -5.0465    1.0000 </r>
       <r>   -5.0234    1.0000 </r>
       <r>   -4.9526    1.0000 </r>
       <r>   -4.9187    1.0000 </r>
       <r>   -4.8814    1.0000 </r>
       <r>   -4.8339    1.0000 </r>
       <r>   -4.7573    1.0000 </r>
       <r>   -4.6791    1.0000 </r>
       <r>   -4.6695    1.0000 </r>
       <r>   -4.6216    1.0000 </r>
       <r>   -4.5317    1.0000 </r>
       <r>   -4.5149    1.0000 </r>
       <r>   -4.4327    1.0000 </r>
       <r>   -4.3571    1.0000 </r>
       <r>   -4.3230    1.0000 </r>
       <r>   -4.3047    1.0000 </r>
       <r>   -4.1989    1.0000 </r>
       <r>   -4.1219    1.0000 </r>
       <r>   -4.1029    1.0000 </r>
       <r>   -4.0566    1.0000 </r>
       <r>   -4.0210    1.0000 </r>
       <r>   -3.9804    1.0000 </r>
       <r>   -3.9441    1.0000 </r>
       <r>   -3.9111    1.0000 </r>
       <r>   -3.8677    1.0000 </r>
       <r>   -3.8290    1.0000 </r>
       <r>   -3.7912    1.0000 </r>
       <r>   -3.7596    1.0000 </r>
       <r>   -3.7330    1.0000 </r>
       <r>   -3.7022    1.0000 </r>
       <r>   -3.6978    1.0000 </r>
       <r>   -3.6453    1.0000 </r>
       <r>   -3.6281    1.0000 </r>
       <r>   -3.6178    1.0000 </r>
       <r>   -3.5738    1.0000 </r>
       <r>   -3.5251    1.0000 </r>
       <r>   -3.5050    1.0000 </r>
       <r>   -3.4918    1.0000 </r>
       <r>   -3.4606    1.0000 </r>
       <r>   -3.4074    1.0000 </r>
       <r>   -3.3976    1.0000 </r>
       <r>   -3.3813    1.0000 </r>
       <r>   -3.3791    1.0000 </r>
       <r>   -3.3282    1.0000 </r>
       <r>   -3.2923    1.0000 </r>
       <r>   -3.2634    1.0000 </r>
       <r>   -3.2496    1.0000 </r>
       <r>   -3.2419    1.0000 </r>
       <r>   -3.2197    1.0000 </r>
       <r>   -3.1872    1.0000 </r>
       <r>   -3.1390    1.0000 </r>
       <r>   -3.0842    1.0000 </r>
       <r>   -3.0539    1.0000 </r>
       <r>   -2.9973    1.0000 </r>
       <r>   -2.9747    1.0000 </r>
       <r>   -2.9358    1.0000 </r>
       <r>   -2.9004    1.0000 </r>
       <r>   -2.8808    1.0000 </r>
       <r>   -2.8581    1.0000 </r>
       <r>   -2.8129    1.0000 </r>
       <r>   -2.7905    1.0000 </r>
       <r>   -2.7557    1.0000 </r>
       <r>   -2.7367    1.0000 </r>
       <r>   -2.7110    1.0000 </r>
       <r>   -2.6820    1.0000 </r>
       <r>   -2.6491    1.0000 </r>
       <r>   -2.6154    1.0000 </r>
       <r>   -2.6008    1.0000 </r>
       <r>   -2.5735    1.0000 </r>
       <r>   -2.5241    1.0000 </r>
       <r>   -2.4567    1.0000 </r>
       <r>   -2.3904    1.0000 </r>
       <r>   -2.3086    1.0000 </r>
       <r>   -2.3045    1.0000 </r>
       <r>   -2.2061    1.0000 </r>
       <r>   -2.1294    1.0000 </r>
       <r>   -2.0666    1.0000 </r>
       <r>   -1.9985    1.0000 </r>
       <r>   -1.9669    1.0000 </r>
       <r>   -1.9485    1.0000 </r>
       <r>   -1.8905    1.0000 </r>
       <r>   -1.8488    1.0000 </r>
       <r>   -1.7975    1.0000 </r>
       <r>   -1.7572    1.0000 </r>
       <r>   -1.7245    1.0000 </r>
       <r>   -1.6697    1.0000 </r>
       <r>   -1.6427    1.0000 </r>
       <r>   -1.6052    1.0000 </r>
       <r>   -1.5894    1.0000 </r>
       <r>   -1.5775    1.0000 </r>
       <r>   -1.5475    1.0000 </r>
       <r>   -1.4887    1.0000 </r>
       <r>   -1.4758    1.0000 </r>
       <r>   -1.4549    1.0000 </r>
       <r>   -1.4341    1.0000 </r>
       <r>   -1.4074    1.0000 </r>
       <r>   -1.3865    1.0000 </r>
       <r>   -1.3394    1.0000 </r>
       <r>   -1.3176    1.0000 </r>
       <r>   -1.3109    1.0000 </r>
       <r>   -1.2965    1.0000 </r>
       <r>   -1.2732    1.0000 </r>
       <r>   -1.2520    1.0000 </r>
       <r>   -1.2329    1.0000 </r>
       <r>   -1.2202    1.0000 </r>
       <r>   -1.1936    1.0000 </r>
       <r>   -1.1834    1.0000 </r>
       <r>   -1.1351    1.0000 </r>
       <r>   -1.1286    1.0000 </r>
       <r>   -1.0997    1.0000 </r>
       <r>   -1.0899    1.0000 </r>
       <r>   -1.0829    1.0000 </r>
       <r>   -1.0641    1.0000 </r>
       <r>   -1.0366    1.0000 </r>
       <r>   -1.0094    1.0000 </r>
       <r>   -0.9836    1.0000 </r>
       <r>   -0.9803    1.0000 </r>
       <r>   -0.9618    1.0000 </r>
       <r>   -0.9531    1.0000 </r>
       <r>   -0.9138    1.0000 </r>
       <r>   -0.9058    1.0000 </r>
       <r>   -0.9007    1.0000 </r>
       <r>   -0.8751    1.0000 </r>
       <r>   -0.8469    1.0000 </r>
       <r>   -0.8242    1.0000 </r>
       <r>   -0.8067    1.0000 </r>
       <r>   -0.7890    1.0000 </r>
       <r>   -0.7858    1.0000 </r>
       <r>   -0.7613    1.0000 </r>
       <r>   -0.7465    1.0000 </r>
       <r>   -0.7305    1.0000 </r>
       <r>   -0.7193    1.0000 </r>
       <r>   -0.6876    1.0000 </r>
       <r>   -0.6839    1.0000 </r>
       <r>   -0.6748    1.0000 </r>
       <r>   -0.6694    1.0000 </r>
       <r>   -0.6293    1.0000 </r>
       <r>   -0.6252    1.0000 </r>
       <r>   -0.6168    1.0000 </r>
       <r>   -0.5943    1.0000 </r>
       <r>   -0.5807    1.0000 </r>
       <r>   -0.5587    1.0000 </r>
       <r>   -0.5386    1.0000 </r>
       <r>   -0.5208    1.0000 </r>
       <r>   -0.5144    1.0000 </r>
       <r>   -0.5075    1.0000 </r>
       <r>   -0.4944    1.0000 </r>
       <r>   -0.4865    1.0000 </r>
       <r>   -0.4682    1.0000 </r>
       <r>   -0.4516    1.0000 </r>
       <r>   -0.4494    1.0000 </r>
       <r>   -0.4357    1.0000 </r>
       <r>   -0.4124    1.0000 </r>
       <r>   -0.3992    1.0000 </r>
       <r>   -0.3812    1.0000 </r>
       <r>   -0.3757    1.0000 </r>
       <r>   -0.3600    1.0000 </r>
       <r>   -0.3420    1.0000 </r>
       <r>   -0.3323    1.0000 </r>
       <r>   -0.3286    1.0000 </r>
       <r>   -0.2933    1.0000 </r>
       <r>   -0.2809    1.0000 </r>
       <r>   -0.2670    1.0000 </r>
       <r>   -0.2627    1.0000 </r>
       <r>   -0.2456    1.0000 </r>
       <r>   -0.2372    1.0000 </r>
       <r>   -0.2175    1.0000 </r>
       <r>   -0.2063    1.0000 </r>
       <r>   -0.1954    1.0000 </r>
       <r>   -0.1833    1.0000 </r>
       <r>   -0.1707    1.0000 </r>
       <r>   -0.1599    1.0000 </r>
       <r>   -0.1354    1.0000 </r>
       <r>   -0.1298    1.0000 </r>
       <r>   -0.1095    1.0000 </r>
       <r>   -0.1048    1.0000 </r>
       <r>   -0.0800    1.0000 </r>
       <r>   -0.0715    1.0000 </r>
       <r>   -0.0484    1.0000 </r>
       <r>   -0.0343    1.0000 </r>
       <r>   -0.0278    1.0000 </r>
       <r>   -0.0080    1.0000 </r>
       <r>   -0.0029    1.0000 </r>
       <r>    0.0249    1.0000 </r>
       <r>    0.0485    1.0000 </r>
       <r>    0.0721    1.0000 </r>
       <r>    0.1053    1.0000 </r>
       <r>    0.1131    1.0000 </r>
       <r>    0.1244    1.0000 </r>
       <r>    0.1381    1.0000 </r>
       <r>    0.1786    1.0000 </r>
       <r>    0.1898    1.0000 </r>
       <r>    0.2254    1.0000 </r>
       <r>    0.2422    1.0000 </r>
       <r>    0.2746    1.0000 </r>
       <r>    0.3094    1.0000 </r>
       <r>    0.3410    1.0000 </r>
       <r>    0.3775    1.0000 </r>
       <r>    0.4044    1.0000 </r>
       <r>    0.4275    1.0000 </r>
       <r>    0.4502    1.0000 </r>
       <r>    0.4650    1.0000 </r>
       <r>    0.5038    1.0000 </r>
       <r>    0.5181    1.0000 </r>
       <r>    0.5680    1.0000 </r>
       <r>    0.5783    1.0000 </r>
       <r>    0.6829    1.0000 </r>
       <r>    0.6981    1.0000 </r>
       <r>    0.7238    1.0000 </r>
       <r>    0.7329    1.0000 </r>
       <r>    0.7950    1.0000 </r>
       <r>    0.8261    1.0000 </r>
       <r>    0.8543    1.0000 </r>
       <r>    0.8587    1.0000 </r>
       <r>    0.9274    1.0000 </r>
       <r>    0.9690    0.9999 </r>
       <r>    1.0118    0.9997 </r>
       <r>    1.0493    0.9992 </r>
       <r>    1.0866    0.9981 </r>
       <r>    1.1129    0.9966 </r>
       <r>    1.1768    0.9879 </r>
       <r>    1.2014    0.9813 </r>
       <r>    1.2827    0.9339 </r>
       <r>    1.3312    0.8777 </r>
       <r>    1.3955    0.7607 </r>
       <r>    1.4416    0.6490 </r>
       <r>    1.4720    0.5665 </r>
       <r>    1.5309    0.4016 </r>
       <r>    1.5643    0.3137 </r>
       <r>    1.5892    0.2543 </r>
       <r>    1.6725    0.1057 </r>
       <r>    1.7139    0.0614 </r>
       <r>    1.7314    0.0478 </r>
       <r>    1.7792    0.0225 </r>
       <r>    1.7880    0.0194 </r>
       <r>    1.8030    0.0149 </r>
       <r>    1.8674    0.0043 </r>
       <r>    1.9022    0.0020 </r>
       <r>    1.9192    0.0014 </r>
       <r>    1.9726    0.0004 </r>
       <r>    2.0032    0.0002 </r>
       <r>    2.0481    0.0000 </r>
       <r>    2.0965    0.0000 </r>
       <r>    2.1040    0.0000 </r>
       <r>    2.1732    0.0000 </r>
       <r>    2.2357    0.0000 </r>
       <r>    2.2533    0.0000 </r>
       <r>    2.3083    0.0000 </r>
       <r>    2.3590    0.0000 </r>
       <r>    2.3780    0.0000 </r>
       <r>    2.4175    0.0000 </r>
       <r>    2.4623    0.0000 </r>
       <r>    2.5004    0.0000 </r>
       <r>    2.5357    0.0000 </r>
       <r>    2.5654    0.0000 </r>
       <r>    2.5971    0.0000 </r>
       <r>    2.6190    0.0000 </r>
       <r>    2.6379    0.0000 </r>
       <r>    2.7553    0.0000 </r>
       <r>    2.7621    0.0000 </r>
       <r>    2.8567    0.0000 </r>
       <r>    2.8761    0.0000 </r>
       <r>    2.9613    0.0000 </r>
       <r>    3.7883    0.0000 </r>
       <r>    4.5276    0.0000 </r>
       <r>    4.5973    0.0000 </r>
       <r>    4.7888    0.0000 </r>
       <r>    4.9604    0.0000 </r>
       <r>    5.1261    0.0000 </r>
       <r>    5.2620    0.0000 </r>
       <r>    5.3383    0.0000 </r>
       <r>    5.5044    0.0000 </r>
       <r>    5.5435    0.0000 </r>
       <r>    5.6461    0.0000 </r>
       <r>    5.7350    0.0000 </r>
       <r>    5.7752    0.0000 </r>
       <r>    5.8513    0.0000 </r>
       <r>    5.8889    0.0000 </r>
       <r>    5.8944    0.0000 </r>
       <r>    6.0523    0.0000 </r>
       <r>    6.1214    0.0000 </r>
       <r>    6.2013    0.0000 </r>
       <r>    6.3344    0.0000 </r>
       <r>    6.4587    0.0000 </r>
       <r>    6.5079    0.0000 </r>
       <r>    6.5848    0.0000 </r>
       <r>    6.6208    0.0000 </r>
       <r>    6.6645    0.0000 </r>
       <r>    6.7084    0.0000 </r>
       <r>    6.7887    0.0000 </r>
       <r>    6.8127    0.0000 </r>
       <r>    6.9232    0.0000 </r>
       <r>    7.0006    0.0000 </r>
       <r>    7.0244    0.0000 </r>
       <r>    7.0459    0.0000 </r>
       <r>    7.0959    0.0000 </r>
       <r>    7.1570    0.0000 </r>
       <r>    7.1859    0.0000 </r>
       <r>    7.2066    0.0000 </r>
       <r>    7.2431    0.0000 </r>
       <r>    7.3132    0.0000 </r>
       <r>    7.3415    0.0000 </r>
       <r>    7.3652    0.0000 </r>
       <r>    7.3944    0.0000 </r>
       <r>    7.4367    0.0000 </r>
       <r>    7.4799    0.0000 </r>
       <r>    7.5533    0.0000 </r>
      </set>
     </set>
    </set>
   </array>
  </eigenvalues>
  <separator name="orbital magnetization" >
   <v name="MAGDIPOLOUT">      0.00000000      0.00000000      0.00000000</v>
  </separator>
  <dos>
   <i name="efermi">      1.49570534 </i>
   <total>
    <array>
     <dimension dim="1">gridpoints</dimension>
     <dimension dim="2">spin</dimension>
     <field>energy</field>
     <field>total</field>
     <field>integrated</field>
     <set>
      <set comment="spin 1">
       <r>   -66.8722     0.0000     0.0000 </r>
       <r>   -66.6123     0.0000     0.0000 </r>
       <r>   -66.3524     0.0000     0.0000 </r>
       <r>   -66.0925     0.0000     0.0000 </r>
       <r>   -65.8326     0.0000     0.0000 </r>
       <r>   -65.5727     0.0000     0.0000 </r>
       <r>   -65.3128     0.0000     0.0000 </r>
       <r>   -65.0529     0.0000     0.0000 </r>
       <r>   -64.7930     0.0000     0.0000 </r>
       <r>   -64.5331     0.0000     0.0000 </r>
       <r>   -64.2732     0.0000     0.0000 </r>
       <r>   -64.0133     0.0000     0.0000 </r>
       <r>   -63.7534     0.0186     0.0048 </r>
       <r>   -63.4935     2.4870     0.6512 </r>
       <r>   -63.2336    30.8875     8.6788 </r>
       <r>   -62.9737   113.8828    38.2768 </r>
       <r>   -62.7138   237.2276    99.9319 </r>
       <r>   -62.4539   267.7730   169.5257 </r>
       <r>   -62.1940   125.0193   202.0181 </r>
       <r>   -61.9341    37.2195   211.6914 </r>
       <r>   -61.6742    13.5148   215.2038 </r>
       <r>   -61.4144     2.9533   215.9714 </r>
       <r>   -61.1545     0.1099   215.9999 </r>
       <r>   -60.8946     0.0002   216.0000 </r>
       <r>   -60.6347     0.0000   216.0000 </r>
       <r>   -60.3748     0.0000   216.0000 </r>
       <r>   -60.1149     0.0000   216.0000 </r>
       <r>   -59.8550     0.0000   216.0000 </r>
       <r>   -59.5951     0.0000   216.0000 </r>
       <r>   -59.3352     0.0000   216.0000 </r>
       <r>   -59.0753     0.0000   216.0000 </r>
       <r>   -58.8154     0.0000   216.0000 </r>
       <r>   -58.5555     0.0000   216.0000 </r>
       <r>   -58.2956     0.0000   216.0000 </r>
       <r>   -58.0357     0.0000   216.0000 </r>
       <r>   -57.7758     0.0000   216.0000 </r>
       <r>   -57.5159     0.0000   216.0000 </r>
       <r>   -57.2560     0.0000   216.0000 </r>
       <r>   -56.9961     0.0000   216.0000 </r>
       <r>   -56.7362     0.0000   216.0000 </r>
       <r>   -56.4763     0.0000   216.0000 </r>
       <r>   -56.2164     0.0000   216.0000 </r>
       <r>   -55.9565     0.0000   216.0000 </r>
       <r>   -55.6966     0.0000   216.0000 </r>
       <r>   -55.4367     0.0000   216.0000 </r>
       <r>   -55.1768     0.0000   216.0000 </r>
       <r>   -54.9169     0.0000   216.0000 </r>
       <r>   -54.6570     0.0000   216.0000 </r>
       <r>   -54.3971     0.0000   216.0000 </r>
       <r>   -54.1372     0.0000   216.0000 </r>
       <r>   -53.8773     0.0000   216.0000 </r>
       <r>   -53.6174     0.0000   216.0000 </r>
       <r>   -53.3575     0.0000   216.0000 </r>
       <r>   -53.0976     0.0000   216.0000 </r>
       <r>   -52.8377     0.0000   216.0000 </r>
       <r>   -52.5778     0.0000   216.0000 </r>
       <r>   -52.3179     0.0000   216.0000 </r>
       <r>   -52.0580     0.0000   216.0000 </r>
       <r>   -51.7981     0.0000   216.0000 </r>
       <r>   -51.5382     0.0000   216.0000 </r>
       <r>   -51.2783     0.0000   216.0000 </r>
       <r>   -51.0184     0.0000   216.0000 </r>
       <r>   -50.7585     0.0000   216.0000 </r>
       <r>   -50.4986     0.0000   216.0000 </r>
       <r>   -50.2387     0.0000   216.0000 </r>
       <r>   -49.9788     0.0000   216.0000 </r>
       <r>   -49.7189     0.0000   216.0000 </r>
       <r>   -49.4590     0.0000   216.0000 </r>
       <r>   -49.1991     0.0000   216.0000 </r>
       <r>   -48.9392     0.0000   216.0000 </r>
       <r>   -48.6793     0.0000   216.0000 </r>
       <r>   -48.4194     0.0000   216.0000 </r>
       <r>   -48.1595     0.0000   216.0000 </r>
       <r>   -47.8996     0.0000   216.0000 </r>
       <r>   -47.6397     0.0000   216.0000 </r>
       <r>   -47.3798     0.0000   216.0000 </r>
       <r>   -47.1199     0.0000   216.0000 </r>
       <r>   -46.8600     0.0000   216.0000 </r>
       <r>   -46.6001     0.0000   216.0000 </r>
       <r>   -46.3402     0.0000   216.0000 </r>
       <r>   -46.0803     0.0000   216.0000 </r>
       <r>   -45.8204     0.0000   216.0000 </r>
       <r>   -45.5605     0.0000   216.0000 </r>
       <r>   -45.3006     0.0000   216.0000 </r>
       <r>   -45.0407     0.0000   216.0000 </r>
       <r>   -44.7808     0.0000   216.0000 </r>
       <r>   -44.5209     0.0000   216.0000 </r>
       <r>   -44.2610     0.0000   216.0000 </r>
       <r>   -44.0011     0.0000   216.0000 </r>
       <r>   -43.7413     0.0000   216.0000 </r>
       <r>   -43.4814     0.0000   216.0000 </r>
       <r>   -43.2215     0.0000   216.0000 </r>
       <r>   -42.9616     0.0000   216.0000 </r>
       <r>   -42.7017     0.0000   216.0000 </r>
       <r>   -42.4418     0.0000   216.0000 </r>
       <r>   -42.1819     0.0000   216.0000 </r>
       <r>   -41.9220     0.0000   216.0000 </r>
       <r>   -41.6621     0.0000   216.0000 </r>
       <r>   -41.4022     0.0000   216.0000 </r>
       <r>   -41.1423     0.0000   216.0000 </r>
       <r>   -40.8824     0.0000   216.0000 </r>
       <r>   -40.6225     0.0000   216.0000 </r>
       <r>   -40.3626     0.0000   216.0000 </r>
       <r>   -40.1027     0.0000   216.0000 </r>
       <r>   -39.8428     0.0000   216.0000 </r>
       <r>   -39.5829     0.0000   216.0000 </r>
       <r>   -39.3230     0.0000   216.0000 </r>
       <r>   -39.0631     0.0000   216.0000 </r>
       <r>   -38.8032     0.0000   216.0000 </r>
       <r>   -38.5433     0.0000   216.0000 </r>
       <r>   -38.2834     0.0000   216.0000 </r>
       <r>   -38.0235     0.0000   216.0000 </r>
       <r>   -37.7636     0.0000   216.0000 </r>
       <r>   -37.5037     0.0000   216.0000 </r>
       <r>   -37.2438     0.0000   216.0000 </r>
       <r>   -36.9839     0.0000   216.0000 </r>
       <r>   -36.7240     0.0000   216.0000 </r>
       <r>   -36.4641     0.0000   216.0000 </r>
       <r>   -36.2042     0.0000   216.0000 </r>
       <r>   -35.9443     0.0000   216.0000 </r>
       <r>   -35.6844     0.0000   216.0000 </r>
       <r>   -35.4245     0.0000   216.0000 </r>
       <r>   -35.1646     0.0000   216.0000 </r>
       <r>   -34.9047     0.0000   216.0000 </r>
       <r>   -34.6448     0.0000   216.0000 </r>
       <r>   -34.3849     0.0000   216.0000 </r>
       <r>   -34.1250     0.0000   216.0000 </r>
       <r>   -33.8651     0.0000   216.0000 </r>
       <r>   -33.6052     0.0000   216.0000 </r>
       <r>   -33.3453     0.0000   216.0000 </r>
       <r>   -33.0854     0.0000   216.0000 </r>
       <r>   -32.8255     0.0000   216.0000 </r>
       <r>   -32.5656     0.0000   216.0000 </r>
       <r>   -32.3057     0.0000   216.0000 </r>
       <r>   -32.0458     0.0000   216.0000 </r>
       <r>   -31.7859     0.0000   216.0000 </r>
       <r>   -31.5260     0.0000   216.0000 </r>
       <r>   -31.2661     0.0000   216.0000 </r>
       <r>   -31.0062     0.0000   216.0000 </r>
       <r>   -30.7463     0.0000   216.0000 </r>
       <r>   -30.4864     0.0000   216.0000 </r>
       <r>   -30.2265     0.0000   216.0000 </r>
       <r>   -29.9666     0.0000   216.0000 </r>
       <r>   -29.7067     0.0000   216.0000 </r>
       <r>   -29.4468     0.0000   216.0000 </r>
       <r>   -29.1869     0.0000   216.0000 </r>
       <r>   -28.9270     0.0000   216.0000 </r>
       <r>   -28.6671     0.0000   216.0000 </r>
       <r>   -28.4072     0.0000   216.0000 </r>
       <r>   -28.1473     0.0000   216.0000 </r>
       <r>   -27.8874     0.0000   216.0000 </r>
       <r>   -27.6275     0.0000   216.0000 </r>
       <r>   -27.3676     0.0000   216.0000 </r>
       <r>   -27.1077     0.0000   216.0000 </r>
       <r>   -26.8478     0.0000   216.0000 </r>
       <r>   -26.5879     0.0000   216.0000 </r>
       <r>   -26.3280     0.0000   216.0000 </r>
       <r>   -26.0681     0.0000   216.0000 </r>
       <r>   -25.8083     0.0000   216.0000 </r>
       <r>   -25.5484     0.0000   216.0000 </r>
       <r>   -25.2885     0.0000   216.0000 </r>
       <r>   -25.0286     0.0000   216.0000 </r>
       <r>   -24.7687     0.0000   216.0000 </r>
       <r>   -24.5088     0.0000   216.0000 </r>
       <r>   -24.2489     0.0000   216.0000 </r>
       <r>   -23.9890     0.0000   216.0000 </r>
       <r>   -23.7291     0.0000   216.0000 </r>
       <r>   -23.4692     0.0000   216.0000 </r>
       <r>   -23.2093     0.0000   216.0000 </r>
       <r>   -22.9494     0.0000   216.0000 </r>
       <r>   -22.6895     0.0000   216.0000 </r>
       <r>   -22.4296     0.0000   216.0000 </r>
       <r>   -22.1697     0.0000   216.0000 </r>
       <r>   -21.9098     0.0000   216.0000 </r>
       <r>   -21.6499     0.0000   216.0000 </r>
       <r>   -21.3900     0.0000   216.0000 </r>
       <r>   -21.1301     0.0000   216.0000 </r>
       <r>   -20.8702     0.0000   216.0000 </r>
       <r>   -20.6103     0.0000   216.0000 </r>
       <r>   -20.3504     0.0000   216.0000 </r>
       <r>   -20.0905     0.0000   216.0000 </r>
       <r>   -19.8306     0.0000   216.0000 </r>
       <r>   -19.5707     0.0000   216.0000 </r>
       <r>   -19.3108     0.0000   216.0000 </r>
       <r>   -19.0509     0.0000   216.0000 </r>
       <r>   -18.7910     0.0000   216.0000 </r>
       <r>   -18.5311     0.0000   216.0000 </r>
       <r>   -18.2712     0.0000   216.0000 </r>
       <r>   -18.0113     0.0000   216.0000 </r>
       <r>   -17.7514     0.0000   216.0000 </r>
       <r>   -17.4915     0.0000   216.0000 </r>
       <r>   -17.2316     0.0000   216.0000 </r>
       <r>   -16.9717     0.0000   216.0000 </r>
       <r>   -16.7118     0.0000   216.0000 </r>
       <r>   -16.4519     0.0000   216.0000 </r>
       <r>   -16.1920     0.0000   216.0000 </r>
       <r>   -15.9321     0.0000   216.0000 </r>
       <r>   -15.6722     0.0000   216.0000 </r>
       <r>   -15.4123     0.0000   216.0000 </r>
       <r>   -15.1524     0.0434   216.0113 </r>
       <r>   -14.8925     1.8583   216.4943 </r>
       <r>   -14.6326     6.4015   218.1580 </r>
       <r>   -14.3727     6.4479   219.8338 </r>
       <r>   -14.1128     7.2747   221.7245 </r>
       <r>   -13.8529    12.5786   224.9936 </r>
       <r>   -13.5930    16.1743   229.1973 </r>
       <r>   -13.3331    21.1974   234.7065 </r>
       <r>   -13.0732    23.6954   240.8649 </r>
       <r>   -12.8133    25.0022   247.3629 </r>
       <r>   -12.5534    27.1387   254.4162 </r>
       <r>   -12.2935    31.1806   262.5200 </r>
       <r>   -12.0336    29.9684   270.3088 </r>
       <r>   -11.7737    32.1538   278.6655 </r>
       <r>   -11.5138    24.4926   285.0311 </r>
       <r>   -11.2539     9.7380   287.5620 </r>
       <r>   -10.9940     1.6552   287.9922 </r>
       <r>   -10.7341     0.0300   288.0000 </r>
       <r>   -10.4742     0.0000   288.0000 </r>
       <r>   -10.2143     0.0000   288.0000 </r>
       <r>    -9.9544     0.0000   288.0000 </r>
       <r>    -9.6945     0.0000   288.0000 </r>
       <r>    -9.4346     0.0000   288.0000 </r>
       <r>    -9.1747     0.0000   288.0000 </r>
       <r>    -8.9148     0.0000   288.0000 </r>
       <r>    -8.6549     0.0000   288.0000 </r>
       <r>    -8.3950     0.0000   288.0000 </r>
       <r>    -8.1352     0.0000   288.0000 </r>
       <r>    -7.8753     0.0000   288.0000 </r>
       <r>    -7.6154     0.0000   288.0000 </r>
       <r>    -7.3555     0.0000   288.0000 </r>
       <r>    -7.0956     0.0000   288.0000 </r>
       <r>    -6.8357     0.0259   288.0067 </r>
       <r>    -6.5758     1.5658   288.4137 </r>
       <r>    -6.3159     9.2611   290.8206 </r>
       <r>    -6.0560    20.6436   296.1859 </r>
       <r>    -5.7961    32.9846   304.7585 </r>
       <r>    -5.5362    42.8784   315.9025 </r>
       <r>    -5.2763    51.1936   329.2077 </r>
       <r>    -5.0164    44.3613   340.7371 </r>
       <r>    -4.7565    40.2539   351.1991 </r>
       <r>    -4.4966    37.0696   360.8334 </r>
       <r>    -4.2367    36.0326   370.1982 </r>
       <r>    -3.9768    43.8849   381.6038 </r>
       <r>    -3.7169    59.0606   396.9536 </r>
       <r>    -3.4570    70.6030   415.3032 </r>
       <r>    -3.1971    72.3830   434.1154 </r>
       <r>    -2.9372    60.4130   449.8167 </r>
       <r>    -2.6773    64.6103   466.6088 </r>
       <r>    -2.4174    50.7356   479.7949 </r>
       <r>    -2.1575    33.8129   488.5828 </r>
       <r>    -1.8976    39.3758   498.8165 </r>
       <r>    -1.6377    53.3382   512.6791 </r>
       <r>    -1.3778    74.5303   532.0494 </r>
       <r>    -1.1179    95.0009   556.7400 </r>
       <r>    -0.8580   107.8140   584.7607 </r>
       <r>    -0.5981   124.4737   617.1112 </r>
       <r>    -0.3382   141.4505   653.8740 </r>
       <r>    -0.0783   139.7285   690.1892 </r>
       <r>     0.1816   107.9752   718.2518 </r>
       <r>     0.4415    76.2458   738.0680 </r>
       <r>     0.7014    61.6256   754.0844 </r>
       <r>     0.9613    55.4224   768.4886 </r>
       <r>     1.2212    46.7425   780.6369 </r>
       <r>     1.4811    41.2442   791.3562 </r>
       <r>     1.7410    48.9409   804.0759 </r>
       <r>     2.0009    54.9851   818.3665 </r>
       <r>     2.2608    49.0761   831.1213 </r>
       <r>     2.5207    51.5278   844.5133 </r>
       <r>     2.7806    46.0226   856.4745 </r>
       <r>     3.0405    24.6571   862.8828 </r>
       <r>     3.3004     4.2193   863.9794 </r>
       <r>     3.5603     0.4902   864.1068 </r>
       <r>     3.8202     4.1223   865.1782 </r>
       <r>     4.0801     3.0184   865.9627 </r>
       <r>     4.3400     1.1245   866.2550 </r>
       <r>     4.5999     9.0161   868.5982 </r>
       <r>     4.8598    12.4869   871.8436 </r>
       <r>     5.1197    12.6446   875.1299 </r>
       <r>     5.3796    16.6209   879.4496 </r>
       <r>     5.6395    22.1606   885.2091 </r>
       <r>     5.8994    30.2419   893.0690 </r>
       <r>     6.1593    25.2809   899.6395 </r>
       <r>     6.4192    21.1131   905.1267 </r>
       <r>     6.6791    31.4115   913.2905 </r>
       <r>     6.9390    35.3218   922.4706 </r>
       <r>     7.1989    44.8234   934.1201 </r>
       <r>     7.4588    47.0010   946.3356 </r>
       <r>     7.7187    20.1511   951.5729 </r>
       <r>     7.9786     1.6310   951.9968 </r>
       <r>     8.2385     0.0125   952.0000 </r>
       <r>     8.4984     0.0000   952.0000 </r>
       <r>     8.7583     0.0000   952.0000 </r>
       <r>     9.0182     0.0000   952.0000 </r>
       <r>     9.2781     0.0000   952.0000 </r>
       <r>     9.5380     0.0000   952.0000 </r>
       <r>     9.7978     0.0000   952.0000 </r>
       <r>    10.0577     0.0000   952.0000 </r>
       <r>    10.3176     0.0000   952.0000 </r>
       <r>    10.5775     0.0000   952.0000 </r>
       <r>    10.8374     0.0000   952.0000 </r>
       <r>    11.0973     0.0000   952.0000 </r>
      </set>
     </set>
    </array>
   </total>
  </dos>
 </calculation>
 <structure name="finalpos" >
  <crystal>
   <varray name="basis" >
    <v>      10.07973298       0.00000000       0.00000000 </v>
    <v>       3.57329804       9.42510255       0.00000000 </v>
    <v>       0.00000000       0.00000000      20.51013988 </v>
   </varray>
   <i name="volume">   1948.51491473 </i>
   <varray name="rec_basis" >
    <v>       0.09920898      -0.03761267       0.00000000 </v>
    <v>       0.00000000       0.10609964       0.00000000 </v>
    <v>       0.00000000       0.00000000       0.04875637 </v>
   </varray>
  </crystal>
  <varray name="positions" >
   <v>       0.37433215       0.75136220       0.09511235 </v>
   <v>       0.52460066       0.60109368       0.22312232 </v>
   <v>       0.67486918       0.45082517       0.35113229 </v>
   <v>       0.76306420       0.33990696       0.46373807 </v>
   <v>       0.56248419       0.16575500       0.07303246 </v>
   <v>       0.75775499       0.03460603       0.13778234 </v>
   <v>       0.05829201       0.73406900       0.39380228 </v>
   <v>       0.90802350       0.88433751       0.26579231 </v>
   <v>       0.14117783       0.31784985       0.18045233 </v>
   <v>       0.29144634       0.16758134       0.30846230 </v>
   <v>       0.43876313       0.02999410       0.41781963 </v>
   <v>       0.98731684       0.46614416       0.08525470 </v>
   <v>       0.99379868       0.12855820       0.39528859 </v>
   <v>       0.57263237       0.56408070       0.04959754 </v>
   <v>       0.70940298       0.41629137       0.15548031 </v>
   <v>       0.85967149       0.26602286       0.28349028 </v>
   <v>       0.09282582       0.69953520       0.19815030 </v>
   <v>       0.24309433       0.54926669       0.32616027 </v>
   <v>       0.37567670       0.40664664       0.43403650 </v>
   <v>       0.94255730       0.84980371       0.07014033 </v>
   <v>       0.32598014       0.13304754       0.11281032 </v>
   <v>       0.47624865       0.98277903       0.24082029 </v>
   <v>       0.61263344       0.84364483       0.35124280 </v>
   <v>       0.84327782       0.68262268       0.38359130 </v>
   <v>       0.03720422       0.37072838       0.42754528 </v>
   <v>       0.62219542       0.79045753       0.08249912 </v>
   <v>       0.74910482       0.64079553       0.18930132 </v>
   <v>       0.89937333       0.49052701       0.31731128 </v>
   <v>       0.98225915       0.07430787       0.10396133 </v>
   <v>       0.13252766       0.92403936       0.23197130 </v>
   <v>       0.28279617       0.77377084       0.35998128 </v>
   <v>       0.40618266       0.61734582       0.47659565 </v>
   <v>       0.24684820       0.52227686       0.04471356 </v>
   <v>       0.36568198       0.35755170       0.14663132 </v>
   <v>       0.51595050       0.20728318       0.27464130 </v>
   <v>       0.66440396       0.06806182       0.38934573 </v>
   <v>       0.06382158       0.26208477       0.34135992 </v>
   <v>       0.76328455       0.56262179       0.08533998 </v>
   <v>       0.91355306       0.41235328       0.21334995 </v>
   <v>       0.14670739       0.84586562       0.12800997 </v>
   <v>       0.29697590       0.69559711       0.25601994 </v>
   <v>       0.44724441       0.54532860       0.38402991 </v>
   <v>       0.54700245       0.41419381       0.49176840 </v>
   <v>       0.97230853       0.99976543       0.01577938 </v>
   <v>       0.35443765       0.29320266       0.05183828 </v>
   <v>       0.53013023       0.12910945       0.17067996 </v>
   <v>       0.68039874       0.97884094       0.29868993 </v>
   <v>       0.83603121       0.87634561       0.41302524 </v>
   <v>       0.41202622       0.93405527       0.06538768 </v>
   <v>       0.52796422       0.79794212       0.17147277 </v>
   <v>       0.67823274       0.64767361       0.29948274 </v>
   <v>       0.82850125       0.49740510       0.42749271 </v>
   <v>       0.75177750       0.22545566       0.09874202 </v>
   <v>       0.91138706       0.08118595       0.21414276 </v>
   <v>       0.06165557       0.93091744       0.34215273 </v>
   <v>       0.21403443       0.76244099       0.45301048 </v>
   <v>       0.14454139       0.51469829       0.12880278 </v>
   <v>       0.29480990       0.36442978       0.25681275 </v>
   <v>       0.44507841       0.21416127       0.38482272 </v>
   <v>       0.02454798       0.63865233       0.03228650 </v>
   <v>       0.36825405       0.63667378       0.01352385 </v>
   <v>       0.47740939       0.51206696       0.12840637 </v>
   <v>       0.62767790       0.36179845       0.25641634 </v>
   <v>       0.77794641       0.21152993       0.38442632 </v>
   <v>       0.97540235       0.23141491       0.48309026 </v>
   <v>       0.01110074       0.64504227       0.29908634 </v>
   <v>       0.15623753       0.50898565       0.41503487 </v>
   <v>       0.71007378       0.94639715       0.05479260 </v>
   <v>       0.86083223       0.79531079       0.17107636 </v>
   <v>       0.09117331       0.23171661       0.09721009 </v>
   <v>       0.24425506       0.07855462       0.21374635 </v>
   <v>       0.39452358       0.92828611       0.34175632 </v>
  </varray>
 </structure>
</modeling>
