       N       E                     dE             d eps       ncg     rms          rms(c)
DAV:   1     0.996806822569E+04    0.99681E+04   -0.51354E+05  1160   0.165E+03
DAV:   2     0.617293784621E+03   -0.93508E+04   -0.90233E+04  1004   0.533E+02
DAV:   3    -0.341104823502E+03   -0.95840E+03   -0.90876E+03  1096   0.185E+02
DAV:   4    -0.399594376882E+03   -0.58490E+02   -0.57769E+02  1088   0.414E+01
DAV:   5    -0.402011470791E+03   -0.24171E+01   -0.24131E+01  1256   0.893E+00    0.941E+01
DAV:   6    -0.459964031059E+03   -0.57953E+02   -0.92689E+02  1176   0.118E+02    0.146E+02
DAV:   7    -0.364772430210E+03    0.95192E+02   -0.19005E+02  1088   0.748E+01    0.595E+01
DAV:   8    -0.418815210598E+03   -0.54043E+02   -0.20183E+02  1248   0.868E+01    0.123E+02
DAV:   9    -0.373580775110E+03    0.45234E+02   -0.11759E+02  1224   0.596E+01    0.543E+01
DAV:  10    -0.380049745295E+03   -0.64690E+01   -0.59126E+01  1328   0.465E+01    0.662E+01
DAV:  11    -0.370664371656E+03    0.93854E+01   -0.44825E+01  1288   0.425E+01    0.431E+01
DAV:  12    -0.364877191057E+03    0.57872E+01   -0.27383E+01  1280   0.358E+01    0.455E+01
DAV:  13    -0.359783486993E+03    0.50937E+01   -0.24228E+01  1320   0.254E+01    0.275E+01
DAV:  14    -0.357751542952E+03    0.20319E+01   -0.91290E+00  1312   0.186E+01    0.226E+01
DAV:  15    -0.355633951488E+03    0.21176E+01   -0.31732E+00  1312   0.116E+01    0.157E+01
DAV:  16    -0.355426849800E+03    0.20710E+00   -0.16401E+00  1304   0.810E+00    0.153E+01
DAV:  17    -0.354866345194E+03    0.56050E+00   -0.77387E-01  1304   0.564E+00    0.125E+01
DAV:  18    -0.354678064109E+03    0.18828E+00   -0.38721E-01  1288   0.402E+00    0.116E+01
DAV:  19    -0.354326969834E+03    0.35109E+00   -0.23856E-01  1304   0.330E+00    0.974E+00
DAV:  20    -0.353946462915E+03    0.38051E+00   -0.36093E-01  1400   0.411E+00    0.750E+00
DAV:  21    -0.353747344138E+03    0.19912E+00   -0.39798E-01  1304   0.402E+00    0.546E+00
DAV:  22    -0.353644534686E+03    0.10281E+00   -0.21638E-01  1280   0.271E+00    0.329E+00
DAV:  23    -0.353665907834E+03   -0.21373E-01   -0.13177E-01  1272   0.238E+00    0.374E+00
DAV:  24    -0.353618135777E+03    0.47772E-01   -0.97732E-02  1144   0.223E+00    0.252E+00
DAV:  25    -0.353623876695E+03   -0.57409E-02   -0.58797E-02  1296   0.160E+00    0.262E+00
DAV:  26    -0.353593273490E+03    0.30603E-01   -0.47039E-02  1320   0.142E+00    0.149E+00
DAV:  27    -0.353589859311E+03    0.34142E-02   -0.25897E-02  1304   0.996E-01    0.115E+00
DAV:  28    -0.353584507732E+03    0.53516E-02   -0.13373E-02  1288   0.811E-01    0.570E-01
DAV:  29    -0.353584525838E+03   -0.18106E-04   -0.36645E-03  1224   0.324E-01    0.483E-01
DAV:  30    -0.353584409481E+03    0.11636E-03   -0.22196E-03  1040   0.321E-01    0.412E-01
DAV:  31    -0.353584592865E+03   -0.18338E-03   -0.11931E-03  1144   0.222E-01    0.350E-01
DAV:  32    -0.353584446585E+03    0.14628E-03   -0.10268E-03  1024   0.246E-01    0.262E-01
DAV:  33    -0.353584650677E+03   -0.20409E-03   -0.55560E-04   936   0.148E-01    0.176E-01
DAV:  34    -0.353584702094E+03   -0.51416E-04   -0.20046E-04   624   0.992E-02
   1 F= -.35358470E+03 E0= -.35313633E+03  d E =-.896738E+00
