 vasp.6.1.0 28Jan20 (build Mar 31 2020 17:42:31) gamma-only                     
  
 executed on             LinuxIFC date 2020.04.12  15:40:04
 running on   48 total cores
 distrk:  each k-point on   48 cores,    1 groups
 distr:  one band on NCORE=   6 cores,    8 groups


--------------------------------------------------------------------------------------------------------


 INCAR:
 POTCAR:    PAW_PBE Ni_pv 06Sep2000               
 POTCAR:    PAW_PBE S 06Sep2000                   
 POTCAR:    PAW_PBE Ni_pv 06Sep2000               
   VRHFIN =Ni:                                                                                      
   LEXCH  = PE                                                                                      
   EATOM  =  3501.1230 eV,  257.3253 Ry                                                             
                                                                                                    
   TITEL  = PAW_PBE Ni_pv 06Sep2000                                                                 
   LULTRA =        F    use ultrasoft PP ?                                                          
   IUNSCR =        1    unscreen: 0-lin 1-nonlin 2-no                                               
   RPACOR =    1.500    partial core radius                                                         
   POMASS =   58.690; ZVAL   =   16.000    mass and valenz                                          
   RCORE  =    2.000    outmost cutoff radius                                                       
   RWIGS  =    2.000; RWIGS  =    1.058    wigner-seitz radius (au A)                               
   ENMAX  =  367.986; ENMIN  =  275.989 eV                                                          
   RCLOC  =    1.301    cutoff for local pot                                                        
   LCOR   =        T    correct aug charges                                                         
   LPAW   =        T    paw PP                                                                      
   EAUG   =  703.443                                                                                
   DEXC   =    0.000                                                                                
   RMAX   =    2.041    core radius for proj-oper                                                   
   RAUG   =    1.300    factor for augmentation sphere                                              
   RDEP   =    2.103    radius for radial grids                                                     
   RDEPT  =    1.618    core radius for aug-charge                                                  
                                                                                                    
   Atomic configuration                                                                             
    8 entries                                                                                       
     n  l   j            E        occ.                                                              
     1  0  0.50     -8206.4253   2.0000                                                             
     2  0  0.50      -976.1748   2.0000                                                             
     2  1  1.50      -839.0571   6.0000                                                             
     3  0  0.50      -105.9991   2.0000                                                             
     3  1  1.50       -66.4603   6.0000                                                             
     3  2  2.50        -4.6458   9.0000                                                             
     4  0  0.50        -4.4926   1.0000                                                             
     4  3  2.50        -1.3606   0.0000                                                             
   Description                                                                                      
     l       E           TYP  RCUT    TYP  RCUT                                                     
     1    -66.4602962     23  1.700                                                                 
     1     -1.3605826     23  1.700                                                                 
     2     -4.6457867     23  2.000                                                                 
     2     -6.0063693     23  2.000                                                                 
     0     -4.4925576     23  1.900                                                                 
     0     16.3626226     23  1.900                                                                 
  local pseudopotential read in
  partial core-charges read in
  partial kinetic energy density read in
  atomic valenz-charges read in
  non local Contribution for L=           1  read in
    real space projection operators read in
  non local Contribution for L=           1  read in
    real space projection operators read in
  non local Contribution for L=           2  read in
    real space projection operators read in
  non local Contribution for L=           2  read in
    real space projection operators read in
  non local Contribution for L=           0  read in
    real space projection operators read in
  non local Contribution for L=           0  read in
    real space projection operators read in
    PAW grid and wavefunctions read in
 
   number of l-projection  operators is LMAX  =           6
   number of lm-projection operators is LMMAX =          18
 
 POTCAR:    PAW_PBE S 06Sep2000                   
   VRHFIN =S : s2p4                                                                                 
   LEXCH  = PE                                                                                      
   EATOM  =   276.8230 eV,   20.3459 Ry                                                             
                                                                                                    
   TITEL  = PAW_PBE S 06Sep2000                                                                     
   LULTRA =        F    use ultrasoft PP ?                                                          
   IUNSCR =        1    unscreen: 0-lin 1-nonlin 2-no                                               
   RPACOR =    1.500    partial core radius                                                         
   POMASS =   32.066; ZVAL   =    6.000    mass and valenz                                          
   RCORE  =    1.900    outmost cutoff radius                                                       
   RWIGS  =    2.200; RWIGS  =    1.164    wigner-seitz radius (au A)                               
   ENMAX  =  258.689; ENMIN  =  194.016 eV                                                          
   ICORE  =        2    local potential                                                             
   LCOR   =        T    correct aug charges                                                         
   LPAW   =        T    paw PP                                                                      
   EAUG   =  335.092                                                                                
   DEXC   =    0.000                                                                                
   RMAX   =    1.942    core radius for proj-oper                                                   
   RAUG   =    1.300    factor for augmentation sphere                                              
   RDEP   =    1.954    radius for radial grids                                                     
   RDEPT  =    1.744    core radius for aug-charge                                                  
                                                                                                    
   Atomic configuration                                                                             
    6 entries                                                                                       
     n  l   j            E        occ.                                                              
     1  0  0.50     -2405.8406   2.0000                                                             
     2  0  0.50      -211.7007   2.0000                                                             
     2  1  1.50      -156.4958   6.0000                                                             
     3  0  0.50       -17.2562   2.0000                                                             
     3  1  0.50        -7.0085   4.0000                                                             
     3  2  1.50        -6.8029   0.0000                                                             
   Description                                                                                      
     l       E           TYP  RCUT    TYP  RCUT                                                     
     0    -17.2561641     23  1.900                                                                 
     0    -15.8743224     23  1.900                                                                 
     1     -7.0085400     23  1.900                                                                 
     1     -2.7779785     23  1.900                                                                 
     2     -6.8029130     23  1.900                                                                 
  local pseudopotential read in
  partial core-charges read in
  partial kinetic energy density read in
  atomic valenz-charges read in
  non local Contribution for L=           0  read in
    real space projection operators read in
  non local Contribution for L=           0  read in
    real space projection operators read in
  non local Contribution for L=           1  read in
    real space projection operators read in
  non local Contribution for L=           1  read in
    real space projection operators read in
    PAW grid and wavefunctions read in
 
   number of l-projection  operators is LMAX  =           4
   number of lm-projection operators is LMMAX =           8
 
 Optimization of the real space projectors (new method)

 maximal supplied QI-value         = 18.90
 optimisation between [QCUT,QGAM] = [ 10.77, 21.73] = [ 32.49,132.25] Ry 
 Optimized for a Real-space Cutoff    1.38 Angstroem

   l    n(q)    QCUT    max X(q) W(low)/X(q) W(high)/X(q)  e(spline) 
   1      8    10.771     2.836    0.40E-04    0.29E-04    0.12E-06
   1      8    10.771     4.023    0.10E-03    0.48E-04    0.29E-06
   2      8    10.771    73.368    0.42E-03    0.97E-04    0.44E-06
   2      8    10.771    69.010    0.42E-03    0.99E-04    0.45E-06
   0      9    10.771    54.797    0.10E-03    0.56E-04    0.74E-07
   0      9    10.771    24.266    0.89E-04    0.49E-04    0.67E-07
 Optimization of the real space projectors (new method)

 maximal supplied QI-value         = 19.84
 optimisation between [QCUT,QGAM] = [ 10.71, 21.63] = [ 32.15,130.99] Ry 
 Optimized for a Real-space Cutoff    1.19 Angstroem

   l    n(q)    QCUT    max X(q) W(low)/X(q) W(high)/X(q)  e(spline) 
   0      8    10.715   187.594    0.41E-03    0.53E-04    0.66E-07
   0      8    10.715   164.243    0.41E-03    0.53E-04    0.65E-07
   1      7    10.715    67.533    0.19E-03    0.59E-03    0.68E-07
   1      7    10.715    50.729    0.19E-03    0.58E-03    0.67E-07
  PAW_PBE Ni_pv 06Sep2000               :
 energy of atom  1       EATOM=-3501.1230
 kinetic energy error for atom=    0.0925 (will be added to EATOM!!)
  PAW_PBE S 06Sep2000                   :
 energy of atom  2       EATOM= -276.8230
 kinetic energy error for atom=    0.0033 (will be added to EATOM!!)
 
 
 POSCAR: Structure 11 made from -121-6.xsd file
  positions in direct lattice
  No initial velocities read in
 exchange correlation table for  LEXCH =        8
   RHO(1)=    0.500       N(1)  =     2000
   RHO(2)=  100.500       N(2)  =     4000
 


--------------------------------------------------------------------------------------------------------


 ion  position               nearest neighbor table
   1  0.374  0.751  0.095-  41 2.25  50 2.26  62 2.26  63 2.36  51 2.36  26 2.53  14 2.53
   2  0.525  0.601  0.223-  42 2.25  51 2.26  63 2.26  64 2.36  52 2.36  15 2.53  27 2.53
   3  0.675  0.451  0.351-  43 2.25  64 2.26  52 2.26  65 2.36  53 2.36  28 2.53  16 2.53
   4  0.825  0.301  0.479-  44 2.25  65 2.26  53 2.26  13 2.53  25 2.53
   5  0.607  0.185  0.010-  46 2.25  67 2.36  54 2.36
   6  0.758  0.035  0.138-  47 2.25  54 2.26  67 2.26  55 2.36  68 2.36  29 2.53  20 2.53
   7  0.058  0.734  0.394-  49 2.25  66 2.26  56 2.26  57 2.36  18 2.53  31 2.53
   8  0.908  0.884  0.266-  48 2.25  55 2.26  68 2.26  56 2.36  66 2.36  30 2.53  17 2.53
   9  0.141  0.318  0.180-  40 2.25  58 2.26  69 2.26  70 2.36  59 2.36  34 2.53  21 2.53
  10  0.291  0.168  0.308-  37 2.25  59 2.26  70 2.26  60 2.36  71 2.36  35 2.53  22 2.53
  11  0.442  0.017  0.436-  38 2.25  71 2.26  60 2.26  72 2.36  23 2.53  36 2.53
  12  0.991  0.468  0.052-  39 2.25  61 2.26  58 2.36  69 2.36  33 2.53
  13  0.010  0.116  0.412-  56 2.25  65 2.26  37 2.26  38 2.36  25 2.53   4 2.53
  14  0.559  0.567  0.027-  62 2.26  63 2.36  39 2.36  26 2.53   1 2.53
  15  0.709  0.416  0.155-  54 2.25  39 2.26  63 2.26  40 2.36  64 2.36  27 2.53   2 2.53
  16  0.860  0.266  0.283-  55 2.25  64 2.26  40 2.26  37 2.36  65 2.36   3 2.53  28 2.53
  17  0.093  0.700  0.198-  58 2.25  41 2.26  68 2.26  42 2.36  66 2.36  30 2.53   8 2.53
  18  0.243  0.549  0.326-  59 2.25  66 2.26  42 2.26  43 2.36   7 2.53  31 2.53
  19  0.393  0.399  0.454-  60 2.25  43 2.26  44 2.36  32 2.53
  20  0.943  0.850  0.070-  61 2.25  67 2.26  45 2.26  68 2.36  41 2.36   6 2.53  29 2.53
  21  0.326  0.133  0.113-  50 2.25  46 2.26  69 2.26  70 2.36  47 2.36  34 2.53   9 2.53
  22  0.476  0.983  0.241-  51 2.25  70 2.26  47 2.26  48 2.36  71 2.36  35 2.53  10 2.53
  23  0.627  0.833  0.369-  52 2.25  71 2.26  48 2.26  49 2.36  72 2.36  36 2.53  11 2.53
  24  0.777  0.682  0.497-  53 2.25  72 2.26  49 2.26
  25  0.050  0.340  0.445-  53 2.26  37 2.26  38 2.36  13 2.53   4 2.53
  26  0.599  0.791  0.061-  67 2.25  50 2.26  39 2.36  51 2.36  14 2.53   1 2.53
  27  0.749  0.641  0.189-  68 2.25  51 2.26  39 2.26  40 2.36  52 2.36  15 2.53   2 2.53
  28  0.899  0.491  0.317-  66 2.25  52 2.26  40 2.26  53 2.36  37 2.36   3 2.53  16 2.53
  29  0.982  0.074  0.104-  69 2.25  45 2.26  54 2.26  41 2.36  55 2.36   6 2.53  20 2.53
  30  0.133  0.924  0.232-  70 2.25  55 2.26  41 2.26  56 2.36  42 2.36   8 2.53  17 2.53
  31  0.283  0.774  0.360-  71 2.25  56 2.26  42 2.26  43 2.36  57 2.36   7 2.53  18 2.53
  32  0.433  0.624  0.488-  72 2.25  57 2.26  43 2.26  44 2.36  19 2.53
  33  0.215  0.508  0.019-  62 2.25  61 2.26  46 2.36  58 2.36  12 2.53
  34  0.366  0.358  0.147-  63 2.25  46 2.26  58 2.26  47 2.36  59 2.36  21 2.53   9 2.53
  35  0.516  0.207  0.275-  64 2.25  59 2.26  47 2.26  48 2.36  60 2.36  10 2.53  22 2.53
  36  0.666  0.057  0.403-  65 2.25  60 2.26  48 2.26  49 2.36  23 2.53  11 2.53
  37  0.064  0.262  0.341-  10 2.25  13 2.26  25 2.26  16 2.36  28 2.36
  38  0.214  0.112  0.469-  11 2.25  25 2.36  13 2.36
  39  0.763  0.563  0.085-  12 2.25  15 2.26  27 2.26  14 2.36  26 2.36
  40  0.914  0.412  0.213-   9 2.25  16 2.26  28 2.26  27 2.36  15 2.36
  41  0.147  0.846  0.128-   1 2.25  17 2.26  30 2.26  20 2.36  29 2.36
  42  0.297  0.696  0.256-   2 2.25  31 2.26  18 2.26  30 2.36  17 2.36
  43  0.447  0.545  0.384-   3 2.25  32 2.26  19 2.26  31 2.36  18 2.36
  44  0.598  0.395  0.512-   4 2.25  19 2.36  32 2.36
  45  0.996  0.996  0.000-  29 2.26  20 2.26
  46  0.380  0.279  0.043-   5 2.25  34 2.26  21 2.26  33 2.36
  47  0.530  0.129  0.171-   6 2.25  22 2.26  35 2.26  34 2.36  21 2.36
  48  0.680  0.979  0.299-   8 2.25  23 2.26  36 2.26  35 2.36  22 2.36
  49  0.831  0.829  0.427-   7 2.25  24 2.26  23 2.36  36 2.36
  50  0.378  0.948  0.043-  21 2.25  26 2.26   1 2.26
  51  0.528  0.798  0.171-  22 2.25  27 2.26   2 2.26   1 2.36  26 2.36
  52  0.678  0.648  0.299-  23 2.25  28 2.26   3 2.26  27 2.36   2 2.36
  53  0.829  0.497  0.427-  24 2.25   4 2.26  25 2.26  28 2.36   3 2.36
  54  0.761  0.231  0.086-  15 2.25  29 2.26   6 2.26   5 2.36
  55  0.911  0.081  0.214-  16 2.25   8 2.26  30 2.26   6 2.36  29 2.36
  56  0.062  0.931  0.342-  13 2.25  31 2.26   7 2.26  30 2.36   8 2.36
  57  0.212  0.781  0.470-  32 2.26  31 2.36   7 2.36
  58  0.145  0.515  0.129-  17 2.25  34 2.26   9 2.26  12 2.36  33 2.36
  59  0.295  0.364  0.257-  18 2.25  10 2.26  35 2.26   9 2.36  34 2.36
  60  0.445  0.214  0.385-  19 2.25  36 2.26  11 2.26  35 2.36  10 2.36
  61  0.994  0.665  0.001-  20 2.25  33 2.26  12 2.26
  62  0.327  0.662  0.000-  33 2.25  14 2.26   1 2.26
  63  0.477  0.512  0.128-  34 2.25  15 2.26   2 2.26   1 2.36  14 2.36
  64  0.628  0.362  0.256-  35 2.25   3 2.26  16 2.26   2 2.36  15 2.36
  65  0.778  0.212  0.384-  36 2.25   4 2.26  13 2.26  16 2.36   3 2.36
  66  0.011  0.645  0.299-  28 2.25   7 2.26  18 2.26   8 2.36  17 2.36
  67  0.711  0.946  0.043-  26 2.25  20 2.26   6 2.26   5 2.36
  68  0.861  0.795  0.171-  27 2.25  17 2.26   8 2.26   6 2.36  20 2.36
  69  0.094  0.229  0.086-  29 2.25  21 2.26   9 2.26  12 2.36
  70  0.244  0.079  0.214-  30 2.25  22 2.26  10 2.26   9 2.36  21 2.36
  71  0.395  0.928  0.342-  31 2.25  11 2.26  23 2.26  10 2.36  22 2.36
  72  0.545  0.778  0.470-  32 2.25  24 2.26  11 2.36  23 2.36
 
  LATTYP: Found a base centered orthorhombic cell.
 ALAT       =    11.4527836704
 B/A-ratio  =     1.4485816945
 C/A-ratio  =     1.7908432109
  
  Lattice vectors:
  
 A1 = (   9.4251025535,   3.5732980427,   0.0000000000)
 A2 = (   0.0000000000, -10.0797329849,   0.0000000000)
 A3 = (   0.0000000000,   0.0000000000, -20.5101398818)


Analysis of symmetry for initial positions (statically):
=====================================================================
 Subroutine PRICEL returns:
 Original cell was already a primitive cell.
 

 Routine SETGRP: Setting up the symmetry group for a 
 base centered orthorhombic supercell.


 Subroutine GETGRP returns: Found  1 space group operations
 (whereof  1 operations were pure point group operations)
 out of a pool of  8 trial point group operations.


The static configuration has the point symmetry C_1 .


Analysis of symmetry for dynamics (positions and initial velocities):
=====================================================================
 Subroutine PRICEL returns:
 Original cell was already a primitive cell.
 

 Routine SETGRP: Setting up the symmetry group for a 
 base centered orthorhombic supercell.


 Subroutine GETGRP returns: Found  1 space group operations
 (whereof  1 operations were pure point group operations)
 out of a pool of  8 trial point group operations.


The dynamic configuration has the point symmetry C_1 .


 Subroutine INISYM returns: Found  1 space group operations
 (whereof  1 operations are pure point group operations),
 and found     1 'primitive' translations


----------------------------------------------------------------------------------------

                                     Primitive cell                                     

  volume of cell :    1948.5149

  direct lattice vectors                    reciprocal lattice vectors
     9.425102554  3.573298043  0.000000000     0.106099641  0.000000000  0.000000000
     0.000000000 10.079732985  0.000000000    -0.037612667  0.099208977  0.000000000
     0.000000000  0.000000000 20.510139882     0.000000000  0.000000000  0.048756372

  length of vectors
    10.079732985 10.079732985 20.510139882     0.106099641  0.106099641  0.048756372

  position of ions in fractional coordinates (direct lattice)
     0.374332151  0.751362196  0.095112347
     0.524600663  0.601093683  0.223122317
     0.674869176  0.450825171  0.351132287
     0.825137688  0.300556659  0.479142257
     0.607486476  0.184874537  0.009772366
     0.757754989  0.034606025  0.137782337
     0.058292013  0.734069000  0.393802277
     0.908023501  0.884337513  0.265792307
     0.141177826  0.317849854  0.180452327
     0.291446338  0.167581342  0.308462297
     0.441714851  0.017312829  0.436472267
     0.990909314  0.468118367  0.052442357
     0.009940003  0.115754344  0.411500253
     0.559134466  0.566559881  0.027470342
     0.709402978  0.416291369  0.155480312
     0.859671491  0.266022856  0.283490283
     0.092825816  0.699535198  0.198150302
     0.243094328  0.549266685  0.326160273
     0.393362841  0.398998173  0.454170243
     0.942557303  0.849803710  0.070140332
     0.325980141  0.133047539  0.112810322
     0.476248653  0.982779027  0.240820292
     0.626517166  0.832510515  0.368830263
     0.776785678  0.682242002  0.496840233
     0.049641846  0.340258501  0.445321255
     0.598836308  0.791064038  0.061291344
     0.749104821  0.640795526  0.189301315
     0.899373333  0.490527014  0.317311285
     0.982259146  0.074307868  0.103961334
     0.132527658  0.924039355  0.231971305
     0.282796171  0.773770843  0.359981275
     0.433064683  0.623502330  0.487991245
     0.215413471  0.507820209  0.018621354
     0.365681983  0.357551697  0.146631324
     0.515950496  0.207283184  0.274641295
     0.666219008  0.057014672  0.402651265
     0.063821577  0.262084769  0.341359920
     0.214090090  0.111816257  0.469369891
     0.763284553  0.562621794  0.085339980
     0.913553065  0.412353282  0.213349950
     0.146707390  0.845865623  0.128009970
     0.296975903  0.695597111  0.256019940
     0.447244415  0.545328599  0.384029910
     0.597512927  0.395060086  0.512039881
     0.996438878  0.996134136  0.000000000
     0.379861715  0.279377965  0.042669990
     0.530130228  0.129109453  0.170679960
     0.680398740  0.978840940  0.298689930
     0.830667252  0.828572428  0.426699900
     0.377695711  0.948210635  0.043462798
     0.527964224  0.797942123  0.171472769
     0.678232736  0.647673611  0.299482739
     0.828501249  0.497405098  0.427492709
     0.761118549  0.231454465  0.086132789
     0.911387061  0.081185952  0.214142759
     0.061655574  0.930917440  0.342152729
     0.211924086  0.780648927  0.470162699
     0.144541386  0.514698294  0.128802779
     0.294809899  0.364429781  0.256812749
     0.445078411  0.214161269  0.384822719
     0.994272874  0.664966806  0.000792808
     0.327140876  0.662335471  0.000396404
     0.477409388  0.512066959  0.128406374
     0.627677901  0.361798446  0.256416345
     0.777946413  0.211529934  0.384426315
     0.011100738  0.645042275  0.299086335
     0.710563713  0.945579300  0.043066394
     0.860832226  0.795310788  0.171076364
     0.093986551  0.228823129  0.085736384
     0.244255063  0.078554617  0.213746354
     0.394523576  0.928286105  0.341756325
     0.544792088  0.778017592  0.469766295

  ion indices of the primitive-cell ions
   primitive index   ion index
                 1           1
                 2           2
                 3           3
                 4           4
                 5           5
                 6           6
                 7           7
                 8           8
                 9           9
                10          10
                11          11
                12          12
                13          13
                14          14
                15          15
                16          16
                17          17
                18          18
                19          19
                20          20
                21          21
                22          22
                23          23
                24          24
                25          25
                26          26
                27          27
                28          28
                29          29
                30          30
                31          31
                32          32
                33          33
                34          34
                35          35
                36          36
                37          37
                38          38
                39          39
                40          40
                41          41
                42          42
                43          43
                44          44
                45          45
                46          46
                47          47
                48          48
                49          49
                50          50
                51          51
                52          52
                53          53
                54          54
                55          55
                56          56
                57          57
                58          58
                59          59
                60          60
                61          61
                62          62
                63          63
                64          64
                65          65
                66          66
                67          67
                68          68
                69          69
                70          70
                71          71
                72          72

----------------------------------------------------------------------------------------

 
 
 KPOINTS: gamma-point-only calculation. no periodi

Automatic generation of k-mesh.
Space group operators:
 irot       det(A)        alpha          n_x          n_y          n_z        tau_x        tau_y        tau_z
    1     1.000000     0.000000     1.000000     0.000000     0.000000     0.000000     0.000000     0.000000
 
 Subroutine IBZKPT returns following result:
 ===========================================
 
 Found      1 irreducible k-points:
 
 Following reciprocal coordinates:
            Coordinates               Weight
  0.000000  0.000000  0.000000      1.000000
 
 Following cartesian coordinates:
            Coordinates               Weight
  0.000000  0.000000  0.000000      1.000000
 


--------------------------------------------------------------------------------------------------------




 Dimension of arrays:
   k-points           NKPTS =      1   k-points in BZ     NKDIM =      1   number of bands    NBANDS=    480
   number of dos      NEDOS =    301   number of ions     NIONS =     72
   non local maximal  LDIM  =      6   non local SUM 2l+1 LMDIM =     18
   total plane-waves  NPLWV = 314928
   max r-space proj   IRMAX =   1832   max aug-charges    IRDMAX=   5291
   dimension x,y,z NGX =    54 NGY =   54 NGZ =  108
   dimension x,y,z NGXF=   108 NGYF=  108 NGZF=  216
   support grid    NGXF=   108 NGYF=  108 NGZF=  216
   ions per type =              36  36
   NGX,Y,Z   is equivalent  to a cutoff of   8.91,  8.91,  8.75 a.u.
   NGXF,Y,Z  is equivalent  to a cutoff of  17.81, 17.81, 17.51 a.u.

 SYSTEM =  "Millerite NiS"                         
 POSCAR =  Structure 11 made from -121-6.xsd file  

 Startparameter for this run:
   NWRITE =      2    write-flag & timer
   PREC   = normal    normal or accurate (medium, high low for compatibility)
   ISTART =      0    job   : 0-new  1-cont  2-samecut
   ICHARG =      2    charge: 1-file 2-atom 10-const
   ISPIN  =      1    spin polarized calculation?
   LNONCOLLINEAR =      F non collinear calculations
   LSORBIT =      F    spin-orbit coupling
   INIWAV =      1    electr: 0-lowe 1-rand  2-diag
   LASPH  =      F    aspherical Exc in radial PAW
   METAGGA=      F    non-selfconsistent MetaGGA calc.

 Electronic Relaxation 1
   ENCUT  =  450.0 eV  33.07 Ry    5.75 a.u.  17.43 17.43 35.48*2*pi/ulx,y,z
   ENINI  =  450.0     initial cutoff
   ENAUG  =  703.4 eV  augmentation charge cutoff
   NELM   =    100;   NELMIN=  2; NELMDL= -5     # of ELM steps 
   EDIFF  = 0.1E-03   stopping-criterion for ELM
   LREAL  =      T    real-space projection
   NLSPLINE    = F    spline interpolate recip. space projectors
   LCOMPAT=      F    compatible to vasp.4.4
   GGA_COMPAT  = T    GGA compatible to vasp.4.4-vasp.4.6
   LMAXPAW     = -100 max onsite density
   LMAXMIX     =    2 max onsite mixed and CHGCAR
   VOSKOWN=      0    Vosko Wilk Nusair interpolation
   ROPT   =   -0.00050  -0.00050
 Ionic relaxation
   EDIFFG = 0.1E-02   stopping-criterion for IOM
   NSW    =      0    number of steps for IOM
   NBLOCK =      1;   KBLOCK =      1    inner block; outer block 
   IBRION =     -1    ionic relax: 0-MD 1-quasi-New 2-CG
   NFREE  =      0    steps in history (QN), initial steepest desc. (CG)
   ISIF   =      2    stress and relaxation
   IWAVPR =     10    prediction:  0-non 1-charg 2-wave 3-comb
   ISYM   =      2    0-nonsym 1-usesym 2-fastsym
   LCORR  =      T    Harris-Foulkes like correction to forces

   POTIM  = 0.5000    time-step for ionic-motion
   TEIN   =    0.0    initial temperature
   TEBEG  =    0.0;   TEEND  =   0.0 temperature during run
   SMASS  =  -3.00    Nose mass-parameter (am)
   estimated Nose-frequenzy (Omega)   =  0.10E-29 period in steps = 0.13E+47 mass=  -0.232E-26a.u.
   SCALEE = 1.0000    scale energy and forces
   NPACO  =    256;   APACO  = 16.0  distance and # of slots for P.C.
   PSTRESS=    0.0 pullay stress

  Mass of Ions in am
   POMASS =  58.69 32.07
  Ionic Valenz
   ZVAL   =  16.00  6.00
  Atomic Wigner-Seitz radii
   RWIGS  =  -1.00 -1.00
  virtual crystal weights 
   VCA    =   1.00  1.00
   NELECT =     792.0000    total number of electrons
   NUPDOWN=      -1.0000    fix difference up-down

 DOS related values:
   EMIN   =  10.00;   EMAX   =-10.00  energy-range for DOS
   EFERMI =   0.00
   ISMEAR =     0;   SIGMA  =   0.20  broadening in eV -4-tet -1-fermi 0-gaus

 Electronic relaxation 2 (details)
   IALGO  =     38    algorithm
   LDIAG  =      T    sub-space diagonalisation (order eigenvalues)
   LSUBROT=      F    optimize rotation matrix (better conditioning)
   TURBO    =      0    0=normal 1=particle mesh
   IRESTART =      0    0=no restart 2=restart with 2 vectors
   NREBOOT  =      0    no. of reboots
   NMIN     =      0    reboot dimension
   EREF     =   0.00    reference energy to select bands
   IMIX   =      4    mixing-type and parameters
     AMIX     =   0.40;   BMIX     =  1.00
     AMIX_MAG =   1.60;   BMIX_MAG =  1.00
     AMIN     =   0.10
     WC   =   100.;   INIMIX=   1;  MIXPRE=   1;  MAXMIX= -45

 Intra band minimization:
   WEIMIN = 0.0000     energy-eigenvalue tresh-hold
   EBREAK =  0.52E-07  absolut break condition
   DEPER  =   0.30     relativ break condition  

   TIME   =   0.40     timestep for ELM

  volume/ion in A,a.u.               =      27.06       182.63
  Fermi-wavevector in a.u.,A,eV,Ry     =   1.212687  2.291646 20.008854  1.470609
  Thomas-Fermi vector in A             =   2.348163
 
 Write flags
   LWAVE        =      F    write WAVECAR
   LDOWNSAMPLE  =      F    k-point downsampling of WAVECAR
   LCHARG       =      F    write CHGCAR
   LVTOT        =      F    write LOCPOT, total local potential
   LVHAR        =      F    write LOCPOT, Hartree potential only
   LELF         =      F    write electronic localiz. function (ELF)
   LORBIT       =      0    0 simple, 1 ext, 2 COOP (PROOUT), +10 PAW based schemes


 Dipole corrections
   LMONO  =      F    monopole corrections only (constant potential shift)
   LDIPOL =      F    correct potential (dipole corrections)
   IDIPOL =      0    1-x, 2-y, 3-z, 4-all directions 
   EPSILON=  1.0000000 bulk dielectric constant

 Exchange correlation treatment:
   GGA     =    --    GGA type
   LEXCH   =     8    internal setting for exchange type
   VOSKOWN=      0    Vosko Wilk Nusair interpolation
   LHFCALC =     F    Hartree Fock is set to
   LHFONE  =     F    Hartree Fock one center treatment
   AEXX    =    0.0000 exact exchange contribution

 Linear response parameters
   LEPSILON=     F    determine dielectric tensor
   LRPA    =     F    only Hartree local field effects (RPA)
   LNABLA  =     F    use nabla operator in PAW spheres
   LVEL    =     F    velocity operator in full k-point grid
   LINTERFAST=   F  fast interpolation
   KINTER  =     0    interpolate to denser k-point grid
   CSHIFT  =0.1000    complex shift for real part using Kramers Kronig
   OMEGAMAX=  -1.0    maximum frequency
   DEG_THRESHOLD= 0.2000000E-02 threshold for treating states as degnerate
   RTIME   =   -0.100 relaxation time in fs
  (WPLASMAI=    0.000 imaginary part of plasma frequency in eV, 0.658/RTIME)
   DFIELD  = 0.0000000 0.0000000 0.0000000 field for delta impulse in time
 
 Orbital magnetization related:
   ORBITALMAG=     F  switch on orbital magnetization
   LCHIMAG   =     F  perturbation theory with respect to B field
   DQ        =  0.001000  dq finite difference perturbation B field
   LLRAUG    =     F  two centre corrections for induced B field



--------------------------------------------------------------------------------------------------------


 Static calculation
 charge density and potential will be updated during run
 non-spin polarized calculation
 Variant of blocked Davidson
 Davidson routine will perform the subspace rotation
 perform sub-space diagonalisation
    after iterative eigenvector-optimisation
 modified Broyden-mixing scheme, WC =      100.0
 initial mixing is a Kerker type mixing with AMIX =  0.4000 and BMIX =      1.0000
 Hartree-type preconditioning will be used
 using additional bands           84
 real space projection scheme for non local part
 use partial core corrections
 calculate Harris-corrections to forces 
   (improved forces if not selfconsistent)
 use gradient corrections 
 use of overlap-Matrix (Vanderbilt PP)
 Gauss-broadening in eV      SIGMA  =   0.20


--------------------------------------------------------------------------------------------------------


  energy-cutoff  :      450.00
  volume of cell :     1948.51
      direct lattice vectors                 reciprocal lattice vectors
     9.425102554  3.573298043  0.000000000     0.106099641  0.000000000  0.000000000
     0.000000000 10.079732985  0.000000000    -0.037612667  0.099208977  0.000000000
     0.000000000  0.000000000 20.510139882     0.000000000  0.000000000  0.048756372

  length of vectors
    10.079732985 10.079732985 20.510139882     0.106099641  0.106099641  0.048756372


 
 k-points in units of 2pi/SCALE and weight: gamma-point-only calculation. no periodi
   0.00000000  0.00000000  0.00000000       1.000
 
 k-points in reciprocal lattice and weights: gamma-point-only calculation. no periodi
   0.00000000  0.00000000  0.00000000       1.000
 
 position of ions in fractional coordinates (direct lattice) 
   0.37433215  0.75136220  0.09511235
   0.52460066  0.60109368  0.22312232
   0.67486918  0.45082517  0.35113229
   0.82513769  0.30055666  0.47914226
   0.60748648  0.18487454  0.00977237
   0.75775499  0.03460603  0.13778234
   0.05829201  0.73406900  0.39380228
   0.90802350  0.88433751  0.26579231
   0.14117783  0.31784985  0.18045233
   0.29144634  0.16758134  0.30846230
   0.44171485  0.01731283  0.43647227
   0.99090931  0.46811837  0.05244236
   0.00994000  0.11575434  0.41150025
   0.55913447  0.56655988  0.02747034
   0.70940298  0.41629137  0.15548031
   0.85967149  0.26602286  0.28349028
   0.09282582  0.69953520  0.19815030
   0.24309433  0.54926668  0.32616027
   0.39336284  0.39899817  0.45417024
   0.94255730  0.84980371  0.07014033
   0.32598014  0.13304754  0.11281032
   0.47624865  0.98277903  0.24082029
   0.62651717  0.83251052  0.36883026
   0.77678568  0.68224200  0.49684023
   0.04964185  0.34025850  0.44532126
   0.59883631  0.79106404  0.06129134
   0.74910482  0.64079553  0.18930132
   0.89937333  0.49052701  0.31731129
   0.98225915  0.07430787  0.10396133
   0.13252766  0.92403935  0.23197131
   0.28279617  0.77377084  0.35998128
   0.43306468  0.62350233  0.48799125
   0.21541347  0.50782021  0.01862135
   0.36568198  0.35755170  0.14663132
   0.51595050  0.20728318  0.27464130
   0.66621901  0.05701467  0.40265127
   0.06382158  0.26208477  0.34135992
   0.21409009  0.11181626  0.46936989
   0.76328455  0.56262179  0.08533998
   0.91355307  0.41235328  0.21334995
   0.14670739  0.84586562  0.12800997
   0.29697590  0.69559711  0.25601994
   0.44724442  0.54532860  0.38402991
   0.59751293  0.39506009  0.51203988
   0.99643888  0.99613414  0.00000000
   0.37986171  0.27937797  0.04266999
   0.53013023  0.12910945  0.17067996
   0.68039874  0.97884094  0.29868993
   0.83066725  0.82857243  0.42669990
   0.37769571  0.94821064  0.04346280
   0.52796422  0.79794212  0.17147277
   0.67823274  0.64767361  0.29948274
   0.82850125  0.49740510  0.42749271
   0.76111855  0.23145446  0.08613279
   0.91138706  0.08118595  0.21414276
   0.06165557  0.93091744  0.34215273
   0.21192409  0.78064893  0.47016270
   0.14454139  0.51469829  0.12880278
   0.29480990  0.36442978  0.25681275
   0.44507841  0.21416127  0.38482272
   0.99427287  0.66496681  0.00079281
   0.32714088  0.66233547  0.00039640
   0.47740939  0.51206696  0.12840637
   0.62767790  0.36179845  0.25641634
   0.77794641  0.21152993  0.38442631
   0.01110074  0.64504228  0.29908633
   0.71056371  0.94557930  0.04306639
   0.86083223  0.79531079  0.17107636
   0.09398655  0.22882313  0.08573638
   0.24425506  0.07855462  0.21374635
   0.39452358  0.92828610  0.34175632
   0.54479209  0.77801759  0.46976629
 
 position of ions in cartesian coordinates  (Angst):
   3.52811891  8.91113065  1.95076754
   4.94441505  7.93341835  4.57626993
   6.36071119  6.95570605  7.20177232
   7.77700733  5.97799376  9.82727471
   5.72562234  4.03421620  0.20043259
   7.14191848  3.05650391  2.82593501
   0.54940820  7.60751425  8.07693979
   8.55821462 12.15852460  5.45143740
   1.33061549  3.70831211  3.70110247
   2.74691162  2.73059981  6.32660486
   4.16320777  1.75288751  8.95210725
   9.33942191  8.25932246  1.07560008
   0.09368555  1.20229147  8.43992775
   5.26989968  7.70872641  0.56342056
   6.68619582  6.73101412  3.18892295
   8.10249196  5.75330181  5.81442536
   0.87489284  7.38282232  4.06409041
   2.29118897  6.40511001  6.68959282
   3.70748512  5.42739772  9.31509521
   8.88369924 11.93383265  1.43858802
   3.07239626  2.50590787  2.31375548
   4.48869240 11.60792855  4.93925788
   5.90498854 10.63021626  7.56476029
   7.32128468  9.65250395 10.19026268
   0.46787949  3.60709995  9.13360123
   5.64409362 10.11353488  1.25709404
   7.06038976  9.13582259  3.88259645
   8.47668590  8.15811029  6.50809884
   9.25789319  4.25890815  2.13226150
   1.24908677  9.78763079  4.75776391
   2.66538291  8.80991849  7.38326631
   4.08167905  7.83220619 10.00876870
   2.03029406  5.88842865  0.38192658
   3.44659019  4.91071635  3.00742897
   4.86288634  3.93300404  5.63293138
   6.27918247  2.95529175  8.25843377
   0.60152491  2.86979801  7.00133971
   2.01782105  1.89208571  9.62684212
   7.19403519  8.39852065  1.75033493
   8.61033133  7.42080836  4.37583732
   1.38273220  9.05032885  2.62550239
   2.79902834  8.07261656  5.25100478
   4.21532448  7.09490426  7.87650717
   5.63162061  6.11719195 10.50200958
   9.39153861 13.60133920  0.00000000
   3.58023562  4.17341441  0.87516746
   4.99653177  3.19570212  3.50066985
   6.41282790 12.29772280  6.12617225
   7.82912404 11.32001050  8.75167464
   3.55982081 10.90732936  0.89142807
   4.97611696  9.92961707  3.51693048
   6.39241309  8.95190477  6.14243287
   7.80870924  7.97419246  8.76793526
   7.17362038  5.05270263  1.76659555
   8.58991652  4.07499032  4.39209794
   0.58111011  9.60371297  7.01760033
   1.99740624  8.62600066  9.64310272
   1.36231739  5.70451082  2.64176301
   2.77861353  4.72679852  5.26726541
   4.19490967  3.74908622  7.89276780
   9.37112380 10.25552116  0.01626060
   3.08333631  7.84513655  0.00813030
   4.49963244  6.86742425  2.63363269
   5.91592859  5.88971195  5.25913510
   7.33222472  4.91199965  7.88463749
   0.10462559  6.54152014  6.13430257
   6.69713587 12.07024278  0.88329777
   8.11343201 11.09253049  3.50880016
   0.88583288  2.64231800  1.75846523
   2.30212902  1.66460570  4.38396762
   3.71842516 10.76662639  7.00947003
   5.13472130  9.78891409  9.63497242
 


--------------------------------------------------------------------------------------------------------


 use parallel FFT for orbitals z direction half grid
 k-point   1 :   0.0000 0.0000 0.0000  plane waves:   21165

 maximum and minimum number of plane-waves per node :      3530     3525

 maximum number of plane-waves:     21165
 maximum index in each direction: 
   IXMAX=   17   IYMAX=   17   IZMAX=   35
   IXMIN=  -17   IYMIN=  -17   IZMIN=    0


 real space projection operators:
  total allocation   :      11246.22 KBytes
  max/ min on nodes  :       1877.12       1870.23


 parallel 3D FFT for wavefunctions:
    minimum data exchange during FFTs selected (reduces bandwidth)
 parallel 3D FFT for charge:
    minimum data exchange during FFTs selected (reduces bandwidth)


 total amount of memory used by VASP MPI-rank0    45303. kBytes
=======================================================================

   base      :      30000. kBytes
   nonlr-proj:       2304. kBytes
   fftplans  :       3383. kBytes
   grid      :       6052. kBytes
   one-center:         93. kBytes
   wavefun   :       3471. kBytes
 
     INWAV:  cpu time    0.0000: real time    0.0000
 Broyden mixing: mesh for mixing (old mesh)
   NGX = 35   NGY = 35   NGZ = 71
  (NGX  =108   NGY  =108   NGZ  =216)
  gives a total of  86975 points

 initial charge density was supplied:
 charge density of overlapping atoms calculated
 number of electron     792.0000000 magnetization 
 keeping initial charge density in first step


--------------------------------------------------------------------------------------------------------


 Maximum index for non-local projection operator          304
 Maximum index for augmentation-charges          411 (set IRDMAX)


--------------------------------------------------------------------------------------------------------


 First call to EWALD:  gamma=   0.142
 Maximum number of real-space cells 3x 3x 2
 Maximum number of reciprocal cells 2x 2x 4

    FEWALD:  cpu time    0.0039: real time    0.0044


--------------------------------------- Iteration      1(   1)  ---------------------------------------


    POTLOK:  cpu time    0.0445: real time    0.0467
    SETDIJ:  cpu time    0.0052: real time    0.0070
     EDDAV:  cpu time    1.9914: real time    1.9977
       DOS:  cpu time    0.0009: real time    0.0009
    --------------------------------------------
      LOOP:  cpu time    2.0420: real time    2.0524

 eigenvalue-minimisations  :  1168
 total energy-change (2. order) : 0.9826641E+04  (-0.5080629E+05)
 number of electron     792.0000000 magnetization 
 augmentation part      792.0000000 magnetization 

 Free energy of the ion-electron system (eV)
  ---------------------------------------------------
  alpha Z        PSCENC =      1909.09476555
  Ewald energy   TEWEN  =    163966.49600332
  -Hartree energ DENC   =   -286595.18502849
  -exchange      EXHF   =         0.00000000
  -V(xc)+E(xc)   XCENC  =      3652.74736943
  PAW double counting   =    112729.53333415  -117641.51188735
  entropy T*S    EENTRO =        -0.45027921
  eigenvalues    EBANDS =     -4196.68825984
  atomic energy  EATOM  =    136002.60505376
  Solvation  Ediel_sol  =         0.00000000
  ---------------------------------------------------
  free energy    TOTEN  =      9826.64107133 eV

  energy without entropy =     9827.09135054  energy(sigma->0) =     9826.86621094


--------------------------------------------------------------------------------------------------------




--------------------------------------- Iteration      1(   2)  ---------------------------------------


     EDDAV:  cpu time    1.7663: real time    1.7731
       DOS:  cpu time    0.0006: real time    0.0006
    --------------------------------------------
      LOOP:  cpu time    1.7668: real time    1.7737

 eigenvalue-minimisations  :  1024
 total energy-change (2. order) :-0.9216925E+04  (-0.8862005E+04)
 number of electron     792.0000000 magnetization 
 augmentation part      792.0000000 magnetization 

 Free energy of the ion-electron system (eV)
  ---------------------------------------------------
  alpha Z        PSCENC =      1909.09476555
  Ewald energy   TEWEN  =    163966.49600332
  -Hartree energ DENC   =   -286595.18502849
  -exchange      EXHF   =         0.00000000
  -V(xc)+E(xc)   XCENC  =      3652.74736943
  PAW double counting   =    112729.53333415  -117641.51188735
  entropy T*S    EENTRO =        -0.88017171
  eigenvalues    EBANDS =    -13413.18346722
  atomic energy  EATOM  =    136002.60505376
  Solvation  Ediel_sol  =         0.00000000
  ---------------------------------------------------
  free energy    TOTEN  =       609.71597145 eV

  energy without entropy =      610.59614317  energy(sigma->0) =      610.15605731


--------------------------------------------------------------------------------------------------------




--------------------------------------- Iteration      1(   3)  ---------------------------------------


     EDDAV:  cpu time    1.8333: real time    1.8389
       DOS:  cpu time    0.0006: real time    0.0006
    --------------------------------------------
      LOOP:  cpu time    1.8339: real time    1.8396

 eigenvalue-minimisations  :  1080
 total energy-change (2. order) :-0.9522986E+03  (-0.8960555E+03)
 number of electron     792.0000000 magnetization 
 augmentation part      792.0000000 magnetization 

 Free energy of the ion-electron system (eV)
  ---------------------------------------------------
  alpha Z        PSCENC =      1909.09476555
  Ewald energy   TEWEN  =    163966.49600332
  -Hartree energ DENC   =   -286595.18502849
  -exchange      EXHF   =         0.00000000
  -V(xc)+E(xc)   XCENC  =      3652.74736943
  PAW double counting   =    112729.53333415  -117641.51188735
  entropy T*S    EENTRO =        -1.19276106
  eigenvalues    EBANDS =    -14365.16942845
  atomic energy  EATOM  =    136002.60505376
  Solvation  Ediel_sol  =         0.00000000
  ---------------------------------------------------
  free energy    TOTEN  =      -342.58257912 eV

  energy without entropy =     -341.38981806  energy(sigma->0) =     -341.98619859


--------------------------------------------------------------------------------------------------------




--------------------------------------- Iteration      1(   4)  ---------------------------------------


     EDDAV:  cpu time    1.8994: real time    1.9056
       DOS:  cpu time    0.0007: real time    0.0007
    --------------------------------------------
      LOOP:  cpu time    1.9001: real time    1.9062

 eigenvalue-minimisations  :  1104
 total energy-change (2. order) :-0.6303236E+02  (-0.6224334E+02)
 number of electron     792.0000000 magnetization 
 augmentation part      792.0000000 magnetization 

 Free energy of the ion-electron system (eV)
  ---------------------------------------------------
  alpha Z        PSCENC =      1909.09476555
  Ewald energy   TEWEN  =    163966.49600332
  -Hartree energ DENC   =   -286595.18502849
  -exchange      EXHF   =         0.00000000
  -V(xc)+E(xc)   XCENC  =      3652.74736943
  PAW double counting   =    112729.53333415  -117641.51188735
  entropy T*S    EENTRO =        -1.22915793
  eigenvalues    EBANDS =    -14428.16539374
  atomic energy  EATOM  =    136002.60505376
  Solvation  Ediel_sol  =         0.00000000
  ---------------------------------------------------
  free energy    TOTEN  =      -405.61494129 eV

  energy without entropy =     -404.38578336  energy(sigma->0) =     -405.00036232


--------------------------------------------------------------------------------------------------------




--------------------------------------- Iteration      1(   5)  ---------------------------------------


     EDDAV:  cpu time    2.0669: real time    2.0740
       DOS:  cpu time    0.0008: real time    0.0008
    CHARGE:  cpu time    0.0397: real time    0.0399
    MIXING:  cpu time    0.0023: real time    0.0027
    --------------------------------------------
      LOOP:  cpu time    2.1097: real time    2.1174

 eigenvalue-minimisations  :  1256
 total energy-change (2. order) :-0.2579051E+01  (-0.2574791E+01)
 number of electron     791.9999541 magnetization 
 augmentation part      286.2259567 magnetization 

 Broyden mixing:
  rms(total) = 0.81998E+01    rms(broyden)= 0.81858E+01
  rms(prec ) = 0.86191E+01
  weight for this iteration     100.00

 Free energy of the ion-electron system (eV)
  ---------------------------------------------------
  alpha Z        PSCENC =      1909.09476555
  Ewald energy   TEWEN  =    163966.49600332
  -Hartree energ DENC   =   -286595.18502849
  -exchange      EXHF   =         0.00000000
  -V(xc)+E(xc)   XCENC  =      3652.74736943
  PAW double counting   =    112729.53333415  -117641.51188735
  entropy T*S    EENTRO =        -1.24679489
  eigenvalues    EBANDS =    -14430.72680806
  atomic energy  EATOM  =    136002.60505376
  Solvation  Ediel_sol  =         0.00000000
  ---------------------------------------------------
  free energy    TOTEN  =      -408.19399256 eV

  energy without entropy =     -406.94719768  energy(sigma->0) =     -407.57059512


--------------------------------------------------------------------------------------------------------




--------------------------------------- Iteration      1(   6)  ---------------------------------------


    POTLOK:  cpu time    0.0425: real time    0.0426
    SETDIJ:  cpu time    0.0045: real time    0.0063
     EDDAV:  cpu time    1.9304: real time    1.9350
       DOS:  cpu time    0.0006: real time    0.0006
    CHARGE:  cpu time    0.0380: real time    0.0381
    MIXING:  cpu time    0.0019: real time    0.0021
    --------------------------------------------
      LOOP:  cpu time    2.0179: real time    2.0247

 eigenvalue-minimisations  :  1160
 total energy-change (2. order) :-0.8082796E+02  (-0.9646310E+02)
 number of electron     791.9999546 magnetization 
 augmentation part      352.6564691 magnetization 

 Broyden mixing:
  rms(total) = 0.15379E+02    rms(broyden)= 0.15376E+02
  rms(prec ) = 0.16057E+02
  weight for this iteration     100.00

 eigenvalues of (default mixing * dielectric matrix)
  average eigenvalue GAMMA=   0.2355
  0.2355

 Free energy of the ion-electron system (eV)
  ---------------------------------------------------
  alpha Z        PSCENC =      1909.09476555
  Ewald energy   TEWEN  =    163966.49600332
  -Hartree energ DENC   =   -283824.85518472
  -exchange      EXHF   =         0.00000000
  -V(xc)+E(xc)   XCENC  =      3575.65581911
  PAW double counting   =    114560.09204165  -119231.30347610
  entropy T*S    EENTRO =        -0.89720504
  eigenvalues    EBANDS =    -17445.90976940
  atomic energy  EATOM  =    136002.60505376
  Solvation  Ediel_sol  =         0.00000000
  ---------------------------------------------------
  free energy    TOTEN  =      -489.02195186 eV

  energy without entropy =     -488.12474683  energy(sigma->0) =     -488.57334935


--------------------------------------------------------------------------------------------------------




--------------------------------------- Iteration      1(   7)  ---------------------------------------


    POTLOK:  cpu time    0.0415: real time    0.0416
    SETDIJ:  cpu time    0.0049: real time    0.0049
     EDDAV:  cpu time    1.8928: real time    1.8987
       DOS:  cpu time    0.0006: real time    0.0006
    CHARGE:  cpu time    0.0385: real time    0.0386
    MIXING:  cpu time    0.0017: real time    0.0017
    --------------------------------------------
      LOOP:  cpu time    1.9798: real time    1.9859

 eigenvalue-minimisations  :  1112
 total energy-change (2. order) : 0.1128381E+03  (-0.1779182E+02)
 number of electron     791.9999537 magnetization 
 augmentation part      330.7627572 magnetization 

 Broyden mixing:
  rms(total) = 0.61357E+01    rms(broyden)= 0.61340E+01
  rms(prec ) = 0.65126E+01
  weight for this iteration     100.00

 eigenvalues of (default mixing * dielectric matrix)
  average eigenvalue GAMMA=   0.5091
  0.5091  0.5091

 Free energy of the ion-electron system (eV)
  ---------------------------------------------------
  alpha Z        PSCENC =      1909.09476555
  Ewald energy   TEWEN  =    163966.49600332
  -Hartree energ DENC   =   -285093.80620660
  -exchange      EXHF   =         0.00000000
  -V(xc)+E(xc)   XCENC  =      3605.60307416
  PAW double counting   =    118749.11836869  -123569.66268426
  entropy T*S    EENTRO =        -1.00092552
  eigenvalues    EBANDS =    -15944.63128911
  atomic energy  EATOM  =    136002.60505376
  Solvation  Ediel_sol  =         0.00000000
  ---------------------------------------------------
  free energy    TOTEN  =      -376.18384000 eV

  energy without entropy =     -375.18291449  energy(sigma->0) =     -375.68337724


--------------------------------------------------------------------------------------------------------




--------------------------------------- Iteration      1(   8)  ---------------------------------------


    POTLOK:  cpu time    0.0425: real time    0.0449
    SETDIJ:  cpu time    0.0051: real time    0.0068
     EDDAV:  cpu time    1.9911: real time    1.9982
       DOS:  cpu time    0.0006: real time    0.0006
    CHARGE:  cpu time    0.0386: real time    0.0387
    MIXING:  cpu time    0.0018: real time    0.0018
    --------------------------------------------
      LOOP:  cpu time    2.0797: real time    2.0910

 eigenvalue-minimisations  :  1168
 total energy-change (2. order) :-0.1334108E+03  (-0.1274844E+02)
 number of electron     791.9999587 magnetization 
 augmentation part      305.6853112 magnetization 

 Broyden mixing:
  rms(total) = 0.17073E+02    rms(broyden)= 0.17070E+02
  rms(prec ) = 0.21438E+02
  weight for this iteration     100.00

 eigenvalues of (default mixing * dielectric matrix)
  average eigenvalue GAMMA=   0.4265
  0.7414  0.4423  0.0957

 Free energy of the ion-electron system (eV)
  ---------------------------------------------------
  alpha Z        PSCENC =      1909.09476555
  Ewald energy   TEWEN  =    163966.49600332
  -Hartree energ DENC   =   -285476.27939731
  -exchange      EXHF   =         0.00000000
  -V(xc)+E(xc)   XCENC  =      3624.73348664
  PAW double counting   =    123743.83097329  -128662.43749765
  entropy T*S    EENTRO =        -0.81645650
  eigenvalues    EBANDS =    -15616.82153640
  atomic energy  EATOM  =    136002.60505376
  Solvation  Ediel_sol  =         0.00000000
  ---------------------------------------------------
  free energy    TOTEN  =      -509.59460529 eV

  energy without entropy =     -508.77814880  energy(sigma->0) =     -509.18637704


--------------------------------------------------------------------------------------------------------




--------------------------------------- Iteration      1(   9)  ---------------------------------------


    POTLOK:  cpu time    0.0424: real time    0.0447
    SETDIJ:  cpu time    0.0044: real time    0.0055
     EDDAV:  cpu time    2.0309: real time    2.0358
       DOS:  cpu time    0.0006: real time    0.0006
    CHARGE:  cpu time    0.0383: real time    0.0384
    MIXING:  cpu time    0.0019: real time    0.0019
    --------------------------------------------
      LOOP:  cpu time    2.1185: real time    2.1270

 eigenvalue-minimisations  :  1216
 total energy-change (2. order) : 0.1292214E+03  (-0.1664535E+02)
 number of electron     791.9999593 magnetization 
 augmentation part      309.3215421 magnetization 

 Broyden mixing:
  rms(total) = 0.72273E+01    rms(broyden)= 0.72203E+01
  rms(prec ) = 0.80696E+01
  weight for this iteration     100.00

 eigenvalues of (default mixing * dielectric matrix)
  average eigenvalue GAMMA=   0.4026
  0.9246  0.3938  0.1966  0.0953

 Free energy of the ion-electron system (eV)
  ---------------------------------------------------
  alpha Z        PSCENC =      1909.09476555
  Ewald energy   TEWEN  =    163966.49600332
  -Hartree energ DENC   =   -285601.63915900
  -exchange      EXHF   =         0.00000000
  -V(xc)+E(xc)   XCENC  =      3625.77275867
  PAW double counting   =    125845.79549151  -130786.32935021
  entropy T*S    EENTRO =        -1.33939286
  eigenvalues    EBANDS =    -15340.82933972
  atomic energy  EATOM  =    136002.60505376
  Solvation  Ediel_sol  =         0.00000000
  ---------------------------------------------------
  free energy    TOTEN  =      -380.37316897 eV

  energy without entropy =     -379.03377611  energy(sigma->0) =     -379.70347254


--------------------------------------------------------------------------------------------------------




--------------------------------------- Iteration      1(  10)  ---------------------------------------


    POTLOK:  cpu time    0.0421: real time    0.0426
    SETDIJ:  cpu time    0.0050: real time    0.0050
     EDDAV:  cpu time    2.1697: real time    2.1749
       DOS:  cpu time    0.0006: real time    0.0006
    CHARGE:  cpu time    0.0382: real time    0.0383
    MIXING:  cpu time    0.0019: real time    0.0019
    --------------------------------------------
      LOOP:  cpu time    2.2575: real time    2.2633

 eigenvalue-minimisations  :  1328
 total energy-change (2. order) : 0.6833949E+01  (-0.7691744E+01)
 number of electron     791.9999532 magnetization 
 augmentation part      308.8897826 magnetization 

 Broyden mixing:
  rms(total) = 0.45826E+01    rms(broyden)= 0.45760E+01
  rms(prec ) = 0.50346E+01
  weight for this iteration     100.00

 eigenvalues of (default mixing * dielectric matrix)
  average eigenvalue GAMMA=   0.5291
  1.5970  0.4120  0.4120  0.1123  0.1123

 Free energy of the ion-electron system (eV)
  ---------------------------------------------------
  alpha Z        PSCENC =      1909.09476555
  Ewald energy   TEWEN  =    163966.49600332
  -Hartree energ DENC   =   -285713.44054716
  -exchange      EXHF   =         0.00000000
  -V(xc)+E(xc)   XCENC  =      3625.70955297
  PAW double counting   =    127342.13219624  -132297.05209728
  entropy T*S    EENTRO =        -1.11409757
  eigenvalues    EBANDS =    -15207.97004948
  atomic energy  EATOM  =    136002.60505376
  Solvation  Ediel_sol  =         0.00000000
  ---------------------------------------------------
  free energy    TOTEN  =      -373.53921965 eV

  energy without entropy =     -372.42512207  energy(sigma->0) =     -372.98217086


--------------------------------------------------------------------------------------------------------




--------------------------------------- Iteration      1(  11)  ---------------------------------------


    POTLOK:  cpu time    0.0421: real time    0.0422
    SETDIJ:  cpu time    0.0049: real time    0.0049
     EDDAV:  cpu time    2.1102: real time    2.1151
       DOS:  cpu time    0.0006: real time    0.0006
    CHARGE:  cpu time    0.0384: real time    0.0384
    MIXING:  cpu time    0.0019: real time    0.0019
    --------------------------------------------
      LOOP:  cpu time    2.1980: real time    2.2032

 eigenvalue-minimisations  :  1272
 total energy-change (2. order) : 0.3775060E+00  (-0.3564526E+01)
 number of electron     791.9999499 magnetization 
 augmentation part      308.4145250 magnetization 

 Broyden mixing:
  rms(total) = 0.71736E+01    rms(broyden)= 0.71711E+01
  rms(prec ) = 0.86275E+01
  weight for this iteration     100.00

 eigenvalues of (default mixing * dielectric matrix)
  average eigenvalue GAMMA=   0.5042
  1.8341  0.4184  0.4184  0.1317  0.1317  0.0906

 Free energy of the ion-electron system (eV)
  ---------------------------------------------------
  alpha Z        PSCENC =      1909.09476555
  Ewald energy   TEWEN  =    163966.49600332
  -Hartree energ DENC   =   -285679.46417763
  -exchange      EXHF   =         0.00000000
  -V(xc)+E(xc)   XCENC  =      3624.02362467
  PAW double counting   =    130391.75957333  -135369.01193677
  entropy T*S    EENTRO =        -1.34732764
  eigenvalues    EBANDS =    -15217.31729219
  atomic energy  EATOM  =    136002.60505376
  Solvation  Ediel_sol  =         0.00000000
  ---------------------------------------------------
  free energy    TOTEN  =      -373.16171360 eV

  energy without entropy =     -371.81438596  energy(sigma->0) =     -372.48804978


--------------------------------------------------------------------------------------------------------




--------------------------------------- Iteration      1(  12)  ---------------------------------------


    POTLOK:  cpu time    0.0417: real time    0.0418
    SETDIJ:  cpu time    0.0049: real time    0.0049
     EDDAV:  cpu time    2.1330: real time    2.1392
       DOS:  cpu time    0.0006: real time    0.0006
    CHARGE:  cpu time    0.0380: real time    0.0381
    MIXING:  cpu time    0.0021: real time    0.0021
    --------------------------------------------
      LOOP:  cpu time    2.2203: real time    2.2268

 eigenvalue-minimisations  :  1304
 total energy-change (2. order) : 0.4831573E+01  (-0.5128793E+01)
 number of electron     791.9999551 magnetization 
 augmentation part      311.1688908 magnetization 

 Broyden mixing:
  rms(total) = 0.39624E+01    rms(broyden)= 0.39593E+01
  rms(prec ) = 0.44699E+01
  weight for this iteration     100.00

 eigenvalues of (default mixing * dielectric matrix)
  average eigenvalue GAMMA=   0.5118
  2.0948  0.4352  0.4352  0.2884  0.1268  0.1114  0.0904

 Free energy of the ion-electron system (eV)
  ---------------------------------------------------
  alpha Z        PSCENC =      1909.09476555
  Ewald energy   TEWEN  =    163966.49600332
  -Hartree energ DENC   =   -285692.74572936
  -exchange      EXHF   =         0.00000000
  -V(xc)+E(xc)   XCENC  =      3622.57968980
  PAW double counting   =    131469.46557028  -136451.88944951
  entropy T*S    EENTRO =        -1.06233971
  eigenvalues    EBANDS =    -15192.87370455
  atomic energy  EATOM  =    136002.60505376
  Solvation  Ediel_sol  =         0.00000000
  ---------------------------------------------------
  free energy    TOTEN  =      -368.33014042 eV

  energy without entropy =     -367.26780071  energy(sigma->0) =     -367.79897057


--------------------------------------------------------------------------------------------------------




--------------------------------------- Iteration      1(  13)  ---------------------------------------


    POTLOK:  cpu time    0.0422: real time    0.0428
    SETDIJ:  cpu time    0.0051: real time    0.0067
     EDDAV:  cpu time    1.9944: real time    1.9992
       DOS:  cpu time    0.0006: real time    0.0006
    CHARGE:  cpu time    0.0378: real time    0.0379
    MIXING:  cpu time    0.0023: real time    0.0023
    --------------------------------------------
      LOOP:  cpu time    2.0824: real time    2.0895

 eigenvalue-minimisations  :  1200
 total energy-change (2. order) : 0.3447146E+01  (-0.1650270E+01)
 number of electron     791.9999552 magnetization 
 augmentation part      312.5745312 magnetization 

 Broyden mixing:
  rms(total) = 0.40256E+01    rms(broyden)= 0.40234E+01
  rms(prec ) = 0.46227E+01
  weight for this iteration     100.00

 eigenvalues of (default mixing * dielectric matrix)
  average eigenvalue GAMMA=   0.4817
  2.0996  0.4525  0.4525  0.3779  0.1609  0.0939  0.1081  0.1081

 Free energy of the ion-electron system (eV)
  ---------------------------------------------------
  alpha Z        PSCENC =      1909.09476555
  Ewald energy   TEWEN  =    163966.49600332
  -Hartree energ DENC   =   -285644.32496687
  -exchange      EXHF   =         0.00000000
  -V(xc)+E(xc)   XCENC  =      3621.73559033
  PAW double counting   =    132547.73017428  -137539.40772644
  entropy T*S    EENTRO =        -1.13142727
  eigenvalues    EBANDS =    -15227.68046101
  atomic energy  EATOM  =    136002.60505376
  Solvation  Ediel_sol  =         0.00000000
  ---------------------------------------------------
  free energy    TOTEN  =      -364.88299435 eV

  energy without entropy =     -363.75156707  energy(sigma->0) =     -364.31728071


--------------------------------------------------------------------------------------------------------




--------------------------------------- Iteration      1(  14)  ---------------------------------------


    POTLOK:  cpu time    0.0418: real time    0.0419
    SETDIJ:  cpu time    0.0049: real time    0.0049
     EDDAV:  cpu time    2.0947: real time    2.1015
       DOS:  cpu time    0.0006: real time    0.0006
    CHARGE:  cpu time    0.0414: real time    0.0415
    MIXING:  cpu time    0.0026: real time    0.0026
    --------------------------------------------
      LOOP:  cpu time    2.1860: real time    2.1931

 eigenvalue-minimisations  :  1272
 total energy-change (2. order) : 0.1274580E+01  (-0.2163274E+01)
 number of electron     791.9999557 magnetization 
 augmentation part      313.5932596 magnetization 

 Broyden mixing:
  rms(total) = 0.27842E+01    rms(broyden)= 0.27831E+01
  rms(prec ) = 0.31827E+01
  weight for this iteration     100.00

 eigenvalues of (default mixing * dielectric matrix)
  average eigenvalue GAMMA=   0.4552
  2.0317  0.4949  0.4949  0.4359  0.2090  0.1189  0.1189  0.1061  0.0866

 Free energy of the ion-electron system (eV)
  ---------------------------------------------------
  alpha Z        PSCENC =      1909.09476555
  Ewald energy   TEWEN  =    163966.49600332
  -Hartree energ DENC   =   -285651.81252600
  -exchange      EXHF   =         0.00000000
  -V(xc)+E(xc)   XCENC  =      3621.64253640
  PAW double counting   =    132627.84293660  -137620.43410045
  entropy T*S    EENTRO =        -1.00211554
  eigenvalues    EBANDS =    -15218.04096761
  atomic energy  EATOM  =    136002.60505376
  Solvation  Ediel_sol  =         0.00000000
  ---------------------------------------------------
  free energy    TOTEN  =      -363.60841396 eV

  energy without entropy =     -362.60629842  energy(sigma->0) =     -363.10735619


--------------------------------------------------------------------------------------------------------




--------------------------------------- Iteration      1(  15)  ---------------------------------------


    POTLOK:  cpu time    0.0454: real time    0.0463
    SETDIJ:  cpu time    0.0064: real time    0.0065
     EDDAV:  cpu time    2.0802: real time    2.0852
       DOS:  cpu time    0.0007: real time    0.0007
    CHARGE:  cpu time    0.0383: real time    0.0384
    MIXING:  cpu time    0.0025: real time    0.0025
    --------------------------------------------
      LOOP:  cpu time    2.1736: real time    2.1796

 eigenvalue-minimisations  :  1264
 total energy-change (2. order) : 0.3028220E+01  (-0.4602966E+00)
 number of electron     791.9999551 magnetization 
 augmentation part      313.4580331 magnetization 

 Broyden mixing:
  rms(total) = 0.20217E+01    rms(broyden)= 0.20199E+01
  rms(prec ) = 0.22387E+01
  weight for this iteration     100.00

 eigenvalues of (default mixing * dielectric matrix)
  average eigenvalue GAMMA=   0.4401
  1.9901  0.5192  0.5192  0.3770  0.3770  0.1577  0.1511  0.1091  0.1091  0.0912

 Free energy of the ion-electron system (eV)
  ---------------------------------------------------
  alpha Z        PSCENC =      1909.09476555
  Ewald energy   TEWEN  =    163966.49600332
  -Hartree energ DENC   =   -285643.30354291
  -exchange      EXHF   =         0.00000000
  -V(xc)+E(xc)   XCENC  =      3622.35162121
  PAW double counting   =    132417.18871233  -137410.14205371
  entropy T*S    EENTRO =        -1.05917445
  eigenvalues    EBANDS =    -15223.81157909
  atomic energy  EATOM  =    136002.60505376
  Solvation  Ediel_sol  =         0.00000000
  ---------------------------------------------------
  free energy    TOTEN  =      -360.58019399 eV

  energy without entropy =     -359.52101954  energy(sigma->0) =     -360.05060677


--------------------------------------------------------------------------------------------------------




--------------------------------------- Iteration      1(  16)  ---------------------------------------


    POTLOK:  cpu time    0.0426: real time    0.0439
    SETDIJ:  cpu time    0.0049: real time    0.0049
     EDDAV:  cpu time    2.0195: real time    2.0244
       DOS:  cpu time    0.0006: real time    0.0006
    CHARGE:  cpu time    0.0428: real time    0.0429
    MIXING:  cpu time    0.0024: real time    0.0024
    --------------------------------------------
      LOOP:  cpu time    2.1128: real time    2.1192

 eigenvalue-minimisations  :  1224
 total energy-change (2. order) : 0.2588568E+00  (-0.3122349E+00)
 number of electron     791.9999532 magnetization 
 augmentation part      312.9383522 magnetization 

 Broyden mixing:
  rms(total) = 0.18513E+01    rms(broyden)= 0.18500E+01
  rms(prec ) = 0.21576E+01
  weight for this iteration     100.00

 eigenvalues of (default mixing * dielectric matrix)
  average eigenvalue GAMMA=   0.4322
  1.9426  0.6116  0.6116  0.4041  0.4041  0.2119  0.1515  0.1104  0.1104  0.1062
  0.0895

 Free energy of the ion-electron system (eV)
  ---------------------------------------------------
  alpha Z        PSCENC =      1909.09476555
  Ewald energy   TEWEN  =    163966.49600332
  -Hartree energ DENC   =   -285681.50804398
  -exchange      EXHF   =         0.00000000
  -V(xc)+E(xc)   XCENC  =      3622.71492200
  PAW double counting   =    132210.59248618  -137201.82320770
  entropy T*S    EENTRO =        -1.01686508
  eigenvalues    EBANDS =    -15187.47645128
  atomic energy  EATOM  =    136002.60505376
  Solvation  Ediel_sol  =         0.00000000
  ---------------------------------------------------
  free energy    TOTEN  =      -360.32133722 eV

  energy without entropy =     -359.30447215  energy(sigma->0) =     -359.81290468


--------------------------------------------------------------------------------------------------------




--------------------------------------- Iteration      1(  17)  ---------------------------------------


    POTLOK:  cpu time    0.0422: real time    0.0423
    SETDIJ:  cpu time    0.0049: real time    0.0049
     EDDAV:  cpu time    2.0891: real time    2.0942
       DOS:  cpu time    0.0006: real time    0.0006
    CHARGE:  cpu time    0.0433: real time    0.0434
    MIXING:  cpu time    0.0025: real time    0.0025
    --------------------------------------------
      LOOP:  cpu time    2.1826: real time    2.1879

 eigenvalue-minimisations  :  1280
 total energy-change (2. order) : 0.1051851E+01  (-0.1085222E+00)
 number of electron     791.9999550 magnetization 
 augmentation part      312.4888546 magnetization 

 Broyden mixing:
  rms(total) = 0.13269E+01    rms(broyden)= 0.13265E+01
  rms(prec ) = 0.14927E+01
  weight for this iteration     100.00

 eigenvalues of (default mixing * dielectric matrix)
  average eigenvalue GAMMA=   0.4586
  1.9863  0.7655  0.7655  0.4413  0.4413  0.3477  0.1765  0.1443  0.1106  0.1106
  0.1237  0.0901

 Free energy of the ion-electron system (eV)
  ---------------------------------------------------
  alpha Z        PSCENC =      1909.09476555
  Ewald energy   TEWEN  =    163966.49600332
  -Hartree energ DENC   =   -285693.64653602
  -exchange      EXHF   =         0.00000000
  -V(xc)+E(xc)   XCENC  =      3623.09625714
  PAW double counting   =    132011.12817719  -137000.87511221
  entropy T*S    EENTRO =        -1.06843003
  eigenvalues    EBANDS =    -15176.09966474
  atomic energy  EATOM  =    136002.60505376
  Solvation  Ediel_sol  =         0.00000000
  ---------------------------------------------------
  free energy    TOTEN  =      -359.26948604 eV

  energy without entropy =     -358.20105601  energy(sigma->0) =     -358.73527102


--------------------------------------------------------------------------------------------------------




--------------------------------------- Iteration      1(  18)  ---------------------------------------


    POTLOK:  cpu time    0.0423: real time    0.0423
    SETDIJ:  cpu time    0.0049: real time    0.0049
     EDDAV:  cpu time    2.1409: real time    2.1461
       DOS:  cpu time    0.0006: real time    0.0006
    CHARGE:  cpu time    0.0428: real time    0.0429
    MIXING:  cpu time    0.0026: real time    0.0026
    --------------------------------------------
      LOOP:  cpu time    2.2340: real time    2.2393

 eigenvalue-minimisations  :  1312
 total energy-change (2. order) : 0.1002305E+00  (-0.7962765E-01)
 number of electron     791.9999535 magnetization 
 augmentation part      312.4603270 magnetization 

 Broyden mixing:
  rms(total) = 0.12552E+01    rms(broyden)= 0.12545E+01
  rms(prec ) = 0.14263E+01
  weight for this iteration     100.00

 eigenvalues of (default mixing * dielectric matrix)
  average eigenvalue GAMMA=   0.4554
  1.9834  0.8792  0.8792  0.4579  0.4579  0.3674  0.1858  0.1611  0.1100  0.1100
  0.1308  0.0899  0.1077

 Free energy of the ion-electron system (eV)
  ---------------------------------------------------
  alpha Z        PSCENC =      1909.09476555
  Ewald energy   TEWEN  =    163966.49600332
  -Hartree energ DENC   =   -285698.02640456
  -exchange      EXHF   =         0.00000000
  -V(xc)+E(xc)   XCENC  =      3623.01166666
  PAW double counting   =    131943.15196691  -136930.60634297
  entropy T*S    EENTRO =        -1.05601506
  eigenvalues    EBANDS =    -15173.83994912
  atomic energy  EATOM  =    136002.60505376
  Solvation  Ediel_sol  =         0.00000000
  ---------------------------------------------------
  free energy    TOTEN  =      -359.16925552 eV

  energy without entropy =     -358.11324046  energy(sigma->0) =     -358.64124799


--------------------------------------------------------------------------------------------------------




--------------------------------------- Iteration      1(  19)  ---------------------------------------


    POTLOK:  cpu time    0.0422: real time    0.0423
    SETDIJ:  cpu time    0.0049: real time    0.0049
     EDDAV:  cpu time    2.1293: real time    2.1344
       DOS:  cpu time    0.0007: real time    0.0007
    CHARGE:  cpu time    0.0435: real time    0.0436
    MIXING:  cpu time    0.0026: real time    0.0026
    --------------------------------------------
      LOOP:  cpu time    2.2233: real time    2.2286

 eigenvalue-minimisations  :  1312
 total energy-change (2. order) : 0.3538534E+00  (-0.3796442E-01)
 number of electron     791.9999534 magnetization 
 augmentation part      312.4190414 magnetization 

 Broyden mixing:
  rms(total) = 0.99017E+00    rms(broyden)= 0.98991E+00
  rms(prec ) = 0.11076E+01
  weight for this iteration     100.00

 eigenvalues of (default mixing * dielectric matrix)
  average eigenvalue GAMMA=   0.4842
  1.9822  1.1083  1.1083  0.4908  0.4908  0.3896  0.3182  0.1796  0.0900  0.1108
  0.1108  0.1396  0.1396  0.1207

 Free energy of the ion-electron system (eV)
  ---------------------------------------------------
  alpha Z        PSCENC =      1909.09476555
  Ewald energy   TEWEN  =    163966.49600332
  -Hartree energ DENC   =   -285698.72210387
  -exchange      EXHF   =         0.00000000
  -V(xc)+E(xc)   XCENC  =      3623.05204461
  PAW double counting   =    131837.36078989  -136823.18835657
  entropy T*S    EENTRO =        -1.07781555
  eigenvalues    EBANDS =    -15174.43578324
  atomic energy  EATOM  =    136002.60505376
  Solvation  Ediel_sol  =         0.00000000
  ---------------------------------------------------
  free energy    TOTEN  =      -358.81540209 eV

  energy without entropy =     -357.73758655  energy(sigma->0) =     -358.27649432


--------------------------------------------------------------------------------------------------------




--------------------------------------- Iteration      1(  20)  ---------------------------------------


    POTLOK:  cpu time    0.0423: real time    0.0424
    SETDIJ:  cpu time    0.0049: real time    0.0049
     EDDAV:  cpu time    2.1440: real time    2.1491
       DOS:  cpu time    0.0006: real time    0.0006
    CHARGE:  cpu time    0.0433: real time    0.0434
    MIXING:  cpu time    0.0029: real time    0.0029
    --------------------------------------------
      LOOP:  cpu time    2.2379: real time    2.2433

 eigenvalue-minimisations  :  1320
 total energy-change (2. order) : 0.3691372E-01  (-0.4453013E-01)
 number of electron     791.9999537 magnetization 
 augmentation part      312.4164098 magnetization 

 Broyden mixing:
  rms(total) = 0.96587E+00    rms(broyden)= 0.96539E+00
  rms(prec ) = 0.10792E+01
  weight for this iteration     100.00

 eigenvalues of (default mixing * dielectric matrix)
  average eigenvalue GAMMA=   0.5198
  1.9246  1.4526  1.4526  0.5258  0.5258  0.4594  0.4090  0.1902  0.1683  0.0900
  0.1106  0.1106  0.1403  0.1183  0.1183

 Free energy of the ion-electron system (eV)
  ---------------------------------------------------
  alpha Z        PSCENC =      1909.09476555
  Ewald energy   TEWEN  =    163966.49600332
  -Hartree energ DENC   =   -285703.29833943
  -exchange      EXHF   =         0.00000000
  -V(xc)+E(xc)   XCENC  =      3623.00770930
  PAW double counting   =    131628.25325724  -136610.78075265
  entropy T*S    EENTRO =        -1.07983281
  eigenvalues    EBANDS =    -15173.07635266
  atomic energy  EATOM  =    136002.60505376
  Solvation  Ediel_sol  =         0.00000000
  ---------------------------------------------------
  free energy    TOTEN  =      -358.77848838 eV

  energy without entropy =     -357.69865556  energy(sigma->0) =     -358.23857197


--------------------------------------------------------------------------------------------------------




--------------------------------------- Iteration      1(  21)  ---------------------------------------


    POTLOK:  cpu time    0.0442: real time    0.0449
    SETDIJ:  cpu time    0.0051: real time    0.0070
     EDDAV:  cpu time    2.2569: real time    2.2623
       DOS:  cpu time    0.0009: real time    0.0009
    CHARGE:  cpu time    0.0380: real time    0.0381
    MIXING:  cpu time    0.0028: real time    0.0028
    --------------------------------------------
      LOOP:  cpu time    2.3478: real time    2.3560

 eigenvalue-minimisations  :  1408
 total energy-change (2. order) : 0.3016287E+00  (-0.3679060E-01)
 number of electron     791.9999536 magnetization 
 augmentation part      312.2665848 magnetization 

 Broyden mixing:
  rms(total) = 0.61272E+00    rms(broyden)= 0.61194E+00
  rms(prec ) = 0.68568E+00
  weight for this iteration     100.00

 eigenvalues of (default mixing * dielectric matrix)
  average eigenvalue GAMMA=   0.5226
  1.9096  1.5734  1.5734  0.5736  0.5736  0.4298  0.4298  0.2778  0.1849  0.0900
  0.1106  0.1106  0.1465  0.1465  0.1159  0.1159

 Free energy of the ion-electron system (eV)
  ---------------------------------------------------
  alpha Z        PSCENC =      1909.09476555
  Ewald energy   TEWEN  =    163966.49600332
  -Hartree energ DENC   =   -285719.16567780
  -exchange      EXHF   =         0.00000000
  -V(xc)+E(xc)   XCENC  =      3623.05730146
  PAW double counting   =    131190.59279411  -136166.97868347
  entropy T*S    EENTRO =        -1.10288590
  eigenvalues    EBANDS =    -15163.07553071
  atomic energy  EATOM  =    136002.60505376
  Solvation  Ediel_sol  =         0.00000000
  ---------------------------------------------------
  free energy    TOTEN  =      -358.47685968 eV

  energy without entropy =     -357.37397378  energy(sigma->0) =     -357.92541673


--------------------------------------------------------------------------------------------------------




--------------------------------------- Iteration      1(  22)  ---------------------------------------


    POTLOK:  cpu time    0.0426: real time    0.0427
    SETDIJ:  cpu time    0.0048: real time    0.0048
[...]
    FORCOR:  cpu time    0.0553: real time    0.0556
    FORHAR:  cpu time    0.0240: real time    0.0241
    MIXING:  cpu time    0.0043: real time    0.0043
    OFIELD:  cpu time    0.0001: real time    0.0001

  FORCE on cell =-STRESS in cart. coord.  units (eV):
  Direction    XX          YY          ZZ          XY          YZ          ZX
  --------------------------------------------------------------------------------------
  Alpha Z  1909.09477  1909.09477  1909.09477
  Ewald  214644.07850213601.50902************  -485.34198  -150.80965   430.31713
  Hartree251378.10738250683.22362************  -312.44841   -75.73522   264.13966
  E(xc)   -5025.93834 -5027.40042 -5031.29887    -0.72549    -0.42348     0.77040
  Local  ************************467518.78553   784.54187   207.97820  -667.98446
  n-local  -677.68220  -687.30697  -691.35489    -3.80766    -1.59900     4.47636
  augment  5784.42754  5799.92576  5808.01982     7.96901     7.86547   -13.14830
  Kinetic 10945.57710 10975.28085 11011.26541    14.98310    15.92296   -30.17942
  Fock        0.00000     0.00000     0.00000     0.00000     0.00000     0.00000
  -------------------------------------------------------------------------------------
  Total     -38.61647   -27.67217   -20.23754     5.17044     3.19927   -11.60864
  in kB     -31.75261   -22.75359   -16.64043     4.25142     2.63062    -9.54527
  external pressure =      -23.72 kB  Pullay stress =        0.00 kB


 VOLUME and BASIS-vectors are now :
 -----------------------------------------------------------------------------
  energy-cutoff  :      450.00
  volume of cell :     1948.51
      direct lattice vectors                 reciprocal lattice vectors
     9.425102554  3.573298043  0.000000000     0.106099641  0.000000000  0.000000000
     0.000000000 10.079732985  0.000000000    -0.037612667  0.099208977  0.000000000
     0.000000000  0.000000000 20.510139882     0.000000000  0.000000000  0.048756372

  length of vectors
    10.079732985 10.079732985 20.510139882     0.106099641  0.106099641  0.048756372


 FORCES acting on ions
    electron-ion (+dipol)            ewald-force                    non-local-force                 convergence-correction
 -----------------------------------------------------------------------------------------------
   0.508E+03 -.152E+03 0.321E+04   -.511E+03 0.154E+03 -.321E+04   0.222E+01 -.120E+01 0.366E+01   0.152E+00 -.101E+00 -.267E+00
   0.443E+03 0.137E+02 0.286E+03   -.445E+03 -.129E+02 -.286E+03   0.152E+01 -.722E+00 0.620E+00   0.410E-01 -.679E-02 -.438E+00
   0.429E+03 0.408E+02 -.248E+04   -.431E+03 -.409E+02 0.248E+04   0.156E+01 -.334E-01 0.125E+01   0.181E+00 0.714E-01 -.227E+00
   0.998E+02 0.321E+03 -.488E+04   -.104E+03 -.319E+03 0.487E+04   0.266E+01 -.172E+01 0.552E+01   0.124E+00 0.109E-01 0.130E+00
   -.338E+02 -.650E+02 0.473E+04   0.307E+02 0.633E+02 -.472E+04   0.299E+01 0.131E+01 -.897E+01   -.948E-01 0.757E-01 0.149E-02
   0.403E+03 -.526E+02 0.226E+04   -.405E+03 0.535E+02 -.226E+04   0.179E+01 -.717E+00 0.158E+01   -.479E-01 -.521E-01 -.363E-01
   0.343E+03 0.161E+03 -.376E+04   -.342E+03 -.159E+03 0.376E+04   -.643E+00 -.137E+01 -.994E+00   -.203E+00 0.993E-02 -.124E+00
   0.414E+03 0.923E+01 -.727E+03   -.415E+03 -.857E+01 0.727E+03   0.141E+01 -.504E+00 0.587E+00   -.517E-01 -.114E+00 -.142E+00
   0.446E+03 0.540E+02 0.132E+04   -.447E+03 -.541E+02 -.132E+04   0.156E+01 -.162E+00 0.167E+01   -.821E-02 0.118E+00 -.458E+00
   0.464E+03 -.194E+02 -.167E+04   -.465E+03 0.195E+02 0.167E+04   0.144E+01 -.589E-01 0.401E+00   -.559E-01 -.320E-01 -.278E+00
   0.350E+03 -.857E+02 -.448E+04   -.353E+03 0.851E+02 0.448E+04   0.203E+01 0.376E+00 0.549E+00   -.458E-02 -.179E+00 0.181E-01
   0.304E+03 0.392E+03 0.423E+04   -.304E+03 -.388E+03 -.423E+04   0.682E+00 -.295E+01 -.317E+00   -.295E-01 -.300E-01 -.960E-01
   -.248E+03 0.617E+03 -.363E+04   0.250E+03 -.615E+03 0.363E+04   -.162E+01 -.175E+01 -.238E+00   -.101E-01 -.759E-01 -.740E-01
   -.328E+03 0.376E+03 0.483E+04   0.321E+03 -.372E+03 -.483E+04   0.712E+01 -.476E+01 -.318E+01   0.403E-01 0.911E-01 0.251E-02
   -.250E+03 0.479E+03 0.235E+04   0.250E+03 -.481E+03 -.235E+04   -.151E+00 0.188E+01 0.168E+01   0.493E-01 0.110E+00 -.377E+00
   -.220E+03 0.458E+03 -.563E+03   0.220E+03 -.459E+03 0.562E+03   0.164E+00 0.477E+00 0.157E+01   0.792E-01 0.131E-02 -.281E+00
   -.176E+03 0.433E+03 0.129E+04   0.176E+03 -.434E+03 -.129E+04   0.139E+00 0.321E+00 0.121E+01   -.889E-01 -.168E+00 -.259E+00
   -.659E+02 0.511E+03 -.178E+04   0.656E+02 -.510E+03 0.178E+04   0.884E+00 -.665E+00 0.646E+00   -.230E+00 0.317E-01 -.322E+00
   0.368E+03 0.450E+03 -.428E+04   -.358E+03 -.447E+03 0.427E+04   -.805E+01 -.183E+01 0.447E+01   -.617E-01 -.926E-01 -.903E-02
   -.136E+03 0.277E+03 0.410E+04   0.136E+03 -.277E+03 -.411E+04   -.695E+00 0.633E+00 0.551E+01   0.600E-01 -.256E+00 -.899E-01
   -.368E+02 0.455E+03 0.340E+04   0.372E+02 -.458E+03 -.340E+04   -.471E+00 0.272E+01 0.365E+01   -.626E-01 0.107E+00 -.168E+00
   -.159E+03 0.421E+03 0.380E+03   0.159E+03 -.422E+03 -.381E+03   0.184E-01 0.102E+01 0.992E+00   0.500E-01 0.769E-03 -.302E+00
   -.228E+03 0.322E+03 -.252E+04   0.228E+03 -.322E+03 0.252E+04   -.611E+00 0.663E+00 -.310E+00   0.104E+00 -.591E-01 -.110E+00
   -.320E+03 -.217E+03 -.475E+04   0.315E+03 0.220E+03 0.474E+04   0.490E+01 -.298E+01 0.106E+02   0.750E-01 0.807E-01 0.126E+00
   -.593E+03 -.551E+03 -.429E+04   0.592E+03 0.543E+03 0.429E+04   0.135E+01 0.735E+01 0.184E+01   -.128E+00 -.226E-01 0.213E-01
   -.211E+03 -.423E+03 0.419E+04   0.209E+03 0.426E+03 -.419E+04   0.174E+01 -.252E+01 0.140E+01   -.574E-01 -.290E+00 -.119E+00
   -.333E+03 -.402E+03 0.129E+04   0.332E+03 0.403E+03 -.129E+04   -.428E-01 -.116E+01 0.636E-01   0.130E+00 -.359E-01 -.365E+00
   -.415E+03 -.451E+03 -.160E+04   0.416E+03 0.452E+03 0.160E+04   -.344E+00 -.100E+01 0.906E+00   0.507E-01 0.909E-01 -.245E+00
   -.300E+03 -.538E+03 0.338E+04   0.300E+03 0.539E+03 -.338E+04   -.651E-01 -.176E+01 0.421E+01   0.534E-01 0.157E+00 -.126E+00
   -.300E+03 -.428E+03 0.329E+03   0.300E+03 0.429E+03 -.330E+03   -.196E+00 -.108E+01 0.580E+00   -.966E-01 -.565E-01 -.198E+00
   -.185E+03 -.359E+03 -.259E+04   0.184E+03 0.359E+03 0.259E+04   0.433E+00 -.833E+00 -.175E+01   -.153E+00 0.668E-01 -.157E+00
   0.184E+03 -.194E+03 -.471E+04   -.185E+03 0.194E+03 0.471E+04   0.670E+00 -.488E+00 0.278E+01   0.287E-01 0.283E+00 0.161E+00
   -.137E+03 0.318E+02 0.465E+04   0.137E+03 -.265E+02 -.465E+04   -.599E-01 -.462E+01 -.641E+00   -.225E+00 -.141E+00 0.102E+00
   -.272E+03 -.342E+03 0.224E+04   0.272E+03 0.343E+03 -.224E+04   0.284E+00 -.101E+01 0.168E+01   -.115E+00 -.157E-01 -.276E+00
   -.291E+03 -.401E+03 -.647E+03   0.291E+03 0.402E+03 0.647E+03   -.130E+00 -.818E+00 0.843E+00   0.912E-02 -.284E-01 -.407E+00
   -.389E+03 -.311E+03 -.372E+04   0.389E+03 0.311E+03 0.371E+04   -.170E-01 0.908E+00 0.154E+01   0.133E+00 -.200E+00 -.124E+00
   -.152E+03 -.258E+02 -.688E+03   0.154E+03 0.265E+02 0.686E+03   -.213E+01 -.382E+00 0.237E+01   -.362E-01 -.134E-01 -.931E-01
   -.515E+02 0.567E+02 -.180E+04   0.511E+02 -.578E+02 0.181E+04   -.922E+00 0.184E+01 -.347E+01   -.599E-04 -.470E-01 0.338E-01
   -.159E+03 0.184E+02 0.148E+04   0.161E+03 -.181E+02 -.149E+04   -.208E+01 -.236E+00 0.137E+00   0.744E-01 -.439E-01 -.125E+00
   -.143E+03 -.376E+01 0.421E+03   0.145E+03 0.410E+01 -.422E+03   -.185E+01 -.321E+00 0.127E+01   0.671E-02 0.217E-01 -.145E+00
   -.132E+03 -.567E+02 0.114E+04   0.133E+03 0.565E+02 -.115E+04   -.139E+01 0.167E+00 0.864E+00   0.737E-01 -.572E-01 -.108E+00
   -.113E+03 -.830E+01 0.314E+02   0.115E+03 0.887E+01 -.327E+02   -.202E+01 -.446E+00 0.146E+01   -.261E-01 -.343E-01 -.117E+00
   -.442E+02 0.200E+02 -.101E+04   0.457E+02 -.198E+02 0.100E+04   -.266E+01 -.741E+00 0.301E+01   0.493E-02 0.699E-01 -.151E+00
   -.140E+02 0.138E+03 -.183E+04   0.144E+02 -.138E+03 0.184E+04   -.157E+01 0.741E+00 -.356E+01   0.142E+00 0.219E-02 0.140E+00
   -.104E+03 -.149E+03 0.196E+04   0.104E+03 0.150E+03 -.196E+04   -.866E+00 -.150E+01 0.483E+01   0.315E-01 0.108E-01 -.622E-01
   -.414E+00 0.812E+02 0.178E+04   0.248E+00 -.818E+02 -.178E+04   0.987E+00 0.128E+01 0.219E+01   -.101E+00 0.718E-02 0.397E-01
   -.124E+03 -.104E+02 0.772E+03   0.126E+03 0.105E+02 -.773E+03   -.183E+01 -.112E+00 0.138E+01   -.644E-01 0.113E-01 -.991E-01
   -.137E+03 -.161E+02 -.331E+03   0.139E+03 0.160E+02 0.330E+03   -.219E+01 -.542E-01 0.118E+01   0.709E-01 -.601E-01 -.127E+00
   -.154E+03 -.108E+03 -.152E+04   0.154E+03 0.110E+03 0.152E+04   -.140E+01 -.163E+01 -.313E+00   0.512E-01 -.791E-01 -.847E-03
   0.169E+03 -.124E+03 0.180E+04   -.170E+03 0.125E+03 -.180E+04   0.218E+01 -.109E+01 0.509E+01   0.510E-02 -.294E-01 0.477E-02
   0.804E+02 -.159E+03 0.607E+03   -.813E+02 0.161E+03 -.607E+03   0.708E+00 -.221E+01 -.250E-01   -.479E-02 -.441E-02 -.154E+00
   0.610E+02 -.161E+03 -.467E+03   -.620E+02 0.163E+03 0.468E+03   0.936E+00 -.204E+01 -.130E+01   0.522E-01 0.688E-01 -.705E-01
   -.109E+02 -.186E+03 -.144E+04   0.100E+02 0.187E+03 0.144E+04   0.180E+01 -.187E+01 0.179E+00   0.836E-02 0.789E-01 0.182E-01
   -.809E+01 -.161E+03 0.146E+04   0.826E+01 0.163E+03 -.146E+04   -.567E+00 -.245E+01 0.175E+01   -.138E-01 0.123E+00 -.199E-01
   0.625E+02 -.155E+03 0.254E+03   -.638E+02 0.157E+03 -.254E+03   0.131E+01 -.239E+01 -.391E+00   -.426E-01 -.686E-02 -.332E-01
   0.760E+02 -.136E+03 -.881E+03   -.768E+02 0.139E+03 0.882E+03   0.924E+00 -.241E+01 -.105E+01   -.675E-01 -.475E-01 -.303E-01
   0.202E+03 -.107E+03 -.185E+04   -.204E+03 0.111E+03 0.185E+04   0.236E+01 -.440E+01 -.383E+01   -.124E+00 0.407E-01 0.132E-01
   0.790E+02 -.107E+03 0.956E+03   -.798E+02 0.109E+03 -.955E+03   0.105E+01 -.207E+01 -.107E+01   -.504E-01 -.744E-01 -.145E+00
   0.843E+02 -.149E+03 -.139E+03   -.852E+02 0.151E+03 0.141E+03   0.838E+00 -.211E+01 -.122E+01   -.275E-01 0.825E-02 -.178E+00
   0.942E+02 -.151E+03 -.121E+04   -.951E+02 0.152E+03 0.121E+04   0.864E+00 -.120E+01 0.142E+00   -.183E-01 -.951E-01 -.107E+00
   0.136E+03 -.587E+02 0.189E+04   -.137E+03 0.589E+02 -.189E+04   0.188E+01 -.110E+01 0.444E+01   -.335E-02 -.168E+00 0.327E-01
   0.128E+03 -.109E+03 0.189E+04   -.130E+03 0.111E+03 -.189E+04   0.256E+01 -.317E+01 0.362E+01   0.906E-01 0.136E-02 0.373E-01
   0.995E+02 0.128E+03 0.102E+04   -.101E+03 -.130E+03 -.102E+04   0.184E+01 0.220E+01 -.353E+00   0.960E-03 0.190E-01 -.166E+00
   0.111E+03 0.133E+03 -.284E+02   -.113E+03 -.135E+03 0.286E+02   0.189E+01 0.211E+01 0.112E+00   0.346E-01 -.173E-01 -.156E+00
   0.845E+02 0.184E+03 -.110E+04   -.855E+02 -.186E+03 0.110E+04   0.157E+01 0.140E+01 0.958E+00   0.941E-01 0.124E-01 -.605E-01
   0.880E+02 0.127E+03 -.442E+03   -.894E+02 -.129E+03 0.442E+03   0.198E+01 0.155E+01 0.686E+00   -.426E-01 0.396E-01 -.739E-01
   0.886E+02 0.518E+02 0.175E+04   -.892E+02 -.524E+02 -.175E+04   0.256E+00 0.706E+00 0.226E+01   -.107E-01 -.863E-01 -.255E-01
   0.110E+03 0.117E+03 0.675E+03   -.112E+03 -.119E+03 -.676E+03   0.187E+01 0.217E+01 0.457E+00   0.222E-01 -.429E-01 -.368E-01
   0.922E+02 0.100E+03 0.155E+04   -.926E+02 -.101E+03 -.155E+04   -.124E-01 0.115E+01 0.204E+01   -.474E-02 0.167E+00 -.824E-01
   0.123E+03 0.120E+03 0.341E+03   -.124E+03 -.122E+03 -.341E+03   0.179E+01 0.198E+01 0.430E+00   0.237E-01 0.613E-01 -.149E+00
   0.128E+03 0.112E+03 -.758E+03   -.130E+03 -.114E+03 0.758E+03   0.226E+01 0.190E+01 0.719E-01   0.331E-01 0.739E-02 -.425E-01
   0.834E+02 -.425E+02 -.172E+04   -.842E+02 0.423E+02 0.173E+04   0.131E+01 0.633E+00 -.873E+00   0.943E-01 0.911E-01 0.158E-01
 -----------------------------------------------------------------------------------------------
   -.360E+02 0.340E+02 -.613E+02   -.512E-12 -.519E-12 0.864E-11   0.362E+02 -.332E+02 0.690E+02   -.874E-01 -.713E+00 -.774E+01
 
 
 POSITION                                       TOTAL-FORCE (eV/Angst)
 -----------------------------------------------------------------------------------
      3.52812      8.91113      1.95077        -0.176176      0.312141     -0.264327
      4.94442      7.93342      4.57627         0.134180      0.085165     -0.026710
      6.36071      6.95571      7.20177         0.166197     -0.103540      0.168736
      7.77701      5.97799      9.82727        -1.349284      0.586533     -1.059308
      5.72562      4.03422      0.20043        -0.114988     -0.337957      1.843511
      7.14192      3.05650      2.82594        -0.146823      0.085351     -0.095894
      0.54941      7.60751      8.07694        -0.266673      0.485271      0.144417
      8.55821     12.15852      5.45144         0.225054      0.035663      0.050372
      1.33062      3.70831      3.70110        -0.085783     -0.116855     -0.086841
      2.74691      2.73060      6.32660         0.190648     -0.003761     -0.074605
      4.16321      1.75289      8.95211        -0.723509     -0.458989     -0.405398
      9.33942      8.25932      1.07560         0.202829      0.748641      0.556266
      0.09369      1.20229      8.43993         0.538967      0.477187     -0.517834
      5.26990      7.70873      0.56342        -0.559178      0.046027      1.141937
      6.68620      6.73101      3.18892        -0.197851     -0.018741     -0.195769
      8.10249      5.75330      5.81443         0.040286     -0.035221      0.025673
      0.87489      7.38282      4.06409         0.032287     -0.058007     -0.030706
      2.29119      6.40511      6.68959         0.358102      0.277472     -0.283493
      3.70749      5.42740      9.31510         1.342959      0.533165     -1.082310
      8.88370     11.93383      1.43859         0.017316      0.183694     -0.691955
      3.07240      2.50591      2.31376        -0.171110     -0.035752     -0.411394
      4.48869     11.60793      4.93926        -0.018482     -0.014673     -0.004521
      5.90499     10.63022      7.56476         0.008712      0.105777      0.357036
      7.32128      9.65250     10.19026        -0.619019      0.130769     -2.038139
      0.46788      3.60710      9.13360         0.153061     -0.982408     -0.510747
      5.64409     10.11353      1.25709        -0.256954      0.715363      0.390277
      7.06039      9.13582      3.88260        -0.149357     -0.052868     -0.093834
      8.47669      8.15811      6.50810         0.272834      0.058018      0.109043
      9.25789      4.25891      2.13226        -0.051072      0.124393     -0.601129
      1.24909      9.78763      4.75776        -0.076927      0.068325      0.022400
      2.66538      8.80992      7.38327        -0.133183     -0.195434      0.404926
      4.08168      7.83221     10.00877         0.208967     -0.284182     -0.926709
      2.03029      5.88843      0.38193        -0.261853      0.521285      0.725756
      3.44659      4.91072      3.00743         0.111633     -0.035626     -0.101078
      4.86289      3.93300      5.63293         0.075793     -0.003832      0.022941
      6.27918      2.95529      8.25843         0.316812      0.177754     -0.615140
      0.60152      2.86980      7.00134        -0.098560      0.239757      0.506919
      2.01782      1.89209      9.62684        -1.248660      0.693362      0.172941
      7.19404      8.39852      1.75033        -0.249724      0.008884     -1.610527
      8.61033      7.42081      4.37584        -0.074995      0.040522     -0.014640
      1.38273      9.05033      2.62550         0.058952     -0.059971     -0.204540
      2.79903      8.07262      5.25100         0.039175      0.089915      0.035517
      4.21532      7.09490      7.87651        -1.135700     -0.477582      0.437205
      5.63162      6.11719     10.50201        -1.047895      0.224059      0.352304
      9.39154     13.60134      0.00000        -0.038875     -0.242730      0.976236
      3.58024      4.17341      0.87517         0.720033      0.707415     -1.082002
      4.99653      3.19570      3.50067        -0.136549     -0.083731     -0.023096
      6.41283     12.29772      6.12617        -0.202262     -0.210879      0.006063
      7.82912     11.32001      8.75167        -0.444294     -0.202036      1.023481
      3.55982     10.90733      0.89143         0.699033     -0.353607      0.262347
      4.97612      9.92962      3.51693        -0.195782     -0.383205      0.134223
      6.39241      8.95190      6.14243        -0.022490     -0.103863     -0.111324
      7.80871      7.97419      8.76794         0.919867     -0.057243      1.307222
      7.17362      5.05270      1.76660        -0.403252     -0.286572     -0.595590
      8.58992      4.07499      4.39210        -0.004451     -0.077112     -0.195728
      0.58111      9.60371      7.01760         0.101924      0.064730      0.031042
      1.99741      8.62600      9.64310         0.463596     -0.695802     -0.641053
      1.36232      5.70451      2.64176         0.243795     -0.522901     -0.161225
      2.77861      4.72680      5.26727        -0.095098     -0.018680     -0.053022
      4.19491      3.74909      7.89277        -0.106416     -0.078844      1.074245
      9.37112     10.25552      0.01626         0.866227     -1.028675      0.402162
      3.08334      7.84514      0.00813         1.020613     -0.688424     -0.007284
      4.49963      6.86742      2.63363         0.047356      0.262931     -0.054550
      5.91593      5.88971      5.25914        -0.058871     -0.069022      0.155518
      7.33222      4.91200      7.88464         0.616017     -0.393367      0.985870
      0.10463      6.54152      6.13430         0.507470     -0.275949      0.841689
      6.69714     12.07024      0.88330        -0.370060      0.011610     -0.418528
      8.11343     11.09253      3.50880         0.145292      0.115146      0.050497
      0.88583      2.64232      1.75847        -0.498595      0.331475      0.060489
      2.30213      1.66461      4.38397         0.104954     -0.030055      0.050474
      3.71843     10.76663      7.00947         0.234843     -0.007928     -0.066199
      5.13472      9.78891      9.63497         0.604966      0.538224      0.527416
 -----------------------------------------------------------------------------------
    total drift:                                0.045061      0.116181     -0.026194


--------------------------------------------------------------------------------------------------------



  FREE ENERGIE OF THE ION-ELECTRON SYSTEM (eV)
  ---------------------------------------------------
  free  energy   TOTEN  =      -358.31142639 eV

  energy  without entropy=     -357.21025380  energy(sigma->0) =     -357.76084010
 


--------------------------------------------------------------------------------------------------------


    POTLOK:  cpu time    0.0474: real time    0.0476


--------------------------------------------------------------------------------------------------------


     LOOP+:  cpu time   75.9433: real time   76.2318
    4ORBIT:  cpu time    0.0000: real time    0.0000

 total amount of memory used by VASP MPI-rank0    45303. kBytes
=======================================================================

   base      :      30000. kBytes
   nonlr-proj:       2304. kBytes
   fftplans  :       3383. kBytes
   grid      :       6052. kBytes
   one-center:         93. kBytes
   wavefun   :       3471. kBytes
 
  
  
 General timing and accounting informations for this job:
 ========================================================
  
                  Total CPU time used (sec):       78.032
                            User time (sec):       77.350
                          System time (sec):        0.682
                         Elapsed time (sec):       78.730
  
                   Maximum memory used (kb):      220336.
                   Average memory used (kb):           0.
  
                          Minor page faults:        76015
                          Major page faults:            0
                 Voluntary context switches:         1065
