"Millerite NiS"                         
           1
     9.425103    3.573298    0.000000
     0.000000   10.079733    0.000000
     0.000000    0.000000   20.683504
   Ni   S 
    36    36
Direct configuration=     1
   0.39705889  0.79495179  0.11816221
   0.54732740  0.64468328  0.24509923
   0.69759592  0.49441477  0.37203625
   0.84786443  0.34414625  0.49897328
   0.11381506  0.41152895  0.16047455
   0.26408357  0.26126044  0.28741157
   0.41435209  0.11099193  0.41434860
   0.96354655  0.56179747  0.03353752
   0.13110826  0.72756909  0.45666094
   0.83057123  0.02810612  0.20278689
   0.98083974  0.87783760  0.32972391
   0.35735705  0.57044763  0.08462468
   0.50762556  0.42017912  0.21156171
   0.65789407  0.26991061  0.33849873
   0.80816258  0.11964210  0.46543576
   0.07411322  0.18702480  0.12693702
   0.22438173  0.03675628  0.25387405
   0.37465024  0.88648777  0.38081107
   0.52491876  0.73621926  0.50774810
   0.92384471  0.33729331  0.00000000
   0.09140641  0.50306493  0.42312341
   0.64060088  0.95387047  0.04231234
   0.79086939  0.80360196  0.16924937
   0.94113790  0.65333345  0.29618639
   0.58186121  0.61014948  0.05108716
   0.73212972  0.45988096  0.17802418
   0.88239823  0.30961245  0.30496121
   0.29861738  0.22672664  0.09339950
   0.44888589  0.07645813  0.22033653
   0.59915440  0.92618961  0.34727355
   0.74942291  0.77592110  0.47421057
   0.01537355  0.84330380  0.13571184
   0.16564206  0.69303529  0.26264887
   0.31591057  0.54276678  0.38958589
   0.46617908  0.39249826  0.51652292
   0.86510503  0.99357231  0.00877482
   0.03660483  0.95519385  0.48928282
   0.58579929  0.40599939  0.10847175
   0.73606780  0.25573088  0.23540877
   0.88633632  0.10546237  0.36234580
   0.15228695  0.17284506  0.02384707
   0.30255546  0.02257655  0.15078409
   0.45282398  0.87230804  0.27772111
   0.60309249  0.72203953  0.40465814
   0.01931163  0.63915371  0.19309643
   0.16958015  0.48888520  0.32003346
   0.31984866  0.33861669  0.44697048
   0.86904312  0.78942223  0.06615941
   0.48608562  0.84214307  0.02424015
   0.63635413  0.69187455  0.15117717
   0.78662264  0.54160604  0.27811420
   0.93689115  0.39133753  0.40505122
   0.20284179  0.45872023  0.06655249
   0.35311030  0.30845172  0.19348951
   0.50337881  0.15818320  0.32042654
   0.65364732  0.00791469  0.44736356
   0.06986647  0.92502888  0.23580185
   0.22013498  0.77476037  0.36273888
   0.37040349  0.62449185  0.48967590
   0.91959796  0.07529739  0.10886483
   0.20021045  0.79158823  0.06694557
   0.35047896  0.64131972  0.19388259
   0.50074747  0.49105121  0.32081962
   0.65101599  0.34078269  0.44775664
   0.06723513  0.25789688  0.23619494
   0.21750365  0.10762837  0.36313196
   0.36777216  0.95735986  0.49006899
   0.91696662  0.40816539  0.10925791
   0.48345428  0.17501107  0.02463323
   0.63372279  0.02474256  0.15157025
   0.78399130  0.87447404  0.27850728
   0.93425982  0.72420553  0.40544430
