 vasp.6.1.0 28Jan20 (build Mar 31 2020 17:42:31) gamma-only                     
  
 executed on             LinuxIFC date 2020.04.13  02:05:31
 running on   48 total cores
 distrk:  each k-point on   48 cores,    1 groups
 distr:  one band on NCORE=   6 cores,    8 groups


--------------------------------------------------------------------------------------------------------


 INCAR:
 POTCAR:    PAW_PBE Ni_pv 06Sep2000               
 POTCAR:    PAW_PBE S 06Sep2000                   
 POTCAR:    PAW_PBE Ni_pv 06Sep2000               
   VRHFIN =Ni:                                                                                      
   LEXCH  = PE                                                                                      
   EATOM  =  3501.1230 eV,  257.3253 Ry                                                             
                                                                                                    
   TITEL  = PAW_PBE Ni_pv 06Sep2000                                                                 
   LULTRA =        F    use ultrasoft PP ?                                                          
   IUNSCR =        1    unscreen: 0-lin 1-nonlin 2-no                                               
   RPACOR =    1.500    partial core radius                                                         
   POMASS =   58.690; ZVAL   =   16.000    mass and valenz                                          
   RCORE  =    2.000    outmost cutoff radius                                                       
   RWIGS  =    2.000; RWIGS  =    1.058    wigner-seitz radius (au A)                               
   ENMAX  =  367.986; ENMIN  =  275.989 eV                                                          
   RCLOC  =    1.301    cutoff for local pot                                                        
   LCOR   =        T    correct aug charges                                                         
   LPAW   =        T    paw PP                                                                      
   EAUG   =  703.443                                                                                
   DEXC   =    0.000                                                                                
   RMAX   =    2.041    core radius for proj-oper                                                   
   RAUG   =    1.300    factor for augmentation sphere                                              
   RDEP   =    2.103    radius for radial grids                                                     
   RDEPT  =    1.618    core radius for aug-charge                                                  
                                                                                                    
   Atomic configuration                                                                             
    8 entries                                                                                       
     n  l   j            E        occ.                                                              
     1  0  0.50     -8206.4253   2.0000                                                             
     2  0  0.50      -976.1748   2.0000                                                             
     2  1  1.50      -839.0571   6.0000                                                             
     3  0  0.50      -105.9991   2.0000                                                             
     3  1  1.50       -66.4603   6.0000                                                             
     3  2  2.50        -4.6458   9.0000                                                             
     4  0  0.50        -4.4926   1.0000                                                             
     4  3  2.50        -1.3606   0.0000                                                             
   Description                                                                                      
     l       E           TYP  RCUT    TYP  RCUT                                                     
     1    -66.4602962     23  1.700                                                                 
     1     -1.3605826     23  1.700                                                                 
     2     -4.6457867     23  2.000                                                                 
     2     -6.0063693     23  2.000                                                                 
     0     -4.4925576     23  1.900                                                                 
     0     16.3626226     23  1.900                                                                 
  local pseudopotential read in
  partial core-charges read in
  partial kinetic energy density read in
  atomic valenz-charges read in
  non local Contribution for L=           1  read in
    real space projection operators read in
  non local Contribution for L=           1  read in
    real space projection operators read in
  non local Contribution for L=           2  read in
    real space projection operators read in
  non local Contribution for L=           2  read in
    real space projection operators read in
  non local Contribution for L=           0  read in
    real space projection operators read in
  non local Contribution for L=           0  read in
    real space projection operators read in
    PAW grid and wavefunctions read in
 
   number of l-projection  operators is LMAX  =           6
   number of lm-projection operators is LMMAX =          18
 
 POTCAR:    PAW_PBE S 06Sep2000                   
   VRHFIN =S : s2p4                                                                                 
   LEXCH  = PE                                                                                      
   EATOM  =   276.8230 eV,   20.3459 Ry                                                             
                                                                                                    
   TITEL  = PAW_PBE S 06Sep2000                                                                     
   LULTRA =        F    use ultrasoft PP ?                                                          
   IUNSCR =        1    unscreen: 0-lin 1-nonlin 2-no                                               
   RPACOR =    1.500    partial core radius                                                         
   POMASS =   32.066; ZVAL   =    6.000    mass and valenz                                          
   RCORE  =    1.900    outmost cutoff radius                                                       
   RWIGS  =    2.200; RWIGS  =    1.164    wigner-seitz radius (au A)                               
   ENMAX  =  258.689; ENMIN  =  194.016 eV                                                          
   ICORE  =        2    local potential                                                             
   LCOR   =        T    correct aug charges                                                         
   LPAW   =        T    paw PP                                                                      
   EAUG   =  335.092                                                                                
   DEXC   =    0.000                                                                                
   RMAX   =    1.942    core radius for proj-oper                                                   
   RAUG   =    1.300    factor for augmentation sphere                                              
   RDEP   =    1.954    radius for radial grids                                                     
   RDEPT  =    1.744    core radius for aug-charge                                                  
                                                                                                    
   Atomic configuration                                                                             
    6 entries                                                                                       
     n  l   j            E        occ.                                                              
     1  0  0.50     -2405.8406   2.0000                                                             
     2  0  0.50      -211.7007   2.0000                                                             
     2  1  1.50      -156.4958   6.0000                                                             
     3  0  0.50       -17.2562   2.0000                                                             
     3  1  0.50        -7.0085   4.0000                                                             
     3  2  1.50        -6.8029   0.0000                                                             
   Description                                                                                      
     l       E           TYP  RCUT    TYP  RCUT                                                     
     0    -17.2561641     23  1.900                                                                 
     0    -15.8743224     23  1.900                                                                 
     1     -7.0085400     23  1.900                                                                 
     1     -2.7779785     23  1.900                                                                 
     2     -6.8029130     23  1.900                                                                 
  local pseudopotential read in
  partial core-charges read in
  partial kinetic energy density read in
  atomic valenz-charges read in
  non local Contribution for L=           0  read in
    real space projection operators read in
  non local Contribution for L=           0  read in
    real space projection operators read in
  non local Contribution for L=           1  read in
    real space projection operators read in
  non local Contribution for L=           1  read in
    real space projection operators read in
    PAW grid and wavefunctions read in
 
   number of l-projection  operators is LMAX  =           4
   number of lm-projection operators is LMMAX =           8
 
 Optimization of the real space projectors (new method)

 maximal supplied QI-value         = 18.90
 optimisation between [QCUT,QGAM] = [ 10.77, 21.73] = [ 32.49,132.25] Ry 
 Optimized for a Real-space Cutoff    1.38 Angstroem

   l    n(q)    QCUT    max X(q) W(low)/X(q) W(high)/X(q)  e(spline) 
   1      8    10.771     2.836    0.40E-04    0.29E-04    0.12E-06
   1      8    10.771     4.023    0.10E-03    0.48E-04    0.29E-06
   2      8    10.771    73.368    0.42E-03    0.97E-04    0.44E-06
   2      8    10.771    69.010    0.42E-03    0.99E-04    0.45E-06
   0      9    10.771    54.797    0.10E-03    0.56E-04    0.74E-07
   0      9    10.771    24.266    0.89E-04    0.49E-04    0.67E-07
 Optimization of the real space projectors (new method)

 maximal supplied QI-value         = 19.84
 optimisation between [QCUT,QGAM] = [ 10.71, 21.63] = [ 32.15,130.99] Ry 
 Optimized for a Real-space Cutoff    1.19 Angstroem

   l    n(q)    QCUT    max X(q) W(low)/X(q) W(high)/X(q)  e(spline) 
   0      8    10.715   187.594    0.41E-03    0.53E-04    0.66E-07
   0      8    10.715   164.243    0.41E-03    0.53E-04    0.65E-07
   1      7    10.715    67.533    0.19E-03    0.59E-03    0.68E-07
   1      7    10.715    50.729    0.19E-03    0.58E-03    0.67E-07
  PAW_PBE Ni_pv 06Sep2000               :
 energy of atom  1       EATOM=-3501.1230
 kinetic energy error for atom=    0.0925 (will be added to EATOM!!)
  PAW_PBE S 06Sep2000                   :
 energy of atom  2       EATOM= -276.8230
 kinetic energy error for atom=    0.0033 (will be added to EATOM!!)
 
 
 POSCAR: Structure 47 made from 011-3.xsd file
  positions in direct lattice
  No initial velocities read in
 exchange correlation table for  LEXCH =        8
   RHO(1)=    0.500       N(1)  =     2000
   RHO(2)=  100.500       N(2)  =     4000
 


--------------------------------------------------------------------------------------------------------


 ion  position               nearest neighbor table
   1  0.645  0.915  0.103-  31 2.25  37 2.26  38 2.36  46 2.36  18 2.53  10 2.53
   2  0.583  0.790  0.257-  32 2.25  46 2.26  38 2.26  39 2.36  47 2.36  11 2.53  19 2.53
   3  0.520  0.665  0.412-  33 2.25  47 2.26  39 2.26  48 2.36  20 2.53  12 2.53
   4  0.333  0.290  0.051-  34 2.25  40 2.36  49 2.36  21 2.53
   5  0.270  0.165  0.206-  35 2.25  49 2.26  40 2.26  50 2.36  41 2.36  13 2.53  22 2.53
   6  0.208  0.040  0.360-  36 2.25  50 2.26  41 2.26  42 2.36  51 2.36  23 2.53  14 2.53
   7  0.020  0.665  0.000-  43 2.36  52 2.36  24 2.53
   8  0.958  0.540  0.154-  28 2.25  52 2.26  43 2.26  44 2.36  53 2.36  25 2.53  16 2.53
   9  0.895  0.415  0.309-  29 2.25  53 2.26  44 2.26  45 2.36  54 2.36  17 2.53  26 2.53
  10  0.662  0.684  0.062-  46 2.36  28 2.36  18 2.53   1 2.53
  11  0.599  0.559  0.217-  40 2.25  46 2.26  28 2.26  47 2.36  29 2.36   2 2.53  19 2.53
  12  0.537  0.434  0.371-  41 2.25  29 2.26  47 2.26  30 2.36  48 2.36  20 2.53   3 2.53
  13  0.287  0.934  0.165-  43 2.25  31 2.26  49 2.26  50 2.36  32 2.36   5 2.53  22 2.53
  14  0.224  0.809  0.320-  44 2.25  50 2.26  32 2.26  51 2.36  33 2.36  23 2.53   6 2.53
  15  0.161  0.683  0.474-  45 2.25  51 2.26  33 2.26
  16  0.974  0.309  0.114-  37 2.25  34 2.26  52 2.26  35 2.36  53 2.36  25 2.53   8 2.53
  17  0.912  0.184  0.268-  38 2.25  53 2.26  35 2.26  36 2.36  54 2.36   9 2.53  26 2.53
  18  0.909  0.915  0.103-  49 2.25  37 2.26  38 2.36  28 2.36   1 2.53  10 2.53
  19  0.847  0.790  0.257-  50 2.25  28 2.26  38 2.26  29 2.36  39 2.36   2 2.53  11 2.53
  20  0.784  0.665  0.412-  51 2.25  29 2.26  39 2.26  30 2.36   3 2.53  12 2.53
  21  0.597  0.290  0.051-  52 2.25  31 2.36  40 2.36   4 2.53
  22  0.534  0.165  0.206-  53 2.25  31 2.26  40 2.26  41 2.36  32 2.36  13 2.53   5 2.53
  23  0.472  0.040  0.360-  54 2.25  41 2.26  32 2.26  42 2.36  33 2.36   6 2.53  14 2.53
  24  0.285  0.665  0.000-  34 2.36  43 2.36   7 2.53
  25  0.222  0.540  0.154-  46 2.25  34 2.26  43 2.26  44 2.36  35 2.36   8 2.53  16 2.53
  26  0.159  0.415  0.309-  47 2.25  35 2.26  44 2.26  45 2.36  36 2.36  17 2.53   9 2.53
  27  0.097  0.290  0.463-  48 2.25  36 2.26  45 2.26
  28  0.825  0.674  0.153-   8 2.25  19 2.26  11 2.26  10 2.36  18 2.36
  29  0.763  0.549  0.307-   9 2.25  20 2.26  12 2.26  19 2.36  11 2.36
  30  0.700  0.424  0.462-  12 2.36  20 2.36
  31  0.513  0.050  0.102-   1 2.25  22 2.26  13 2.26  21 2.36
  32  0.450  0.924  0.256-   2 2.25  23 2.26  14 2.26  22 2.36  13 2.36
  33  0.387  0.799  0.410-   3 2.25  15 2.26  14 2.36  23 2.36
  34  0.200  0.425  0.050-   4 2.25  25 2.26  16 2.26  24 2.36
  35  0.138  0.299  0.204-   5 2.25  26 2.26  17 2.26  16 2.36  25 2.36
  36  0.075  0.174  0.359-   6 2.25  27 2.26  17 2.36  26 2.36
  37  0.867  0.094  0.051-  16 2.25  18 2.26   1 2.26
  38  0.804  0.969  0.205-  17 2.25   2 2.26  19 2.26  18 2.36   1 2.36
  39  0.741  0.843  0.359-  20 2.26   3 2.26   2 2.36  19 2.36
  40  0.492  0.344  0.153-  11 2.25   5 2.26  22 2.26   4 2.36  21 2.36
  41  0.429  0.219  0.308-  12 2.25  23 2.26   6 2.26  22 2.36   5 2.36
  42  0.366  0.093  0.462-  23 2.36   6 2.36
  43  0.179  0.719  0.102-  13 2.25  25 2.26   8 2.26   7 2.36  24 2.36
  44  0.117  0.594  0.256-  14 2.25  26 2.26   9 2.26  25 2.36   8 2.36
  45  0.054  0.468  0.411-  15 2.25  27 2.26   9 2.36  26 2.36
  46  0.489  0.674  0.153-  25 2.25  11 2.26   2 2.26  10 2.36   1 2.36
  47  0.426  0.549  0.307-  26 2.25   3 2.26  12 2.26   2 2.36  11 2.36
  48  0.363  0.424  0.462-  27 2.25   3 2.36  12 2.36
  49  0.176  0.050  0.102-  18 2.25   5 2.26  13 2.26   4 2.36
  50  0.114  0.924  0.256-  19 2.25   6 2.26  14 2.26   5 2.36  13 2.36
  51  0.051  0.799  0.410-  20 2.25  15 2.26  14 2.36   6 2.36
  52  0.864  0.425  0.050-  21 2.25   8 2.26  16 2.26   7 2.36
  53  0.801  0.299  0.204-  22 2.25   9 2.26  17 2.26   8 2.36  16 2.36
  54  0.739  0.174  0.359-  23 2.25  17 2.36   9 2.36
 
  LATTYP: Found a base centered orthorhombic cell.
 ALAT       =     9.5784100000
 B/A-ratio  =     1.8519363485
 C/A-ratio  =     1.9847903504
  
  Lattice vectors:
  
 A1 = (   8.4281814759,   5.5287226424,   0.0000000000)
 A2 = (   0.0000000000, -10.0797329849,   0.0000000000)
 A3 = (   0.0000000000,   0.0000000000, -19.0111357400)


Analysis of symmetry for initial positions (statically):
=====================================================================
 Subroutine PRICEL returns:
 Original cell was already a primitive cell.
 

 Routine SETGRP: Setting up the symmetry group for a 
 base centered orthorhombic supercell.


 Subroutine GETGRP returns: Found  1 space group operations
 (whereof  1 operations were pure point group operations)
 out of a pool of  8 trial point group operations.


The static configuration has the point symmetry C_1 .


Analysis of symmetry for dynamics (positions and initial velocities):
=====================================================================
 Subroutine PRICEL returns:
 Original cell was already a primitive cell.
 

 Routine SETGRP: Setting up the symmetry group for a 
 base centered orthorhombic supercell.


 Subroutine GETGRP returns: Found  1 space group operations
 (whereof  1 operations were pure point group operations)
 out of a pool of  8 trial point group operations.


The dynamic configuration has the point symmetry C_1 .


 Subroutine INISYM returns: Found  1 space group operations
 (whereof  1 operations are pure point group operations),
 and found     1 'primitive' translations


----------------------------------------------------------------------------------------

                                     Primitive cell                                     

  volume of cell :    1615.0686

  direct lattice vectors                    reciprocal lattice vectors
     8.428181476 -4.551010342  0.000000000     0.118649557  0.000000000  0.000000000
     0.000000000 10.079732985  0.000000000     0.053570403  0.099208977  0.000000000
     0.000000000  0.000000000 19.011135740     0.000000000  0.000000000  0.052600750

  length of vectors
     9.578410000 10.079732985 19.011135740     0.118649557  0.112748434  0.052600750

  position of ions in fractional coordinates (direct lattice)
     0.645270229  0.915243159  0.102959234
     0.582630317  0.789963333  0.257398085
     0.519990404  0.664683508  0.411836936
     0.332816867  0.290336434  0.051479617
     0.270176954  0.165056608  0.205918468
     0.207537041  0.039776783  0.360357319
     0.020363505  0.665429709  0.000000000
     0.957723592  0.540149884  0.154438851
     0.895083679  0.414870058  0.308877702
     0.661820070  0.684136840  0.062155563
     0.599180157  0.558857015  0.216594414
     0.536540245  0.433577189  0.371033265
     0.286726795  0.933950290  0.165114797
     0.224086882  0.808670464  0.319553648
     0.161446969  0.683390639  0.473992499
     0.974273433  0.309043565  0.113635180
     0.911633520  0.183763740  0.268074031
     0.909476229  0.915243159  0.102959234
     0.846836317  0.789963333  0.257398085
     0.784196404  0.664683508  0.411836936
     0.597022867  0.290336434  0.051479617
     0.534382954  0.165056608  0.205918468
     0.471743041  0.039776783  0.360357319
     0.284569505  0.665429709  0.000000000
     0.221929592  0.540149884  0.154438851
     0.159289679  0.414870058  0.308877702
     0.096649766  0.289590232  0.463316553
     0.825181678  0.674430055  0.153010292
     0.762541765  0.549150230  0.307449143
     0.699901852  0.423870404  0.461887994
     0.512728315  0.049523331  0.101530675
     0.450088403  0.924243505  0.255969526
     0.387448490  0.798963679  0.410408377
     0.200274953  0.424616606  0.050051058
     0.137635040  0.299336780  0.204489909
     0.074995127  0.174056954  0.358928760
     0.866747645  0.093991989  0.050529303
     0.804107732  0.968712164  0.204968154
     0.741467819  0.843432338  0.359407005
     0.491654369  0.343805439  0.153488537
     0.429014457  0.218525613  0.307927388
     0.366374544  0.093245787  0.462366239
     0.179201007  0.718898714  0.102008920
     0.116561094  0.593618888  0.256447771
     0.053921181  0.468339063  0.410886622
     0.488751678  0.674430055  0.153010292
     0.426111765  0.549150230  0.307449143
     0.363471852  0.423870404  0.461887994
     0.176298315  0.049523331  0.101530675
     0.113658403  0.924243505  0.255969526
     0.051018490  0.798963679  0.410408377
     0.863844953  0.424616606  0.050051058
     0.801205040  0.299336780  0.204489909
     0.738565127  0.174056954  0.358928760

  ion indices of the primitive-cell ions
   primitive index   ion index
                 1           1
                 2           2
                 3           3
                 4           4
                 5           5
                 6           6
                 7           7
                 8           8
                 9           9
                10          10
                11          11
                12          12
                13          13
                14          14
                15          15
                16          16
                17          17
                18          18
                19          19
                20          20
                21          21
                22          22
                23          23
                24          24
                25          25
                26          26
                27          27
                28          28
                29          29
                30          30
                31          31
                32          32
                33          33
                34          34
                35          35
                36          36
                37          37
                38          38
                39          39
                40          40
                41          41
                42          42
                43          43
                44          44
                45          45
                46          46
                47          47
                48          48
                49          49
                50          50
                51          51
                52          52
                53          53
                54          54

----------------------------------------------------------------------------------------

 
 
 KPOINTS: gamma-point-only calculation. no periodi

Automatic generation of k-mesh.
Space group operators:
 irot       det(A)        alpha          n_x          n_y          n_z        tau_x        tau_y        tau_z
    1     1.000000     0.000000     1.000000     0.000000     0.000000     0.000000     0.000000     0.000000
 
 Subroutine IBZKPT returns following result:
 ===========================================
 
 Found      1 irreducible k-points:
 
 Following reciprocal coordinates:
            Coordinates               Weight
  0.000000  0.000000  0.000000      1.000000
 
 Following cartesian coordinates:
            Coordinates               Weight
  0.000000  0.000000  0.000000      1.000000
 


--------------------------------------------------------------------------------------------------------




 Dimension of arrays:
   k-points           NKPTS =      1   k-points in BZ     NKDIM =      1   number of bands    NBANDS=    360
   number of dos      NEDOS =    301   number of ions     NIONS =     54
   non local maximal  LDIM  =      6   non local SUM 2l+1 LMDIM =     18
   total plane-waves  NPLWV = 270000
   max r-space proj   IRMAX =   1893   max aug-charges    IRDMAX=   5466
   dimension x,y,z NGX =    50 NGY =   54 NGZ =  100
   dimension x,y,z NGXF=   100 NGYF=  108 NGZF=  200
   support grid    NGXF=   100 NGYF=  108 NGZF=  200
   ions per type =              27  27
   NGX,Y,Z   is equivalent  to a cutoff of   8.68,  8.91,  8.74 a.u.
   NGXF,Y,Z  is equivalent  to a cutoff of  17.36, 17.81, 17.49 a.u.

 SYSTEM =  "Millerite NiS"                         
 POSCAR =  Structure 47 made from 011-3.xsd file   

 Startparameter for this run:
   NWRITE =      2    write-flag & timer
   PREC   = normal    normal or accurate (medium, high low for compatibility)
   ISTART =      0    job   : 0-new  1-cont  2-samecut
   ICHARG =      2    charge: 1-file 2-atom 10-const
   ISPIN  =      1    spin polarized calculation?
   LNONCOLLINEAR =      F non collinear calculations
   LSORBIT =      F    spin-orbit coupling
   INIWAV =      1    electr: 0-lowe 1-rand  2-diag
   LASPH  =      F    aspherical Exc in radial PAW
   METAGGA=      F    non-selfconsistent MetaGGA calc.

 Electronic Relaxation 1
   ENCUT  =  450.0 eV  33.07 Ry    5.75 a.u.  16.57 17.43 32.88*2*pi/ulx,y,z
   ENINI  =  450.0     initial cutoff
   ENAUG  =  703.4 eV  augmentation charge cutoff
   NELM   =    100;   NELMIN=  2; NELMDL= -5     # of ELM steps 
   EDIFF  = 0.1E-03   stopping-criterion for ELM
   LREAL  =      T    real-space projection
   NLSPLINE    = F    spline interpolate recip. space projectors
   LCOMPAT=      F    compatible to vasp.4.4
   GGA_COMPAT  = T    GGA compatible to vasp.4.4-vasp.4.6
   LMAXPAW     = -100 max onsite density
   LMAXMIX     =    2 max onsite mixed and CHGCAR
   VOSKOWN=      0    Vosko Wilk Nusair interpolation
   ROPT   =   -0.00050  -0.00050
 Ionic relaxation
   EDIFFG = 0.1E-02   stopping-criterion for IOM
   NSW    =      0    number of steps for IOM
   NBLOCK =      1;   KBLOCK =      1    inner block; outer block 
   IBRION =     -1    ionic relax: 0-MD 1-quasi-New 2-CG
   NFREE  =      0    steps in history (QN), initial steepest desc. (CG)
   ISIF   =      2    stress and relaxation
   IWAVPR =     10    prediction:  0-non 1-charg 2-wave 3-comb
   ISYM   =      2    0-nonsym 1-usesym 2-fastsym
   LCORR  =      T    Harris-Foulkes like correction to forces

   POTIM  = 0.5000    time-step for ionic-motion
   TEIN   =    0.0    initial temperature
   TEBEG  =    0.0;   TEEND  =   0.0 temperature during run
   SMASS  =  -3.00    Nose mass-parameter (am)
   estimated Nose-frequenzy (Omega)   =  0.10E-29 period in steps = 0.13E+47 mass=  -0.210E-26a.u.
   SCALEE = 1.0000    scale energy and forces
   NPACO  =    256;   APACO  = 16.0  distance and # of slots for P.C.
   PSTRESS=    0.0 pullay stress

  Mass of Ions in am
   POMASS =  58.69 32.07
  Ionic Valenz
   ZVAL   =  16.00  6.00
  Atomic Wigner-Seitz radii
   RWIGS  =  -1.00 -1.00
  virtual crystal weights 
   VCA    =   1.00  1.00
   NELECT =     594.0000    total number of electrons
   NUPDOWN=      -1.0000    fix difference up-down

 DOS related values:
   EMIN   =  10.00;   EMAX   =-10.00  energy-range for DOS
   EFERMI =   0.00
   ISMEAR =     0;   SIGMA  =   0.20  broadening in eV -4-tet -1-fermi 0-gaus

 Electronic relaxation 2 (details)
   IALGO  =     38    algorithm
   LDIAG  =      T    sub-space diagonalisation (order eigenvalues)
   LSUBROT=      F    optimize rotation matrix (better conditioning)
   TURBO    =      0    0=normal 1=particle mesh
   IRESTART =      0    0=no restart 2=restart with 2 vectors
   NREBOOT  =      0    no. of reboots
   NMIN     =      0    reboot dimension
   EREF     =   0.00    reference energy to select bands
   IMIX   =      4    mixing-type and parameters
     AMIX     =   0.40;   BMIX     =  1.00
     AMIX_MAG =   1.60;   BMIX_MAG =  1.00
     AMIN     =   0.10
     WC   =   100.;   INIMIX=   1;  MIXPRE=   1;  MAXMIX= -45

 Intra band minimization:
   WEIMIN = 0.0000     energy-eigenvalue tresh-hold
   EBREAK =  0.69E-07  absolut break condition
   DEPER  =   0.30     relativ break condition  

   TIME   =   0.40     timestep for ELM

  volume/ion in A,a.u.               =      29.91       201.83
  Fermi-wavevector in a.u.,A,eV,Ry     =   1.172933  2.216523 18.718522  1.375773
  Thomas-Fermi vector in A             =   2.309354
 
 Write flags
   LWAVE        =      F    write WAVECAR
   LDOWNSAMPLE  =      F    k-point downsampling of WAVECAR
   LCHARG       =      F    write CHGCAR
   LVTOT        =      F    write LOCPOT, total local potential
   LVHAR        =      F    write LOCPOT, Hartree potential only
   LELF         =      F    write electronic localiz. function (ELF)
   LORBIT       =      0    0 simple, 1 ext, 2 COOP (PROOUT), +10 PAW based schemes


 Dipole corrections
   LMONO  =      F    monopole corrections only (constant potential shift)
   LDIPOL =      F    correct potential (dipole corrections)
   IDIPOL =      0    1-x, 2-y, 3-z, 4-all directions 
   EPSILON=  1.0000000 bulk dielectric constant

 Exchange correlation treatment:
   GGA     =    --    GGA type
   LEXCH   =     8    internal setting for exchange type
   VOSKOWN=      0    Vosko Wilk Nusair interpolation
   LHFCALC =     F    Hartree Fock is set to
   LHFONE  =     F    Hartree Fock one center treatment
   AEXX    =    0.0000 exact exchange contribution

 Linear response parameters
   LEPSILON=     F    determine dielectric tensor
   LRPA    =     F    only Hartree local field effects (RPA)
   LNABLA  =     F    use nabla operator in PAW spheres
   LVEL    =     F    velocity operator in full k-point grid
   LINTERFAST=   F  fast interpolation
   KINTER  =     0    interpolate to denser k-point grid
   CSHIFT  =0.1000    complex shift for real part using Kramers Kronig
   OMEGAMAX=  -1.0    maximum frequency
   DEG_THRESHOLD= 0.2000000E-02 threshold for treating states as degnerate
   RTIME   =   -0.100 relaxation time in fs
  (WPLASMAI=    0.000 imaginary part of plasma frequency in eV, 0.658/RTIME)
   DFIELD  = 0.0000000 0.0000000 0.0000000 field for delta impulse in time
 
 Orbital magnetization related:
   ORBITALMAG=     F  switch on orbital magnetization
   LCHIMAG   =     F  perturbation theory with respect to B field
   DQ        =  0.001000  dq finite difference perturbation B field
   LLRAUG    =     F  two centre corrections for induced B field



--------------------------------------------------------------------------------------------------------


 Static calculation
 charge density and potential will be updated during run
 non-spin polarized calculation
 Variant of blocked Davidson
 Davidson routine will perform the subspace rotation
 perform sub-space diagonalisation
    after iterative eigenvector-optimisation
 modified Broyden-mixing scheme, WC =      100.0
 initial mixing is a Kerker type mixing with AMIX =  0.4000 and BMIX =      1.0000
 Hartree-type preconditioning will be used
 using additional bands           63
 real space projection scheme for non local part
 use partial core corrections
 calculate Harris-corrections to forces 
   (improved forces if not selfconsistent)
 use gradient corrections 
 use of overlap-Matrix (Vanderbilt PP)
 Gauss-broadening in eV      SIGMA  =   0.20


--------------------------------------------------------------------------------------------------------


  energy-cutoff  :      450.00
  volume of cell :     1615.07
      direct lattice vectors                 reciprocal lattice vectors
     8.428181476 -4.551010342  0.000000000     0.118649557  0.000000000  0.000000000
     0.000000000 10.079732985  0.000000000     0.053570403  0.099208977  0.000000000
     0.000000000  0.000000000 19.011135740     0.000000000  0.000000000  0.052600750

  length of vectors
     9.578410000 10.079732985 19.011135740     0.118649557  0.112748434  0.052600750


 
 k-points in units of 2pi/SCALE and weight: gamma-point-only calculation. no periodi
   0.00000000  0.00000000  0.00000000       1.000
 
 k-points in reciprocal lattice and weights: gamma-point-only calculation. no periodi
   0.00000000  0.00000000  0.00000000       1.000
 
 position of ions in fractional coordinates (direct lattice) 
   0.64527023  0.91524316  0.10295923
   0.58263032  0.78996333  0.25739808
   0.51999040  0.66468351  0.41183694
   0.33281687  0.29033643  0.05147962
   0.27017695  0.16505661  0.20591847
   0.20753704  0.03977678  0.36035732
   0.02036350  0.66542971  0.00000000
   0.95772359  0.54014988  0.15443885
   0.89508368  0.41487006  0.30887770
   0.66182007  0.68413684  0.06215556
   0.59918016  0.55885702  0.21659441
   0.53654024  0.43357719  0.37103327
   0.28672679  0.93395029  0.16511480
   0.22408688  0.80867046  0.31955365
   0.16144697  0.68339064  0.47399250
   0.97427343  0.30904357  0.11363518
   0.91163352  0.18376374  0.26807403
   0.90947623  0.91524316  0.10295923
   0.84683632  0.78996333  0.25739808
   0.78419640  0.66468351  0.41183694
   0.59702287  0.29033643  0.05147962
   0.53438295  0.16505661  0.20591847
   0.47174304  0.03977678  0.36035732
   0.28456951  0.66542971  0.00000000
   0.22192959  0.54014988  0.15443885
   0.15928968  0.41487006  0.30887770
   0.09664977  0.28959023  0.46331655
   0.82518168  0.67443006  0.15301029
   0.76254177  0.54915023  0.30744914
   0.69990185  0.42387040  0.46188799
   0.51272831  0.04952333  0.10153067
   0.45008840  0.92424350  0.25596953
   0.38744849  0.79896368  0.41040838
   0.20027495  0.42461661  0.05005106
   0.13763504  0.29933678  0.20448991
   0.07499513  0.17405695  0.35892876
   0.86674764  0.09399199  0.05052930
   0.80410773  0.96871216  0.20496815
   0.74146782  0.84343234  0.35940701
   0.49165437  0.34380544  0.15348854
   0.42901446  0.21852561  0.30792739
   0.36637454  0.09324579  0.46236624
   0.17920101  0.71889871  0.10200892
   0.11656109  0.59361889  0.25644777
   0.05392118  0.46833906  0.41088662
   0.48875168  0.67443006  0.15301029
   0.42611177  0.54915023  0.30744914
   0.36347185  0.42387040  0.46188799
   0.17629831  0.04952333  0.10153067
   0.11365840  0.92424350  0.25596953
   0.05101849  0.79896368  0.41040838
   0.86384495  0.42461661  0.05005106
   0.80120504  0.29933678  0.20448991
   0.73856513  0.17405695  0.35892876
 
 position of ions in cartesian coordinates  (Angst):
   5.43845459  6.28877517  1.95737197
   4.91051405  5.31106287  4.89342993
   4.38257349  4.33335057  7.82948789
   2.80504095  1.41186073  0.97868599
   2.27710040  0.43414842  3.91474395
   1.74915984 -0.54356387  6.85080191
   0.17162732  6.61467927  0.00000000
   8.07186824  1.08595663  2.93605796
   7.54392768  0.10824433  5.87211592
   5.57793965  3.88396669  1.18164785
   5.04999910  2.90625440  4.11770581
   4.52205855  1.92854209  7.05376376
   2.41658546  8.10907293  3.13901982
   1.88864491  7.13136063  6.07507778
   1.36070435  6.15364834  9.01113574
   8.21135330 -1.31885185  2.16033383
   7.68341275 -2.29656415  5.09639179
   7.66523071  5.08637093  1.95737197
   7.13729016  4.10865863  4.89342993
   6.60934961  3.13094633  7.82948789
   5.03181707  0.20945649  0.97868599
   4.50387651 -0.76825581  3.91474395
   3.97593596 -1.74596811  6.85080191
   2.39840343  5.41227503  0.00000000
   1.87046288  4.43456273  2.93605796
   1.34252232  3.45685043  5.87211592
   0.81458177  2.47913813  8.80817388
   6.95478093  3.04266452  2.90889943
   6.42684038  2.06495223  5.84495739
   5.89889982  1.08723993  8.78101535
   4.32136729 -1.83424991  1.93021344
   3.79342674  7.26777077  4.86627140
   3.26548619  6.29005846  7.80232936
   1.68795365  3.36856863  0.95152746
   1.16001309  2.39085632  3.88758542
   0.63207254  1.41314402  6.82364338
   7.30510645 -2.99716334  0.96061944
   6.77716589  6.10485735  3.89667740
   6.24922534  5.12714504  6.83273536
   4.14375225  1.22794291  2.91799141
   3.61581170  0.25023060  5.85404937
   3.08787114 -0.72748170  8.79010733
   1.51033861  6.43076144  1.93930542
   0.98239805  5.45304914  4.87536338
   0.45445750  4.47533685  7.81142134
   4.11928784  4.57376093  2.90889943
   3.59134728  3.59604864  5.84495739
   3.06340673  2.61833633  8.78101535
   1.48587419 -0.30315350  1.93021344
   0.95793365  8.79886718  4.86627140
   0.42999309  7.82115487  7.80232936
   7.28064203  0.34865469  0.95152746
   6.75270148 -0.62905761  3.88758542
   6.22476092 -1.60676991  6.82364338
 


--------------------------------------------------------------------------------------------------------


 use parallel FFT for orbitals z direction half grid
 k-point   1 :   0.0000 0.0000 0.0000  plane waves:   17472

 maximum and minimum number of plane-waves per node :      2913     2910

 maximum number of plane-waves:     17472
 maximum index in each direction: 
   IXMAX=   16   IYMAX=   17   IZMAX=   32
   IXMIN=  -16   IYMIN=  -17   IZMIN=    0


 real space projection operators:
  total allocation   :       8731.52 KBytes
  max/ min on nodes  :       1559.84       1400.83


 parallel 3D FFT for wavefunctions:
    minimum data exchange during FFTs selected (reduces bandwidth)
 parallel 3D FFT for charge:
    minimum data exchange during FFTs selected (reduces bandwidth)


 total amount of memory used by VASP MPI-rank0    42830. kBytes
=======================================================================

   base      :      30000. kBytes
   nonlr-proj:       1916. kBytes
   fftplans  :       3097. kBytes
   grid      :       5606. kBytes
   one-center:         69. kBytes
   wavefun   :       2142. kBytes
 
     INWAV:  cpu time    0.0000: real time    0.0000
 Broyden mixing: mesh for mixing (old mesh)
   NGX = 33   NGY = 35   NGZ = 65
  (NGX  =100   NGY  =108   NGZ  =200)
  gives a total of  75075 points

 initial charge density was supplied:
 charge density of overlapping atoms calculated
 number of electron     594.0000000 magnetization 
 keeping initial charge density in first step


--------------------------------------------------------------------------------------------------------


 Maximum index for non-local projection operator          410
 Maximum index for augmentation-charges          505 (set IRDMAX)


--------------------------------------------------------------------------------------------------------


 First call to EWALD:  gamma=   0.151
 Maximum number of real-space cells 4x 3x 2
 Maximum number of reciprocal cells 2x 2x 4

    FEWALD:  cpu time    0.0028: real time    0.0028


--------------------------------------- Iteration      1(   1)  ---------------------------------------


    POTLOK:  cpu time    0.0379: real time    0.0382
    SETDIJ:  cpu time    0.0050: real time    0.0050
     EDDAV:  cpu time    1.1538: real time    1.1580
       DOS:  cpu time    0.0007: real time    0.0008
    --------------------------------------------
      LOOP:  cpu time    1.1974: real time    1.2020

 eigenvalue-minimisations  :   880
 total energy-change (2. order) : 0.6993553E+04  (-0.3788617E+05)
 number of electron     594.0000000 magnetization 
 augmentation part      594.0000000 magnetization 

 Free energy of the ion-electron system (eV)
  ---------------------------------------------------
  alpha Z        PSCENC =      1295.57565721
  Ewald energy   TEWEN  =    107707.58675970
  -Hartree energ DENC   =   -199196.67400217
  -exchange      EXHF   =         0.00000000
  -V(xc)+E(xc)   XCENC  =      2735.13192472
  PAW double counting   =     84547.15000061   -88231.13391551
  entropy T*S    EENTRO =        -0.28119690
  eigenvalues    EBANDS =     -3865.75629236
  atomic energy  EATOM  =    102001.95379032
  Solvation  Ediel_sol  =         0.00000000
  ---------------------------------------------------
  free energy    TOTEN  =      6993.55272561 eV

  energy without entropy =     6993.83392252  energy(sigma->0) =     6993.69332406


--------------------------------------------------------------------------------------------------------




--------------------------------------- Iteration      1(   2)  ---------------------------------------


     EDDAV:  cpu time    0.9930: real time    0.9977
       DOS:  cpu time    0.0005: real time    0.0005
    --------------------------------------------
      LOOP:  cpu time    0.9935: real time    0.9982

 eigenvalue-minimisations  :   760
 total energy-change (2. order) :-0.6587879E+04  (-0.6364808E+04)
 number of electron     594.0000000 magnetization 
 augmentation part      594.0000000 magnetization 

 Free energy of the ion-electron system (eV)
  ---------------------------------------------------
  alpha Z        PSCENC =      1295.57565721
  Ewald energy   TEWEN  =    107707.58675970
  -Hartree energ DENC   =   -199196.67400217
  -exchange      EXHF   =         0.00000000
  -V(xc)+E(xc)   XCENC  =      2735.13192472
  PAW double counting   =     84547.15000061   -88231.13391551
  entropy T*S    EENTRO =        -0.50580581
  eigenvalues    EBANDS =    -10453.41027222
  atomic energy  EATOM  =    102001.95379032
  Solvation  Ediel_sol  =         0.00000000
  ---------------------------------------------------
  free energy    TOTEN  =       405.67413684 eV

  energy without entropy =      406.17994265  energy(sigma->0) =      405.92703975


--------------------------------------------------------------------------------------------------------




--------------------------------------- Iteration      1(   3)  ---------------------------------------


     EDDAV:  cpu time    1.1185: real time    1.1237
       DOS:  cpu time    0.0005: real time    0.0005
    --------------------------------------------
      LOOP:  cpu time    1.1190: real time    1.1242

 eigenvalue-minimisations  :   856
 total energy-change (2. order) :-0.6652013E+03  (-0.6315637E+03)
 number of electron     594.0000000 magnetization 
 augmentation part      594.0000000 magnetization 

 Free energy of the ion-electron system (eV)
  ---------------------------------------------------
  alpha Z        PSCENC =      1295.57565721
  Ewald energy   TEWEN  =    107707.58675970
  -Hartree energ DENC   =   -199196.67400217
  -exchange      EXHF   =         0.00000000
  -V(xc)+E(xc)   XCENC  =      2735.13192472
  PAW double counting   =     84547.15000061   -88231.13391551
  entropy T*S    EENTRO =        -1.01684277
  eigenvalues    EBANDS =    -11118.10056906
  atomic energy  EATOM  =    102001.95379032
  Solvation  Ediel_sol  =         0.00000000
  ---------------------------------------------------
  free energy    TOTEN  =      -259.52719696 eV

  energy without entropy =     -258.51035419  energy(sigma->0) =     -259.01877558


--------------------------------------------------------------------------------------------------------




--------------------------------------- Iteration      1(   4)  ---------------------------------------


     EDDAV:  cpu time    1.1168: real time    1.1219
       DOS:  cpu time    0.0005: real time    0.0005
    --------------------------------------------
      LOOP:  cpu time    1.1173: real time    1.1224

 eigenvalue-minimisations  :   888
 total energy-change (2. order) :-0.4021399E+02  (-0.3977447E+02)
 number of electron     594.0000000 magnetization 
 augmentation part      594.0000000 magnetization 

 Free energy of the ion-electron system (eV)
  ---------------------------------------------------
  alpha Z        PSCENC =      1295.57565721
  Ewald energy   TEWEN  =    107707.58675970
  -Hartree energ DENC   =   -199196.67400217
  -exchange      EXHF   =         0.00000000
  -V(xc)+E(xc)   XCENC  =      2735.13192472
  PAW double counting   =     84547.15000061   -88231.13391551
  entropy T*S    EENTRO =        -1.02804297
  eigenvalues    EBANDS =    -11158.30335695
  atomic energy  EATOM  =    102001.95379032
  Solvation  Ediel_sol  =         0.00000000
  ---------------------------------------------------
  free energy    TOTEN  =      -299.74118505 eV

  energy without entropy =     -298.71314208  energy(sigma->0) =     -299.22716357


--------------------------------------------------------------------------------------------------------




--------------------------------------- Iteration      1(   5)  ---------------------------------------


     EDDAV:  cpu time    1.0864: real time    1.0890
       DOS:  cpu time    0.0005: real time    0.0005
    CHARGE:  cpu time    0.0285: real time    0.0287
    MIXING:  cpu time    0.0022: real time    0.0023
    --------------------------------------------
      LOOP:  cpu time    1.1176: real time    1.1206

 eigenvalue-minimisations  :   856
 total energy-change (2. order) :-0.1101596E+01  (-0.1099784E+01)
 number of electron     593.9999945 magnetization 
 augmentation part      214.6407217 magnetization 

 Broyden mixing:
  rms(total) = 0.70667E+01    rms(broyden)= 0.70534E+01
  rms(prec ) = 0.75088E+01
  weight for this iteration     100.00

 Free energy of the ion-electron system (eV)
  ---------------------------------------------------
  alpha Z        PSCENC =      1295.57565721
  Ewald energy   TEWEN  =    107707.58675970
  -Hartree energ DENC   =   -199196.67400217
  -exchange      EXHF   =         0.00000000
  -V(xc)+E(xc)   XCENC  =      2735.13192472
  PAW double counting   =     84547.15000061   -88231.13391551
  entropy T*S    EENTRO =        -1.02882136
  eigenvalues    EBANDS =    -11159.40417452
  atomic energy  EATOM  =    102001.95379032
  Solvation  Ediel_sol  =         0.00000000
  ---------------------------------------------------
  free energy    TOTEN  =      -300.84278101 eV

  energy without entropy =     -299.81395965  energy(sigma->0) =     -300.32837033


--------------------------------------------------------------------------------------------------------




--------------------------------------- Iteration      1(   6)  ---------------------------------------


    POTLOK:  cpu time    0.0365: real time    0.0366
    SETDIJ:  cpu time    0.0042: real time    0.0059
     EDDAV:  cpu time    1.0967: real time    1.0994
       DOS:  cpu time    0.0007: real time    0.0007
    CHARGE:  cpu time    0.0270: real time    0.0270
    MIXING:  cpu time    0.0017: real time    0.0018
    --------------------------------------------
      LOOP:  cpu time    1.1667: real time    1.1715

 eigenvalue-minimisations  :   864
 total energy-change (2. order) :-0.7091034E+02  (-0.7359607E+02)
 number of electron     593.9999983 magnetization 
 augmentation part      265.6579099 magnetization 

 Broyden mixing:
  rms(total) = 0.13825E+02    rms(broyden)= 0.13822E+02
  rms(prec ) = 0.14491E+02
  weight for this iteration     100.00

 eigenvalues of (default mixing * dielectric matrix)
  average eigenvalue GAMMA=   0.2253
  0.2253

 Free energy of the ion-electron system (eV)
  ---------------------------------------------------
  alpha Z        PSCENC =      1295.57565721
  Ewald energy   TEWEN  =    107707.58675970
  -Hartree energ DENC   =   -197173.68397768
  -exchange      EXHF   =         0.00000000
  -V(xc)+E(xc)   XCENC  =      2677.50956686
  PAW double counting   =     85705.04163340   -89208.60034408
  entropy T*S    EENTRO =        -0.65966519
  eigenvalues    EBANDS =    -13376.47653680
  atomic energy  EATOM  =    102001.95379032
  Solvation  Ediel_sol  =         0.00000000
  ---------------------------------------------------
  free energy    TOTEN  =      -371.75311626 eV

  energy without entropy =     -371.09345107  energy(sigma->0) =     -371.42328367


--------------------------------------------------------------------------------------------------------




--------------------------------------- Iteration      1(   7)  ---------------------------------------


    POTLOK:  cpu time    0.0359: real time    0.0360
    SETDIJ:  cpu time    0.0046: real time    0.0046
     EDDAV:  cpu time    1.1100: real time    1.1140
       DOS:  cpu time    0.0006: real time    0.0006
    CHARGE:  cpu time    0.0281: real time    0.0282
    MIXING:  cpu time    0.0015: real time    0.0015
    --------------------------------------------
      LOOP:  cpu time    1.1806: real time    1.1847

 eigenvalue-minimisations  :   848
 total energy-change (2. order) : 0.9280661E+02  (-0.1370964E+02)
 number of electron     593.9999977 magnetization 
 augmentation part      249.2935946 magnetization 

 Broyden mixing:
  rms(total) = 0.55749E+01    rms(broyden)= 0.55737E+01
  rms(prec ) = 0.59387E+01
  weight for this iteration     100.00

 eigenvalues of (default mixing * dielectric matrix)
  average eigenvalue GAMMA=   0.5221
  0.5221  0.5221

 Free energy of the ion-electron system (eV)
  ---------------------------------------------------
  alpha Z        PSCENC =      1295.57565721
  Ewald energy   TEWEN  =    107707.58675970
  -Hartree energ DENC   =   -198082.57256494
  -exchange      EXHF   =         0.00000000
  -V(xc)+E(xc)   XCENC  =      2700.20335644
  PAW double counting   =     88812.90835153   -92428.08496775
  entropy T*S    EENTRO =        -0.63114216
  eigenvalues    EBANDS =    -12285.88574816
  atomic energy  EATOM  =    102001.95379032
  Solvation  Ediel_sol  =         0.00000000
  ---------------------------------------------------
  free energy    TOTEN  =      -278.94650782 eV

  energy without entropy =     -278.31536566  energy(sigma->0) =     -278.63093674


--------------------------------------------------------------------------------------------------------




--------------------------------------- Iteration      1(   8)  ---------------------------------------


    POTLOK:  cpu time    0.0363: real time    0.0387
    SETDIJ:  cpu time    0.0041: real time    0.0059
     EDDAV:  cpu time    1.2366: real time    1.2396
       DOS:  cpu time    0.0005: real time    0.0005
    CHARGE:  cpu time    0.0268: real time    0.0268
    MIXING:  cpu time    0.0015: real time    0.0015
    --------------------------------------------
      LOOP:  cpu time    1.3058: real time    1.3129

 eigenvalue-minimisations  :  1008
 total energy-change (2. order) :-0.5216823E+02  (-0.1255143E+02)
 number of electron     593.9999933 magnetization 
 augmentation part      228.3479053 magnetization 

 Broyden mixing:
  rms(total) = 0.12972E+02    rms(broyden)= 0.12970E+02
  rms(prec ) = 0.16366E+02
  weight for this iteration     100.00

 eigenvalues of (default mixing * dielectric matrix)
  average eigenvalue GAMMA=   0.4099
  0.6879  0.4512  0.0905

 Free energy of the ion-electron system (eV)
  ---------------------------------------------------
  alpha Z        PSCENC =      1295.57565721
  Ewald energy   TEWEN  =    107707.58675970
  -Hartree energ DENC   =   -198607.73179302
  -exchange      EXHF   =         0.00000000
  -V(xc)+E(xc)   XCENC  =      2715.38100466
  PAW double counting   =     92760.52842478   -96450.80878369
  entropy T*S    EENTRO =        -0.80077182
  eigenvalues    EBANDS =    -11752.79902812
  atomic energy  EATOM  =    102001.95379032
  Solvation  Ediel_sol  =         0.00000000
  ---------------------------------------------------
  free energy    TOTEN  =      -331.11473999 eV

  energy without entropy =     -330.31396817  energy(sigma->0) =     -330.71435408


--------------------------------------------------------------------------------------------------------




--------------------------------------- Iteration      1(   9)  ---------------------------------------


    POTLOK:  cpu time    0.0354: real time    0.0355
    SETDIJ:  cpu time    0.0046: real time    0.0046
     EDDAV:  cpu time    1.1373: real time    1.1400
       DOS:  cpu time    0.0005: real time    0.0005
    CHARGE:  cpu time    0.0273: real time    0.0274
    MIXING:  cpu time    0.0015: real time    0.0015
    --------------------------------------------
      LOOP:  cpu time    1.2066: real time    1.2095

 eigenvalue-minimisations  :   904
 total energy-change (2. order) : 0.5229317E+02  (-0.9861127E+01)
 number of electron     593.9999927 magnetization 
 augmentation part      230.4915777 magnetization 

 Broyden mixing:
  rms(total) = 0.59687E+01    rms(broyden)= 0.59628E+01
  rms(prec ) = 0.67762E+01
  weight for this iteration     100.00

 eigenvalues of (default mixing * dielectric matrix)
  average eigenvalue GAMMA=   0.4005
  0.9102  0.3641  0.2439  0.0840

 Free energy of the ion-electron system (eV)
  ---------------------------------------------------
  alpha Z        PSCENC =      1295.57565721
  Ewald energy   TEWEN  =    107707.58675970
  -Hartree energ DENC   =   -198710.41232778
  -exchange      EXHF   =         0.00000000
  -V(xc)+E(xc)   XCENC  =      2716.15263004
  PAW double counting   =     93903.87289876   -97607.77212072
  entropy T*S    EENTRO =        -1.01714139
  eigenvalues    EBANDS =    -11584.76171661
  atomic energy  EATOM  =    102001.95379032
  Solvation  Ediel_sol  =         0.00000000
  ---------------------------------------------------
  free energy    TOTEN  =      -278.82157047 eV

  energy without entropy =     -277.80442908  energy(sigma->0) =     -278.31299978


--------------------------------------------------------------------------------------------------------




--------------------------------------- Iteration      1(  10)  ---------------------------------------


    POTLOK:  cpu time    0.0355: real time    0.0355
    SETDIJ:  cpu time    0.0045: real time    0.0045
     EDDAV:  cpu time    1.2253: real time    1.2285
       DOS:  cpu time    0.0007: real time    0.0007
    CHARGE:  cpu time    0.0270: real time    0.0271
    MIXING:  cpu time    0.0018: real time    0.0018
    --------------------------------------------
      LOOP:  cpu time    1.2948: real time    1.2981

 eigenvalue-minimisations  :  1000
 total energy-change (2. order) : 0.5398341E+01  (-0.7502104E+01)
 number of electron     593.9999972 magnetization 
 augmentation part      230.9406954 magnetization 

 Broyden mixing:
  rms(total) = 0.41504E+01    rms(broyden)= 0.41463E+01
  rms(prec ) = 0.46765E+01
  weight for this iteration     100.00

 eigenvalues of (default mixing * dielectric matrix)
  average eigenvalue GAMMA=   0.5452
  1.6881  0.4140  0.4140  0.1051  0.1051

 Free energy of the ion-electron system (eV)
  ---------------------------------------------------
  alpha Z        PSCENC =      1295.57565721
  Ewald energy   TEWEN  =    107707.58675970
  -Hartree energ DENC   =   -198661.71687972
  -exchange      EXHF   =         0.00000000
  -V(xc)+E(xc)   XCENC  =      2715.77803927
  PAW double counting   =     94901.66622158   -98614.58011152
  entropy T*S    EENTRO =        -1.00881414
  eigenvalues    EBANDS =    -11618.67789203
  atomic energy  EATOM  =    102001.95379032
  Solvation  Ediel_sol  =         0.00000000
  ---------------------------------------------------
  free energy    TOTEN  =      -273.42322934 eV

  energy without entropy =     -272.41441520  energy(sigma->0) =     -272.91882227


--------------------------------------------------------------------------------------------------------




--------------------------------------- Iteration      1(  11)  ---------------------------------------


    POTLOK:  cpu time    0.0354: real time    0.0355
    SETDIJ:  cpu time    0.0045: real time    0.0046
     EDDAV:  cpu time    1.2107: real time    1.2136
       DOS:  cpu time    0.0011: real time    0.0011
    CHARGE:  cpu time    0.0274: real time    0.0274
    MIXING:  cpu time    0.0016: real time    0.0016
    --------------------------------------------
      LOOP:  cpu time    1.2807: real time    1.2838

 eigenvalue-minimisations  :   984
 total energy-change (2. order) :-0.8694091E+01  (-0.3289560E+01)
 number of electron     593.9999897 magnetization 
 augmentation part      229.8947629 magnetization 

 Broyden mixing:
  rms(total) = 0.88823E+01    rms(broyden)= 0.88794E+01
  rms(prec ) = 0.10573E+02
  weight for this iteration     100.00

 eigenvalues of (default mixing * dielectric matrix)
  average eigenvalue GAMMA=   0.5059
  1.9013  0.4214  0.4214  0.1079  0.1079  0.0757

 Free energy of the ion-electron system (eV)
  ---------------------------------------------------
  alpha Z        PSCENC =      1295.57565721
  Ewald energy   TEWEN  =    107707.58675970
  -Hartree energ DENC   =   -198607.99122566
  -exchange      EXHF   =         0.00000000
  -V(xc)+E(xc)   XCENC  =      2713.70896219
  PAW double counting   =     97246.40875000  -100976.41425644
  entropy T*S    EENTRO =        -0.68791468
  eigenvalues    EBANDS =    -11662.25784297
  atomic energy  EATOM  =    102001.95379032
  Solvation  Ediel_sol  =         0.00000000
  ---------------------------------------------------
  free energy    TOTEN  =      -282.11732034 eV

  energy without entropy =     -281.42940566  energy(sigma->0) =     -281.77336300


--------------------------------------------------------------------------------------------------------




--------------------------------------- Iteration      1(  12)  ---------------------------------------


    POTLOK:  cpu time    0.0355: real time    0.0356
    SETDIJ:  cpu time    0.0045: real time    0.0045
     EDDAV:  cpu time    1.2658: real time    1.2702
       DOS:  cpu time    0.0005: real time    0.0005
    CHARGE:  cpu time    0.0277: real time    0.0277
    MIXING:  cpu time    0.0018: real time    0.0018
    --------------------------------------------
      LOOP:  cpu time    1.3358: real time    1.3404

 eigenvalue-minimisations  :  1008
 total energy-change (2. order) : 0.1230682E+02  (-0.3417867E+01)
 number of electron     593.9999963 magnetization 
 augmentation part      234.5738582 magnetization 

 Broyden mixing:
  rms(total) = 0.29860E+01    rms(broyden)= 0.29830E+01
  rms(prec ) = 0.34383E+01
  weight for this iteration     100.00

 eigenvalues of (default mixing * dielectric matrix)
  average eigenvalue GAMMA=   0.4625
  1.9146  0.4173  0.4173  0.1761  0.1420  0.0952  0.0748

 Free energy of the ion-electron system (eV)
  ---------------------------------------------------
  alpha Z        PSCENC =      1295.57565721
  Ewald energy   TEWEN  =    107707.58675970
  -Hartree energ DENC   =   -198601.20042711
  -exchange      EXHF   =         0.00000000
  -V(xc)+E(xc)   XCENC  =      2712.42737399
  PAW double counting   =     97961.76088957  -101695.39296748
  entropy T*S    EENTRO =        -0.71399483
  eigenvalues    EBANDS =    -11651.80758510
  atomic energy  EATOM  =    102001.95379032
  Solvation  Ediel_sol  =         0.00000000
  ---------------------------------------------------
  free energy    TOTEN  =      -269.81050373 eV

  energy without entropy =     -269.09650890  energy(sigma->0) =     -269.45350631


--------------------------------------------------------------------------------------------------------




--------------------------------------- Iteration      1(  13)  ---------------------------------------


    POTLOK:  cpu time    0.0363: real time    0.0383
    SETDIJ:  cpu time    0.0041: real time    0.0060
     EDDAV:  cpu time    1.1959: real time    1.1988
       DOS:  cpu time    0.0006: real time    0.0006
    CHARGE:  cpu time    0.0273: real time    0.0274
    MIXING:  cpu time    0.0018: real time    0.0018
    --------------------------------------------
      LOOP:  cpu time    1.2661: real time    1.2728

 eigenvalue-minimisations  :   968
 total energy-change (2. order) : 0.4357416E+01  (-0.1007351E+01)
 number of electron     593.9999969 magnetization 
 augmentation part      234.7699315 magnetization 

 Broyden mixing:
  rms(total) = 0.25943E+01    rms(broyden)= 0.25920E+01
  rms(prec ) = 0.30206E+01
  weight for this iteration     100.00

 eigenvalues of (default mixing * dielectric matrix)
  average eigenvalue GAMMA=   0.4634
  1.9596  0.4303  0.4303  0.4258  0.1880  0.0969  0.0969  0.0795

 Free energy of the ion-electron system (eV)
  ---------------------------------------------------
  alpha Z        PSCENC =      1295.57565721
  Ewald energy   TEWEN  =    107707.58675970
  -Hartree energ DENC   =   -198590.46550161
  -exchange      EXHF   =         0.00000000
  -V(xc)+E(xc)   XCENC  =      2712.93201841
  PAW double counting   =     98071.31728711  -101808.24656363
  entropy T*S    EENTRO =        -0.73827225
  eigenvalues    EBANDS =    -11655.36826305
  atomic energy  EATOM  =    102001.95379032
  Solvation  Ediel_sol  =         0.00000000
  ---------------------------------------------------
  free energy    TOTEN  =      -265.45308780 eV

  energy without entropy =     -264.71481555  energy(sigma->0) =     -265.08395168


--------------------------------------------------------------------------------------------------------




--------------------------------------- Iteration      1(  14)  ---------------------------------------


    POTLOK:  cpu time    0.0360: real time    0.0361
    SETDIJ:  cpu time    0.0045: real time    0.0046
     EDDAV:  cpu time    1.2177: real time    1.2205
       DOS:  cpu time    0.0006: real time    0.0006
    CHARGE:  cpu time    0.0273: real time    0.0274
    MIXING:  cpu time    0.0018: real time    0.0018
    --------------------------------------------
      LOOP:  cpu time    1.2880: real time    1.2911

 eigenvalue-minimisations  :   992
 total energy-change (2. order) :-0.1860903E+01  (-0.1574726E+01)
 number of electron     593.9999961 magnetization 
 augmentation part      235.1822737 magnetization 

 Broyden mixing:
  rms(total) = 0.26400E+01    rms(broyden)= 0.26383E+01
  rms(prec ) = 0.29750E+01
  weight for this iteration     100.00

 eigenvalues of (default mixing * dielectric matrix)
  average eigenvalue GAMMA=   0.4378
  1.9608  0.4501  0.4501  0.4597  0.2187  0.1256  0.0984  0.0984  0.0788

 Free energy of the ion-electron system (eV)
  ---------------------------------------------------
  alpha Z        PSCENC =      1295.57565721
  Ewald energy   TEWEN  =    107707.58675970
  -Hartree energ DENC   =   -198601.45987524
  -exchange      EXHF   =         0.00000000
  -V(xc)+E(xc)   XCENC  =      2712.87486013
  PAW double counting   =     98286.96819804  -102025.88560213
  entropy T*S    EENTRO =        -0.69959766
  eigenvalues    EBANDS =    -11644.22818078
  atomic energy  EATOM  =    102001.95379032
  Solvation  Ediel_sol  =         0.00000000
  ---------------------------------------------------
  free energy    TOTEN  =      -267.31399042 eV

  energy without entropy =     -266.61439276  energy(sigma->0) =     -266.96419159


--------------------------------------------------------------------------------------------------------




--------------------------------------- Iteration      1(  15)  ---------------------------------------


    POTLOK:  cpu time    0.0359: real time    0.0360
    SETDIJ:  cpu time    0.0045: real time    0.0045
     EDDAV:  cpu time    1.1958: real time    1.1986
       DOS:  cpu time    0.0006: real time    0.0006
    CHARGE:  cpu time    0.0273: real time    0.0273
    MIXING:  cpu time    0.0019: real time    0.0019
    --------------------------------------------
      LOOP:  cpu time    1.2660: real time    1.2689

 eigenvalue-minimisations  :   968
 total energy-change (2. order) : 0.2601198E+01  (-0.4063850E+00)
 number of electron     593.9999963 magnetization 
 augmentation part      235.2464422 magnetization 

 Broyden mixing:
  rms(total) = 0.15735E+01    rms(broyden)= 0.15719E+01
  rms(prec ) = 0.18194E+01
  weight for this iteration     100.00

 eigenvalues of (default mixing * dielectric matrix)
  average eigenvalue GAMMA=   0.4217
  1.9401  0.4672  0.4672  0.3882  0.3882  0.1453  0.1453  0.0983  0.0983  0.0789

 Free energy of the ion-electron system (eV)
  ---------------------------------------------------
  alpha Z        PSCENC =      1295.57565721
  Ewald energy   TEWEN  =    107707.58675970
  -Hartree energ DENC   =   -198617.43650176
  -exchange      EXHF   =         0.00000000
  -V(xc)+E(xc)   XCENC  =      2713.31274006
  PAW double counting   =     98276.69496341  -102016.59818604
  entropy T*S    EENTRO =        -0.70555197
  eigenvalues    EBANDS =    -11625.09646325
  atomic energy  EATOM  =    102001.95379032
  Solvation  Ediel_sol  =         0.00000000
  ---------------------------------------------------
  free energy    TOTEN  =      -264.71279234 eV

  energy without entropy =     -264.00724036  energy(sigma->0) =     -264.36001635


--------------------------------------------------------------------------------------------------------




--------------------------------------- Iteration      1(  16)  ---------------------------------------


    POTLOK:  cpu time    0.0362: real time    0.0363
    SETDIJ:  cpu time    0.0045: real time    0.0045
     EDDAV:  cpu time    1.2007: real time    1.2035
       DOS:  cpu time    0.0006: real time    0.0006
    CHARGE:  cpu time    0.0274: real time    0.0275
    MIXING:  cpu time    0.0020: real time    0.0020
    --------------------------------------------
      LOOP:  cpu time    1.2715: real time    1.2745

 eigenvalue-minimisations  :   976
 total energy-change (2. order) : 0.4323985E+00  (-0.1343743E+00)
 number of electron     593.9999958 magnetization 
 augmentation part      234.8221588 magnetization 

 Broyden mixing:
  rms(total) = 0.14427E+01    rms(broyden)= 0.14424E+01
  rms(prec ) = 0.16663E+01
  weight for this iteration     100.00

 eigenvalues of (default mixing * dielectric matrix)
  average eigenvalue GAMMA=   0.4385
  1.9130  0.6597  0.6597  0.4180  0.4180  0.1800  0.1800  0.0988  0.0988  0.0790
  0.1184

 Free energy of the ion-electron system (eV)
  ---------------------------------------------------
  alpha Z        PSCENC =      1295.57565721
  Ewald energy   TEWEN  =    107707.58675970
  -Hartree energ DENC   =   -198634.14666843
  -exchange      EXHF   =         0.00000000
  -V(xc)+E(xc)   XCENC  =      2713.56527996
  PAW double counting   =     98165.49109916  -101904.24519323
  entropy T*S    EENTRO =        -0.69630397
  eigenvalues    EBANDS =    -11609.36481458
  atomic energy  EATOM  =    102001.95379032
  Solvation  Ediel_sol  =         0.00000000
  ---------------------------------------------------
  free energy    TOTEN  =      -264.28039386 eV

  energy without entropy =     -263.58408989  energy(sigma->0) =     -263.93224188


--------------------------------------------------------------------------------------------------------




--------------------------------------- Iteration      1(  17)  ---------------------------------------


    POTLOK:  cpu time    0.0362: real time    0.0363
    SETDIJ:  cpu time    0.0045: real time    0.0045
     EDDAV:  cpu time    1.1630: real time    1.1657
       DOS:  cpu time    0.0006: real time    0.0006
    CHARGE:  cpu time    0.0272: real time    0.0273
    MIXING:  cpu time    0.0021: real time    0.0022
    --------------------------------------------
      LOOP:  cpu time    1.2336: real time    1.2365

 eigenvalue-minimisations  :   936
 total energy-change (2. order) : 0.6482205E+00  (-0.5137744E-01)
 number of electron     593.9999962 magnetization 
 augmentation part      234.3023828 magnetization 

 Broyden mixing:
  rms(total) = 0.10702E+01    rms(broyden)= 0.10700E+01
  rms(prec ) = 0.12251E+01
  weight for this iteration     100.00

 eigenvalues of (default mixing * dielectric matrix)
  average eigenvalue GAMMA=   0.4898
  1.9775  0.9236  0.9236  0.4445  0.4445  0.4083  0.1754  0.1754  0.0790  0.0985
  0.0985  0.1288

 Free energy of the ion-electron system (eV)
  ---------------------------------------------------
  alpha Z        PSCENC =      1295.57565721
  Ewald energy   TEWEN  =    107707.58675970
  -Hartree energ DENC   =   -198654.87524460
  -exchange      EXHF   =         0.00000000
  -V(xc)+E(xc)   XCENC  =      2713.96071047
  PAW double counting   =     97990.21565647  -101726.85089769
  entropy T*S    EENTRO =        -0.71561750
  eigenvalues    EBANDS =    -11590.48298770
  atomic energy  EATOM  =    102001.95379032
  Solvation  Ediel_sol  =         0.00000000
  ---------------------------------------------------
  free energy    TOTEN  =      -263.63217332 eV

  energy without entropy =     -262.91655583  energy(sigma->0) =     -263.27436458


--------------------------------------------------------------------------------------------------------




--------------------------------------- Iteration      1(  18)  ---------------------------------------


    POTLOK:  cpu time    0.0361: real time    0.0362
    SETDIJ:  cpu time    0.0045: real time    0.0045
     EDDAV:  cpu time    1.2095: real time    1.2123
       DOS:  cpu time    0.0005: real time    0.0005
    CHARGE:  cpu time    0.0272: real time    0.0273
    MIXING:  cpu time    0.0022: real time    0.0022
    --------------------------------------------
      LOOP:  cpu time    1.2801: real time    1.2831

 eigenvalue-minimisations  :   984
 total energy-change (2. order) : 0.1916970E+00  (-0.6713831E-01)
 number of electron     593.9999961 magnetization 
 augmentation part      234.6117192 magnetization 

 Broyden mixing:
  rms(total) = 0.91547E+00    rms(broyden)= 0.91477E+00
  rms(prec ) = 0.10314E+01
  weight for this iteration     100.00

 eigenvalues of (default mixing * dielectric matrix)
  average eigenvalue GAMMA=   0.4997
  2.0135  1.0925  1.0925  0.4544  0.4544  0.4539  0.2074  0.0790  0.0985  0.0985
  0.1621  0.1621  0.1278

 Free energy of the ion-electron system (eV)
  ---------------------------------------------------
  alpha Z        PSCENC =      1295.57565721
  Ewald energy   TEWEN  =    107707.58675970
  -Hartree energ DENC   =   -198646.19603845
  -exchange      EXHF   =         0.00000000
  -V(xc)+E(xc)   XCENC  =      2713.85422345
  PAW double counting   =     97954.70597811  -101688.58990494
  entropy T*S    EENTRO =        -0.71092641
  eigenvalues    EBANDS =    -11601.62001534
  atomic energy  EATOM  =    102001.95379032
  Solvation  Ediel_sol  =         0.00000000
  ---------------------------------------------------
  free energy    TOTEN  =      -263.44047636 eV

  energy without entropy =     -262.72954995  energy(sigma->0) =     -263.08501315


--------------------------------------------------------------------------------------------------------




--------------------------------------- Iteration      1(  19)  ---------------------------------------


    POTLOK:  cpu time    0.0362: real time    0.0363
    SETDIJ:  cpu time    0.0044: real time    0.0044
     EDDAV:  cpu time    1.2196: real time    1.2225
       DOS:  cpu time    0.0006: real time    0.0006
    CHARGE:  cpu time    0.0273: real time    0.0274
    MIXING:  cpu time    0.0023: real time    0.0023
    --------------------------------------------
      LOOP:  cpu time    1.2904: real time    1.2935

 eigenvalue-minimisations  :   992
 total energy-change (2. order) : 0.1113260E+00  (-0.5125365E-01)
 number of electron     593.9999964 magnetization 
 augmentation part      234.7111633 magnetization 

 Broyden mixing:
  rms(total) = 0.71550E+00    rms(broyden)= 0.71474E+00
  rms(prec ) = 0.81221E+00
  weight for this iteration     100.00

 eigenvalues of (default mixing * dielectric matrix)
  average eigenvalue GAMMA=   0.5185
  2.0184  1.2925  1.2925  0.5172  0.4620  0.4620  0.3309  0.1722  0.1722  0.0790
  0.0985  0.0985  0.1268  0.1364

 Free energy of the ion-electron system (eV)
  ---------------------------------------------------
  alpha Z        PSCENC =      1295.57565721
  Ewald energy   TEWEN  =    107707.58675970
  -Hartree energ DENC   =   -198650.55291904
  -exchange      EXHF   =         0.00000000
  -V(xc)+E(xc)   XCENC  =      2713.81314290
  PAW double counting   =     97903.30122061  -101635.37669098
  entropy T*S    EENTRO =        -0.73584424
  eigenvalues    EBANDS =    -11598.89426683
  atomic energy  EATOM  =    102001.95379032
  Solvation  Ediel_sol  =         0.00000000
  ---------------------------------------------------
  free energy    TOTEN  =      -263.32915036 eV

  energy without entropy =     -262.59330612  energy(sigma->0) =     -262.96122824


--------------------------------------------------------------------------------------------------------




--------------------------------------- Iteration      1(  20)  ---------------------------------------


    POTLOK:  cpu time    0.0362: real time    0.0363
    SETDIJ:  cpu time    0.0045: real time    0.0045
     EDDAV:  cpu time    1.2663: real time    1.2695
       DOS:  cpu time    0.0009: real time    0.0009
    CHARGE:  cpu time    0.0281: real time    0.0281
    MIXING:  cpu time    0.0024: real time    0.0024
    --------------------------------------------
      LOOP:  cpu time    1.3385: real time    1.3418

 eigenvalue-minimisations  :  1008
 total energy-change (2. order) : 0.1388566E+00  (-0.3911440E-01)
 number of electron     593.9999967 magnetization 
 augmentation part      234.3186711 magnetization 

 Broyden mixing:
  rms(total) = 0.53687E+00    rms(broyden)= 0.53602E+00
  rms(prec ) = 0.59980E+00
  weight for this iteration     100.00

 eigenvalues of (default mixing * dielectric matrix)
  average eigenvalue GAMMA=   0.5197
  2.0341  1.4053  1.4053  0.4739  0.4739  0.5015  0.4010  0.2270  0.1709  0.1709
  0.0790  0.0985  0.0985  0.1280  0.1280

 Free energy of the ion-electron system (eV)
  ---------------------------------------------------
  alpha Z        PSCENC =      1295.57565721
  Ewald energy   TEWEN  =    107707.58675970
  -Hartree energ DENC   =   -198669.70437183
  -exchange      EXHF   =         0.00000000
  -V(xc)+E(xc)   XCENC  =      2713.94919175
  PAW double counting   =     97718.87065748  -101447.68846319
  entropy T*S    EENTRO =        -0.78688950
  eigenvalues    EBANDS =    -11582.94662568
  atomic energy  EATOM  =    102001.95379032
  Solvation  Ediel_sol  =         0.00000000
  ---------------------------------------------------
  free energy    TOTEN  =      -263.19029374 eV

  energy without entropy =     -262.40340424  energy(sigma->0) =     -262.79684899


--------------------------------------------------------------------------------------------------------




--------------------------------------- Iteration      1(  21)  ---------------------------------------


    POTLOK:  cpu time    0.0371: real time    0.0382
    SETDIJ:  cpu time    0.0040: real time    0.0058
     EDDAV:  cpu time    1.1894: real time    1.1923
       DOS:  cpu time    0.0005: real time    0.0005
    CHARGE:  cpu time    0.0285: real time    0.0286
    MIXING:  cpu time    0.0028: real time    0.0028
    --------------------------------------------
      LOOP:  cpu time    1.2623: real time    1.2682

 eigenvalue-minimisations  :   960
 total energy-change (2. order) : 0.1770118E-01  (-0.2654314E-01)
 number of electron     593.9999960 magnetization 
 augmentation part      234.3392919 magnetization 

 Broyden mixing:
  rms(total) = 0.50772E+00    rms(broyden)= 0.50706E+00
  rms(prec ) = 0.57501E+00
  weight for this iteration     100.00

 eigenvalues of (default mixing * dielectric matrix)
  average eigenvalue GAMMA=   0.5213
  2.0281  1.4775  1.4775  0.5727  0.5727  0.4308  0.4308  0.3481  0.1714  0.1714
  0.0790  0.0985  0.0985  0.1446  0.1269  0.1124

 Free energy of the ion-electron system (eV)
  ---------------------------------------------------
  alpha Z        PSCENC =      1295.57565721
  Ewald energy   TEWEN  =    107707.58675970
  -Hartree energ DENC   =   -198677.77379811
  -exchange      EXHF   =         0.00000000
  -V(xc)+E(xc)   XCENC  =      2713.90074368
  PAW double counting   =     97620.14705009  -101347.09362996
  entropy T*S    EENTRO =        -0.80880000
  eigenvalues    EBANDS =    -11576.66036548
  atomic energy  EATOM  =    102001.95379032
  Solvation  Ediel_sol  =         0.00000000
  ---------------------------------------------------
  free energy    TOTEN  =      -263.17259256 eV

  energy without entropy =     -262.36379256  energy(sigma->0) =     -262.76819256


--------------------------------------------------------------------------------------------------------




--------------------------------------- Iteration      1(  22)  ---------------------------------------


    POTLOK:  cpu time    0.0368: real time    0.0369
    SETDIJ:  cpu time    0.0045: real time    0.0045
     EDDAV:  cpu time    1.1943: real time    1.1972
       DOS:  cpu time    0.0006: real time    0.0006
    CHARGE:  cpu time    0.0273: real time    0.0274
    MIXING:  cpu time    0.0025: real time    0.0025
    --------------------------------------------
      LOOP:  cpu time    1.2660: real time    1.2691

 eigenvalue-minimisations  :   968
 total energy-change (2. order) : 0.2107837E-01  (-0.1722299E-01)
 number of electron     593.9999962 magnetization 
 augmentation part      234.3441438 magnetization 

 Broyden mixing:
  rms(total) = 0.46645E+00    rms(broyden)= 0.46600E+00
  rms(prec ) = 0.53813E+00
  weight for this iteration     100.00

 eigenvalues of (default mixing * dielectric matrix)
  average eigenvalue GAMMA=   0.5097
  1.9987  1.4879  1.4879  0.6636  0.6636  0.4333  0.4333  0.3646  0.1724  0.1724
  0.1627  0.0985  0.0985  0.0790  0.1281  0.1236  0.0969

 Free energy of the ion-electron system (eV)
  ---------------------------------------------------
  alpha Z        PSCENC =      1295.57565721
  Ewald energy   TEWEN  =    107707.58675970
  -Hartree energ DENC   =   -198684.92682903
  -exchange      EXHF   =         0.00000000
  -V(xc)+E(xc)   XCENC  =      2713.93522999
  PAW double counting   =     97506.26858016  -101231.63857923
  entropy T*S    EENTRO =        -0.82648116
  eigenvalues    EBANDS =    -11571.07964215
  atomic energy  EATOM  =    102001.95379032
  Solvation  Ediel_sol  =         0.00000000
  ---------------------------------------------------
  free energy    TOTEN  =      -263.15151419 eV

  energy without entropy =     -262.32503303  energy(sigma->0) =     -262.73827361


--------------------------------------------------------------------------------------------------------




--------------------------------------- Iteration      1(  23)  ---------------------------------------


    POTLOK:  cpu time    0.0367: real time    0.0368
    SETDIJ:  cpu time    0.0044: real time    0.0044
     EDDAV:  cpu time    1.1933: real time    1.1962
       DOS:  cpu time    0.0006: real time    0.0006
    CHARGE:  cpu time    0.0274: real time    0.0274
    MIXING:  cpu time    0.0026: real time    0.0026
    --------------------------------------------
      LOOP:  cpu time    1.2650: real time    1.2680

 eigenvalue-minimisations  :   960
 total energy-change (2. order) : 0.4447426E-01  (-0.7724036E-02)
 number of electron     593.9999964 magnetization 
 augmentation part      234.3313445 magnetization 

 Broyden mixing:
  rms(total) = 0.29737E+00    rms(broyden)= 0.29702E+00
  rms(prec ) = 0.35578E+00
  weight for this iteration     100.00

 eigenvalues of (default mixing * dielectric matrix)
  average eigenvalue GAMMA=   0.5052
  1.9882  1.4853  1.4853  0.6963  0.6963  0.4440  0.4440  0.4502  0.2774  0.1768
  0.1671  0.1671  0.0985  0.0985  0.0790  0.1246  0.1246  0.0910

 Free energy of the ion-electron system (eV)
  ---------------------------------------------------
  alpha Z        PSCENC =      1295.57565721
  Ewald energy   TEWEN  =    107707.58675970
  -Hartree energ DENC   =   -198690.72911811
  -exchange      EXHF   =         0.00000000
  -V(xc)+E(xc)   XCENC  =      2713.99532190
  PAW double counting   =     97421.97905021  -101146.36196710
  entropy T*S    EENTRO =        -0.83191083
  eigenvalues    EBANDS =    -11566.27462322
  atomic energy  EATOM  =    102001.95379032
  Solvation  Ediel_sol  =         0.00000000
  ---------------------------------------------------
  free energy    TOTEN  =      -263.10703993 eV

  energy without entropy =     -262.27512910  energy(sigma->0) =     -262.69108452


--------------------------------------------------------------------------------------------------------




--------------------------------------- Iteration      1(  24)  ---------------------------------------


    POTLOK:  cpu time    0.0365: real time    0.0366
    SETDIJ:  cpu time    0.0043: real time    0.0043
     EDDAV:  cpu time    1.2013: real time    1.2041
       DOS:  cpu time    0.0005: real time    0.0005
    CHARGE:  cpu time    0.0273: real time    0.0274
    MIXING:  cpu time    0.0026: real time    0.0026
[...]
-64.903   0.077   0.023  11.849  -0.033  -0.008   0.024  -0.011
  0.077 -64.792   0.096  -0.033  11.798  -0.040   0.003   0.022
  0.023   0.096 -64.922  -0.008  -0.040  11.856   0.014   0.003
 11.849  -0.033  -0.008   4.987   0.009   0.003  -0.007   0.002
 -0.033  11.798  -0.040   0.009   5.000   0.012  -0.001  -0.006
 -0.008  -0.040  11.856   0.003   0.012   4.985  -0.004  -0.001
  0.024   0.003   0.014  -0.007  -0.001  -0.004 -10.165   0.076
 -0.011   0.022   0.003   0.002  -0.006  -0.001   0.076 -10.042
 -0.010  -0.009  -0.017   0.003   0.002   0.005  -0.033   0.024
  0.003   0.031  -0.005  -0.001  -0.009   0.000   0.080  -0.006
 -0.024   0.003   0.036   0.007  -0.001  -0.011  -0.022  -0.024
  0.024   0.003   0.014  -0.007  -0.001  -0.004 -10.717   0.076
 -0.011   0.021   0.003   0.002  -0.006  -0.001   0.076 -10.596
 -0.010  -0.009  -0.017   0.003   0.002   0.005  -0.032   0.024
  0.003   0.031  -0.004  -0.001  -0.009   0.001   0.079  -0.006
 -0.024   0.003   0.036   0.007  -0.001  -0.011  -0.022  -0.024
 -0.006   0.003  -0.009   0.001   0.001   0.002  -0.004  -0.017
 -0.013   0.008  -0.019   0.001   0.003   0.005  -0.008  -0.035
 total augmentation occupancy for first ion, spin component:           1
  1.995   0.000   0.000  -0.019   0.001   0.000  -0.001  -0.004   0.002   0.001   0.002   0.001   0.004  -0.002  -0.001  -0.002
  0.000   1.995   0.000   0.001  -0.017   0.001   0.001  -0.001  -0.008  -0.010   0.000  -0.001   0.000   0.008   0.008   0.000
  0.000   0.000   1.995   0.000   0.001  -0.019  -0.004   0.001   0.003  -0.004  -0.015   0.003  -0.001  -0.003   0.004   0.013
 -0.019   0.001   0.000   0.122  -0.012  -0.004   0.156   0.005   0.049   0.004   0.029  -0.142  -0.000  -0.048  -0.006  -0.019
  0.001  -0.017   0.001  -0.012   0.074  -0.013   0.023   0.011  -0.123  -0.183  -0.003  -0.023  -0.016   0.121   0.184  -0.001
  0.000   0.001  -0.019  -0.004  -0.013   0.117  -0.035  -0.029  -0.058  -0.031  -0.274   0.049   0.015   0.055   0.019   0.248
 -0.001   0.001  -0.004   0.156   0.023  -0.035   2.992   0.197  -0.293   0.197  -0.279  -1.575   0.074   0.084   0.188   0.013
 -0.004  -0.001   0.001   0.005   0.011  -0.029   0.197   3.000   0.026  -0.156   0.373   0.069  -1.023  -0.024  -0.020  -0.185
  0.002  -0.008   0.003   0.049  -0.123  -0.058  -0.293   0.026   3.610  -0.033   0.060   0.074  -0.024  -1.572  -0.240  -0.174
  0.001  -0.010  -0.004   0.004  -0.183  -0.031   0.197  -0.156  -0.033   3.555   0.331   0.186  -0.029  -0.244  -1.758  -0.164
  0.002   0.000  -0.015   0.029  -0.003  -0.274  -0.279   0.373   0.060   0.331   3.698   0.018  -0.182  -0.167  -0.161  -1.708
  0.001  -0.001   0.003  -0.142  -0.023   0.049  -1.575   0.069   0.074   0.186   0.018   1.771  -0.235   0.062  -0.422   0.161
  0.004   0.000  -0.001  -0.000  -0.016   0.015   0.074  -1.023  -0.024  -0.029  -0.182  -0.235   0.868   0.022   0.135   0.063
 -0.002   0.008  -0.003  -0.048   0.121   0.055   0.084  -0.024  -1.572  -0.244  -0.167   0.062   0.022   1.349   0.392   0.233
 -0.001   0.008   0.004  -0.006   0.184   0.019   0.188  -0.020  -0.240  -1.758  -0.161  -0.422   0.135   0.392   1.667   0.052
 -0.002   0.000   0.013  -0.019  -0.001   0.248   0.013  -0.185  -0.174  -0.164  -1.708   0.161   0.063   0.233   0.052   1.542
  0.015  -0.012   0.019   0.020   0.002   0.041   0.058   0.452   0.651   0.330   0.094  -0.053  -0.291  -0.503  -0.224  -0.084
 -0.007   0.006  -0.009  -0.001  -0.002  -0.002  -0.021  -0.068  -0.052  -0.043   0.003   0.008   0.024   0.021   0.006   0.001


------------------------ aborting loop because EDIFF is reached ----------------------------------------


    CHARGE:  cpu time    0.0275: real time    0.0276
    FORLOC:  cpu time    0.0115: real time    0.0115
    FORNL :  cpu time    0.2183: real time    0.2189
    STRESS:  cpu time    0.6545: real time    0.6564
    FORCOR:  cpu time    0.0444: real time    0.0447
    FORHAR:  cpu time    0.0182: real time    0.0183
    MIXING:  cpu time    0.0039: real time    0.0039
    OFIELD:  cpu time    0.0001: real time    0.0001

  FORCE on cell =-STRESS in cart. coord.  units (eV):
  Direction    XX          YY          ZZ          XY          YZ          ZX
  --------------------------------------------------------------------------------------
  Alpha Z  1295.57566  1295.57566  1295.57566
  Ewald  144678.47895143779.30193************ -1265.19750  -949.83201  -561.27807
  Hartree172216.28440171433.81023************ -1110.85492  -636.24721  -403.20292
  E(xc)   -3767.90241 -3768.11099 -3771.35308    -0.13160    -1.10828    -0.52477
  Local  ************************316030.45375  2377.91920  1557.54003   950.03743
  n-local  -526.05998  -529.12002  -525.46158    -1.29898    -4.76717    -2.90171
  augment  4340.54090  4343.46328  4343.08493    -0.20481    13.04284     7.42398
  Kinetic  8218.45998  8219.04810  8243.42514    -3.21137    31.06130    16.51768
  Fock        0.00000     0.00000     0.00000     0.00000     0.00000     0.00000
  -------------------------------------------------------------------------------------
  Total     -28.66709   -28.74855   -28.12314    -2.97999     9.68950     6.07162
  in kB     -28.43828   -28.51908   -27.89866    -2.95620     9.61216     6.02315
  external pressure =      -28.29 kB  Pullay stress =        0.00 kB


 VOLUME and BASIS-vectors are now :
 -----------------------------------------------------------------------------
  energy-cutoff  :      450.00
  volume of cell :     1615.07
      direct lattice vectors                 reciprocal lattice vectors
     8.428181476 -4.551010342  0.000000000     0.118649557  0.000000000  0.000000000
     0.000000000 10.079732985  0.000000000     0.053570403  0.099208977  0.000000000
     0.000000000  0.000000000 19.011135740     0.000000000  0.000000000  0.052600750

  length of vectors
     9.578410000 10.079732985 19.011135740     0.118649557  0.112748434  0.052600750


 FORCES acting on ions
    electron-ion (+dipol)            ewald-force                    non-local-force                 convergence-correction
 -----------------------------------------------------------------------------------------------
   0.250E+03 -.449E+03 0.305E+04   -.248E+03 0.451E+03 -.305E+04   -.165E+01 -.168E+01 0.276E+01   -.445E-01 -.387E+00 -.371E+00
   0.183E+03 -.510E+03 -.686E+03   -.182E+03 0.511E+03 0.685E+03   -.428E+00 -.145E+01 0.250E+00   -.129E+00 -.133E-01 0.241E+00
   0.175E+02 -.536E+03 -.387E+04   -.190E+02 0.536E+03 0.387E+04   0.917E+00 0.570E-01 0.125E+01   -.600E-01 0.264E-02 0.329E+00
   0.193E+03 0.242E+02 0.396E+04   -.194E+03 -.232E+02 -.395E+04   0.794E+00 -.995E+00 -.478E+01   -.129E+00 0.233E+00 -.320E+00
   0.298E+03 -.359E+03 0.595E+03   -.299E+03 0.360E+03 -.596E+03   0.494E+00 -.113E+01 0.130E+01   -.207E-04 -.393E-01 0.253E+00
   0.398E+03 -.424E+03 -.298E+04   -.398E+03 0.425E+03 0.299E+04   0.337E-01 -.144E+01 -.323E+01   0.215E+00 -.122E+00 0.348E+00
   0.239E+03 -.450E+03 0.421E+04   -.235E+03 0.440E+03 -.420E+04   -.460E+01 0.901E+01 -.659E+01   0.104E+00 0.920E-01 -.375E+00
   0.307E+03 -.400E+03 0.163E+04   -.308E+03 0.401E+03 -.163E+04   0.937E+00 -.126E+01 0.160E+01   0.672E-01 0.301E+00 -.503E-01
   0.389E+03 -.198E+03 -.196E+04   -.392E+03 0.198E+03 0.196E+04   0.217E+01 0.179E+00 -.986E+00   -.420E-01 0.101E+00 0.438E+00
   0.159E+03 0.296E+03 0.401E+04   -.155E+03 -.289E+03 -.400E+04   -.386E+01 -.706E+01 -.885E+01   -.135E-01 0.157E+00 -.316E+00
   0.220E+03 0.433E+03 0.576E+03   -.220E+03 -.433E+03 -.576E+03   0.604E+00 0.991E+00 -.507E-01   -.104E+00 -.118E-01 0.248E-01
   0.184E+03 0.559E+03 -.287E+04   -.183E+03 -.561E+03 0.287E+04   -.121E-01 0.221E+01 -.297E+01   -.588E-01 0.723E-01 0.349E+00
   0.170E+03 0.323E+03 0.188E+04   -.170E+03 -.322E+03 -.188E+04   -.444E-01 0.644E-01 0.261E+01   -.541E-01 -.925E-01 0.256E-01
   0.186E+03 0.347E+03 -.174E+04   -.187E+03 -.348E+03 0.174E+04   0.598E+00 0.117E+01 -.429E-02   0.145E+00 0.165E+00 0.469E+00
   0.423E+02 -.448E+02 -.428E+04   -.412E+02 0.467E+02 0.427E+04   -.126E+01 -.191E+01 0.122E+02   0.128E+00 0.342E-01 0.258E+00
   0.287E+03 0.522E+03 0.288E+04   -.289E+03 -.525E+03 -.288E+04   0.171E+01 0.309E+01 0.331E+01   0.120E+00 -.165E+00 -.254E+00
   0.339E+03 0.521E+03 -.899E+03   -.341E+03 -.522E+03 0.901E+03   0.187E+01 0.145E+01 -.189E+01   -.129E-01 -.981E-01 0.286E+00
   -.509E+03 -.351E+02 0.305E+04   0.510E+03 0.382E+02 -.305E+04   -.501E+00 -.232E+01 0.277E+01   -.237E+00 -.178E+00 -.357E+00
   -.515E+03 -.106E+03 -.685E+03   0.516E+03 0.107E+03 0.684E+03   -.101E+01 -.118E+01 0.350E+00   0.881E-01 -.193E-01 0.153E+00
   -.470E+03 -.162E+03 -.389E+04   0.470E+03 0.159E+03 0.389E+04   0.564E-01 0.239E+01 -.210E+00   -.253E+00 -.107E-01 0.308E+00
   -.880E+02 0.176E+03 0.396E+04   0.897E+02 -.176E+03 -.395E+04   -.126E+01 0.836E-01 -.477E+01   -.609E-01 0.140E+00 -.289E+00
   -.488E+03 0.575E+02 0.568E+03   0.489E+03 -.573E+02 -.570E+03   -.127E+01 -.141E+00 0.130E+01   -.114E+00 -.445E-01 0.339E+00
   -.718E+03 0.762E+02 -.306E+04   0.721E+03 -.750E+02 0.306E+04   -.232E+01 -.103E+01 -.301E+01   -.227E+00 0.681E-01 0.374E+00
   -.508E+03 -.480E+02 0.421E+04   0.497E+03 0.463E+02 -.420E+04   0.101E+02 0.120E+01 -.651E+01   0.147E+00 -.225E-01 -.337E+00
   -.498E+03 0.285E+02 0.164E+04   0.499E+03 -.287E+02 -.164E+04   -.155E+01 0.105E+00 0.169E+01   0.381E+00 0.655E-01 -.121E+00
   -.326E+03 0.112E+03 -.178E+04   0.327E+03 -.112E+03 0.178E+04   -.124E+01 0.545E+00 -.463E+00   0.231E+00 0.343E-01 0.391E+00
   0.431E+03 0.315E+03 -.416E+04   -.425E+03 -.310E+03 0.415E+04   -.476E+01 -.350E+01 0.110E+02   0.250E-01 -.597E-02 0.286E+00
   -.967E+02 0.944E+02 0.764E+03   0.976E+02 -.962E+02 -.764E+03   -.764E+00 0.217E+01 -.855E+00   -.707E-01 0.118E+00 -.143E+00
   -.973E+02 0.140E+03 -.543E+03   0.990E+02 -.143E+03 0.541E+03   -.202E+01 0.234E+01 0.171E+01   -.794E-01 -.759E-02 0.173E+00
   -.389E+02 0.255E+03 -.165E+04   0.401E+02 -.258E+03 0.165E+04   -.155E+01 0.394E+01 -.320E+01   -.356E-01 0.568E-02 0.734E-01
   -.207E+02 0.708E+02 0.130E+04   0.195E+02 -.714E+02 -.131E+04   0.152E+01 0.752E+00 0.209E+01   -.527E-01 -.133E+00 -.517E-01
   -.131E+03 0.107E+03 -.121E+03   0.133E+03 -.109E+03 0.120E+03   -.182E+01 0.196E+01 0.108E+01   -.535E-01 0.549E-01 0.160E+00
   -.192E+03 -.222E+02 -.140E+04   0.193E+03 0.220E+02 0.140E+04   -.150E+01 0.246E+00 -.142E+01   -.133E-01 -.313E-01 0.152E+00
   -.243E+02 0.143E+03 0.155E+04   0.238E+02 -.144E+03 -.155E+04   0.152E+01 0.136E+01 0.191E+01   0.144E+00 0.581E-01 -.197E+00
   -.735E+02 0.150E+03 0.314E+03   0.748E+02 -.152E+03 -.314E+03   -.158E+01 0.185E+01 0.510E+00   0.882E-01 -.353E-01 0.714E-01
   0.152E+03 0.144E+03 -.106E+04   -.154E+03 -.146E+03 0.106E+04   0.127E+01 0.202E+01 -.669E+00   0.856E-01 -.730E-01 0.170E+00
   -.337E+02 -.637E+02 0.163E+04   0.339E+02 0.643E+02 -.163E+04   -.710E+00 -.136E+01 0.433E+01   -.446E-01 -.155E+00 -.153E+00
   -.859E+02 -.167E+03 0.208E+03   0.871E+02 0.169E+03 -.208E+03   -.134E+01 -.241E+01 -.501E-01   0.267E-02 -.385E-01 -.537E-01
   -.189E+03 -.363E+03 -.116E+04   0.192E+03 0.369E+03 0.117E+04   -.322E+01 -.591E+01 -.231E+01   -.951E-01 -.292E-01 0.231E+00
   -.645E+02 -.113E+03 0.702E+03   0.652E+02 0.114E+03 -.702E+03   -.751E+00 -.130E+01 -.177E+01   -.295E-01 0.942E-01 0.357E-01
   -.913E+02 -.119E+03 -.638E+03   0.929E+02 0.121E+03 0.639E+03   -.158E+01 -.258E+01 -.130E+01   -.273E-01 -.343E-01 0.227E+00
   -.772E+02 -.414E+02 -.172E+04   0.777E+02 0.422E+02 0.173E+04   -.529E+00 -.904E+00 -.491E+01   -.143E-01 -.371E-01 0.539E-02
   -.111E+03 -.206E+03 0.106E+04   0.112E+03 0.208E+03 -.106E+04   -.849E+00 -.164E+01 -.202E+01   0.859E-01 0.251E-01 -.173E+00
   -.693E+02 -.145E+03 -.202E+03   0.706E+02 0.147E+03 0.203E+03   -.144E+01 -.234E+01 -.841E+00   0.811E-01 0.473E-01 0.152E+00
   0.149E+03 -.182E+02 -.138E+04   -.151E+03 0.183E+02 0.138E+04   0.131E+01 -.886E+00 -.740E+00   0.684E-01 0.631E-01 0.197E+00
   0.130E+03 -.310E+02 0.766E+03   -.132E+03 0.307E+02 -.766E+03   0.221E+01 0.629E+00 -.954E+00   0.468E-01 -.264E-01 -.172E+00
   0.143E+03 -.149E+02 -.519E+03   -.146E+03 0.148E+02 0.517E+03   0.299E+01 -.112E+00 0.128E+01   0.274E-01 -.251E-01 0.243E+00
   0.484E+01 0.950E+02 -.164E+04   -.437E+01 -.961E+02 0.165E+04   -.203E+00 0.106E+01 -.355E+01   0.563E-01 0.542E-01 0.265E-01
   0.700E+02 0.229E+02 0.131E+04   -.699E+02 -.244E+02 -.131E+04   -.184E+00 0.170E+01 0.202E+01   -.597E-01 -.286E-01 -.928E-01
   0.162E+03 -.398E+02 -.114E+03   -.165E+03 0.400E+02 0.113E+03   0.264E+01 -.329E+00 0.111E+01   0.681E-01 0.857E-03 0.155E+00
   0.102E+03 -.138E+03 -.140E+04   -.103E+03 0.138E+03 0.140E+04   0.977E+00 -.840E+00 -.154E+01   0.117E+00 -.183E-01 0.142E+00
   0.134E+03 0.582E+02 0.155E+04   -.135E+03 -.593E+02 -.155E+04   0.253E+00 0.188E+01 0.211E+01   0.666E-01 0.104E+00 -.222E+00
   0.172E+03 0.182E+02 0.298E+03   -.174E+03 -.181E+02 -.299E+03   0.245E+01 -.105E+00 0.380E+00   -.861E-01 -.505E-02 0.113E+00
   0.133E+02 0.116E+03 -.124E+04   -.119E+02 -.117E+03 0.124E+04   -.722E+00 0.166E+01 -.450E+01   -.116E+00 0.106E-01 0.165E+00
 -----------------------------------------------------------------------------------------------
   0.882E+01 -.526E+00 0.106E+02   0.269E-11 -.156E-12 0.250E-11   -.911E+01 0.318E+00 -.139E+02   0.271E+00 0.214E+00 0.331E+01
 
 
 POSITION                                       TOTAL-FORCE (eV/Angst)
 -----------------------------------------------------------------------------------
      5.43845      6.28878      1.95737         0.390660      0.488640      0.152430
      4.91051      5.31106      4.89343         0.272017     -0.199831      0.094697
      4.38257      4.33335      7.82949        -0.692228      0.034944     -0.716645
      2.80504      1.41186      0.97869        -0.307516      0.223045      1.477428
      2.27710      0.43415      3.91474         0.038228      0.012292     -0.262486
      1.74916     -0.54356      6.85080         0.296675     -0.030388      0.627441
      0.17163      6.61468      0.00000         0.145874     -1.243283      1.815113
      8.07187      1.08596      2.93606         0.007857     -0.199187     -0.206489
      7.54393      0.10824      5.87212        -0.233380     -0.269820      0.363591
      5.57794      3.88397      1.18165        -0.069838     -0.113422      1.574985
      5.05000      2.90625      4.11771         0.057357      0.114230     -0.270602
      4.52206      1.92854      7.05376         0.333652      0.283294      0.923476
      2.41659      8.10907      3.13902         0.092486      0.123958     -0.310515
      1.88864      7.13136      6.07508         0.031456      0.093580      0.229695
      1.36070      6.15365      9.01114         0.039108     -0.018047     -2.064195
      8.21135     -1.31885      2.16033        -0.064021     -0.060314     -0.274625
      7.68341     -2.29656      5.09639        -0.307453     -0.030900      0.284252
      7.66523      5.08637      1.95737         0.197199      0.604898      0.166573
      7.13729      4.10866      4.89343        -0.321987      0.122857      0.141472
      6.60935      3.13095      7.82949         0.223723     -0.727173     -0.584003
      5.03182      0.20946      0.97869         0.370022     -0.128967      1.457065
      4.50388     -0.76826      3.91474        -0.053391      0.035580     -0.312356
      3.97594     -1.74597      6.85080         0.032223      0.240609      0.614893
      2.39840      5.41228      0.00000        -1.131359     -0.564755      1.841979
      1.87046      4.43456      2.93606        -0.117140     -0.037790     -0.243597
      1.34252      3.45685      5.87212        -0.039719     -0.037181      0.236464
      0.81458      2.47914      8.80817         1.233552      0.909671     -1.911871
      6.95478      3.04266      2.90890         0.085887      0.407479     -1.128918
      6.42684      2.06495      5.84496        -0.425912     -0.029286     -0.139213
      5.89890      1.08724      8.78102        -0.423614      1.463918     -0.800164
      4.32137     -1.83425      1.93021         0.245592     -0.026760     -0.732031
      3.79343      7.26777      4.86627        -0.101019     -0.008852      0.174838
      3.26549      6.29006      7.80233        -0.404038      0.062773      0.818257
      1.68795      3.36857      0.95153         1.194076     -0.143612     -0.978992
      1.16001      2.39086      3.88759        -0.135608      0.043080      0.270897
      0.63207      1.41314      6.82364        -0.378524      0.434638      0.713447
      7.30511     -2.99716      0.96062        -0.523985     -0.977287      0.649042
      6.77717      6.10486      3.89668        -0.208638     -0.390979      0.384003
      6.24923      5.12715      6.83274        -0.172996     -0.156384      0.555334
      4.14375      1.22794      2.91799        -0.063174     -0.103532     -1.168825
      3.61581      0.25023      5.85405        -0.077202     -0.180592      0.043219
      3.08787     -0.72748      8.79011        -0.015879     -0.152564     -1.470365
      1.51034      6.43076      1.93931         0.136676      0.228886     -1.325294
      0.98240      5.45305      4.87536        -0.096395     -0.151626      0.041451
      0.45446      4.47534      7.81142        -0.038642     -0.657045      1.019478
      4.11929      4.57376      2.90890         0.277697      0.312901     -1.155100
      3.59135      3.59605      5.84496         0.204954     -0.304100     -0.246041
      3.06341      2.61834      8.78102         0.320969      0.019796      0.201159
      1.48587     -0.30315      1.93021        -0.167196      0.198252     -0.762963
      0.95793      8.79887      4.86627         0.010500     -0.114222      0.212541
      0.42999      7.82115      7.80233         0.325340     -0.252607      0.800130
      7.28064      0.34865      0.95153        -0.765769      0.906876     -0.956361
      6.75270     -0.62906      3.88759         0.172371     -0.011406      0.193854
      6.22476     -1.60677      6.82364         0.600475     -0.044282     -0.057554
 -----------------------------------------------------------------------------------
    total drift:                               -0.024706      0.005121      0.015901


--------------------------------------------------------------------------------------------------------



  FREE ENERGIE OF THE ION-ELECTRON SYSTEM (eV)
  ---------------------------------------------------
  free  energy   TOTEN  =      -263.07691108 eV

  energy  without entropy=     -262.27409966  energy(sigma->0) =     -262.67550537
 


--------------------------------------------------------------------------------------------------------


    POTLOK:  cpu time    0.0405: real time    0.0417


--------------------------------------------------------------------------------------------------------


     LOOP+:  cpu time   42.8039: real time   42.9851
    4ORBIT:  cpu time    0.0000: real time    0.0000

 total amount of memory used by VASP MPI-rank0    42830. kBytes
=======================================================================

   base      :      30000. kBytes
   nonlr-proj:       1916. kBytes
   fftplans  :       3097. kBytes
   grid      :       5606. kBytes
   one-center:         69. kBytes
   wavefun   :       2142. kBytes
 
  
  
 General timing and accounting informations for this job:
 ========================================================
  
                  Total CPU time used (sec):       44.447
                            User time (sec):       43.893
                          System time (sec):        0.554
                         Elapsed time (sec):       45.100
  
                   Maximum memory used (kb):      197572.
                   Average memory used (kb):           0.
  
                          Minor page faults:        63584
                          Major page faults:            0
                 Voluntary context switches:          925
