<?xml version="1.0" encoding="ISO-8859-1"?>
<modeling>
 <generator>
  <i name="program" type="string">vasp </i>
  <i name="version" type="string">6.1.0  </i>
  <i name="subversion" type="string">28Jan20 (build Mar 31 2020 17:42:31) gamma-only                       parallel </i>
  <i name="platform" type="string">LinuxIFC </i>
  <i name="date" type="string">2020 04 13 </i>
  <i name="time" type="string">02:05:31 </i>
 </generator>
 <incar>
  <i type="string" name="SYSTEM">"Millerite NiS"</i>
  <i type="int" name="NSIM">     4</i>
  <i type="int" name="NELM">   100</i>
  <i name="ENCUT">    450.00000000</i>
  <i type="string" name="LREAL">A</i>
  <i type="int" name="ISMEAR">     0</i>
  <i type="int" name="NWRITE">     2</i>
  <i type="logical" name="LWAVE"> F  </i>
  <i type="logical" name="LCHARG"> F  </i>
  <i type="int" name="NCORE">     6</i>
  <i type="int" name="NELM">   100</i>
 </incar>
 <structure name="primitive_cell" >
  <crystal>
   <varray name="basis" >
    <v>       8.42818148      -4.55101034       0.00000000 </v>
    <v>       0.00000000      10.07973298       0.00000000 </v>
    <v>       0.00000000       0.00000000      19.01113574 </v>
   </varray>
   <i name="volume">   1615.06858132 </i>
   <varray name="rec_basis" >
    <v>       0.11864956       0.00000000       0.00000000 </v>
    <v>       0.05357040       0.09920898       0.00000000 </v>
    <v>       0.00000000       0.00000000       0.05260075 </v>
   </varray>
  </crystal>
  <varray name="positions" >
   <v>       0.64527023       0.91524316       0.10295923 </v>
   <v>       0.58263032       0.78996333       0.25739808 </v>
   <v>       0.51999040       0.66468351       0.41183694 </v>
   <v>       0.33281687       0.29033643       0.05147962 </v>
   <v>       0.27017695       0.16505661       0.20591847 </v>
   <v>       0.20753704       0.03977678       0.36035732 </v>
   <v>       0.02036350       0.66542971       0.00000000 </v>
   <v>       0.95772359       0.54014988       0.15443885 </v>
   <v>       0.89508368       0.41487006       0.30887770 </v>
   <v>       0.66182007       0.68413684       0.06215556 </v>
   <v>       0.59918016       0.55885702       0.21659441 </v>
   <v>       0.53654024       0.43357719       0.37103327 </v>
   <v>       0.28672679       0.93395029       0.16511480 </v>
   <v>       0.22408688       0.80867046       0.31955365 </v>
   <v>       0.16144697       0.68339064       0.47399250 </v>
   <v>       0.97427343       0.30904357       0.11363518 </v>
   <v>       0.91163352       0.18376374       0.26807403 </v>
   <v>       0.90947623       0.91524316       0.10295923 </v>
   <v>       0.84683632       0.78996333       0.25739808 </v>
   <v>       0.78419640       0.66468351       0.41183694 </v>
   <v>       0.59702287       0.29033643       0.05147962 </v>
   <v>       0.53438295       0.16505661       0.20591847 </v>
   <v>       0.47174304       0.03977678       0.36035732 </v>
   <v>       0.28456951       0.66542971       0.00000000 </v>
   <v>       0.22192959       0.54014988       0.15443885 </v>
   <v>       0.15928968       0.41487006       0.30887770 </v>
   <v>       0.09664977       0.28959023       0.46331655 </v>
   <v>       0.82518168       0.67443006       0.15301029 </v>
   <v>       0.76254177       0.54915023       0.30744914 </v>
   <v>       0.69990185       0.42387040       0.46188799 </v>
   <v>       0.51272831       0.04952333       0.10153067 </v>
   <v>       0.45008840       0.92424350       0.25596953 </v>
   <v>       0.38744849       0.79896368       0.41040838 </v>
   <v>       0.20027495       0.42461661       0.05005106 </v>
   <v>       0.13763504       0.29933678       0.20448991 </v>
   <v>       0.07499513       0.17405695       0.35892876 </v>
   <v>       0.86674764       0.09399199       0.05052930 </v>
   <v>       0.80410773       0.96871216       0.20496815 </v>
   <v>       0.74146782       0.84343234       0.35940701 </v>
   <v>       0.49165437       0.34380544       0.15348854 </v>
   <v>       0.42901446       0.21852561       0.30792739 </v>
   <v>       0.36637454       0.09324579       0.46236624 </v>
   <v>       0.17920101       0.71889871       0.10200892 </v>
   <v>       0.11656109       0.59361889       0.25644777 </v>
   <v>       0.05392118       0.46833906       0.41088662 </v>
   <v>       0.48875168       0.67443006       0.15301029 </v>
   <v>       0.42611177       0.54915023       0.30744914 </v>
   <v>       0.36347185       0.42387040       0.46188799 </v>
   <v>       0.17629831       0.04952333       0.10153067 </v>
   <v>       0.11365840       0.92424350       0.25596953 </v>
   <v>       0.05101849       0.79896368       0.41040838 </v>
   <v>       0.86384495       0.42461661       0.05005106 </v>
   <v>       0.80120504       0.29933678       0.20448991 </v>
   <v>       0.73856513       0.17405695       0.35892876 </v>
  </varray>
 </structure>
 <varray name="primitive_index" >
  <v type="int" >        1 </v>
  <v type="int" >        2 </v>
  <v type="int" >        3 </v>
  <v type="int" >        4 </v>
  <v type="int" >        5 </v>
  <v type="int" >        6 </v>
  <v type="int" >        7 </v>
  <v type="int" >        8 </v>
  <v type="int" >        9 </v>
  <v type="int" >       10 </v>
  <v type="int" >       11 </v>
  <v type="int" >       12 </v>
  <v type="int" >       13 </v>
  <v type="int" >       14 </v>
  <v type="int" >       15 </v>
  <v type="int" >       16 </v>
  <v type="int" >       17 </v>
  <v type="int" >       18 </v>
  <v type="int" >       19 </v>
  <v type="int" >       20 </v>
  <v type="int" >       21 </v>
  <v type="int" >       22 </v>
  <v type="int" >       23 </v>
  <v type="int" >       24 </v>
  <v type="int" >       25 </v>
  <v type="int" >       26 </v>
  <v type="int" >       27 </v>
  <v type="int" >       28 </v>
  <v type="int" >       29 </v>
  <v type="int" >       30 </v>
  <v type="int" >       31 </v>
  <v type="int" >       32 </v>
  <v type="int" >       33 </v>
  <v type="int" >       34 </v>
  <v type="int" >       35 </v>
  <v type="int" >       36 </v>
  <v type="int" >       37 </v>
  <v type="int" >       38 </v>
  <v type="int" >       39 </v>
  <v type="int" >       40 </v>
  <v type="int" >       41 </v>
  <v type="int" >       42 </v>
  <v type="int" >       43 </v>
  <v type="int" >       44 </v>
  <v type="int" >       45 </v>
  <v type="int" >       46 </v>
  <v type="int" >       47 </v>
  <v type="int" >       48 </v>
  <v type="int" >       49 </v>
  <v type="int" >       50 </v>
  <v type="int" >       51 </v>
  <v type="int" >       52 </v>
  <v type="int" >       53 </v>
  <v type="int" >       54 </v>
 </varray>
 <kpoints>
  <generation param="Gamma">
   <v type="int" name="divisions">       1        1        1 </v>
   <v name="usershift">      0.00000000       0.00000000       0.00000000 </v>
   <v name="genvec1">      1.00000000       0.00000000       0.00000000 </v>
   <v name="genvec2">      0.00000000       1.00000000       0.00000000 </v>
   <v name="genvec3">      0.00000000       0.00000000       1.00000000 </v>
   <v name="shift">      0.00000000       0.00000000       0.00000000 </v>
  </generation>
  <varray name="kpointlist" >
   <v>       0.00000000       0.00000000       0.00000000 </v>
  </varray>
  <varray name="weights" >
   <v>       1.00000000 </v>
  </varray>
 </kpoints>
 <parameters>
  <separator name="general" >
   <i type="string" name="SYSTEM">"Millerite NiS"</i>
   <i type="logical" name="LCOMPAT"> F  </i>
  </separator>
  <separator name="electronic" >
   <i type="string" name="PREC">normal</i>
   <i name="ENMAX">    450.00000000</i>
   <i name="ENAUG">    703.44300000</i>
   <i name="EDIFF">      0.00010000</i>
   <i type="int" name="IALGO">    38</i>
   <i type="int" name="IWAVPR">    10</i>
   <i type="int" name="NBANDS">   360</i>
   <i type="int" name="NBANDSLOW">    -1</i>
   <i type="int" name="NBANDSHIGH">    -1</i>
   <i name="NELECT">    594.00000000</i>
   <i type="int" name="TURBO">     0</i>
   <i type="int" name="IRESTART">     0</i>
   <i type="int" name="NREBOOT">     0</i>
   <i type="int" name="NMIN">     0</i>
   <i name="EREF">      0.00000000</i>
   <separator name="electronic smearing" >
    <i type="int" name="ISMEAR">     0</i>
    <i name="SIGMA">      0.20000000</i>
    <i name="KSPACING">      0.50000000</i>
    <i type="logical" name="KGAMMA"> T  </i>
    <i type="logical" name="KBLOWUP"> T  </i>
   </separator>
   <separator name="electronic projectors" >
    <i type="logical" name="LREAL"> T  </i>
    <v name="ROPT">     -0.00050000     -0.00050000</v>
    <i type="int" name="LMAXPAW">  -100</i>
    <i type="int" name="LMAXMIX">     2</i>
    <i type="logical" name="NLSPLINE"> F  </i>
   </separator>
   <separator name="electronic startup" >
    <i type="int" name="ISTART">     0</i>
    <i type="int" name="ICHARG">     2</i>
    <i type="int" name="INIWAV">     1</i>
   </separator>
   <separator name="electronic spin" >
    <i type="int" name="ISPIN">     1</i>
    <i type="logical" name="LNONCOLLINEAR"> F  </i>
    <v name="MAGMOM">      1.00000000      1.00000000      1.00000000      1.00000000      1.00000000      1.00000000      1.00000000      1.00000000      1.00000000      1.00000000      1.00000000      1.00000000      1.00000000      1.00000000      1.00000000      1.00000000      1.00000000      1.00000000      1.00000000      1.00000000
      1.00000000      1.00000000      1.00000000      1.00000000      1.00000000      1.00000000      1.00000000      1.00000000      1.00000000      1.00000000      1.00000000      1.00000000      1.00000000      1.00000000      1.00000000      1.00000000      1.00000000      1.00000000      1.00000000      1.00000000
      1.00000000      1.00000000      1.00000000      1.00000000      1.00000000      1.00000000      1.00000000      1.00000000      1.00000000      1.00000000      1.00000000      1.00000000      1.00000000      1.00000000</v>
    <i name="NUPDOWN">     -1.00000000</i>
    <i type="logical" name="LSORBIT"> F  </i>
    <v name="SAXIS">      0.00000000      0.00000000      1.00000000</v>
    <i type="logical" name="LSPIRAL"> F  </i>
    <v name="QSPIRAL">      0.00000000      0.00000000      0.00000000</v>
    <i type="logical" name="LZEROZ"> F  </i>
   </separator>
   <separator name="electronic exchange-correlation" >
    <i type="logical" name="LASPH"> F  </i>
    <i type="logical" name="LMETAGGA"> F  </i>
   </separator>
   <separator name="electronic convergence" >
    <i type="int" name="NELM">   100</i>
    <i type="int" name="NELMDL">    -5</i>
    <i type="int" name="NELMIN">     2</i>
    <i name="ENINI">    450.00000000</i>
    <separator name="electronic convergence detail" >
     <i type="logical" name="LDIAG"> T  </i>
     <i type="logical" name="LSUBROT"> F  </i>
     <i name="WEIMIN">      0.00000000</i>
     <i name="EBREAK">      0.00000007</i>
     <i name="DEPER">      0.30000000</i>
     <i type="int" name="NRMM">     4</i>
     <i name="TIME">      0.40000000</i>
    </separator>
   </separator>
   <separator name="electronic mixer" >
    <i name="AMIX">      0.40000000</i>
    <i name="BMIX">      1.00000000</i>
    <i name="AMIN">      0.10000000</i>
    <i name="AMIX_MAG">      1.60000000</i>
    <i name="BMIX_MAG">      1.00000000</i>
    <separator name="electronic mixer details" >
     <i type="int" name="IMIX">     4</i>
     <i type="logical" name="MIXFIRST"> F  </i>
     <i type="int" name="MAXMIX">   -45</i>
     <i name="WC">    100.00000000</i>
     <i type="int" name="INIMIX">     1</i>
     <i type="int" name="MIXPRE">     1</i>
     <i type="int" name="MREMOVE">     5</i>
    </separator>
   </separator>
   <separator name="electronic dipolcorrection" >
    <i type="logical" name="LDIPOL"> F  </i>
    <i type="logical" name="LMONO"> F  </i>
    <i type="int" name="IDIPOL">     0</i>
    <i name="EPSILON">      1.00000000</i>
    <v name="DIPOL">   -100.00000000   -100.00000000   -100.00000000</v>
    <i name="EFIELD">      0.00000000</i>
   </separator>
  </separator>
  <separator name="grids" >
   <i type="int" name="NGX">    50</i>
   <i type="int" name="NGY">    54</i>
   <i type="int" name="NGZ">   100</i>
   <i type="int" name="NGXF">   100</i>
   <i type="int" name="NGYF">   108</i>
   <i type="int" name="NGZF">   200</i>
   <i type="logical" name="ADDGRID"> F  </i>
  </separator>
  <separator name="ionic" >
   <i type="int" name="NSW">     0</i>
   <i type="int" name="IBRION">    -1</i>
   <i type="int" name="MDALGO">     0</i>
   <i type="int" name="ISIF">     2</i>
   <i name="PSTRESS">      0.00000000</i>
   <i name="EDIFFG">      0.00100000</i>
   <i type="int" name="NFREE">     0</i>
   <i name="POTIM">      0.50000000</i>
   <i name="SMASS">     -3.00000000</i>
   <i name="SCALEE">      1.00000000</i>
  </separator>
  <separator name="ionic md" >
   <i name="TEBEG">      0.00010000</i>
   <i name="TEEND">      0.00010000</i>
   <i type="int" name="NBLOCK">     1</i>
   <i type="int" name="KBLOCK">     1</i>
   <i type="int" name="NPACO">   256</i>
   <i name="APACO">     16.00000000</i>
  </separator>
  <separator name="symmetry" >
   <i type="int" name="ISYM">     2</i>
   <i name="SYMPREC">      0.00001000</i>
  </separator>
  <separator name="dos" >
   <i type="int" name="LORBIT">     0</i>
   <v name="RWIGS">     -1.00000000     -1.00000000</v>
   <i type="int" name="NEDOS">   301</i>
   <i name="EMIN">     10.00000000</i>
   <i name="EMAX">    -10.00000000</i>
   <i name="EFERMI">      0.00000000</i>
  </separator>
  <separator name="writing" >
   <i type="int" name="NWRITE">     2</i>
   <i type="logical" name="LWAVE"> F  </i>
   <i type="logical" name="LDOWNSAMPLE"> F  </i>
   <i type="logical" name="LCHARG"> F  </i>
   <i type="logical" name="LPARD"> F  </i>
   <i type="logical" name="LVTOT"> F  </i>
   <i type="logical" name="LVHAR"> F  </i>
   <i type="logical" name="LELF"> F  </i>
   <i type="logical" name="LOPTICS"> F  </i>
   <v name="STM">      0.00000000      0.00000000      0.00000000      0.00000000      0.00000000      0.00000000      0.00000000</v>
  </separator>
  <separator name="performance" >
   <i type="int" name="NPAR">     8</i>
   <i type="int" name="NSIM">     4</i>
   <i type="int" name="NBLK">    -1</i>
   <i type="logical" name="LPLANE"> T  </i>
   <i type="logical" name="LSCALAPACK"> T  </i>
   <i type="logical" name="LSCAAWARE"> F  </i>
   <i type="logical" name="LSCALU"> F  </i>
   <i type="logical" name="LASYNC"> F  </i>
   <i type="logical" name="LORBITALREAL"> F  </i>
  </separator>
  <separator name="miscellaneous" >
   <i type="int" name="IDIOT">     3</i>
   <i type="int" name="PHON_NSTRUCT">    -1</i>
   <i type="logical" name="LMUSIC"> F  </i>
   <v name="POMASS">     58.69000000     32.06600000</v>
   <v name="DARWINR">      0.00000000      0.00000000</v>
   <v name="DARWINV">      1.00000000      1.00000000</v>
   <i type="logical" name="LCORR"> T  </i>
  </separator>
  <i type="logical" name="GGA_COMPAT"> T  </i>
  <i type="logical" name="LBERRY"> F  </i>
  <i type="int" name="ICORELEVEL">     0</i>
  <i type="logical" name="LDAU"> F  </i>
  <i type="int" name="I_CONSTRAINED_M">     0</i>
  <separator name="electronic exchange-correlation" >
   <i type="string" name="GGA">--</i>
   <i type="int" name="VOSKOWN">     0</i>
   <i type="logical" name="LHFCALC"> F  </i>
   <i type="string" name="PRECFOCK"></i>
   <i type="logical" name="LSYMGRAD"> F  </i>
   <i type="logical" name="LHFONE"> F  </i>
   <i type="logical" name="LRHFCALC"> F  </i>
   <i type="logical" name="LTHOMAS"> F  </i>
   <i type="logical" name="LMODELHF"> F  </i>
   <i type="logical" name="LFOCKACE"> F  </i>
   <i name="ENCUT4O">     -1.00000000</i>
   <i type="int" name="EXXOEP">     0</i>
   <i type="int" name="FOURORBIT">     0</i>
   <i name="AEXX">      0.00000000</i>
   <i name="HFALPHA">      0.00000000</i>
   <i name="MCALPHA">      0.00000000</i>
   <i name="ALDAX">      1.00000000</i>
   <i name="AGGAX">      1.00000000</i>
   <i name="ALDAC">      1.00000000</i>
   <i name="AGGAC">      1.00000000</i>
   <i type="int" name="NKREDX">     1</i>
   <i type="int" name="NKREDY">     1</i>
   <i type="int" name="NKREDZ">     1</i>
   <i type="logical" name="SHIFTRED"> F  </i>
   <i type="logical" name="ODDONLY"> F  </i>
   <i type="logical" name="EVENONLY"> F  </i>
   <i type="int" name="LMAXFOCK">     0</i>
   <i type="int" name="NMAXFOCKAE">     0</i>
   <i type="logical" name="LFOCKAEDFT"> F  </i>
   <i name="HFSCREEN">      0.00000000</i>
   <i name="HFSCREENC">      0.00000000</i>
   <i type="int" name="NBANDSGWLOW">     0</i>
  </separator>
  <separator name="vdW DFT" >
   <i type="logical" name="LUSE_VDW"> F  </i>
   <i name="Zab_VDW">     -0.84910000</i>
   <i name="PARAM1">      0.12340000</i>
   <i name="PARAM2">      1.00000000</i>
   <i name="PARAM3">      0.00000000</i>
  </separator>
  <separator name="model GW" >
   <i type="int" name="MODEL_GW">     0</i>
   <i name="MODEL_EPS0">     17.94520646</i>
   <i name="MODEL_ALPHA">      1.00000000</i>
  </separator>
  <separator name="linear response parameters" >
   <i type="logical" name="LEPSILON"> F  </i>
   <i type="logical" name="LRPA"> F  </i>
   <i type="logical" name="LNABLA"> F  </i>
   <i type="logical" name="LVEL"> F  </i>
   <i type="int" name="KINTER">     0</i>
   <i name="CSHIFT">      0.10000000</i>
   <i name="OMEGAMAX">     -1.00000000</i>
   <i name="DEG_THRESHOLD">      0.00200000</i>
   <i name="RTIME">     -0.10000000</i>
   <i name="WPLASMAI">      0.00000000</i>
   <v name="DFIELD">      0.00000000      0.00000000      0.00000000</v>
   <v name="WPLASMA">      0.00000000      0.00000000      0.00000000      0.00000000      0.00000000      0.00000000      0.00000000      0.00000000      0.00000000</v>
  </separator>
  <separator name="orbital magnetization" >
   <i type="logical" name="NUCIND"> F  </i>
   <v name="MAGPOS">      0.00000000      0.00000000      0.00000000</v>
   <i type="logical" name="LNICSALL"> T  </i>
   <i type="logical" name="ORBITALMAG"> F  </i>
   <i type="logical" name="LMAGBLOCH"> F  </i>
   <i type="logical" name="LCHIMAG"> F  </i>
   <i type="logical" name="LGAUGE"> T  </i>
   <i type="int" name="MAGATOM">     0</i>
   <v name="MAGDIPOL">      0.00000000      0.00000000      0.00000000</v>
   <v name="AVECCONST">      0.00000000      0.00000000      0.00000000</v>
  </separator>
  <separator name="response functions" >
   <i type="logical" name="LFINITE_TEMPERATURE"> F  </i>
   <i type="logical" name="LADDER"> F  </i>
   <i type="logical" name="LRPAFORCE"> F  </i>
   <i type="logical" name="LFXC"> F  </i>
   <i type="logical" name="LHARTREE"> T  </i>
   <i type="int" name="IBSE">     0</i>
   <v type="int" name="KPOINT">    -1     0     0     0</v>
   <i type="logical" name="LTCTC"> F  </i>
   <i type="logical" name="LTCTE"> F  </i>
   <i type="logical" name="LTETE"> F  </i>
   <i type="logical" name="LTRIPLET"> F  </i>
   <i type="logical" name="LFXCEPS"> F  </i>
   <i type="logical" name="LFXHEG"> F  </i>
   <i type="int" name="NATURALO">     2</i>
   <i type="logical" name="LHOLEGF"> F  </i>
   <i type="logical" name="L2ORDER"> F  </i>
   <i type="logical" name="LDMP1"> F  </i>
   <i type="logical" name="LMP2LT"> F  </i>
   <i type="logical" name="LSMP2LT"> F  </i>
   <i type="logical" name="LGWLF"> F  </i>
   <i name="ENCUTGW">     -2.00000000</i>
   <i name="ENCUTGWSOFT">     -2.00000000</i>
   <i name="ENCUTLF">     -1.00000000</i>
   <i type="logical" name="LESF_SPLINES"> F  </i>
   <i type="int" name="LMAXMP2">    -1</i>
   <i name="SCISSOR">      0.00000000</i>
   <i type="int" name="NOMEGA">     0</i>
   <i type="int" name="NOMEGAR">     0</i>
   <i type="int" name="NBANDSGW">    -1</i>
   <i type="int" name="NBANDSO">    -1</i>
   <i type="int" name="NBANDSV">    -1</i>
   <i type="int" name="NELM">   100</i>
   <i type="int" name="NELMHF">     1</i>
   <i type="int" name="DIM">     3</i>
   <i type="int" name="IESPILON">     4</i>
   <i type="int" name="ANTIRES">     0</i>
   <i name="OMEGAMAX">    -30.00000000</i>
   <i name="OMEGAMIN">    -30.00000000</i>
   <i name="OMEGATL">   -200.00000000</i>
   <i type="int" name="OMEGAGRID">     0</i>
   <i name="CSHIFT">     -0.10000000</i>
   <i type="logical" name="LSELFENERGY"> F  </i>
   <i type="logical" name="LSPECTRAL"> F  </i>
   <i type="logical" name="LSPECTRALGW"> F  </i>
   <i type="logical" name="LSINGLES"> F  </i>
   <i type="logical" name="LFERMIGW"> F  </i>
   <i type="logical" name="ODDONLYGW"> F  </i>
   <i type="logical" name="EVENONLYGW"> F  </i>
   <i type="int" name="NKREDLFX">     1</i>
   <i type="int" name="NKREDLFY">     1</i>
   <i type="int" name="NKREDLFZ">     1</i>
   <i type="int" name="MAXMEM">  2800</i>
   <i type="int" name="TELESCOPE">     0</i>
   <i type="int" name="NTAUPAR">    -1</i>
   <i type="int" name="NOMEGAPAR">    -1</i>
   <i name="LAMBDA">      1.00000000</i>
  </separator>
  <separator name="External order field" >
   <i name="OFIELD_KAPPA">      0.00000000</i>
   <v name="OFIELD_K">      0.00000000      0.00000000      0.00000000</v>
   <i name="OFIELD_Q6_NEAR">      0.00000000</i>
   <i name="OFIELD_Q6_FAR">      0.00000000</i>
   <i name="OFIELD_A">      0.00000000</i>
  </separator>
 </parameters>
 <atominfo>
  <atoms>      54 </atoms>
  <types>       2 </types>
  <array name="atoms" >
   <dimension dim="1">ion</dimension>
   <field type="string">element</field>
   <field type="int">atomtype</field>
   <set>
    <rc><c>Ni</c><c>   1</c></rc>
    <rc><c>Ni</c><c>   1</c></rc>
    <rc><c>Ni</c><c>   1</c></rc>
    <rc><c>Ni</c><c>   1</c></rc>
    <rc><c>Ni</c><c>   1</c></rc>
    <rc><c>Ni</c><c>   1</c></rc>
    <rc><c>Ni</c><c>   1</c></rc>
    <rc><c>Ni</c><c>   1</c></rc>
    <rc><c>Ni</c><c>   1</c></rc>
    <rc><c>Ni</c><c>   1</c></rc>
    <rc><c>Ni</c><c>   1</c></rc>
    <rc><c>Ni</c><c>   1</c></rc>
    <rc><c>Ni</c><c>   1</c></rc>
    <rc><c>Ni</c><c>   1</c></rc>
    <rc><c>Ni</c><c>   1</c></rc>
    <rc><c>Ni</c><c>   1</c></rc>
    <rc><c>Ni</c><c>   1</c></rc>
    <rc><c>Ni</c><c>   1</c></rc>
    <rc><c>Ni</c><c>   1</c></rc>
    <rc><c>Ni</c><c>   1</c></rc>
    <rc><c>Ni</c><c>   1</c></rc>
    <rc><c>Ni</c><c>   1</c></rc>
    <rc><c>Ni</c><c>   1</c></rc>
    <rc><c>Ni</c><c>   1</c></rc>
    <rc><c>Ni</c><c>   1</c></rc>
    <rc><c>Ni</c><c>   1</c></rc>
    <rc><c>Ni</c><c>   1</c></rc>
    <rc><c>S </c><c>   2</c></rc>
    <rc><c>S </c><c>   2</c></rc>
    <rc><c>S </c><c>   2</c></rc>
    <rc><c>S </c><c>   2</c></rc>
    <rc><c>S </c><c>   2</c></rc>
    <rc><c>S </c><c>   2</c></rc>
    <rc><c>S </c><c>   2</c></rc>
    <rc><c>S </c><c>   2</c></rc>
    <rc><c>S </c><c>   2</c></rc>
    <rc><c>S </c><c>   2</c></rc>
    <rc><c>S </c><c>   2</c></rc>
    <rc><c>S </c><c>   2</c></rc>
    <rc><c>S </c><c>   2</c></rc>
    <rc><c>S </c><c>   2</c></rc>
    <rc><c>S </c><c>   2</c></rc>
    <rc><c>S </c><c>   2</c></rc>
    <rc><c>S </c><c>   2</c></rc>
    <rc><c>S </c><c>   2</c></rc>
    <rc><c>S </c><c>   2</c></rc>
    <rc><c>S </c><c>   2</c></rc>
    <rc><c>S </c><c>   2</c></rc>
    <rc><c>S </c><c>   2</c></rc>
    <rc><c>S </c><c>   2</c></rc>
    <rc><c>S </c><c>   2</c></rc>
    <rc><c>S </c><c>   2</c></rc>
    <rc><c>S </c><c>   2</c></rc>
    <rc><c>S </c><c>   2</c></rc>
   </set>
  </array>
  <array name="atomtypes" >
   <dimension dim="1">type</dimension>
   <field type="int">atomspertype</field>
   <field type="string">element</field>
   <field>mass</field>
   <field>valence</field>
   <field type="string">pseudopotential</field>
   <set>
    <rc><c>  27</c><c>Ni</c><c>     58.69000000</c><c>     16.00000000</c><c>  PAW_PBE Ni_pv 06Sep2000               </c></rc>
    <rc><c>  27</c><c>S </c><c>     32.06600000</c><c>      6.00000000</c><c>  PAW_PBE S 06Sep2000                   </c></rc>
   </set>
  </array>
 </atominfo>
 <structure name="initialpos" >
  <crystal>
   <varray name="basis" >
    <v>       8.42818148      -4.55101034       0.00000000 </v>
    <v>       0.00000000      10.07973298       0.00000000 </v>
    <v>       0.00000000       0.00000000      19.01113574 </v>
   </varray>
   <i name="volume">   1615.06858132 </i>
   <varray name="rec_basis" >
    <v>       0.11864956       0.00000000       0.00000000 </v>
    <v>       0.05357040       0.09920898       0.00000000 </v>
    <v>       0.00000000       0.00000000       0.05260075 </v>
   </varray>
  </crystal>
  <varray name="positions" >
   <v>       0.64527023       0.91524316       0.10295923 </v>
   <v>       0.58263032       0.78996333       0.25739808 </v>
   <v>       0.51999040       0.66468351       0.41183694 </v>
   <v>       0.33281687       0.29033643       0.05147962 </v>
   <v>       0.27017695       0.16505661       0.20591847 </v>
   <v>       0.20753704       0.03977678       0.36035732 </v>
   <v>       0.02036350       0.66542971       0.00000000 </v>
   <v>       0.95772359       0.54014988       0.15443885 </v>
   <v>       0.89508368       0.41487006       0.30887770 </v>
   <v>       0.66182007       0.68413684       0.06215556 </v>
   <v>       0.59918016       0.55885702       0.21659441 </v>
   <v>       0.53654024       0.43357719       0.37103327 </v>
   <v>       0.28672679       0.93395029       0.16511480 </v>
   <v>       0.22408688       0.80867046       0.31955365 </v>
   <v>       0.16144697       0.68339064       0.47399250 </v>
   <v>       0.97427343       0.30904357       0.11363518 </v>
   <v>       0.91163352       0.18376374       0.26807403 </v>
   <v>       0.90947623       0.91524316       0.10295923 </v>
   <v>       0.84683632       0.78996333       0.25739808 </v>
   <v>       0.78419640       0.66468351       0.41183694 </v>
   <v>       0.59702287       0.29033643       0.05147962 </v>
   <v>       0.53438295       0.16505661       0.20591847 </v>
   <v>       0.47174304       0.03977678       0.36035732 </v>
   <v>       0.28456951       0.66542971       0.00000000 </v>
   <v>       0.22192959       0.54014988       0.15443885 </v>
   <v>       0.15928968       0.41487006       0.30887770 </v>
   <v>       0.09664977       0.28959023       0.46331655 </v>
   <v>       0.82518168       0.67443006       0.15301029 </v>
   <v>       0.76254177       0.54915023       0.30744914 </v>
   <v>       0.69990185       0.42387040       0.46188799 </v>
   <v>       0.51272831       0.04952333       0.10153067 </v>
   <v>       0.45008840       0.92424350       0.25596953 </v>
   <v>       0.38744849       0.79896368       0.41040838 </v>
   <v>       0.20027495       0.42461661       0.05005106 </v>
   <v>       0.13763504       0.29933678       0.20448991 </v>
   <v>       0.07499513       0.17405695       0.35892876 </v>
   <v>       0.86674764       0.09399199       0.05052930 </v>
   <v>       0.80410773       0.96871216       0.20496815 </v>
   <v>       0.74146782       0.84343234       0.35940701 </v>
   <v>       0.49165437       0.34380544       0.15348854 </v>
   <v>       0.42901446       0.21852561       0.30792739 </v>
   <v>       0.36637454       0.09324579       0.46236624 </v>
   <v>       0.17920101       0.71889871       0.10200892 </v>
   <v>       0.11656109       0.59361889       0.25644777 </v>
   <v>       0.05392118       0.46833906       0.41088662 </v>
   <v>       0.48875168       0.67443006       0.15301029 </v>
   <v>       0.42611177       0.54915023       0.30744914 </v>
   <v>       0.36347185       0.42387040       0.46188799 </v>
   <v>       0.17629831       0.04952333       0.10153067 </v>
   <v>       0.11365840       0.92424350       0.25596953 </v>
   <v>       0.05101849       0.79896368       0.41040838 </v>
   <v>       0.86384495       0.42461661       0.05005106 </v>
   <v>       0.80120504       0.29933678       0.20448991 </v>
   <v>       0.73856513       0.17405695       0.35892876 </v>
  </varray>
 </structure>
 <calculation>
  <scstep>
   <time name="dav">    1.15    1.16</time>
   <time name="total">    1.20    1.20</time>
   <energy>
    <i name="alphaZ">   1295.57565721 </i>
    <i name="ewald"> 107707.58675970 </i>
    <i name="hartreedc">-199196.67400217 </i>
    <i name="XCdc">   2735.13192472 </i>
    <i name="pawpsdc">  84547.15000061 </i>
    <i name="pawaedc"> -88231.13391551 </i>
    <i name="eentropy">     -0.28119690 </i>
    <i name="bandstr">  -3865.75629236 </i>
    <i name="atom"> 102001.95379032 </i>
    <i name="e_fr_energy">   6993.55272561 </i>
    <i name="e_wo_entrp">   6993.83392252 </i>
    <i name="e_0_energy">   6993.69332406 </i>
   </energy>
  </scstep>
  <scstep>
   <time name="dav">    0.99    1.00</time>
   <time name="total">    0.99    1.00</time>
   <energy>
    <i name="e_fr_energy">    405.67413684 </i>
    <i name="e_wo_entrp">    406.17994265 </i>
    <i name="e_0_energy">    405.92703975 </i>
   </energy>
  </scstep>
  <scstep>
   <time name="dav">    1.12    1.12</time>
   <time name="total">    1.12    1.12</time>
   <energy>
    <i name="e_fr_energy">   -259.52719696 </i>
    <i name="e_wo_entrp">   -258.51035419 </i>
    <i name="e_0_energy">   -259.01877558 </i>
   </energy>
  </scstep>
  <scstep>
   <time name="dav">    1.12    1.12</time>
   <time name="total">    1.12    1.12</time>
   <energy>
    <i name="e_fr_energy">   -299.74118505 </i>
    <i name="e_wo_entrp">   -298.71314208 </i>
    <i name="e_0_energy">   -299.22716357 </i>
   </energy>
  </scstep>
  <scstep>
   <time name="dav">    1.09    1.09</time>
   <time name="total">    1.12    1.12</time>
   <energy>
    <i name="e_fr_energy">   -300.84278101 </i>
    <i name="e_wo_entrp">   -299.81395965 </i>
    <i name="e_0_energy">   -300.32837033 </i>
   </energy>
  </scstep>
  <scstep>
   <time name="dav">    1.10    1.10</time>
   <time name="total">    1.17    1.17</time>
   <energy>
    <i name="e_fr_energy">   -371.75311626 </i>
    <i name="e_wo_entrp">   -371.09345107 </i>
    <i name="e_0_energy">   -371.42328367 </i>
   </energy>
  </scstep>
  <scstep>
   <time name="dav">    1.11    1.11</time>
   <time name="total">    1.18    1.18</time>
   <energy>
    <i name="e_fr_energy">   -278.94650782 </i>
    <i name="e_wo_entrp">   -278.31536566 </i>
    <i name="e_0_energy">   -278.63093674 </i>
   </energy>
  </scstep>
  <scstep>
   <time name="dav">    1.24    1.24</time>
   <time name="total">    1.31    1.31</time>
   <energy>
    <i name="e_fr_energy">   -331.11473999 </i>
    <i name="e_wo_entrp">   -330.31396817 </i>
    <i name="e_0_energy">   -330.71435408 </i>
   </energy>
  </scstep>
  <scstep>
   <time name="dav">    1.14    1.14</time>
   <time name="total">    1.21    1.21</time>
   <energy>
    <i name="e_fr_energy">   -278.82157047 </i>
    <i name="e_wo_entrp">   -277.80442908 </i>
    <i name="e_0_energy">   -278.31299978 </i>
   </energy>
  </scstep>
  <scstep>
   <time name="dav">    1.23    1.23</time>
   <time name="total">    1.29    1.30</time>
   <energy>
    <i name="e_fr_energy">   -273.42322934 </i>
    <i name="e_wo_entrp">   -272.41441520 </i>
    <i name="e_0_energy">   -272.91882227 </i>
   </energy>
  </scstep>
  <scstep>
   <time name="dav">    1.21    1.21</time>
   <time name="total">    1.28    1.28</time>
   <energy>
    <i name="e_fr_energy">   -282.11732034 </i>
    <i name="e_wo_entrp">   -281.42940566 </i>
    <i name="e_0_energy">   -281.77336300 </i>
   </energy>
  </scstep>
  <scstep>
   <time name="dav">    1.27    1.27</time>
   <time name="total">    1.34    1.34</time>
   <energy>
    <i name="e_fr_energy">   -269.81050373 </i>
    <i name="e_wo_entrp">   -269.09650890 </i>
    <i name="e_0_energy">   -269.45350631 </i>
   </energy>
  </scstep>
  <scstep>
   <time name="dav">    1.20    1.20</time>
   <time name="total">    1.27    1.27</time>
   <energy>
    <i name="e_fr_energy">   -265.45308780 </i>
    <i name="e_wo_entrp">   -264.71481555 </i>
    <i name="e_0_energy">   -265.08395168 </i>
   </energy>
  </scstep>
  <scstep>
   <time name="dav">    1.22    1.22</time>
   <time name="total">    1.29    1.29</time>
   <energy>
    <i name="e_fr_energy">   -267.31399042 </i>
    <i name="e_wo_entrp">   -266.61439276 </i>
    <i name="e_0_energy">   -266.96419159 </i>
   </energy>
  </scstep>
  <scstep>
   <time name="dav">    1.20    1.20</time>
   <time name="total">    1.27    1.27</time>
   <energy>
    <i name="e_fr_energy">   -264.71279234 </i>
    <i name="e_wo_entrp">   -264.00724036 </i>
    <i name="e_0_energy">   -264.36001635 </i>
   </energy>
  </scstep>
  <scstep>
   <time name="dav">    1.20    1.20</time>
   <time name="total">    1.27    1.27</time>
   <energy>
    <i name="e_fr_energy">   -264.28039386 </i>
    <i name="e_wo_entrp">   -263.58408989 </i>
    <i name="e_0_energy">   -263.93224188 </i>
   </energy>
  </scstep>
  <scstep>
   <time name="dav">    1.16    1.17</time>
   <time name="total">    1.23    1.24</time>
   <energy>
    <i name="e_fr_energy">   -263.63217332 </i>
    <i name="e_wo_entrp">   -262.91655583 </i>
    <i name="e_0_energy">   -263.27436458 </i>
   </energy>
  </scstep>
  <scstep>
   <time name="dav">    1.21    1.21</time>
   <time name="total">    1.28    1.28</time>
   <energy>
    <i name="e_fr_energy">   -263.44047636 </i>
    <i name="e_wo_entrp">   -262.72954995 </i>
    <i name="e_0_energy">   -263.08501315 </i>
   </energy>
  </scstep>
  <scstep>
   <time name="dav">    1.22    1.22</time>
   <time name="total">    1.29    1.29</time>
   <energy>
    <i name="e_fr_energy">   -263.32915036 </i>
    <i name="e_wo_entrp">   -262.59330612 </i>
    <i name="e_0_energy">   -262.96122824 </i>
   </energy>
  </scstep>
  <scstep>
   <time name="dav">    1.27    1.27</time>
   <time name="total">    1.34    1.34</time>
   <energy>
    <i name="e_fr_energy">   -263.19029374 </i>
    <i name="e_wo_entrp">   -262.40340424 </i>
    <i name="e_0_energy">   -262.79684899 </i>
   </energy>
  </scstep>
  <scstep>
   <time name="dav">    1.19    1.19</time>
   <time name="total">    1.26    1.27</time>
   <energy>
    <i name="e_fr_energy">   -263.17259256 </i>
    <i name="e_wo_entrp">   -262.36379256 </i>
    <i name="e_0_energy">   -262.76819256 </i>
   </energy>
  </scstep>
  <scstep>
   <time name="dav">    1.19    1.20</time>
   <time name="total">    1.27    1.27</time>
   <energy>
    <i name="e_fr_energy">   -263.15151419 </i>
    <i name="e_wo_entrp">   -262.32503303 </i>
    <i name="e_0_energy">   -262.73827361 </i>
   </energy>
  </scstep>
  <scstep>
   <time name="dav">    1.19    1.20</time>
   <time name="total">    1.27    1.27</time>
   <energy>
    <i name="e_fr_energy">   -263.10703993 </i>
    <i name="e_wo_entrp">   -262.27512910 </i>
    <i name="e_0_energy">   -262.69108452 </i>
   </energy>
  </scstep>
  <scstep>
   <time name="dav">    1.20    1.20</time>
   <time name="total">    1.27    1.28</time>
   <energy>
    <i name="e_fr_energy">   -263.10608822 </i>
    <i name="e_wo_entrp">   -262.28931295 </i>
    <i name="e_0_energy">   -262.69770058 </i>
   </energy>
  </scstep>
  <scstep>
   <time name="dav">    1.21    1.21</time>
   <time name="total">    1.28    1.28</time>
   <energy>
    <i name="e_fr_energy">   -263.09703359 </i>
    <i name="e_wo_entrp">   -262.26713883 </i>
    <i name="e_0_energy">   -262.68208621 </i>
   </energy>
  </scstep>
  <scstep>
   <time name="dav">    1.21    1.21</time>
   <time name="total">    1.28    1.29</time>
   <energy>
    <i name="e_fr_energy">   -263.10557977 </i>
    <i name="e_wo_entrp">   -262.27397795 </i>
    <i name="e_0_energy">   -262.68977886 </i>
   </energy>
  </scstep>
  <scstep>
   <time name="dav">    1.25    1.25</time>
   <time name="total">    1.32    1.33</time>
   <energy>
    <i name="e_fr_energy">   -263.08515106 </i>
    <i name="e_wo_entrp">   -262.26643138 </i>
    <i name="e_0_energy">   -262.67579122 </i>
   </energy>
  </scstep>
  <scstep>
   <time name="dav">    1.20    1.20</time>
   <time name="total">    1.27    1.28</time>
   <energy>
    <i name="e_fr_energy">   -263.08876779 </i>
    <i name="e_wo_entrp">   -262.26368006 </i>
    <i name="e_0_energy">   -262.67622392 </i>
   </energy>
  </scstep>
  <scstep>
   <time name="dav">    1.23    1.23</time>
   <time name="total">    1.30    1.30</time>
   <energy>
    <i name="e_fr_energy">   -263.07781918 </i>
    <i name="e_wo_entrp">   -262.27956961 </i>
    <i name="e_0_energy">   -262.67869439 </i>
   </energy>
  </scstep>
  <scstep>
   <time name="dav">    1.20    1.20</time>
   <time name="total">    1.27    1.27</time>
   <energy>
    <i name="e_fr_energy">   -263.07833655 </i>
    <i name="e_wo_entrp">   -262.26816913 </i>
    <i name="e_0_energy">   -262.67325284 </i>
   </energy>
  </scstep>
  <scstep>
   <time name="dav">    1.12    1.12</time>
   <time name="total">    1.19    1.19</time>
   <energy>
    <i name="e_fr_energy">   -263.07699424 </i>
    <i name="e_wo_entrp">   -262.27156530 </i>
    <i name="e_0_energy">   -262.67427977 </i>
   </energy>
  </scstep>
  <scstep>
   <time name="dav">    1.06    1.06</time>
   <time name="total">    1.13    1.14</time>
   <energy>
    <i name="e_fr_energy">   -263.07704839 </i>
    <i name="e_wo_entrp">   -262.27002823 </i>
    <i name="e_0_energy">   -262.67353831 </i>
   </energy>
  </scstep>
  <scstep>
   <time name="dav">    0.96    0.96</time>
   <time name="total">    1.03    1.04</time>
   <energy>
    <i name="e_fr_energy">   -263.07689027 </i>
    <i name="e_wo_entrp">   -262.27156179 </i>
    <i name="e_0_energy">   -262.67422603 </i>
   </energy>
  </scstep>
  <scstep>
   <time name="dav">    1.03    1.04</time>
   <time name="total">    1.08    1.08</time>
   <energy>
    <i name="alphaZ">   1295.57565721 </i>
    <i name="ewald"> 107707.58675970 </i>
    <i name="hartreedc">-198727.00784061 </i>
    <i name="XCdc">   2714.06431596 </i>
    <i name="pawpsdc">  97248.40514800 </i>
    <i name="pawaedc">-100972.70038319 </i>
    <i name="eentropy">     -0.80281142 </i>
    <i name="bandstr"> -11530.15154705 </i>
    <i name="atom"> 102001.95379032 </i>
    <i name="e_fr_energy">   -263.07691108 </i>
    <i name="e_wo_entrp">   -262.27409966 </i>
    <i name="e_0_energy">   -262.67550537 </i>
   </energy>
  </scstep>
  <structure>
   <crystal>
    <varray name="basis" >
     <v>       8.42818148      -4.55101034       0.00000000 </v>
     <v>       0.00000000      10.07973298       0.00000000 </v>
     <v>       0.00000000       0.00000000      19.01113574 </v>
    </varray>
    <i name="volume">   1615.06858132 </i>
    <varray name="rec_basis" >
     <v>       0.11864956       0.00000000       0.00000000 </v>
     <v>       0.05357040       0.09920898       0.00000000 </v>
     <v>       0.00000000       0.00000000       0.05260075 </v>
    </varray>
   </crystal>
   <varray name="positions" >
    <v>       0.64527023       0.91524316       0.10295923 </v>
    <v>       0.58263032       0.78996333       0.25739808 </v>
    <v>       0.51999040       0.66468351       0.41183694 </v>
    <v>       0.33281687       0.29033643       0.05147962 </v>
    <v>       0.27017695       0.16505661       0.20591847 </v>
    <v>       0.20753704       0.03977678       0.36035732 </v>
    <v>       0.02036350       0.66542971       0.00000000 </v>
    <v>       0.95772359       0.54014988       0.15443885 </v>
    <v>       0.89508368       0.41487006       0.30887770 </v>
    <v>       0.66182007       0.68413684       0.06215556 </v>
    <v>       0.59918016       0.55885702       0.21659441 </v>
    <v>       0.53654024       0.43357719       0.37103327 </v>
    <v>       0.28672679       0.93395029       0.16511480 </v>
    <v>       0.22408688       0.80867046       0.31955365 </v>
    <v>       0.16144697       0.68339064       0.47399250 </v>
    <v>       0.97427343       0.30904357       0.11363518 </v>
    <v>       0.91163352       0.18376374       0.26807403 </v>
    <v>       0.90947623       0.91524316       0.10295923 </v>
    <v>       0.84683632       0.78996333       0.25739808 </v>
    <v>       0.78419640       0.66468351       0.41183694 </v>
    <v>       0.59702287       0.29033643       0.05147962 </v>
    <v>       0.53438295       0.16505661       0.20591847 </v>
    <v>       0.47174304       0.03977678       0.36035732 </v>
    <v>       0.28456951       0.66542971       0.00000000 </v>
    <v>       0.22192959       0.54014988       0.15443885 </v>
    <v>       0.15928968       0.41487006       0.30887770 </v>
    <v>       0.09664977       0.28959023       0.46331655 </v>
    <v>       0.82518168       0.67443006       0.15301029 </v>
    <v>       0.76254177       0.54915023       0.30744914 </v>
    <v>       0.69990185       0.42387040       0.46188799 </v>
    <v>       0.51272831       0.04952333       0.10153067 </v>
    <v>       0.45008840       0.92424350       0.25596953 </v>
    <v>       0.38744849       0.79896368       0.41040838 </v>
    <v>       0.20027495       0.42461661       0.05005106 </v>
    <v>       0.13763504       0.29933678       0.20448991 </v>
    <v>       0.07499513       0.17405695       0.35892876 </v>
    <v>       0.86674764       0.09399199       0.05052930 </v>
    <v>       0.80410773       0.96871216       0.20496815 </v>
    <v>       0.74146782       0.84343234       0.35940701 </v>
    <v>       0.49165437       0.34380544       0.15348854 </v>
    <v>       0.42901446       0.21852561       0.30792739 </v>
    <v>       0.36637454       0.09324579       0.46236624 </v>
    <v>       0.17920101       0.71889871       0.10200892 </v>
    <v>       0.11656109       0.59361889       0.25644777 </v>
    <v>       0.05392118       0.46833906       0.41088662 </v>
    <v>       0.48875168       0.67443006       0.15301029 </v>
    <v>       0.42611177       0.54915023       0.30744914 </v>
    <v>       0.36347185       0.42387040       0.46188799 </v>
    <v>       0.17629831       0.04952333       0.10153067 </v>
    <v>       0.11365840       0.92424350       0.25596953 </v>
    <v>       0.05101849       0.79896368       0.41040838 </v>
    <v>       0.86384495       0.42461661       0.05005106 </v>
    <v>       0.80120504       0.29933678       0.20448991 </v>
    <v>       0.73856513       0.17405695       0.35892876 </v>
   </varray>
  </structure>
  <varray name="forces" >
   <v>       0.39065965       0.48863972       0.15243000 </v>
   <v>       0.27201740      -0.19983141       0.09469666 </v>
   <v>      -0.69222827       0.03494441      -0.71664537 </v>
   <v>      -0.30751637       0.22304515       1.47742823 </v>
   <v>       0.03822814       0.01229235      -0.26248570 </v>
   <v>       0.29667457      -0.03038822       0.62744144 </v>
   <v>       0.14587424      -1.24328275       1.81511267 </v>
   <v>       0.00785738      -0.19918710      -0.20648851 </v>
   <v>      -0.23337957      -0.26982012       0.36359122 </v>
   <v>      -0.06983811      -0.11342160       1.57498507 </v>
   <v>       0.05735694       0.11422994      -0.27060182 </v>
   <v>       0.33365241       0.28329382       0.92347584 </v>
   <v>       0.09248577       0.12395801      -0.31051524 </v>
   <v>       0.03145581       0.09357974       0.22969514 </v>
   <v>       0.03910795      -0.01804697      -2.06419499 </v>
   <v>      -0.06402064      -0.06031440      -0.27462512 </v>
   <v>      -0.30745310      -0.03090014       0.28425235 </v>
   <v>       0.19719945       0.60489801       0.16657327 </v>
   <v>      -0.32198725       0.12285679       0.14147225 </v>
   <v>       0.22372280      -0.72717340      -0.58400344 </v>
   <v>       0.37002181      -0.12896676       1.45706521 </v>
   <v>      -0.05339070       0.03557952      -0.31235594 </v>
   <v>       0.03222268       0.24060929       0.61489330 </v>
   <v>      -1.13135934      -0.56475499       1.84197869 </v>
   <v>      -0.11713993      -0.03779043      -0.24359709 </v>
   <v>      -0.03971947      -0.03718142       0.23646398 </v>
   <v>       1.23355153       0.90967076      -1.91187054 </v>
   <v>       0.08588678       0.40747869      -1.12891809 </v>
   <v>      -0.42591195      -0.02928595      -0.13921328 </v>
   <v>      -0.42361403       1.46391792      -0.80016397 </v>
   <v>       0.24559215      -0.02675967      -0.73203137 </v>
   <v>      -0.10101918      -0.00885188       0.17483836 </v>
   <v>      -0.40403793       0.06277313       0.81825682 </v>
   <v>       1.19407590      -0.14361205      -0.97899229 </v>
   <v>      -0.13560762       0.04307972       0.27089678 </v>
   <v>      -0.37852445       0.43463759       0.71344653 </v>
   <v>      -0.52398471      -0.97728690       0.64904196 </v>
   <v>      -0.20863794      -0.39097856       0.38400269 </v>
   <v>      -0.17299586      -0.15638384       0.55533357 </v>
   <v>      -0.06317447      -0.10353244      -1.16882472 </v>
   <v>      -0.07720245      -0.18059214       0.04321942 </v>
   <v>      -0.01587882      -0.15256442      -1.47036467 </v>
   <v>       0.13667617       0.22888632      -1.32529418 </v>
   <v>      -0.09639547      -0.15162635       0.04145069 </v>
   <v>      -0.03864225      -0.65704549       1.01947816 </v>
   <v>       0.27769693       0.31290115      -1.15510016 </v>
   <v>       0.20495373      -0.30410034      -0.24604077 </v>
   <v>       0.32096919       0.01979636       0.20115874 </v>
   <v>      -0.16719627       0.19825161      -0.76296265 </v>
   <v>       0.01049963      -0.11422187       0.21254136 </v>
   <v>       0.32533993      -0.25260682       0.80012994 </v>
   <v>      -0.76576897       0.90687644      -0.95636106 </v>
   <v>       0.17237142      -0.01140637       0.19385417 </v>
   <v>       0.60047476      -0.04428164      -0.05755352 </v>
  </varray>
  <varray name="stress" >
   <v>     -28.43827506      -2.95620199       6.02315246 </v>
   <v>      -2.95620200     -28.51907822       9.61215882 </v>
   <v>       6.02315232       9.61215871     -27.89866447 </v>
  </varray>
  <energy>
   <i name="e_fr_energy">   -263.07691108 </i>
   <i name="e_wo_entrp">   -262.27409966 </i>
   <i name="e_0_energy">   -262.67550537 </i>
  </energy>
  <time name="totalsc">   42.80   42.99</time>
  <eigenvalues>
   <array>
    <dimension dim="1">band</dimension>
    <dimension dim="2">kpoint</dimension>
    <dimension dim="3">spin</dimension>
    <field>eigene</field>
    <field>occ</field>
    <set>
     <set comment="spin 1">
      <set comment="kpoint 1">
       <r>  -63.2419    1.0000 </r>
       <r>  -63.2149    1.0000 </r>
       <r>  -63.2054    1.0000 </r>
       <r>  -63.1995    1.0000 </r>
       <r>  -63.1991    1.0000 </r>
       <r>  -63.1986    1.0000 </r>
       <r>  -63.1985    1.0000 </r>
       <r>  -63.1880    1.0000 </r>
       <r>  -63.1868    1.0000 </r>
       <r>  -63.1860    1.0000 </r>
       <r>  -63.1787    1.0000 </r>
       <r>  -63.1727    1.0000 </r>
       <r>  -63.1713    1.0000 </r>
       <r>  -63.1655    1.0000 </r>
       <r>  -63.1651    1.0000 </r>
       <r>  -63.1559    1.0000 </r>
       <r>  -63.1530    1.0000 </r>
       <r>  -63.1479    1.0000 </r>
       <r>  -63.1469    1.0000 </r>
       <r>  -63.1463    1.0000 </r>
       <r>  -63.1452    1.0000 </r>
       <r>  -63.1446    1.0000 </r>
       <r>  -63.1419    1.0000 </r>
       <r>  -63.1356    1.0000 </r>
       <r>  -63.1182    1.0000 </r>
       <r>  -63.1118    1.0000 </r>
       <r>  -63.1114    1.0000 </r>
       <r>  -63.0911    1.0000 </r>
       <r>  -63.0824    1.0000 </r>
       <r>  -63.0645    1.0000 </r>
       <r>  -63.0536    1.0000 </r>
       <r>  -63.0335    1.0000 </r>
       <r>  -63.0310    1.0000 </r>
       <r>  -63.0248    1.0000 </r>
       <r>  -63.0220    1.0000 </r>
       <r>  -63.0201    1.0000 </r>
       <r>  -63.0109    1.0000 </r>
       <r>  -63.0053    1.0000 </r>
       <r>  -62.9740    1.0000 </r>
       <r>  -62.9701    1.0000 </r>
       <r>  -62.9688    1.0000 </r>
       <r>  -62.9573    1.0000 </r>
       <r>  -62.9468    1.0000 </r>
       <r>  -62.9363    1.0000 </r>
       <r>  -62.9297    1.0000 </r>
       <r>  -62.9290    1.0000 </r>
       <r>  -62.9289    1.0000 </r>
       <r>  -62.9083    1.0000 </r>
       <r>  -62.8798    1.0000 </r>
       <r>  -62.8665    1.0000 </r>
       <r>  -62.8297    1.0000 </r>
       <r>  -62.8222    1.0000 </r>
       <r>  -62.8067    1.0000 </r>
       <r>  -62.7977    1.0000 </r>
       <r>  -62.7688    1.0000 </r>
       <r>  -62.7313    1.0000 </r>
       <r>  -62.6847    1.0000 </r>
       <r>  -62.6633    1.0000 </r>
       <r>  -62.4685    1.0000 </r>
       <r>  -62.4389    1.0000 </r>
       <r>  -62.4334    1.0000 </r>
       <r>  -62.4326    1.0000 </r>
       <r>  -62.3539    1.0000 </r>
       <r>  -62.3481    1.0000 </r>
       <r>  -62.2860    1.0000 </r>
       <r>  -62.2752    1.0000 </r>
       <r>  -62.2736    1.0000 </r>
       <r>  -62.2480    1.0000 </r>
       <r>  -62.1478    1.0000 </r>
       <r>  -62.1305    1.0000 </r>
       <r>  -61.9932    1.0000 </r>
       <r>  -61.9854    1.0000 </r>
       <r>  -61.9017    1.0000 </r>
       <r>  -61.8773    1.0000 </r>
       <r>  -61.7965    1.0000 </r>
       <r>  -61.7662    1.0000 </r>
       <r>  -61.7626    1.0000 </r>
       <r>  -61.7518    1.0000 </r>
       <r>  -61.7500    1.0000 </r>
       <r>  -61.6747    1.0000 </r>
       <r>  -61.6489    1.0000 </r>
       <r>  -14.4037    1.0000 </r>
       <r>  -13.5942    1.0000 </r>
       <r>  -13.5109    1.0000 </r>
       <r>  -13.4650    1.0000 </r>
       <r>  -13.3285    1.0000 </r>
       <r>  -13.2269    1.0000 </r>
       <r>  -13.1941    1.0000 </r>
       <r>  -13.1024    1.0000 </r>
       <r>  -12.8600    1.0000 </r>
       <r>  -12.7988    1.0000 </r>
       <r>  -12.6752    1.0000 </r>
       <r>  -12.6186    1.0000 </r>
       <r>  -12.5987    1.0000 </r>
       <r>  -12.5666    1.0000 </r>
       <r>  -12.4638    1.0000 </r>
       <r>  -12.3409    1.0000 </r>
       <r>  -12.2860    1.0000 </r>
       <r>  -12.1997    1.0000 </r>
       <r>  -12.1019    1.0000 </r>
       <r>  -12.0372    1.0000 </r>
       <r>  -11.9381    1.0000 </r>
       <r>  -11.8886    1.0000 </r>
       <r>  -11.5987    1.0000 </r>
       <r>  -11.5895    1.0000 </r>
       <r>  -11.4917    1.0000 </r>
       <r>  -10.9196    1.0000 </r>
       <r>  -10.7367    1.0000 </r>
       <r>   -6.0878    1.0000 </r>
       <r>   -5.9280    1.0000 </r>
       <r>   -5.8652    1.0000 </r>
       <r>   -5.8114    1.0000 </r>
       <r>   -5.7253    1.0000 </r>
       <r>   -5.4821    1.0000 </r>
       <r>   -5.3922    1.0000 </r>
       <r>   -5.3448    1.0000 </r>
       <r>   -5.3156    1.0000 </r>
       <r>   -5.2653    1.0000 </r>
       <r>   -5.2118    1.0000 </r>
       <r>   -5.1628    1.0000 </r>
       <r>   -5.1193    1.0000 </r>
       <r>   -5.0854    1.0000 </r>
       <r>   -5.0192    1.0000 </r>
       <r>   -4.9981    1.0000 </r>
       <r>   -4.9010    1.0000 </r>
       <r>   -4.8646    1.0000 </r>
       <r>   -4.8190    1.0000 </r>
       <r>   -4.7405    1.0000 </r>
       <r>   -4.6745    1.0000 </r>
       <r>   -4.6266    1.0000 </r>
       <r>   -4.5762    1.0000 </r>
       <r>   -4.4929    1.0000 </r>
       <r>   -4.4202    1.0000 </r>
       <r>   -4.3766    1.0000 </r>
       <r>   -4.3217    1.0000 </r>
       <r>   -4.1802    1.0000 </r>
       <r>   -4.0584    1.0000 </r>
       <r>   -4.0065    1.0000 </r>
       <r>   -3.9868    1.0000 </r>
       <r>   -3.8945    1.0000 </r>
       <r>   -3.8582    1.0000 </r>
       <r>   -3.7869    1.0000 </r>
       <r>   -3.7093    1.0000 </r>
       <r>   -3.6944    1.0000 </r>
       <r>   -3.6270    1.0000 </r>
       <r>   -3.6176    1.0000 </r>
       <r>   -3.5248    1.0000 </r>
       <r>   -3.5135    1.0000 </r>
       <r>   -3.4935    1.0000 </r>
       <r>   -3.4432    1.0000 </r>
       <r>   -3.3850    1.0000 </r>
       <r>   -3.3662    1.0000 </r>
       <r>   -3.3397    1.0000 </r>
       <r>   -3.3085    1.0000 </r>
       <r>   -3.2833    1.0000 </r>
       <r>   -3.2409    1.0000 </r>
       <r>   -3.2046    1.0000 </r>
       <r>   -3.1604    1.0000 </r>
       <r>   -3.1222    1.0000 </r>
       <r>   -3.0928    1.0000 </r>
       <r>   -3.0657    1.0000 </r>
       <r>   -3.0170    1.0000 </r>
       <r>   -2.9813    1.0000 </r>
       <r>   -2.9532    1.0000 </r>
       <r>   -2.9003    1.0000 </r>
       <r>   -2.8315    1.0000 </r>
       <r>   -2.7826    1.0000 </r>
       <r>   -2.7534    1.0000 </r>
       <r>   -2.7031    1.0000 </r>
       <r>   -2.6724    1.0000 </r>
       <r>   -2.5793    1.0000 </r>
       <r>   -2.5563    1.0000 </r>
       <r>   -2.4795    1.0000 </r>
       <r>   -2.4626    1.0000 </r>
       <r>   -2.3698    1.0000 </r>
       <r>   -2.3569    1.0000 </r>
       <r>   -2.3091    1.0000 </r>
       <r>   -2.2901    1.0000 </r>
       <r>   -2.2449    1.0000 </r>
       <r>   -2.1745    1.0000 </r>
       <r>   -2.1681    1.0000 </r>
       <r>   -2.0970    1.0000 </r>
       <r>   -2.0399    1.0000 </r>
       <r>   -1.9935    1.0000 </r>
       <r>   -1.9070    1.0000 </r>
       <r>   -1.8837    1.0000 </r>
       <r>   -1.8419    1.0000 </r>
       <r>   -1.7969    1.0000 </r>
       <r>   -1.7439    1.0000 </r>
       <r>   -1.6761    1.0000 </r>
       <r>   -1.5989    1.0000 </r>
       <r>   -1.5358    1.0000 </r>
       <r>   -1.5158    1.0000 </r>
       <r>   -1.4796    1.0000 </r>
       <r>   -1.4221    1.0000 </r>
       <r>   -1.3933    1.0000 </r>
       <r>   -1.3683    1.0000 </r>
       <r>   -1.3383    1.0000 </r>
       <r>   -1.3293    1.0000 </r>
       <r>   -1.2988    1.0000 </r>
       <r>   -1.2687    1.0000 </r>
       <r>   -1.2611    1.0000 </r>
       <r>   -1.2199    1.0000 </r>
       <r>   -1.1939    1.0000 </r>
       <r>   -1.1714    1.0000 </r>
       <r>   -1.1339    1.0000 </r>
       <r>   -1.1005    1.0000 </r>
       <r>   -1.0716    1.0000 </r>
       <r>   -1.0625    1.0000 </r>
       <r>   -1.0448    1.0000 </r>
       <r>   -1.0131    1.0000 </r>
       <r>   -1.0029    1.0000 </r>
       <r>   -0.9592    1.0000 </r>
       <r>   -0.9468    1.0000 </r>
       <r>   -0.9381    1.0000 </r>
       <r>   -0.9162    1.0000 </r>
       <r>   -0.8945    1.0000 </r>
       <r>   -0.8741    1.0000 </r>
       <r>   -0.8528    1.0000 </r>
       <r>   -0.8500    1.0000 </r>
       <r>   -0.8216    1.0000 </r>
       <r>   -0.8179    1.0000 </r>
       <r>   -0.8111    1.0000 </r>
       <r>   -0.7989    1.0000 </r>
       <r>   -0.7958    1.0000 </r>
       <r>   -0.7805    1.0000 </r>
       <r>   -0.7631    1.0000 </r>
       <r>   -0.7576    1.0000 </r>
       <r>   -0.7431    1.0000 </r>
       <r>   -0.7192    1.0000 </r>
       <r>   -0.7108    1.0000 </r>
       <r>   -0.6887    1.0000 </r>
       <r>   -0.6867    1.0000 </r>
       <r>   -0.6552    1.0000 </r>
       <r>   -0.6464    1.0000 </r>
       <r>   -0.6268    1.0000 </r>
       <r>   -0.6204    1.0000 </r>
       <r>   -0.6085    1.0000 </r>
       <r>   -0.5848    1.0000 </r>
       <r>   -0.5676    1.0000 </r>
       <r>   -0.5435    1.0000 </r>
       <r>   -0.5328    1.0000 </r>
       <r>   -0.5082    1.0000 </r>
       <r>   -0.4991    1.0000 </r>
       <r>   -0.4834    1.0000 </r>
       <r>   -0.4463    1.0000 </r>
       <r>   -0.4355    1.0000 </r>
       <r>   -0.4107    1.0000 </r>
       <r>   -0.4067    1.0000 </r>
       <r>   -0.3799    1.0000 </r>
       <r>   -0.3725    1.0000 </r>
       <r>   -0.3629    1.0000 </r>
       <r>   -0.3431    1.0000 </r>
       <r>   -0.3265    1.0000 </r>
       <r>   -0.2903    1.0000 </r>
       <r>   -0.2764    1.0000 </r>
       <r>   -0.2717    1.0000 </r>
       <r>   -0.2511    1.0000 </r>
       <r>   -0.2209    1.0000 </r>
       <r>   -0.1906    1.0000 </r>
       <r>   -0.1776    1.0000 </r>
       <r>   -0.1449    1.0000 </r>
       <r>   -0.1094    1.0000 </r>
       <r>   -0.0857    1.0000 </r>
       <r>   -0.0270    1.0000 </r>
       <r>   -0.0204    1.0000 </r>
       <r>   -0.0131    1.0000 </r>
       <r>    0.0220    1.0000 </r>
       <r>    0.0344    1.0000 </r>
       <r>    0.0752    1.0000 </r>
       <r>    0.1034    1.0000 </r>
       <r>    0.1353    1.0000 </r>
       <r>    0.1479    1.0000 </r>
       <r>    0.1604    1.0000 </r>
       <r>    0.1822    1.0000 </r>
       <r>    0.2112    1.0000 </r>
       <r>    0.2211    1.0000 </r>
       <r>    0.2538    1.0000 </r>
       <r>    0.2978    1.0000 </r>
       <r>    0.3080    1.0000 </r>
       <r>    0.3279    1.0000 </r>
       <r>    0.3490    1.0000 </r>
       <r>    0.3719    0.9999 </r>
       <r>    0.4206    0.9998 </r>
       <r>    0.4384    0.9997 </r>
       <r>    0.4532    0.9995 </r>
       <r>    0.4664    0.9993 </r>
       <r>    0.5233    0.9975 </r>
       <r>    0.5300    0.9971 </r>
       <r>    0.5562    0.9949 </r>
       <r>    0.6183    0.9835 </r>
       <r>    0.6467    0.9733 </r>
       <r>    0.7184    0.9229 </r>
       <r>    0.7327    0.9073 </r>
       <r>    0.7637    0.8652 </r>
       <r>    0.8652    0.6505 </r>
       <r>    0.8734    0.6287 </r>
       <r>    0.9536    0.4057 </r>
       <r>    1.0090    0.2645 </r>
       <r>    1.0557    0.1684 </r>
       <r>    1.0921    0.1117 </r>
       <r>    1.1075    0.0923 </r>
       <r>    1.2097    0.0202 </r>
       <r>    1.2425    0.0113 </r>
       <r>    1.3074    0.0031 </r>
       <r>    1.3218    0.0022 </r>
       <r>    1.3568    0.0010 </r>
       <r>    1.3883    0.0005 </r>
       <r>    1.5303    0.0000 </r>
       <r>    1.5627    0.0000 </r>
       <r>    1.5743    0.0000 </r>
       <r>    1.6266    0.0000 </r>
       <r>    1.6496    0.0000 </r>
       <r>    1.7086    0.0000 </r>
       <r>    1.7259    0.0000 </r>
       <r>    1.7870    0.0000 </r>
       <r>    1.8041    0.0000 </r>
       <r>    1.8284    0.0000 </r>
       <r>    1.9189    0.0000 </r>
       <r>    1.9674    0.0000 </r>
       <r>    2.0003    0.0000 </r>
       <r>    2.0318    0.0000 </r>
       <r>    2.0375    0.0000 </r>
       <r>    2.0606    0.0000 </r>
       <r>    2.2598    0.0000 </r>
       <r>    2.5157    0.0000 </r>
       <r>    2.8345    0.0000 </r>
       <r>    3.1892    0.0000 </r>
       <r>    3.2852    0.0000 </r>
       <r>    3.5346    0.0000 </r>
       <r>    4.1924    0.0000 </r>
       <r>    4.4944    0.0000 </r>
       <r>    4.5560    0.0000 </r>
       <r>    4.6927    0.0000 </r>
       <r>    4.8556    0.0000 </r>
       <r>    4.9772    0.0000 </r>
       <r>    5.3269    0.0000 </r>
       <r>    5.3877    0.0000 </r>
       <r>    5.4416    0.0000 </r>
       <r>    5.4766    0.0000 </r>
       <r>    5.5866    0.0000 </r>
       <r>    5.7280    0.0000 </r>
       <r>    5.7491    0.0000 </r>
       <r>    5.8570    0.0000 </r>
       <r>    5.9142    0.0000 </r>
       <r>    6.0140    0.0000 </r>
       <r>    6.0815    0.0000 </r>
       <r>    6.1188    0.0000 </r>
       <r>    6.2453    0.0000 </r>
       <r>    6.3159    0.0000 </r>
       <r>    6.3628    0.0000 </r>
       <r>    6.4451    0.0000 </r>
       <r>    6.4710    0.0000 </r>
       <r>    6.5788    0.0000 </r>
       <r>    6.6556    0.0000 </r>
       <r>    6.6895    0.0000 </r>
       <r>    6.7503    0.0000 </r>
       <r>    6.7960    0.0000 </r>
       <r>    6.8041    0.0000 </r>
       <r>    6.8727    0.0000 </r>
      </set>
     </set>
    </set>
   </array>
  </eigenvalues>
  <separator name="orbital magnetization" >
   <v name="MAGDIPOLOUT">      0.00000000      0.00000000      0.00000000</v>
  </separator>
  <dos>
   <i name="efermi">      0.91990099 </i>
   <total>
    <array>
     <dimension dim="1">gridpoints</dimension>
     <dimension dim="2">spin</dimension>
     <field>energy</field>
     <field>total</field>
     <field>integrated</field>
     <set>
      <set comment="spin 1">
       <r>   -66.7476     0.0000     0.0000 </r>
       <r>   -66.4905     0.0000     0.0000 </r>
       <r>   -66.2334     0.0000     0.0000 </r>
       <r>   -65.9764     0.0000     0.0000 </r>
       <r>   -65.7193     0.0000     0.0000 </r>
       <r>   -65.4622     0.0000     0.0000 </r>
       <r>   -65.2051     0.0000     0.0000 </r>
       <r>   -64.9480     0.0000     0.0000 </r>
       <r>   -64.6909     0.0000     0.0000 </r>
       <r>   -64.4338     0.0000     0.0000 </r>
       <r>   -64.1767     0.0000     0.0000 </r>
       <r>   -63.9197     0.0000     0.0000 </r>
       <r>   -63.6626     0.0685     0.0176 </r>
       <r>   -63.4055    11.0936     2.8696 </r>
       <r>   -63.1484   131.0863    36.5702 </r>
       <r>   -62.8913   204.4008    89.1189 </r>
       <r>   -62.6342    93.2769   113.0991 </r>
       <r>   -62.3771    46.5045   125.0548 </r>
       <r>   -62.1201    49.3709   137.7474 </r>
       <r>   -61.8630    40.7059   148.2123 </r>
       <r>   -61.6059    42.7192   159.1949 </r>
       <r>   -61.3488    10.6297   161.9276 </r>
       <r>   -61.0917     0.2810   161.9999 </r>
       <r>   -60.8346     0.0005   162.0000 </r>
       <r>   -60.5775     0.0000   162.0000 </r>
       <r>   -60.3204     0.0000   162.0000 </r>
       <r>   -60.0634     0.0000   162.0000 </r>
       <r>   -59.8063     0.0000   162.0000 </r>
       <r>   -59.5492     0.0000   162.0000 </r>
       <r>   -59.2921     0.0000   162.0000 </r>
       <r>   -59.0350     0.0000   162.0000 </r>
       <r>   -58.7779     0.0000   162.0000 </r>
       <r>   -58.5208     0.0000   162.0000 </r>
       <r>   -58.2638     0.0000   162.0000 </r>
       <r>   -58.0067     0.0000   162.0000 </r>
       <r>   -57.7496     0.0000   162.0000 </r>
       <r>   -57.4925     0.0000   162.0000 </r>
       <r>   -57.2354     0.0000   162.0000 </r>
       <r>   -56.9783     0.0000   162.0000 </r>
       <r>   -56.7212     0.0000   162.0000 </r>
       <r>   -56.4641     0.0000   162.0000 </r>
       <r>   -56.2071     0.0000   162.0000 </r>
       <r>   -55.9500     0.0000   162.0000 </r>
       <r>   -55.6929     0.0000   162.0000 </r>
       <r>   -55.4358     0.0000   162.0000 </r>
       <r>   -55.1787     0.0000   162.0000 </r>
       <r>   -54.9216     0.0000   162.0000 </r>
       <r>   -54.6645     0.0000   162.0000 </r>
       <r>   -54.4075     0.0000   162.0000 </r>
       <r>   -54.1504     0.0000   162.0000 </r>
       <r>   -53.8933     0.0000   162.0000 </r>
       <r>   -53.6362     0.0000   162.0000 </r>
       <r>   -53.3791     0.0000   162.0000 </r>
       <r>   -53.1220     0.0000   162.0000 </r>
       <r>   -52.8649     0.0000   162.0000 </r>
       <r>   -52.6078     0.0000   162.0000 </r>
       <r>   -52.3508     0.0000   162.0000 </r>
       <r>   -52.0937     0.0000   162.0000 </r>
       <r>   -51.8366     0.0000   162.0000 </r>
       <r>   -51.5795     0.0000   162.0000 </r>
       <r>   -51.3224     0.0000   162.0000 </r>
       <r>   -51.0653     0.0000   162.0000 </r>
       <r>   -50.8082     0.0000   162.0000 </r>
       <r>   -50.5512     0.0000   162.0000 </r>
       <r>   -50.2941     0.0000   162.0000 </r>
       <r>   -50.0370     0.0000   162.0000 </r>
       <r>   -49.7799     0.0000   162.0000 </r>
       <r>   -49.5228     0.0000   162.0000 </r>
       <r>   -49.2657     0.0000   162.0000 </r>
       <r>   -49.0086     0.0000   162.0000 </r>
       <r>   -48.7515     0.0000   162.0000 </r>
       <r>   -48.4945     0.0000   162.0000 </r>
       <r>   -48.2374     0.0000   162.0000 </r>
       <r>   -47.9803     0.0000   162.0000 </r>
       <r>   -47.7232     0.0000   162.0000 </r>
       <r>   -47.4661     0.0000   162.0000 </r>
       <r>   -47.2090     0.0000   162.0000 </r>
       <r>   -46.9519     0.0000   162.0000 </r>
       <r>   -46.6949     0.0000   162.0000 </r>
       <r>   -46.4378     0.0000   162.0000 </r>
       <r>   -46.1807     0.0000   162.0000 </r>
       <r>   -45.9236     0.0000   162.0000 </r>
       <r>   -45.6665     0.0000   162.0000 </r>
       <r>   -45.4094     0.0000   162.0000 </r>
       <r>   -45.1523     0.0000   162.0000 </r>
       <r>   -44.8952     0.0000   162.0000 </r>
       <r>   -44.6382     0.0000   162.0000 </r>
       <r>   -44.3811     0.0000   162.0000 </r>
       <r>   -44.1240     0.0000   162.0000 </r>
       <r>   -43.8669     0.0000   162.0000 </r>
       <r>   -43.6098     0.0000   162.0000 </r>
       <r>   -43.3527     0.0000   162.0000 </r>
       <r>   -43.0956     0.0000   162.0000 </r>
       <r>   -42.8386     0.0000   162.0000 </r>
       <r>   -42.5815     0.0000   162.0000 </r>
       <r>   -42.3244     0.0000   162.0000 </r>
       <r>   -42.0673     0.0000   162.0000 </r>
       <r>   -41.8102     0.0000   162.0000 </r>
       <r>   -41.5531     0.0000   162.0000 </r>
       <r>   -41.2960     0.0000   162.0000 </r>
       <r>   -41.0389     0.0000   162.0000 </r>
       <r>   -40.7819     0.0000   162.0000 </r>
       <r>   -40.5248     0.0000   162.0000 </r>
       <r>   -40.2677     0.0000   162.0000 </r>
       <r>   -40.0106     0.0000   162.0000 </r>
       <r>   -39.7535     0.0000   162.0000 </r>
       <r>   -39.4964     0.0000   162.0000 </r>
       <r>   -39.2393     0.0000   162.0000 </r>
       <r>   -38.9823     0.0000   162.0000 </r>
       <r>   -38.7252     0.0000   162.0000 </r>
       <r>   -38.4681     0.0000   162.0000 </r>
       <r>   -38.2110     0.0000   162.0000 </r>
       <r>   -37.9539     0.0000   162.0000 </r>
       <r>   -37.6968     0.0000   162.0000 </r>
       <r>   -37.4397     0.0000   162.0000 </r>
       <r>   -37.1826     0.0000   162.0000 </r>
       <r>   -36.9256     0.0000   162.0000 </r>
       <r>   -36.6685     0.0000   162.0000 </r>
       <r>   -36.4114     0.0000   162.0000 </r>
       <r>   -36.1543     0.0000   162.0000 </r>
       <r>   -35.8972     0.0000   162.0000 </r>
       <r>   -35.6401     0.0000   162.0000 </r>
       <r>   -35.3830     0.0000   162.0000 </r>
       <r>   -35.1260     0.0000   162.0000 </r>
       <r>   -34.8689     0.0000   162.0000 </r>
       <r>   -34.6118     0.0000   162.0000 </r>
       <r>   -34.3547     0.0000   162.0000 </r>
       <r>   -34.0976     0.0000   162.0000 </r>
       <r>   -33.8405     0.0000   162.0000 </r>
       <r>   -33.5834     0.0000   162.0000 </r>
       <r>   -33.3263     0.0000   162.0000 </r>
       <r>   -33.0693     0.0000   162.0000 </r>
       <r>   -32.8122     0.0000   162.0000 </r>
       <r>   -32.5551     0.0000   162.0000 </r>
       <r>   -32.2980     0.0000   162.0000 </r>
       <r>   -32.0409     0.0000   162.0000 </r>
       <r>   -31.7838     0.0000   162.0000 </r>
       <r>   -31.5267     0.0000   162.0000 </r>
       <r>   -31.2697     0.0000   162.0000 </r>
       <r>   -31.0126     0.0000   162.0000 </r>
       <r>   -30.7555     0.0000   162.0000 </r>
       <r>   -30.4984     0.0000   162.0000 </r>
       <r>   -30.2413     0.0000   162.0000 </r>
       <r>   -29.9842     0.0000   162.0000 </r>
       <r>   -29.7271     0.0000   162.0000 </r>
       <r>   -29.4701     0.0000   162.0000 </r>
       <r>   -29.2130     0.0000   162.0000 </r>
       <r>   -28.9559     0.0000   162.0000 </r>
       <r>   -28.6988     0.0000   162.0000 </r>
       <r>   -28.4417     0.0000   162.0000 </r>
       <r>   -28.1846     0.0000   162.0000 </r>
       <r>   -27.9275     0.0000   162.0000 </r>
       <r>   -27.6704     0.0000   162.0000 </r>
       <r>   -27.4134     0.0000   162.0000 </r>
       <r>   -27.1563     0.0000   162.0000 </r>
       <r>   -26.8992     0.0000   162.0000 </r>
       <r>   -26.6421     0.0000   162.0000 </r>
       <r>   -26.3850     0.0000   162.0000 </r>
       <r>   -26.1279     0.0000   162.0000 </r>
       <r>   -25.8708     0.0000   162.0000 </r>
       <r>   -25.6138     0.0000   162.0000 </r>
       <r>   -25.3567     0.0000   162.0000 </r>
       <r>   -25.0996     0.0000   162.0000 </r>
       <r>   -24.8425     0.0000   162.0000 </r>
       <r>   -24.5854     0.0000   162.0000 </r>
       <r>   -24.3283     0.0000   162.0000 </r>
       <r>   -24.0712     0.0000   162.0000 </r>
       <r>   -23.8141     0.0000   162.0000 </r>
       <r>   -23.5571     0.0000   162.0000 </r>
       <r>   -23.3000     0.0000   162.0000 </r>
       <r>   -23.0429     0.0000   162.0000 </r>
       <r>   -22.7858     0.0000   162.0000 </r>
       <r>   -22.5287     0.0000   162.0000 </r>
       <r>   -22.2716     0.0000   162.0000 </r>
       <r>   -22.0145     0.0000   162.0000 </r>
       <r>   -21.7575     0.0000   162.0000 </r>
       <r>   -21.5004     0.0000   162.0000 </r>
       <r>   -21.2433     0.0000   162.0000 </r>
       <r>   -20.9862     0.0000   162.0000 </r>
       <r>   -20.7291     0.0000   162.0000 </r>
       <r>   -20.4720     0.0000   162.0000 </r>
       <r>   -20.2149     0.0000   162.0000 </r>
       <r>   -19.9578     0.0000   162.0000 </r>
       <r>   -19.7008     0.0000   162.0000 </r>
       <r>   -19.4437     0.0000   162.0000 </r>
       <r>   -19.1866     0.0000   162.0000 </r>
       <r>   -18.9295     0.0000   162.0000 </r>
       <r>   -18.6724     0.0000   162.0000 </r>
       <r>   -18.4153     0.0000   162.0000 </r>
       <r>   -18.1582     0.0000   162.0000 </r>
       <r>   -17.9012     0.0000   162.0000 </r>
       <r>   -17.6441     0.0000   162.0000 </r>
       <r>   -17.3870     0.0000   162.0000 </r>
       <r>   -17.1299     0.0000   162.0000 </r>
       <r>   -16.8728     0.0000   162.0000 </r>
       <r>   -16.6157     0.0000   162.0000 </r>
       <r>   -16.3586     0.0000   162.0000 </r>
       <r>   -16.1015     0.0000   162.0000 </r>
       <r>   -15.8445     0.0000   162.0000 </r>
       <r>   -15.5874     0.0000   162.0000 </r>
       <r>   -15.3303     0.0000   162.0000 </r>
       <r>   -15.0732     0.0000   162.0000 </r>
       <r>   -14.8161     0.0138   162.0035 </r>
       <r>   -14.5590     1.0445   162.2721 </r>
       <r>   -14.3019     4.8861   163.5282 </r>
       <r>   -14.0449     1.7981   163.9905 </r>
       <r>   -13.7878     0.9900   164.2450 </r>
       <r>   -13.5307    11.0344   167.0818 </r>
       <r>   -13.2736    21.2901   172.5552 </r>
       <r>   -13.0165    19.2285   177.4986 </r>
       <r>   -12.7594    17.7576   182.0638 </r>
       <r>   -12.5023    28.4501   189.3779 </r>
       <r>   -12.2452    24.9834   195.8009 </r>
       <r>   -11.9882    23.6554   201.8824 </r>
       <r>   -11.7311    17.2136   206.3077 </r>
       <r>   -11.4740    15.5417   210.3033 </r>
       <r>   -11.2169     6.4786   211.9688 </r>
       <r>   -10.9598     3.5857   212.8907 </r>
       <r>   -10.7027     8.4570   215.0649 </r>
       <r>   -10.4456     3.4804   215.9596 </r>
       <r>   -10.1886     0.1566   215.9999 </r>
       <r>    -9.9315     0.0004   216.0000 </r>
       <r>    -9.6744     0.0000   216.0000 </r>
       <r>    -9.4173     0.0000   216.0000 </r>
       <r>    -9.1602     0.0000   216.0000 </r>
       <r>    -8.9031     0.0000   216.0000 </r>
       <r>    -8.6460     0.0000   216.0000 </r>
       <r>    -8.3889     0.0000   216.0000 </r>
       <r>    -8.1319     0.0000   216.0000 </r>
       <r>    -7.8748     0.0000   216.0000 </r>
       <r>    -7.6177     0.0000   216.0000 </r>
       <r>    -7.3606     0.0000   216.0000 </r>
       <r>    -7.1035     0.0000   216.0000 </r>
       <r>    -6.8464     0.0000   216.0000 </r>
       <r>    -6.5893     0.0015   216.0004 </r>
       <r>    -6.3323     0.3462   216.0894 </r>
       <r>    -6.0752     5.8080   217.5826 </r>
       <r>    -5.8181    18.2059   222.2630 </r>
       <r>    -5.5610    17.3108   226.7134 </r>
       <r>    -5.3039    26.6452   233.5635 </r>
       <r>    -5.0468    40.3790   243.9444 </r>
       <r>    -4.7897    36.7548   253.3936 </r>
       <r>    -4.5326    32.8159   261.8302 </r>
       <r>    -4.2756    28.0133   269.0320 </r>
       <r>    -4.0185    25.0712   275.4775 </r>
       <r>    -3.7614    34.4906   284.3445 </r>
       <r>    -3.5043    45.1610   295.9548 </r>
       <r>    -3.2472    55.6325   310.2572 </r>
       <r>    -2.9901    53.6714   324.0554 </r>
       <r>    -2.7330    44.6091   335.5238 </r>
       <r>    -2.4760    40.7338   345.9959 </r>
       <r>    -2.2189    44.5489   357.4489 </r>
       <r>    -1.9618    41.0145   367.9931 </r>
       <r>    -1.7047    38.4761   377.8848 </r>
       <r>    -1.4476    45.2771   389.5250 </r>
       <r>    -1.1905    69.5357   407.4017 </r>
       <r>    -0.9334    92.4969   431.1814 </r>
       <r>    -0.6763   127.7571   464.0260 </r>
       <r>    -0.4193   120.6856   495.0527 </r>
       <r>    -0.1622    98.5585   520.3908 </r>
       <r>     0.0949    80.9604   541.2046 </r>
       <r>     0.3520    82.0607   562.3013 </r>
       <r>     0.6091    68.3341   579.8691 </r>
       <r>     0.8662    46.5376   591.8333 </r>
       <r>     1.1233    40.6127   602.2742 </r>
       <r>     1.3803    41.5454   612.9550 </r>
       <r>     1.6374    43.1745   624.0546 </r>
       <r>     1.8945    48.7662   636.5917 </r>
       <r>     2.1516    38.4995   646.4895 </r>
       <r>     2.4087    14.1346   650.1233 </r>
       <r>     2.6658     7.0685   651.9405 </r>
       <r>     2.9229     6.1983   653.5340 </r>
       <r>     3.1800     7.2657   655.4019 </r>
       <r>     3.4370    10.6013   658.1274 </r>
       <r>     3.6941     6.2604   659.7369 </r>
       <r>     3.9512     1.3544   660.0851 </r>
       <r>     4.2083     4.1319   661.1473 </r>
       <r>     4.4654     8.8384   663.4196 </r>
       <r>     4.7225    14.8551   667.2386 </r>
       <r>     4.9796    13.0992   670.6063 </r>
       <r>     5.2366     9.2587   672.9865 </r>
       <r>     5.4937    21.0016   678.3858 </r>
       <r>     5.7508    24.1357   684.5907 </r>
       <r>     6.0079    25.8157   691.2276 </r>
       <r>     6.2650    26.7835   698.1133 </r>
       <r>     6.5221    29.5981   705.7226 </r>
       <r>     6.7792    33.4381   714.3191 </r>
       <r>     7.0363    20.1403   719.4969 </r>
       <r>     7.2933     1.9412   719.9959 </r>
       <r>     7.5504     0.0158   720.0000 </r>
       <r>     7.8075     0.0000   720.0000 </r>
       <r>     8.0646     0.0000   720.0000 </r>
       <r>     8.3217     0.0000   720.0000 </r>
       <r>     8.5788     0.0000   720.0000 </r>
       <r>     8.8359     0.0000   720.0000 </r>
       <r>     9.0929     0.0000   720.0000 </r>
       <r>     9.3500     0.0000   720.0000 </r>
       <r>     9.6071     0.0000   720.0000 </r>
       <r>     9.8642     0.0000   720.0000 </r>
       <r>    10.1213     0.0000   720.0000 </r>
       <r>    10.3784     0.0000   720.0000 </r>
      </set>
     </set>
    </array>
   </total>
  </dos>
 </calculation>
 <structure name="finalpos" >
  <crystal>
   <varray name="basis" >
    <v>       8.42818148      -4.55101034       0.00000000 </v>
    <v>       0.00000000      10.07973298       0.00000000 </v>
    <v>       0.00000000       0.00000000      19.01113574 </v>
   </varray>
   <i name="volume">   1615.06858132 </i>
   <varray name="rec_basis" >
    <v>       0.11864956       0.00000000       0.00000000 </v>
    <v>       0.05357040       0.09920898       0.00000000 </v>
    <v>       0.00000000       0.00000000       0.05260075 </v>
   </varray>
  </crystal>
  <varray name="positions" >
   <v>       0.64527023       0.91524316       0.10295923 </v>
   <v>       0.58263032       0.78996333       0.25739808 </v>
   <v>       0.51999040       0.66468351       0.41183694 </v>
   <v>       0.33281687       0.29033643       0.05147962 </v>
   <v>       0.27017695       0.16505661       0.20591847 </v>
   <v>       0.20753704       0.03977678       0.36035732 </v>
   <v>       0.02036350       0.66542971       0.00000000 </v>
   <v>       0.95772359       0.54014988       0.15443885 </v>
   <v>       0.89508368       0.41487006       0.30887770 </v>
   <v>       0.66182007       0.68413684       0.06215556 </v>
   <v>       0.59918016       0.55885702       0.21659441 </v>
   <v>       0.53654024       0.43357719       0.37103327 </v>
   <v>       0.28672679       0.93395029       0.16511480 </v>
   <v>       0.22408688       0.80867046       0.31955365 </v>
   <v>       0.16144697       0.68339064       0.47399250 </v>
   <v>       0.97427343       0.30904357       0.11363518 </v>
   <v>       0.91163352       0.18376374       0.26807403 </v>
   <v>       0.90947623       0.91524316       0.10295923 </v>
   <v>       0.84683632       0.78996333       0.25739808 </v>
   <v>       0.78419640       0.66468351       0.41183694 </v>
   <v>       0.59702287       0.29033643       0.05147962 </v>
   <v>       0.53438295       0.16505661       0.20591847 </v>
   <v>       0.47174304       0.03977678       0.36035732 </v>
   <v>       0.28456951       0.66542971       0.00000000 </v>
   <v>       0.22192959       0.54014988       0.15443885 </v>
   <v>       0.15928968       0.41487006       0.30887770 </v>
   <v>       0.09664977       0.28959023       0.46331655 </v>
   <v>       0.82518168       0.67443006       0.15301029 </v>
   <v>       0.76254177       0.54915023       0.30744914 </v>
   <v>       0.69990185       0.42387040       0.46188799 </v>
   <v>       0.51272831       0.04952333       0.10153067 </v>
   <v>       0.45008840       0.92424350       0.25596953 </v>
   <v>       0.38744849       0.79896368       0.41040838 </v>
   <v>       0.20027495       0.42461661       0.05005106 </v>
   <v>       0.13763504       0.29933678       0.20448991 </v>
   <v>       0.07499513       0.17405695       0.35892876 </v>
   <v>       0.86674764       0.09399199       0.05052930 </v>
   <v>       0.80410773       0.96871216       0.20496815 </v>
   <v>       0.74146782       0.84343234       0.35940701 </v>
   <v>       0.49165437       0.34380544       0.15348854 </v>
   <v>       0.42901446       0.21852561       0.30792739 </v>
   <v>       0.36637454       0.09324579       0.46236624 </v>
   <v>       0.17920101       0.71889871       0.10200892 </v>
   <v>       0.11656109       0.59361889       0.25644777 </v>
   <v>       0.05392118       0.46833906       0.41088662 </v>
   <v>       0.48875168       0.67443006       0.15301029 </v>
   <v>       0.42611177       0.54915023       0.30744914 </v>
   <v>       0.36347185       0.42387040       0.46188799 </v>
   <v>       0.17629831       0.04952333       0.10153067 </v>
   <v>       0.11365840       0.92424350       0.25596953 </v>
   <v>       0.05101849       0.79896368       0.41040838 </v>
   <v>       0.86384495       0.42461661       0.05005106 </v>
   <v>       0.80120504       0.29933678       0.20448991 </v>
   <v>       0.73856513       0.17405695       0.35892876 </v>
  </varray>
 </structure>
</modeling>
