       N       E                     dE             d eps       ncg     rms          rms(c)
DAV:   1     0.960853978860E+04    0.96085E+04   -0.50776E+05  1168   0.162E+03
DAV:   2     0.588913000927E+03   -0.90196E+04   -0.87005E+04  1016   0.519E+02
DAV:   3    -0.341860761590E+03   -0.93077E+03   -0.87651E+03  1112   0.177E+02
DAV:   4    -0.402066380706E+03   -0.60206E+02   -0.59420E+02  1128   0.398E+01
DAV:   5    -0.404246809481E+03   -0.21804E+01   -0.21773E+01  1240   0.821E+00    0.823E+01
DAV:   6    -0.494316584098E+03   -0.90070E+02   -0.97656E+02  1160   0.119E+02    0.161E+02
DAV:   7    -0.375334685972E+03    0.11898E+03   -0.17712E+02  1112   0.619E+01    0.648E+01
DAV:   8    -0.416911920714E+03   -0.41577E+02   -0.15030E+02  1344   0.721E+01    0.145E+02
DAV:   9    -0.373001037463E+03    0.43911E+02   -0.11599E+02  1232   0.461E+01    0.788E+01
DAV:  10    -0.374461890749E+03   -0.14609E+01   -0.98373E+01  1312   0.330E+01    0.527E+01
DAV:  11    -0.375421191948E+03   -0.95930E+00   -0.27100E+01  1312   0.304E+01    0.770E+01
DAV:  12    -0.366838443611E+03    0.85827E+01   -0.44386E+01  1312   0.206E+01    0.407E+01
DAV:  13    -0.376957622749E+03   -0.10119E+02   -0.22958E+01  1224   0.298E+01    0.969E+01
DAV:  14    -0.363999618586E+03    0.12958E+02   -0.18991E+01  1296   0.144E+01    0.385E+01
DAV:  15    -0.357996989219E+03    0.60026E+01   -0.10797E+01  1232   0.208E+01    0.235E+01
DAV:  16    -0.356430709063E+03    0.15663E+01   -0.35018E+00  1312   0.112E+01    0.200E+01
DAV:  17    -0.355341861970E+03    0.10888E+01   -0.16229E+00  1288   0.818E+00    0.170E+01
DAV:  18    -0.354684855838E+03    0.65701E+00   -0.77612E-01  1296   0.563E+00    0.146E+01
DAV:  19    -0.354266454897E+03    0.41840E+00   -0.46203E-01  1296   0.459E+00    0.122E+01
DAV:  20    -0.353846305813E+03    0.42015E+00   -0.23068E-01  1304   0.268E+00    0.974E+00
DAV:  21    -0.353685923947E+03    0.16038E+00   -0.24140E-01  1312   0.335E+00    0.892E+00
DAV:  22    -0.353502893120E+03    0.18303E+00   -0.24956E-01  1336   0.316E+00    0.673E+00
DAV:  23    -0.353372375250E+03    0.13052E+00   -0.13223E-01  1288   0.248E+00    0.474E+00
DAV:  24    -0.353372457362E+03   -0.82112E-04   -0.96545E-02  1296   0.197E+00    0.463E+00
DAV:  25    -0.353304960796E+03    0.67497E-01   -0.85616E-02  1312   0.200E+00    0.271E+00
DAV:  26    -0.353306107822E+03   -0.11470E-02   -0.11232E-01  1360   0.185E+00    0.261E+00
DAV:  27    -0.353292349557E+03    0.13758E-01   -0.79722E-02  1296   0.157E+00    0.195E+00
DAV:  28    -0.353303278599E+03   -0.10929E-01   -0.51227E-02  1288   0.120E+00    0.247E+00
DAV:  29    -0.353281897791E+03    0.21381E-01   -0.34804E-02  1208   0.111E+00    0.113E+00
DAV:  30    -0.353285060957E+03   -0.31632E-02   -0.17560E-02  1288   0.921E-01    0.122E+00
DAV:  31    -0.353279314757E+03    0.57462E-02   -0.10219E-02  1272   0.740E-01    0.508E-01
DAV:  32    -0.353280975854E+03   -0.16611E-02   -0.42494E-03  1288   0.433E-01    0.699E-01
DAV:  33    -0.353279562218E+03    0.14136E-02   -0.24748E-03  1200   0.380E-01    0.356E-01
DAV:  34    -0.353279836934E+03   -0.27472E-03   -0.94100E-04  1128   0.173E-01    0.293E-01
DAV:  35    -0.353279824432E+03    0.12502E-04   -0.50119E-04   952   0.168E-01
   1 F= -.35327982E+03 E0= -.35272674E+03  d E =-.110616E+01
