LAMMPS (5 Jun 2019)
OMP_NUM_THREADS environment is not set. Defaulting to 1 thread. (../comm.cpp:88)
  using 1 OpenMP thread(s) per MPI task
Reading data file ...
  triclinic box = (0 0 0) to (10.0797 9.4251 20.6835) with tilt (3.5733 0 0)
  1 by 1 by 1 MPI processor grid
  reading atoms ...
  72 atoms
  read_data CPU = 0.000801034 secs
44 atoms in group bulk
WARNING: Using 'neigh_modify every 1 delay 0 check yes' setting during minimization (../min.cpp:168)
Neighbor list info ...
  update every 1 steps, delay 0 steps, check yes
  max neighbors/atom: 2000, page size: 100000
  master list distance cutoff = 8.5
  ghost atom cutoff = 8.5
  binsize = 4.25, bins = 4 3 5
  1 neighbor lists, perpetual/occasional/extra = 1 0 0
  (1) pair eam/alloy, perpetual
      attributes: half, newton on
      pair build: half/bin/newton/tri
      stencil: half/bin/3d/newton/tri
      bin: standard
Setting up cg style minimization ...
  Unit style    : metal
  Current step  : 0
Per MPI rank memory allocation (min/avg/max) = 4.113 | 4.113 | 4.113 Mbytes
Step Temp E_pair E_mol TotEng Press 
       0            0    -305.7316            0    -305.7316   -129246.47 
      65            0   -327.72654            0   -327.72654   -41437.127 
Loop time of 0.0434944 on 1 procs for 65 steps with 72 atoms

99.8% CPU use with 1 MPI tasks x 1 OpenMP threads

Minimization stats:
  Stopping criterion = energy tolerance
  Energy initial, next-to-last, final = 
         -305.73160375     -327.723271435     -327.726541528
  Force two-norm initial, final = 10.7377 0.150617
  Force max component initial, final = 2.95914 0.0734528
  Final line search alpha, max atom move = 0.505329 0.0371178
  Iterations, force evaluations = 65 94

MPI task timing breakdown:
Section |  min time  |  avg time  |  max time  |%varavg| %total
---------------------------------------------------------------
Pair    | 0.039291   | 0.039291   | 0.039291   |   0.0 | 90.34
Neigh   | 0.0025047  | 0.0025047  | 0.0025047  |   0.0 |  5.76
Comm    | 0.00094485 | 0.00094485 | 0.00094485 |   0.0 |  2.17
Output  | 0          | 0          | 0          |   0.0 |  0.00
Modify  | 6.8411e-05 | 6.8411e-05 | 6.8411e-05 |   0.0 |  0.16
Other   |            | 0.0006852  |            |       |  1.58

Nlocal:    72 ave 72 max 72 min
Histogram: 1 0 0 0 0 0 0 0 0 0
Nghost:    932 ave 932 max 932 min
Histogram: 1 0 0 0 0 0 0 0 0 0
Neighs:    4865 ave 4865 max 4865 min
Histogram: 1 0 0 0 0 0 0 0 0 0

Total # of neighbors = 4865
Ave neighs/atom = 67.5694
Neighbor list builds = 5
Dangerous builds = 0
System init for write_data ...
Total wall time: 0:00:00
