 vasp.5.4.4.18Apr17-6-g9f103f2a35 (build Aug 13 2019 17:33:20) gamma-only       
  
 executed on             LinuxIFC date 2020.05.12  18:44:07
 running on   12 total cores
 distrk:  each k-point on   12 cores,    1 groups
 distr:  one band on NCORES_PER_BAND=   6 cores,    2 groups


--------------------------------------------------------------------------------------------------------


 INCAR:
 POTCAR:    PAW_PBE Ni_pv 06Sep2000               
 POTCAR:    PAW_PBE S 06Sep2000                   
 POTCAR:    PAW_PBE Ni_pv 06Sep2000               
   VRHFIN =Ni:                                                                  
   LEXCH  = PE                                                                  
   EATOM  =  3501.1230 eV,  257.3253 Ry                                         
                                                                                
   TITEL  = PAW_PBE Ni_pv 06Sep2000                                             
   LULTRA =        F    use ultrasoft PP ?                                      
   IUNSCR =        1    unscreen: 0-lin 1-nonlin 2-no                           
   RPACOR =    1.500    partial core radius                                     
   POMASS =   58.690; ZVAL   =   16.000    mass and valenz                      
   RCORE  =    2.000    outmost cutoff radius                                   
   RWIGS  =    2.000; RWIGS  =    1.058    wigner-seitz radius (au A)           
   ENMAX  =  367.986; ENMIN  =  275.989 eV                                      
   RCLOC  =    1.301    cutoff for local pot                                    
   LCOR   =        T    correct aug charges                                     
   LPAW   =        T    paw PP                                                  
   EAUG   =  703.443                                                            
   DEXC   =    0.000                                                            
   RMAX   =    2.041    core radius for proj-oper                               
   RAUG   =    1.300    factor for augmentation sphere                          
   RDEP   =    2.103    radius for radial grids                                 
   RDEPT  =    1.618    core radius for aug-charge                              
                                                                                
   Atomic configuration                                                         
    8 entries                                                                   
     n  l   j            E        occ.                                          
     1  0  0.50     -8206.4253   2.0000                                         
     2  0  0.50      -976.1748   2.0000                                         
     2  1  1.50      -839.0571   6.0000                                         
     3  0  0.50      -105.9991   2.0000                                         
     3  1  1.50       -66.4603   6.0000                                         
     3  2  2.50        -4.6458   9.0000                                         
     4  0  0.50        -4.4926   1.0000                                         
     4  3  2.50        -1.3606   0.0000                                         
   Description                                                                  
     l       E           TYP  RCUT    TYP  RCUT                                 
     1    -66.4602962     23  1.700                                             
     1     -1.3605826     23  1.700                                             
     2     -4.6457867     23  2.000                                             
     2     -6.0063693     23  2.000                                             
     0     -4.4925576     23  1.900                                             
     0     16.3626226     23  1.900                                             
  local pseudopotential read in
  partial core-charges read in
  partial kinetic energy density read in
  atomic valenz-charges read in
  non local Contribution for L=           1  read in
    real space projection operators read in
  non local Contribution for L=           1  read in
    real space projection operators read in
  non local Contribution for L=           2  read in
    real space projection operators read in
  non local Contribution for L=           2  read in
    real space projection operators read in
  non local Contribution for L=           0  read in
    real space projection operators read in
  non local Contribution for L=           0  read in
    real space projection operators read in
    PAW grid and wavefunctions read in
 
   number of l-projection  operators is LMAX  =           6
   number of lm-projection operators is LMMAX =          18
 
 POTCAR:    PAW_PBE S 06Sep2000                   
   VRHFIN =S : s2p4                                                             
   LEXCH  = PE                                                                  
   EATOM  =   276.8230 eV,   20.3459 Ry                                         
                                                                                
   TITEL  = PAW_PBE S 06Sep2000                                                 
   LULTRA =        F    use ultrasoft PP ?                                      
   IUNSCR =        1    unscreen: 0-lin 1-nonlin 2-no                           
   RPACOR =    1.500    partial core radius                                     
   POMASS =   32.066; ZVAL   =    6.000    mass and valenz                      
   RCORE  =    1.900    outmost cutoff radius                                   
   RWIGS  =    2.200; RWIGS  =    1.164    wigner-seitz radius (au A)           
   ENMAX  =  258.689; ENMIN  =  194.016 eV                                      
   ICORE  =        2    local potential                                         
   LCOR   =        T    correct aug charges                                     
   LPAW   =        T    paw PP                                                  
   EAUG   =  335.092                                                            
   DEXC   =    0.000                                                            
   RMAX   =    1.942    core radius for proj-oper                               
   RAUG   =    1.300    factor for augmentation sphere                          
   RDEP   =    1.954    radius for radial grids                                 
   RDEPT  =    1.744    core radius for aug-charge                              
                                                                                
   Atomic configuration                                                         
    6 entries                                                                   
     n  l   j            E        occ.                                          
     1  0  0.50     -2405.8406   2.0000                                         
     2  0  0.50      -211.7007   2.0000                                         
     2  1  1.50      -156.4958   6.0000                                         
     3  0  0.50       -17.2562   2.0000                                         
     3  1  0.50        -7.0085   4.0000                                         
     3  2  1.50        -6.8029   0.0000                                         
   Description                                                                  
     l       E           TYP  RCUT    TYP  RCUT                                 
     0    -17.2561641     23  1.900                                             
     0    -15.8743224     23  1.900                                             
     1     -7.0085400     23  1.900                                             
     1     -2.7779785     23  1.900                                             
     2     -6.8029130     23  1.900                                             
  local pseudopotential read in
  partial core-charges read in
  partial kinetic energy density read in
  atomic valenz-charges read in
  non local Contribution for L=           0  read in
    real space projection operators read in
  non local Contribution for L=           0  read in
    real space projection operators read in
  non local Contribution for L=           1  read in
    real space projection operators read in
  non local Contribution for L=           1  read in
    real space projection operators read in
    PAW grid and wavefunctions read in
 
   number of l-projection  operators is LMAX  =           4
   number of lm-projection operators is LMMAX =           8
 
 Optimization of the real space projectors (new method)

 maximal supplied QI-value         = 18.90
 optimisation between [QCUT,QGAM] = [ 10.77, 21.73] = [ 32.49,132.25] Ry 
 Optimized for a Real-space Cutoff    1.38 Angstroem

   l    n(q)    QCUT    max X(q) W(low)/X(q) W(high)/X(q)  e(spline) 
   1      8    10.771     2.836    0.40E-04    0.29E-04    0.12E-06
   1      8    10.771     4.023    0.10E-03    0.48E-04    0.29E-06
   2      8    10.771    73.368    0.42E-03    0.97E-04    0.44E-06
   2      8    10.771    69.010    0.42E-03    0.99E-04    0.45E-06
   0      9    10.771    54.797    0.10E-03    0.56E-04    0.74E-07
   0      9    10.771    24.266    0.89E-04    0.49E-04    0.67E-07
 Optimization of the real space projectors (new method)

 maximal supplied QI-value         = 19.84
 optimisation between [QCUT,QGAM] = [ 10.71, 21.63] = [ 32.15,130.99] Ry 
 Optimized for a Real-space Cutoff    1.19 Angstroem

   l    n(q)    QCUT    max X(q) W(low)/X(q) W(high)/X(q)  e(spline) 
   0      8    10.715   187.594    0.41E-03    0.53E-04    0.66E-07
   0      8    10.715   164.243    0.41E-03    0.53E-04    0.65E-07
   1      7    10.715    67.533    0.19E-03    0.59E-03    0.68E-07
   1      7    10.715    50.729    0.19E-03    0.58E-03    0.67E-07
  PAW_PBE Ni_pv 06Sep2000               :
 energy of atom  1       EATOM=-3501.1230
 kinetic energy error for atom=    0.0925 (will be added to EATOM!!)
  PAW_PBE S 06Sep2000                   :
 energy of atom  2       EATOM= -276.8230
 kinetic energy error for atom=    0.0033 (will be added to EATOM!!)
 
 
 POSCAR: Type_036 Type_136                       
  positions in cartesian coordinates
  No initial velocities read in
 exchange correlation table for  LEXCH =        8
   RHO(1)=    0.500       N(1)  =     2000
   RHO(2)=  100.500       N(2)  =     4000
 


--------------------------------------------------------------------------------------------------------


 ion  position               nearest neighbor table
   1  0.289  0.993  0.058-  69 2.08  41 2.12  42 2.13  61 2.15  49 2.26   2 2.38
   2  0.397  0.795  0.127-  49 2.04  61 2.10  42 2.25  50 2.36  62 2.36   1 2.38  27 2.39  23 2.39

   3  0.547  0.645  0.254-  43 2.25  62 2.26  50 2.26  63 2.36  51 2.36  28 2.53  14 2.53
   4  0.698  0.494  0.381-  64 2.17  44 2.21  51 2.26  63 2.26  52 2.36  15 2.53  29 2.53
   5  0.826  0.337  0.482-  52 2.00  64 2.00  26 2.44  16 2.45
   6  0.114  0.412  0.169-  53 2.05  68 2.19  45 2.25  65 2.36  54 2.36  30 2.53  17 2.53
   7  0.264  0.261  0.296-  46 2.25  65 2.26  54 2.26  55 2.36  66 2.36  18 2.53  31 2.53
   8  0.414  0.111  0.423-  56 2.06  47 2.20  67 2.21  55 2.26  66 2.26  32 2.53  19 2.53
   9  0.076  0.813  0.450-  59 2.08  72 2.09  58 2.11  37 2.12  20 2.48  12 2.48
  10  0.715  0.214  0.144-  38 1.99  60 2.11  39 2.15  11 2.30  70 2.36  36 2.52
  11  0.831  0.028  0.212-  39 2.25  60 2.26  70 2.26  10 2.30  57 2.36  71 2.36  24 2.53  33 2.53

  12  0.981  0.878  0.338-  72 2.13  40 2.25  57 2.26  71 2.26  58 2.36   9 2.48  34 2.53  25 2.53

  13  0.346  0.477  0.136-  53 2.03  54 2.16  62 2.17  38 2.29  14 2.32
  14  0.508  0.420  0.220-  54 2.25  62 2.26  38 2.26  13 2.32  39 2.36  63 2.36  28 2.53   3 2.53

  15  0.658  0.270  0.347-  64 2.06  55 2.25  63 2.26  39 2.26  40 2.36   4 2.53  29 2.53
  16  0.772  0.125  0.454-  40 2.04  56 2.09  37 2.10  64 2.14   5 2.45
  17  0.074  0.187  0.136-  41 2.03  68 2.12  60 2.25  21 2.31  42 2.36  65 2.36   6 2.53  30 2.53

  18  0.224  0.037  0.263-  57 2.25  42 2.26  65 2.26  66 2.36  43 2.36   7 2.53  31 2.53
  19  0.375  0.886  0.390-  67 1.99  44 2.14  58 2.25  66 2.26  43 2.26  20 2.31  32 2.53   8 2.53

  20  0.335  0.741  0.468-  44 2.09  59 2.11  67 2.25  58 2.26  19 2.31   9 2.48  35 2.52
  21  0.894  0.256  0.060-  68 2.07  60 2.11  41 2.20  17 2.31
  22  0.096  0.512  0.423-  46 2.06  72 2.13  47 2.17  59 2.19  52 2.34  35 2.40
  23  0.574  0.890  0.096-  49 2.10  69 2.11  70 2.13  50 2.29   2 2.39
  24  0.791  0.804  0.178-  48 2.07  50 2.25  70 2.26  71 2.36  45 2.36  11 2.53  33 2.53
  25  0.941  0.653  0.305-  72 2.07  51 2.25  71 2.26  45 2.26  46 2.36  34 2.53  12 2.53
  26  0.025  0.166  0.425-  40 2.04  37 2.10  66 2.12  52 2.14   5 2.44
  27  0.584  0.598  0.081-  50 2.04  38 2.07  49 2.11   2 2.39
  28  0.732  0.460  0.187-  68 2.13  50 2.26  38 2.26  51 2.36  39 2.36  14 2.53   3 2.53
  29  0.882  0.310  0.314-  65 2.25  39 2.26  51 2.26  40 2.36  52 2.36   4 2.53  15 2.53
  30  0.299  0.227  0.102-  53 2.05  69 2.07  41 2.33  54 2.36  42 2.36   6 2.53  17 2.53
  31  0.449  0.076  0.229-  70 2.25  42 2.26  54 2.26  55 2.36  43 2.36  18 2.53   7 2.53
  32  0.599  0.926  0.356-  56 2.05  71 2.25  55 2.26  43 2.26   8 2.53  19 2.53
  33  0.015  0.843  0.144-  48 2.08  61 2.11  60 2.26  45 2.36  57 2.36  24 2.53  11 2.53
  34  0.166  0.693  0.271-  62 2.25  57 2.26  45 2.26  46 2.36  58 2.36  12 2.53  25 2.53
  35  0.316  0.543  0.398-  59 2.06  47 2.17  63 2.25  58 2.26  46 2.26  22 2.40  20 2.52
  36  0.781  0.979  0.086-  48 2.02  70 2.07  60 2.07  10 2.52
  37  0.981  0.021  0.487-  16 2.10  26 2.10   9 2.12  40 2.61
  38  0.586  0.406  0.117-  10 1.99  27 2.07  14 2.26  28 2.26  13 2.29
  39  0.736  0.256  0.244-  10 2.15  11 2.25  29 2.26  15 2.26  14 2.36  28 2.36
  40  0.886  0.105  0.371-  16 2.04  26 2.04  12 2.25  15 2.36  29 2.36  37 2.61
  41  0.122  0.189  0.040-  17 2.03   1 2.12  21 2.20  30 2.33
  42  0.303  0.023  0.160-   1 2.13   2 2.25  31 2.26  18 2.26  17 2.36  30 2.36
  43  0.453  0.872  0.286-   3 2.25  19 2.26  32 2.26  18 2.36  31 2.36
  44  0.527  0.685  0.417-  20 2.09  19 2.14   4 2.21  63 2.75
  45  0.019  0.639  0.202-   6 2.25  25 2.26  34 2.26  24 2.36  33 2.36  48 2.79
  46  0.170  0.489  0.329-  22 2.06   7 2.25  35 2.26  34 2.36  25 2.36  47 2.60
  47  0.301  0.342  0.428-  35 2.17  22 2.17   8 2.20  46 2.60
  48  0.887  0.767  0.088-  36 2.02  24 2.07  33 2.08  45 2.79
  49  0.471  0.791  0.035-   2 2.04  23 2.10  27 2.11   1 2.26
  50  0.636  0.692  0.160-  27 2.04  24 2.25  28 2.26   3 2.26  23 2.29   2 2.36
  51  0.787  0.542  0.287-  25 2.25   4 2.26  29 2.26  28 2.36   3 2.36
  52  0.937  0.391  0.414-   5 2.00  26 2.14  22 2.34   4 2.36  29 2.36
  53  0.197  0.438  0.082-  13 2.03  30 2.05   6 2.05
  54  0.353  0.308  0.202-  13 2.16  14 2.25   7 2.26  31 2.26  30 2.36   6 2.36
  55  0.503  0.158  0.329-  15 2.25   8 2.26  32 2.26   7 2.36  31 2.36  56 2.74
  56  0.629  0.021  0.440-  32 2.05   8 2.06  16 2.09  55 2.74
  57  0.070  0.925  0.245-  18 2.25  34 2.26  12 2.26  11 2.36  33 2.36
  58  0.220  0.775  0.372-   9 2.11  19 2.25  35 2.26  20 2.26  34 2.36  12 2.36
  59  0.207  0.616  0.483-  35 2.06   9 2.08  20 2.11  22 2.19
  60  0.920  0.075  0.118-  36 2.07  10 2.11  21 2.11  17 2.25  11 2.26  33 2.26
  61  0.191  0.847  0.090-   2 2.10  33 2.11   1 2.15
  62  0.350  0.641  0.203-  13 2.17  34 2.25  14 2.26   3 2.26   2 2.36
  63  0.501  0.491  0.330-  35 2.25   4 2.26  15 2.26   3 2.36  14 2.36  44 2.75
  64  0.644  0.344  0.441-   5 2.00  15 2.06  16 2.14   4 2.17
  65  0.067  0.258  0.245-  29 2.25   7 2.26  18 2.26   6 2.36  17 2.36
  66  0.218  0.108  0.372-  26 2.12  19 2.26   8 2.26  18 2.36   7 2.36
  67  0.374  0.945  0.481-  19 1.99   8 2.21  20 2.25
  68  0.919  0.394  0.129-  21 2.07  17 2.12  28 2.13   6 2.19
  69  0.449  0.076  0.047-  30 2.07   1 2.08  23 2.11
  70  0.634  0.025  0.160-  36 2.07  23 2.13  31 2.25  11 2.26  24 2.26  10 2.36
  71  0.784  0.874  0.287-  32 2.25  25 2.26  12 2.26  24 2.36  11 2.36
  72  0.953  0.719  0.399-  25 2.07   9 2.09  22 2.13  12 2.13
 
  LATTYP: Found a base centered orthorhombic cell.
 ALAT       =    11.4527836704
 B/A-ratio  =     1.4485816945
 C/A-ratio  =     1.8059804630
  
  Lattice vectors:
  
 A1 = (  10.0797329849,   0.0000000000,   0.0000000000)
 A2 = (  -3.5732980427,  -9.4251025535,   0.0000000000)
 A3 = (   0.0000000000,   0.0000000000, -20.6835035552)


Analysis of symmetry for initial positions (statically):
=====================================================================
 Subroutine PRICEL returns:
 Original cell was already a primitive cell.
 

 Routine SETGRP: Setting up the symmetry group for a 
 base centered orthorhombic supercell.


 Subroutine GETGRP returns: Found  1 space group operations
 (whereof  1 operations were pure point group operations)
 out of a pool of  8 trial point group operations.


The static configuration has the point symmetry C_1 .


Analysis of symmetry for dynamics (positions and initial velocities):
=====================================================================
 Subroutine PRICEL returns:
 Original cell was already a primitive cell.
 

 Routine SETGRP: Setting up the symmetry group for a 
 base centered orthorhombic supercell.


 Subroutine GETGRP returns: Found  1 space group operations
 (whereof  1 operations were pure point group operations)
 out of a pool of  8 trial point group operations.


The dynamic configuration has the point symmetry C_1 .


 Subroutine INISYM returns: Found  1 space group operations
 (whereof  1 operations are pure point group operations),
 and found     1 'primitive' translations

 
 
 KPOINTS: gamma-point-only calculation. no periodi

Automatic generation of k-mesh.
Space group operators:
 irot       det(A)        alpha          n_x          n_y          n_z        tau_x        tau_y        tau_z
    1     1.000000     0.000000     1.000000     0.000000     0.000000     0.000000     0.000000     0.000000
 
 Subroutine IBZKPT returns following result:
 ===========================================
 
 Found      1 irreducible k-points:
 
 Following reciprocal coordinates:
            Coordinates               Weight
  0.000000  0.000000  0.000000      1.000000
 
 Following cartesian coordinates:
            Coordinates               Weight
  0.000000  0.000000  0.000000      1.000000
 


--------------------------------------------------------------------------------------------------------




 Dimension of arrays:
   k-points           NKPTS =      1   k-points in BZ     NKDIM =      1   number of bands    NBANDS=    476
   number of dos      NEDOS =    301   number of ions     NIONS =     72
   non local maximal  LDIM  =      6   non local SUM 2l+1 LMDIM =     18
   total plane-waves  NPLWV = 314928
   max r-space proj   IRMAX =   1817   max aug-charges    IRDMAX=   5248
   dimension x,y,z NGX =    54 NGY =   54 NGZ =  108
   dimension x,y,z NGXF=   108 NGYF=  108 NGZF=  216
   support grid    NGXF=   108 NGYF=  108 NGZF=  216
   ions per type =              36  36
   NGX,Y,Z   is equivalent  to a cutoff of   8.91,  8.91,  8.68 a.u.
   NGXF,Y,Z  is equivalent  to a cutoff of  17.81, 17.81, 17.36 a.u.

 SYSTEM =  "Millerite NiS"                         
 POSCAR =  Type_036 Type_136                       

 Startparameter for this run:
   NWRITE =      2    write-flag & timer
   PREC   = normal    normal or accurate (medium, high low for compatibility)
   ISTART =      0    job   : 0-new  1-cont  2-samecut
   ICHARG =      2    charge: 1-file 2-atom 10-const
   ISPIN  =      1    spin polarized calculation?
   LNONCOLLINEAR =      F non collinear calculations
   LSORBIT =      F    spin-orbit coupling
   INIWAV =      1    electr: 0-lowe 1-rand  2-diag
   LASPH  =      F    aspherical Exc in radial PAW
   METAGGA=      F    non-selfconsistent MetaGGA calc.

 Electronic Relaxation 1
   ENCUT  =  450.0 eV  33.07 Ry    5.75 a.u.  17.43 17.43 35.78*2*pi/ulx,y,z
   ENINI  =  450.0     initial cutoff
   ENAUG  =  703.4 eV  augmentation charge cutoff
   NELM   =    100;   NELMIN=  2; NELMDL= -5     # of ELM steps 
   EDIFF  = 0.1E-03   stopping-criterion for ELM
   LREAL  =      T    real-space projection
   NLSPLINE    = F    spline interpolate recip. space projectors
   LCOMPAT=      F    compatible to vasp.4.4
   GGA_COMPAT  = T    GGA compatible to vasp.4.4-vasp.4.6
   LMAXPAW     = -100 max onsite density
   LMAXMIX     =    2 max onsite mixed and CHGCAR
   VOSKOWN=      0    Vosko Wilk Nusair interpolation
   ROPT   =   -0.00050  -0.00050
 Ionic relaxation
   EDIFFG = 0.1E-02   stopping-criterion for IOM
   NSW    =      0    number of steps for IOM
   NBLOCK =      1;   KBLOCK =      1    inner block; outer block 
   IBRION =     -1    ionic relax: 0-MD 1-quasi-New 2-CG
   NFREE  =      0    steps in history (QN), initial steepest desc. (CG)
   ISIF   =      2    stress and relaxation
   IWAVPR =     10    prediction:  0-non 1-charg 2-wave 3-comb
   ISYM   =      2    0-nonsym 1-usesym 2-fastsym
   LCORR  =      T    Harris-Foulkes like correction to forces

   POTIM  = 0.5000    time-step for ionic-motion
   TEIN   =    0.0    initial temperature
   TEBEG  =    0.0;   TEEND  =   0.0 temperature during run
   SMASS  =  -3.00    Nose mass-parameter (am)
   estimated Nose-frequenzy (Omega)   =  0.10E-29 period in steps =****** mass=  -0.232E-26a.u.
   SCALEE = 1.0000    scale energy and forces
   NPACO  =    256;   APACO  = 16.0  distance and # of slots for P.C.
   PSTRESS=    0.0 pullay stress

  Mass of Ions in am
   POMASS =  58.69 32.07
  Ionic Valenz
   ZVAL   =  16.00  6.00
  Atomic Wigner-Seitz radii
   RWIGS  =  -1.00 -1.00
  virtual crystal weights 
   VCA    =   1.00  1.00
   NELECT =     792.0000    total number of electrons
   NUPDOWN=      -1.0000    fix difference up-down

 DOS related values:
   EMIN   =  10.00;   EMAX   =-10.00  energy-range for DOS
   EFERMI =   0.00
   ISMEAR =     0;   SIGMA  =   0.20  broadening in eV -4-tet -1-fermi 0-gaus

 Electronic relaxation 2 (details)
   IALGO  =     38    algorithm
   LDIAG  =      T    sub-space diagonalisation (order eigenvalues)
   LSUBROT=      F    optimize rotation matrix (better conditioning)
   TURBO    =      0    0=normal 1=particle mesh
   IRESTART =      0    0=no restart 2=restart with 2 vectors
   NREBOOT  =      0    no. of reboots
   NMIN     =      0    reboot dimension
   EREF     =   0.00    reference energy to select bands
   IMIX   =      4    mixing-type and parameters
     AMIX     =   0.40;   BMIX     =  1.00
     AMIX_MAG =   1.60;   BMIX_MAG =  1.00
     AMIN     =   0.10
     WC   =   100.;   INIMIX=   1;  MIXPRE=   1;  MAXMIX= -45

 Intra band minimization:
   WEIMIN = 0.0000     energy-eigenvalue tresh-hold
   EBREAK =  0.53E-07  absolut break condition
   DEPER  =   0.30     relativ break condition  

   TIME   =   0.40     timestep for ELM

  volume/ion in A,a.u.               =      27.29       184.17
  Fermi-wavevector in a.u.,A,eV,Ry     =   1.209289  2.285225 19.896891  1.462380
  Thomas-Fermi vector in A             =   2.344871
 
 Write flags
   LWAVE        =      F    write WAVECAR
   LDOWNSAMPLE  =      F    k-point downsampling of WAVECAR
   LCHARG       =      F    write CHGCAR
   LVTOT        =      F    write LOCPOT, total local potential
   LVHAR        =      F    write LOCPOT, Hartree potential only
   LELF         =      F    write electronic localiz. function (ELF)
   LORBIT       =      0    0 simple, 1 ext, 2 COOP (PROOUT), +10 PAW based schemes


 Dipole corrections
   LMONO  =      F    monopole corrections only (constant potential shift)
   LDIPOL =      F    correct potential (dipole corrections)
   IDIPOL =      0    1-x, 2-y, 3-z, 4-all directions 
   EPSILON=  1.0000000 bulk dielectric constant

 Exchange correlation treatment:
   GGA     =    --    GGA type
   LEXCH   =     8    internal setting for exchange type
   VOSKOWN=      0    Vosko Wilk Nusair interpolation
   LHFCALC =     F    Hartree Fock is set to
   LHFONE  =     F    Hartree Fock one center treatment
   AEXX    =    0.0000 exact exchange contribution

 Linear response parameters
   LEPSILON=     F    determine dielectric tensor
   LRPA    =     F    only Hartree local field effects (RPA)
   LNABLA  =     F    use nabla operator in PAW spheres
   LVEL    =     F    velocity operator in full k-point grid
   LINTERFAST=   F  fast interpolation
   KINTER  =     0    interpolate to denser k-point grid
   CSHIFT  =0.1000    complex shift for real part using Kramers Kronig
   OMEGAMAX=  -1.0    maximum frequency
   DEG_THRESHOLD= 0.2000000E-02 threshold for treating states as degnerate
   RTIME   =   -0.100 relaxation time in fs
  (WPLASMAI=    0.000 imaginary part of plasma frequency in eV, 0.658/RTIME)
   DFIELD  = 0.0000000 0.0000000 0.0000000 field for delta impulse in time
 
 Orbital magnetization related:
   ORBITALMAG=     F  switch on orbital magnetization
   LCHIMAG   =     F  perturbation theory with respect to B field
   DQ        =  0.001000  dq finite difference perturbation B field
   LLRAUG    =     F  two centre corrections for induced B field



--------------------------------------------------------------------------------------------------------


 Static calculation
 charge density and potential will be updated during run
 non-spin polarized calculation
 Variant of blocked Davidson
 Davidson routine will perform the subspace rotation
 perform sub-space diagonalisation
    after iterative eigenvector-optimisation
 modified Broyden-mixing scheme, WC =      100.0
 initial mixing is a Kerker type mixing with AMIX =  0.4000 and BMIX =      1.0000
 Hartree-type preconditioning will be used
 using additional bands           80
 real space projection scheme for non local part
 use partial core corrections
 calculate Harris-corrections to forces 
   (improved forces if not selfconsistent)
 use gradient corrections 
 use of overlap-Matrix (Vanderbilt PP)
 Gauss-broadening in eV      SIGMA  =   0.20


--------------------------------------------------------------------------------------------------------


  energy-cutoff  :      450.00
  volume of cell :     1964.98
      direct lattice vectors                 reciprocal lattice vectors
    10.079732985  0.000000000  0.000000000     0.099208977 -0.037612667  0.000000000
     3.573298043  9.425102554  0.000000000     0.000000000  0.106099641  0.000000000
     0.000000000  0.000000000 20.683503555     0.000000000  0.000000000  0.048347708

  length of vectors
    10.079732985 10.079732985 20.683503555     0.106099641  0.106099641  0.048347708


 
 k-points in units of 2pi/SCALE and weight: gamma-point-only calculation. no periodi
   0.00000000  0.00000000  0.00000000       1.000
 
 k-points in reciprocal lattice and weights: gamma-point-only calculation. no periodi
   0.00000000  0.00000000  0.00000000       1.000
 
 position of ions in fractional coordinates (direct lattice) 
   0.28900724  0.99345415  0.05814471
   0.39705889  0.79495179  0.12693702
   0.54732740  0.64468328  0.25387405
   0.69759592  0.49441476  0.38081107
   0.82591193  0.33719967  0.48233746
   0.11381506  0.41152895  0.16924937
   0.26408357  0.26126044  0.29618639
   0.41435209  0.11099193  0.42312341
   0.07598328  0.81340969  0.44952402
   0.71512489  0.21414950  0.14356213
   0.83057123  0.02810611  0.21156171
   0.98083975  0.87783760  0.33849873
   0.34625415  0.47657675  0.13574680
   0.50762556  0.42017912  0.22033653
   0.65789407  0.26991061  0.34727355
   0.77230341  0.12530083  0.45436157
   0.07411322  0.18702479  0.13571184
   0.22438173  0.03675628  0.26264887
   0.37465025  0.88648777  0.38958589
   0.33473918  0.74071020  0.46768933
   0.89394527  0.25594652  0.06011995
   0.09599937  0.51154708  0.42282650
   0.57422817  0.88999405  0.09596902
   0.79086939  0.80360196  0.17802418
   0.94113790  0.65333344  0.30496121
   0.02524516  0.16564532  0.42512570
   0.58387370  0.59802319  0.08126447
   0.73212972  0.45988096  0.18679900
   0.88239823  0.30961245  0.31373603
   0.29861738  0.22672664  0.10217432
   0.44888589  0.07645812  0.22911134
   0.59915440  0.92618961  0.35604837
   0.01537355  0.84330380  0.14448666
   0.16564206  0.69303529  0.27142369
   0.31591057  0.54276677  0.39836071
   0.78061204  0.97884423  0.08600068
   0.98088804  0.02124339  0.48699141
   0.58579929  0.40599939  0.11724657
   0.73606781  0.25573088  0.24418359
   0.88633632  0.10546236  0.37112062
   0.12237127  0.18866921  0.04047220
   0.30255546  0.02257655  0.15955891
   0.45282398  0.87230804  0.28649593
   0.52673467  0.68486087  0.41729102
   0.01931164  0.63915371  0.20187125
   0.16958015  0.48888520  0.32880827
   0.30129136  0.34217140  0.42785672
   0.88717902  0.76738948  0.08802411
   0.47141399  0.79104064  0.03476580
   0.63635413  0.69187455  0.15995199
   0.78662264  0.54160604  0.28688901
   0.93689115  0.39133753  0.41382604
   0.19667536  0.43758122  0.08152705
   0.35311030  0.30845171  0.20226433
   0.50337881  0.15818320  0.32920136
   0.62894096  0.02063774  0.43960491
   0.06986647  0.92502888  0.24457667
   0.22013498  0.77476036  0.37151370
   0.20746173  0.61649893  0.48330313
   0.91959796  0.07529739  0.11763965
   0.19103635  0.84736810  0.08984271
   0.35047896  0.64131972  0.20265741
   0.50074748  0.49105120  0.32959444
   0.64412261  0.34439859  0.44093511
   0.06723514  0.25789688  0.24496976
   0.21750365  0.10762837  0.37190678
   0.37386464  0.94535186  0.48134679
   0.91912923  0.39387648  0.12925100
   0.44949957  0.07592368  0.04691862
   0.63372279  0.02474255  0.16034507
   0.78399131  0.87447404  0.28728210
   0.95272824  0.71867612  0.39914197
 
 position of ions in cartesian coordinates  (Angst):
   6.46302358  9.36340728  1.20263622
   6.84284728  7.49250214  2.62550239
   7.82055958  6.07620600  5.25100480
   8.79827188  4.65990985  7.87650718
   9.52988664  3.17814149  9.97642855
   2.61774104  3.87870257  3.50066986
   3.59545334  2.46240643  6.12617225
   4.57316564  1.04611029  8.75167464
   3.67244646  7.66646978  9.29773172
   7.97348796  2.01838104  2.96936791
   8.47236779  0.26490301  4.37583732
  13.02337813  8.27370942  7.00133973
   5.19310014  4.49178472  2.80771949
   6.61815534  3.96023129  4.55733130
   7.59586764  2.54393515  7.18283371
   8.23234935  1.18097321  9.39778906
   1.41533680  1.76272786  2.80699637
   2.39304911  0.34643173  5.43249877
   6.94405944  8.35523814  8.05800116
   6.02085989  6.98126963  9.67345389
   9.92530284  2.41232222  1.24349125
   2.79555820  4.82138365  8.74553347
   8.96828065  8.38828522  1.98497550
  10.84326159  7.57403086  3.68216384
  11.82097388  6.15773471  6.30766623
   0.84636461  1.56122412  8.79308892
   8.02220607  5.63642989  1.68083389
   9.02296382  4.33442523  3.86365782
  10.00067612  2.91812908  6.48916021
   3.82014528  2.13692181  2.11332289
   4.79785758  0.72062566  4.73882528
   9.34886792  8.72943208  7.36432769
   3.16833707  7.94822479  2.98849035
   4.14604938  6.53192865  5.61399275
   5.12376167  5.11563251  8.23949514
  11.36606313  9.22570721  1.77879538
   9.96299852  0.20022116 10.07268857
   7.35545728  3.82658586  2.42506979
   8.33316958  2.41028972  5.05057219
   9.31088188  0.99399359  7.67607458
   1.90764100  1.77822661  0.83710684
   3.13035103  0.21278630  3.30023726
   7.68136138  8.22159271  5.92573965
   7.75655687  6.45488398  8.63104033
   2.47854283  6.02408928  4.17540472
   3.45625514  4.60779315  6.80090710
   4.25961691  3.22500057  8.84957599
  11.68463896  7.23272459  1.82064693
   7.57835108  7.45563918  0.71907863
   8.88655369  6.52098861  3.30836755
   9.86426599  5.10469246  5.93386996
  10.84197829  3.68839633  8.55937235
   3.54604327  4.12424790  1.68626504
   4.66144744  2.90718904  4.18353503
   5.63915974  1.49089290  6.80903742
   6.41330177  0.19451286  9.09256975
   4.00963925  8.71849203  5.05870249
   4.98735154  7.30219589  7.68420489
   4.29409324  5.81056567  9.99640194
   9.53836188  0.70968561  2.43320010
   4.95349415  7.98653124  1.85826210
   5.82436087  6.04450409  4.19166532
   6.80207317  4.62820796  6.81716773
   7.72322268  3.24599203  9.12008285
   1.59925463  2.43070453  5.06683280
   2.57696692  1.01440839  7.69233519
   7.14647967  8.91003820  9.95593809
  10.67201524  3.71232618  2.67336356
   4.80213356  0.71558847  0.97044150
   6.47616907  0.23320111  3.31649787
  11.02717941  8.24200752  5.94200025
  12.17129029  6.77359616  8.25565427
 


--------------------------------------------------------------------------------------------------------


 use parallel FFT for orbitals z direction half grid
 k-point  1 :   0.0000 0.0000 0.0000  plane waves:   21301

 maximum and minimum number of plane-waves per node :      3554     3548

 maximum number of plane-waves:     21301
 maximum index in each direction: 
   IXMAX=   17   IYMAX=   17   IZMAX=   35
   IXMIN=  -17   IYMIN=  -17   IZMIN=    0


 real space projection operators:
  total allocation   :      11151.08 KBytes
  max/ min on nodes  :       1864.69       1847.89


 parallel 3D FFT for wavefunctions:
    minimum data exchange during FFTs selected (reduces bandwidth)
 parallel 3D FFT for charge:
    minimum data exchange during FFTs selected (reduces bandwidth)


 total amount of memory used by VASP MPI-rank0    68406. kBytes
=======================================================================

   base      :      30000. kBytes
   nonlr-proj:       2291. kBytes
   fftplans  :       8265. kBytes
   grid      :      13942. kBytes
   one-center:         93. kBytes
   wavefun   :      13815. kBytes
 
     INWAV:  cpu time    0.0000: real time    0.0000
 Broyden mixing: mesh for mixing (old mesh)
   NGX = 35   NGY = 35   NGZ = 71
  (NGX  =108   NGY  =108   NGZ  =216)
  gives a total of  86975 points

 initial charge density was supplied:
 charge density of overlapping atoms calculated
 number of electron     792.0000000 magnetization 
 keeping initial charge density in first step


--------------------------------------------------------------------------------------------------------


 Maximum index for non-local projection operator          303
 Maximum index for augmentation-charges          469 (set IRDMAX)


--------------------------------------------------------------------------------------------------------


 First call to EWALD:  gamma=   0.142
 Maximum number of real-space cells 3x 3x 2
 Maximum number of reciprocal cells 2x 2x 4

    FEWALD:  cpu time    0.0055: real time    0.0055


--------------------------------------- Iteration      1(   1)  ---------------------------------------


    POTLOK:  cpu time    0.2686: real time    0.2696
    SETDIJ:  cpu time    0.0176: real time    0.0176
     EDDAV:  cpu time    7.0462: real time    7.0488
       DOS:  cpu time    0.0014: real time    0.0014
    --------------------------------------------
      LOOP:  cpu time    7.3339: real time    7.3375

 eigenvalue-minimisations  :  1160
 total energy-change (2. order) : 0.9928084E+04  (-0.5134955E+05)
 number of electron     792.0000000 magnetization 
 augmentation part      792.0000000 magnetization 

 Free energy of the ion-electron system (eV)
  ---------------------------------------------------
  alpha Z        PSCENC =      1893.09323658
  Ewald energy   TEWEN  =    221255.74698075
  -Hartree energ DENC   =   -343441.17962821
  -exchange      EXHF   =         0.00000000
  -V(xc)+E(xc)   XCENC  =      3681.07401206
  PAW double counting   =    112729.53333415  -117641.51188735
  entropy T*S    EENTRO =        -0.33762063
  eigenvalues    EBANDS =     -4550.93975835
  atomic energy  EATOM  =    136002.60505376
  Solvation  Ediel_sol  =         0.00000000
  ---------------------------------------------------
  free energy    TOTEN  =      9928.08372276 eV

  energy without entropy =     9928.42134339  energy(sigma->0) =     9928.25253308


--------------------------------------------------------------------------------------------------------




--------------------------------------- Iteration      1(   2)  ---------------------------------------


     EDDAV:  cpu time    6.1247: real time    6.1263
       DOS:  cpu time    0.0011: real time    0.0011
    --------------------------------------------
      LOOP:  cpu time    6.1259: real time    6.1274

 eigenvalue-minimisations  :  1004
 total energy-change (2. order) :-0.9307341E+04  (-0.8982208E+04)
 number of electron     792.0000000 magnetization 
 augmentation part      792.0000000 magnetization 

 Free energy of the ion-electron system (eV)
  ---------------------------------------------------
  alpha Z        PSCENC =      1893.09323658
  Ewald energy   TEWEN  =    221255.74698075
  -Hartree energ DENC   =   -343441.17962821
  -exchange      EXHF   =         0.00000000
  -V(xc)+E(xc)   XCENC  =      3681.07401206
  PAW double counting   =    112729.53333415  -117641.51188735
  entropy T*S    EENTRO =        -0.68524128
  eigenvalues    EBANDS =    -13857.93308954
  atomic energy  EATOM  =    136002.60505376
  Solvation  Ediel_sol  =         0.00000000
  ---------------------------------------------------
  free energy    TOTEN  =       620.74277093 eV

  energy without entropy =      621.42801220  energy(sigma->0) =      621.08539157


--------------------------------------------------------------------------------------------------------




--------------------------------------- Iteration      1(   3)  ---------------------------------------


     EDDAV:  cpu time    6.4539: real time    6.4555
       DOS:  cpu time    0.0012: real time    0.0012
    --------------------------------------------
      LOOP:  cpu time    6.4551: real time    6.4567

 eigenvalue-minimisations  :  1080
 total energy-change (2. order) :-0.9580797E+03  (-0.9093741E+03)
 number of electron     792.0000000 magnetization 
 augmentation part      792.0000000 magnetization 

 Free energy of the ion-electron system (eV)
  ---------------------------------------------------
  alpha Z        PSCENC =      1893.09323658
  Ewald energy   TEWEN  =    221255.74698075
  -Hartree energ DENC   =   -343441.17962821
  -exchange      EXHF   =         0.00000000
  -V(xc)+E(xc)   XCENC  =      3681.07401206
  PAW double counting   =    112729.53333415  -117641.51188735
  entropy T*S    EENTRO =        -0.94693776
  eigenvalues    EBANDS =    -14815.75107758
  atomic energy  EATOM  =    136002.60505376
  Solvation  Ediel_sol  =         0.00000000
  ---------------------------------------------------
  free energy    TOTEN  =      -337.33691360 eV

  energy without entropy =     -336.38997584  energy(sigma->0) =     -336.86344472


--------------------------------------------------------------------------------------------------------




--------------------------------------- Iteration      1(   4)  ---------------------------------------


     EDDAV:  cpu time    6.4856: real time    6.4868
       DOS:  cpu time    0.0014: real time    0.0014
    --------------------------------------------
      LOOP:  cpu time    6.4870: real time    6.4882

 eigenvalue-minimisations  :  1080
 total energy-change (2. order) :-0.5882090E+02  (-0.5812355E+02)
 number of electron     792.0000000 magnetization 
 augmentation part      792.0000000 magnetization 

 Free energy of the ion-electron system (eV)
  ---------------------------------------------------
  alpha Z        PSCENC =      1893.09323658
  Ewald energy   TEWEN  =    221255.74698075
  -Hartree energ DENC   =   -343441.17962821
  -exchange      EXHF   =         0.00000000
  -V(xc)+E(xc)   XCENC  =      3681.07401206
  PAW double counting   =    112729.53333415  -117641.51188735
  entropy T*S    EENTRO =        -0.98485169
  eigenvalues    EBANDS =    -14874.53406311
  atomic energy  EATOM  =    136002.60505376
  Solvation  Ediel_sol  =         0.00000000
  ---------------------------------------------------
  free energy    TOTEN  =      -396.15781306 eV

  energy without entropy =     -395.17296137  energy(sigma->0) =     -395.66538721


--------------------------------------------------------------------------------------------------------




--------------------------------------- Iteration      1(   5)  ---------------------------------------


     EDDAV:  cpu time    7.6577: real time    7.6593
       DOS:  cpu time    0.0013: real time    0.0013
    CHARGE:  cpu time    0.2173: real time    0.2174
    MIXING:  cpu time    0.0077: real time    0.0077
    --------------------------------------------
      LOOP:  cpu time    7.8841: real time    7.8858

 eigenvalue-minimisations  :  1272
 total energy-change (2. order) :-0.2449449E+01  (-0.2445316E+01)
 number of electron     792.0000116 magnetization 
 augmentation part      286.7835622 magnetization 

 Broyden mixing:
  rms(total) = 0.96470E+01    rms(broyden)= 0.96376E+01
  rms(prec ) = 0.99806E+01
  weight for this iteration     100.00

 Free energy of the ion-electron system (eV)
  ---------------------------------------------------
  alpha Z        PSCENC =      1893.09323658
  Ewald energy   TEWEN  =    221255.74698075
  -Hartree energ DENC   =   -343441.17962821
  -exchange      EXHF   =         0.00000000
  -V(xc)+E(xc)   XCENC  =      3681.07401206
  PAW double counting   =    112729.53333415  -117641.51188735
  entropy T*S    EENTRO =        -0.98725756
  eigenvalues    EBANDS =    -14876.98110606
  atomic energy  EATOM  =    136002.60505376
  Solvation  Ediel_sol  =         0.00000000
  ---------------------------------------------------
  free energy    TOTEN  =      -398.60726188 eV

  energy without entropy =     -397.62000432  energy(sigma->0) =     -398.11363310


--------------------------------------------------------------------------------------------------------




--------------------------------------- Iteration      1(   6)  ---------------------------------------


    POTLOK:  cpu time    0.2470: real time    0.2470
    SETDIJ:  cpu time    0.0172: real time    0.0172
     EDDAV:  cpu time    6.9606: real time    6.9620
       DOS:  cpu time    0.0011: real time    0.0011
    CHARGE:  cpu time    0.2084: real time    0.2084
    MIXING:  cpu time    0.0084: real time    0.0084
    --------------------------------------------
      LOOP:  cpu time    7.4427: real time    7.4440

 eigenvalue-minimisations  :  1176
 total energy-change (2. order) :-0.6209149E+02  (-0.9131894E+02)
 number of electron     792.0000147 magnetization 
 augmentation part      346.5406832 magnetization 

 Broyden mixing:
  rms(total) = 0.15202E+02    rms(broyden)= 0.15200E+02
  rms(prec ) = 0.15724E+02
  weight for this iteration     100.00

 eigenvalues of (default mixing * dielectric matrix)
  average eigenvalue GAMMA=   0.2593
  0.2593

 Free energy of the ion-electron system (eV)
  ---------------------------------------------------
  alpha Z        PSCENC =      1893.09323658
  Ewald energy   TEWEN  =    221255.74698075
  -Hartree energ DENC   =   -340779.42878584
  -exchange      EXHF   =         0.00000000
  -V(xc)+E(xc)   XCENC  =      3607.42494698
  PAW double counting   =    117521.25831108  -122203.09155192
  entropy T*S    EENTRO =        -0.70874420
  eigenvalues    EBANDS =    -17757.59820057
  atomic energy  EATOM  =    136002.60505376
  Solvation  Ediel_sol  =         0.00000000
  ---------------------------------------------------
  free energy    TOTEN  =      -460.69875340 eV

  energy without entropy =     -459.99000920  energy(sigma->0) =     -460.34438130


--------------------------------------------------------------------------------------------------------




--------------------------------------- Iteration      1(   7)  ---------------------------------------


    POTLOK:  cpu time    0.2443: real time    0.2444
    SETDIJ:  cpu time    0.0171: real time    0.0171
     EDDAV:  cpu time    6.5215: real time    6.5247
       DOS:  cpu time    0.0011: real time    0.0011
    CHARGE:  cpu time    0.2077: real time    0.2077
    MIXING:  cpu time    0.0088: real time    0.0088
    --------------------------------------------
      LOOP:  cpu time    7.0004: real time    7.0038

 eigenvalue-minimisations  :  1088
 total energy-change (2. order) : 0.9729271E+02  (-0.1942501E+02)
 number of electron     792.0000144 magnetization 
 augmentation part      329.2219461 magnetization 

 Broyden mixing:
  rms(total) = 0.62634E+01    rms(broyden)= 0.62619E+01
  rms(prec ) = 0.64726E+01
  weight for this iteration     100.00

 eigenvalues of (default mixing * dielectric matrix)
  average eigenvalue GAMMA=   0.5534
  0.6624  0.4443

 Free energy of the ion-electron system (eV)
  ---------------------------------------------------
  alpha Z        PSCENC =      1893.09323658
  Ewald energy   TEWEN  =    221255.74698075
  -Hartree energ DENC   =   -341964.20702058
  -exchange      EXHF   =         0.00000000
  -V(xc)+E(xc)   XCENC  =      3635.14694489
  PAW double counting   =    122176.59060588  -127005.27012051
  entropy T*S    EENTRO =        -0.87499756
  eigenvalues    EBANDS =    -16356.23672300
  atomic energy  EATOM  =    136002.60505376
  Solvation  Ediel_sol  =         0.00000000
  ---------------------------------------------------
  free energy    TOTEN  =      -363.40603980 eV

  energy without entropy =     -362.53104224  energy(sigma->0) =     -362.96854102


--------------------------------------------------------------------------------------------------------




--------------------------------------- Iteration      1(   8)  ---------------------------------------


    POTLOK:  cpu time    0.2528: real time    0.2528
    SETDIJ:  cpu time    0.0171: real time    0.0171
     EDDAV:  cpu time    7.5039: real time    7.5050
       DOS:  cpu time    0.0011: real time    0.0011
    CHARGE:  cpu time    0.2063: real time    0.2064
    MIXING:  cpu time    0.0087: real time    0.0087
    --------------------------------------------
      LOOP:  cpu time    7.9900: real time    7.9912

 eigenvalue-minimisations  :  1264
 total energy-change (2. order) :-0.5978010E+02  (-0.2259131E+02)
 number of electron     792.0000116 magnetization 
 augmentation part      305.0005955 magnetization 

 Broyden mixing:
  rms(total) = 0.12578E+02    rms(broyden)= 0.12576E+02
  rms(prec ) = 0.14255E+02
  weight for this iteration     100.00

 eigenvalues of (default mixing * dielectric matrix)
  average eigenvalue GAMMA=   0.5224
  0.9610  0.4210  0.1852

 Free energy of the ion-electron system (eV)
  ---------------------------------------------------
  alpha Z        PSCENC =      1893.09323658
  Ewald energy   TEWEN  =    221255.74698075
  -Hartree energ DENC   =   -342711.95019074
  -exchange      EXHF   =         0.00000000
  -V(xc)+E(xc)   XCENC  =      3660.18544486
  PAW double counting   =    129855.59335025  -134822.68975375
  entropy T*S    EENTRO =        -1.02767416
  eigenvalues    EBANDS =    -15554.74258377
  atomic energy  EATOM  =    136002.60505376
  Solvation  Ediel_sol  =         0.00000000
  ---------------------------------------------------
  free energy    TOTEN  =      -423.18613623 eV

  energy without entropy =     -422.15846207  energy(sigma->0) =     -422.67229915


--------------------------------------------------------------------------------------------------------




--------------------------------------- Iteration      1(   9)  ---------------------------------------


    POTLOK:  cpu time    0.2426: real time    0.2426
    SETDIJ:  cpu time    0.0171: real time    0.0171
     EDDAV:  cpu time    7.1806: real time    7.1818
       DOS:  cpu time    0.0012: real time    0.0012
    CHARGE:  cpu time    0.2122: real time    0.2123
    MIXING:  cpu time    0.0089: real time    0.0089
    --------------------------------------------
      LOOP:  cpu time    7.6625: real time    7.6638

 eigenvalue-minimisations  :  1240
 total energy-change (2. order) : 0.5247475E+02  (-0.1136526E+02)
 number of electron     792.0000113 magnetization 
 augmentation part      304.6885900 magnetization 

 Broyden mixing:
  rms(total) = 0.53898E+01    rms(broyden)= 0.53838E+01
  rms(prec ) = 0.59467E+01
  weight for this iteration     100.00

 eigenvalues of (default mixing * dielectric matrix)
  average eigenvalue GAMMA=   0.6952
  1.7911  0.4251  0.4251  0.1396

 Free energy of the ion-electron system (eV)
  ---------------------------------------------------
  alpha Z        PSCENC =      1893.09323658
  Ewald energy   TEWEN  =    221255.74698075
  -Hartree energ DENC   =   -342855.57869077
  -exchange      EXHF   =         0.00000000
  -V(xc)+E(xc)   XCENC  =      3658.49623975
  PAW double counting   =    133004.51321546  -137986.44552067
  entropy T*S    EENTRO =        -0.97639885
  eigenvalues    EBANDS =    -15342.16550557
  atomic energy  EATOM  =    136002.60505376
  Solvation  Ediel_sol  =         0.00000000
  ---------------------------------------------------
  free energy    TOTEN  =      -370.71138957 eV

  energy without entropy =     -369.73499072  energy(sigma->0) =     -370.22319015


--------------------------------------------------------------------------------------------------------




--------------------------------------- Iteration      1(  10)  ---------------------------------------


    POTLOK:  cpu time    0.2410: real time    0.2410
    SETDIJ:  cpu time    0.0171: real time    0.0171
     EDDAV:  cpu time    8.0288: real time    8.0303
       DOS:  cpu time    0.0011: real time    0.0011
    CHARGE:  cpu time    0.2082: real time    0.2082
    MIXING:  cpu time    0.0095: real time    0.0095
    --------------------------------------------
      LOOP:  cpu time    8.5057: real time    8.5072

 eigenvalue-minimisations  :  1376
 total energy-change (2. order) :-0.2231111E+02  (-0.6775731E+01)
 number of electron     792.0000135 magnetization 
 augmentation part      305.4986049 magnetization 

 Broyden mixing:
  rms(total) = 0.83081E+01    rms(broyden)= 0.83046E+01
  rms(prec ) = 0.10090E+02
  weight for this iteration     100.00

 eigenvalues of (default mixing * dielectric matrix)
  average eigenvalue GAMMA=   0.6565
  2.1274  0.4352  0.4352  0.1423  0.1423

 Free energy of the ion-electron system (eV)
  ---------------------------------------------------
  alpha Z        PSCENC =      1893.09323658
  Ewald energy   TEWEN  =    221255.74698075
  -Hartree energ DENC   =   -342712.42514804
  -exchange      EXHF   =         0.00000000
  -V(xc)+E(xc)   XCENC  =      3653.41101487
  PAW double counting   =    138862.40614575  -143869.11225969
  entropy T*S    EENTRO =        -1.14077153
  eigenvalues    EBANDS =    -15477.60674940
  atomic energy  EATOM  =    136002.60505376
  Solvation  Ediel_sol  =         0.00000000
  ---------------------------------------------------
  free energy    TOTEN  =      -393.02249696 eV

  energy without entropy =     -391.88172543  energy(sigma->0) =     -392.45211120


--------------------------------------------------------------------------------------------------------




--------------------------------------- Iteration      1(  11)  ---------------------------------------


    POTLOK:  cpu time    0.2433: real time    0.2442
    SETDIJ:  cpu time    0.0177: real time    0.0177
     EDDAV:  cpu time    7.4687: real time    7.4699
       DOS:  cpu time    0.0012: real time    0.0012
    CHARGE:  cpu time    0.2089: real time    0.2090
    MIXING:  cpu time    0.0096: real time    0.0097
    --------------------------------------------
      LOOP:  cpu time    7.9495: real time    7.9517

 eigenvalue-minimisations  :  1304
 total energy-change (2. order) : 0.2632090E+02  (-0.5831904E+01)
 number of electron     792.0000132 magnetization 
 augmentation part      309.2640111 magnetization 

 Broyden mixing:
  rms(total) = 0.44999E+01    rms(broyden)= 0.44946E+01
  rms(prec ) = 0.52471E+01
  weight for this iteration     100.00

 eigenvalues of (default mixing * dielectric matrix)
  average eigenvalue GAMMA=   0.6470
  2.3604  0.4555  0.4555  0.3408  0.1603  0.1094

 Free energy of the ion-electron system (eV)
  ---------------------------------------------------
  alpha Z        PSCENC =      1893.09323658
  Ewald energy   TEWEN  =    221255.74698075
  -Hartree energ DENC   =   -342668.65215272
  -exchange      EXHF   =         0.00000000
  -V(xc)+E(xc)   XCENC  =      3651.53989239
  PAW double counting   =    141487.89716593  -146506.75795751
  entropy T*S    EENTRO =        -0.96613458
  eigenvalues    EBANDS =    -15481.20768526
  atomic energy  EATOM  =    136002.60505376
  Solvation  Ediel_sol  =         0.00000000
  ---------------------------------------------------
  free energy    TOTEN  =      -366.70160068 eV

  energy without entropy =     -365.73546610  energy(sigma->0) =     -366.21853339


--------------------------------------------------------------------------------------------------------




--------------------------------------- Iteration      1(  12)  ---------------------------------------


    POTLOK:  cpu time    0.2418: real time    0.2418
    SETDIJ:  cpu time    0.0171: real time    0.0171
     EDDAV:  cpu time    7.7289: real time    7.7300
       DOS:  cpu time    0.0012: real time    0.0012
    CHARGE:  cpu time    0.2168: real time    0.2169
    MIXING:  cpu time    0.0106: real time    0.0106
    --------------------------------------------
      LOOP:  cpu time    8.2164: real time    8.2177

 eigenvalue-minimisations  :  1312
 total energy-change (2. order) : 0.8290053E+00  (-0.3837385E+01)
 number of electron     792.0000117 magnetization 
 augmentation part      311.1324253 magnetization 

 Broyden mixing:
  rms(total) = 0.46518E+01    rms(broyden)= 0.46483E+01
  rms(prec ) = 0.51878E+01
  weight for this iteration     100.00

 eigenvalues of (default mixing * dielectric matrix)
  average eigenvalue GAMMA=   0.6163
  2.4372  0.4792  0.4792  0.4926  0.1759  0.1339  0.1162

 Free energy of the ion-electron system (eV)
  ---------------------------------------------------
  alpha Z        PSCENC =      1893.09323658
  Ewald energy   TEWEN  =    221255.74698075
  -Hartree energ DENC   =   -342585.62222630
  -exchange      EXHF   =         0.00000000
  -V(xc)+E(xc)   XCENC  =      3649.92255985
  PAW double counting   =    142786.66349331  -147809.33054066
  entropy T*S    EENTRO =        -0.88707313
  eigenvalues    EBANDS =    -15558.06407952
  atomic energy  EATOM  =    136002.60505376
  Solvation  Ediel_sol  =         0.00000000
  ---------------------------------------------------
  free energy    TOTEN  =      -365.87259536 eV

  energy without entropy =     -364.98552223  energy(sigma->0) =     -365.42905880


--------------------------------------------------------------------------------------------------------




--------------------------------------- Iteration      1(  13)  ---------------------------------------


    POTLOK:  cpu time    0.2463: real time    0.2463
    SETDIJ:  cpu time    0.0171: real time    0.0171
     EDDAV:  cpu time    7.2561: real time    7.2574
       DOS:  cpu time    0.0011: real time    0.0011
    CHARGE:  cpu time    0.2091: real time    0.2091
    MIXING:  cpu time    0.0112: real time    0.0112
    --------------------------------------------
      LOOP:  cpu time    7.7409: real time    7.7422

 eigenvalue-minimisations  :  1256
 total energy-change (2. order) : 0.9747729E+01  (-0.1821314E+01)
 number of electron     792.0000142 magnetization 
 augmentation part      313.3681497 magnetization 

 Broyden mixing:
  rms(total) = 0.25660E+01    rms(broyden)= 0.25638E+01
  rms(prec ) = 0.28531E+01
  weight for this iteration     100.00

 eigenvalues of (default mixing * dielectric matrix)
  average eigenvalue GAMMA=   0.5605
  2.3441  0.4775  0.4775  0.4641  0.3123  0.1470  0.1470  0.1144

 Free energy of the ion-electron system (eV)
  ---------------------------------------------------
  alpha Z        PSCENC =      1893.09323658
  Ewald energy   TEWEN  =    221255.74698075
  -Hartree energ DENC   =   -342571.40612542
  -exchange      EXHF   =         0.00000000
  -V(xc)+E(xc)   XCENC  =      3649.03509572
  PAW double counting   =    142916.08470298  -147936.25794379
  entropy T*S    EENTRO =        -0.86643863
  eigenvalues    EBANDS =    -15564.15942877
  atomic energy  EATOM  =    136002.60505376
  Solvation  Ediel_sol  =         0.00000000
  ---------------------------------------------------
  free energy    TOTEN  =      -356.12486683 eV

  energy without entropy =     -355.25842820  energy(sigma->0) =     -355.69164752


--------------------------------------------------------------------------------------------------------




--------------------------------------- Iteration      1(  14)  ---------------------------------------


    POTLOK:  cpu time    0.2456: real time    0.2456
    SETDIJ:  cpu time    0.0171: real time    0.0171
     EDDAV:  cpu time    7.6303: real time    7.6319
       DOS:  cpu time    0.0011: real time    0.0011
    CHARGE:  cpu time    0.2085: real time    0.2085
    MIXING:  cpu time    0.0110: real time    0.0110
    --------------------------------------------
      LOOP:  cpu time    8.1136: real time    8.1152

 eigenvalue-minimisations  :  1296
 total energy-change (2. order) : 0.2234952E+01  (-0.7688315E+00)
 number of electron     792.0000125 magnetization 
 augmentation part      313.1706664 magnetization 

 Broyden mixing:
  rms(total) = 0.19922E+01    rms(broyden)= 0.19913E+01
  rms(prec ) = 0.22332E+01
  weight for this iteration     100.00

 eigenvalues of (default mixing * dielectric matrix)
  average eigenvalue GAMMA=   0.5380
  2.1659  0.5829  0.5829  0.4589  0.4589  0.1711  0.1711  0.1150  0.1355

 Free energy of the ion-electron system (eV)
  ---------------------------------------------------
  alpha Z        PSCENC =      1893.09323658
  Ewald energy   TEWEN  =    221255.74698075
  -Hartree energ DENC   =   -342586.74666292
  -exchange      EXHF   =         0.00000000
  -V(xc)+E(xc)   XCENC  =      3649.63075860
  PAW double counting   =    142364.35321605  -147381.93504017
  entropy T*S    EENTRO =        -0.82513345
  eigenvalues    EBANDS =    -15549.81232379
  atomic energy  EATOM  =    136002.60505376
  Solvation  Ediel_sol  =         0.00000000
  ---------------------------------------------------
  free energy    TOTEN  =      -353.88991459 eV

  energy without entropy =     -353.06478114  energy(sigma->0) =     -353.47734786


--------------------------------------------------------------------------------------------------------




--------------------------------------- Iteration      1(  15)  ---------------------------------------


    POTLOK:  cpu time    0.2450: real time    0.2450
    SETDIJ:  cpu time    0.0171: real time    0.0171
     EDDAV:  cpu time    7.5697: real time    7.5768
       DOS:  cpu time    0.0012: real time    0.0012
    CHARGE:  cpu time    0.2121: real time    0.2121
    MIXING:  cpu time    0.0122: real time    0.0122
    --------------------------------------------
      LOOP:  cpu time    8.0573: real time    8.0643

 eigenvalue-minimisations  :  1328
 total energy-change (2. order) : 0.1745028E+01  (-0.2245713E+00)
 number of electron     792.0000129 magnetization 
 augmentation part      312.2953377 magnetization 

 Broyden mixing:
  rms(total) = 0.15855E+01    rms(broyden)= 0.15852E+01
  rms(prec ) = 0.17840E+01
  weight for this iteration     100.00

 eigenvalues of (default mixing * dielectric matrix)
  average eigenvalue GAMMA=   0.5369
  2.1753  0.6609  0.6609  0.4501  0.4501  0.3815  0.1834  0.1147  0.1459  0.1459

 Free energy of the ion-electron system (eV)
  ---------------------------------------------------
  alpha Z        PSCENC =      1893.09323658
  Ewald energy   TEWEN  =    221255.74698075
  -Hartree energ DENC   =   -342626.25074212
  -exchange      EXHF   =         0.00000000
  -V(xc)+E(xc)   XCENC  =      3650.67385281
  PAW double counting   =    141444.80116302  -146458.05106273
  entropy T*S    EENTRO =        -0.88861144
  eigenvalues    EBANDS =    -15513.87475726
  atomic energy  EATOM  =    136002.60505376
  Solvation  Ediel_sol  =         0.00000000
  ---------------------------------------------------
  free energy    TOTEN  =      -352.14488664 eV

  energy without entropy =     -351.25627520  energy(sigma->0) =     -351.70058092


--------------------------------------------------------------------------------------------------------




--------------------------------------- Iteration      1(  16)  ---------------------------------------


    POTLOK:  cpu time    0.2473: real time    0.2476
    SETDIJ:  cpu time    0.0172: real time    0.0172
     EDDAV:  cpu time    7.6162: real time    7.6180
       DOS:  cpu time    0.0011: real time    0.0011
    CHARGE:  cpu time    0.2086: real time    0.2086
    MIXING:  cpu time    0.0120: real time    0.0120
    --------------------------------------------
      LOOP:  cpu time    8.1023: real time    8.1044

 eigenvalue-minimisations  :  1296
 total energy-change (2. order) : 0.2598931E+00  (-0.1186915E+00)
 number of electron     792.0000133 magnetization 
 augmentation part      312.1471983 magnetization 

 Broyden mixing:
  rms(total) = 0.15329E+01    rms(broyden)= 0.15326E+01
  rms(prec ) = 0.17144E+01
  weight for this iteration     100.00

 eigenvalues of (default mixing * dielectric matrix)
  average eigenvalue GAMMA=   0.5685
  2.1795  0.9667  0.9667  0.4752  0.4752  0.4345  0.1842  0.1152  0.1590  0.1590
  0.1383

 Free energy of the ion-electron system (eV)
  ---------------------------------------------------
  alpha Z        PSCENC =      1893.09323658
  Ewald energy   TEWEN  =    221255.74698075
  -Hartree energ DENC   =   -342629.64170403
  -exchange      EXHF   =         0.00000000
  -V(xc)+E(xc)   XCENC  =      3650.75105112
  PAW double counting   =    141277.65145281  -146288.98612078
  entropy T*S    EENTRO =        -0.87063131
  eigenvalues    EBANDS =    -15512.23431240
  atomic energy  EATOM  =    136002.60505376
  Solvation  Ediel_sol  =         0.00000000
  ---------------------------------------------------
  free energy    TOTEN  =      -351.88499350 eV

  energy without entropy =     -351.01436220  energy(sigma->0) =     -351.44967785


--------------------------------------------------------------------------------------------------------




--------------------------------------- Iteration      1(  17)  ---------------------------------------


    POTLOK:  cpu time    0.2464: real time    0.2464
    SETDIJ:  cpu time    0.0171: real time    0.0171
     EDDAV:  cpu time    7.6350: real time    7.6368
       DOS:  cpu time    0.0012: real time    0.0012
    CHARGE:  cpu time    0.2139: real time    0.2139
    MIXING:  cpu time    0.0124: real time    0.0124
    --------------------------------------------
      LOOP:  cpu time    8.1259: real time    8.1277

 eigenvalue-minimisations  :  1344
 total energy-change (2. order) : 0.9162817E+00  (-0.5215903E-01)
 number of electron     792.0000130 magnetization 
 augmentation part      311.9805083 magnetization 

 Broyden mixing:
  rms(total) = 0.12525E+01    rms(broyden)= 0.12524E+01
  rms(prec ) = 0.14119E+01
  weight for this iteration     100.00

 eigenvalues of (default mixing * dielectric matrix)
  average eigenvalue GAMMA=   0.5582
  2.1807  1.0670  1.0670  0.4785  0.4785  0.4206  0.2348  0.1857  0.1857  0.1148
  0.1425  0.1425

 Free energy of the ion-electron system (eV)
  ---------------------------------------------------
  alpha Z        PSCENC =      1893.09323658
  Ewald energy   TEWEN  =    221255.74698075
  -Hartree energ DENC   =   -342641.77587218
  -exchange      EXHF   =         0.00000000
  -V(xc)+E(xc)   XCENC  =      3650.91354814
  PAW double counting   =    140904.83526882  -145912.12915792
  entropy T*S    EENTRO =        -0.90590918
  eigenvalues    EBANDS =    -15503.35186063
  atomic energy  EATOM  =    136002.60505376
  Solvation  Ediel_sol  =         0.00000000
  ---------------------------------------------------
  free energy    TOTEN  =      -350.96871185 eV

  energy without entropy =     -350.06280268  energy(sigma->0) =     -350.51575727


--------------------------------------------------------------------------------------------------------




--------------------------------------- Iteration      1(  18)  ---------------------------------------


    POTLOK:  cpu time    0.2474: real time    0.2474
    SETDIJ:  cpu time    0.0171: real time    0.0171
     EDDAV:  cpu time    7.5785: real time    7.5801
       DOS:  cpu time    0.0011: real time    0.0011
    CHARGE:  cpu time    0.2086: real time    0.2086
    MIXING:  cpu time    0.0129: real time    0.0129
    --------------------------------------------
      LOOP:  cpu time    8.0655: real time    8.0671

 eigenvalue-minimisations  :  1280
 total energy-change (2. order) : 0.3338452E+00  (-0.2600268E-01)
 number of electron     792.0000131 magnetization 
 augmentation part      311.9504195 magnetization 

 Broyden mixing:
  rms(total) = 0.11331E+01    rms(broyden)= 0.11331E+01
  rms(prec ) = 0.12732E+01
  weight for this iteration     100.00

 eigenvalues of (default mixing * dielectric matrix)
  average eigenvalue GAMMA=   0.5825
  2.1780  1.2937  1.2937  0.5039  0.5039  0.4267  0.4267  0.1935  0.1935  0.1149
  0.1515  0.1515  0.1408

 Free energy of the ion-electron system (eV)
  ---------------------------------------------------
  alpha Z        PSCENC =      1893.09323658
  Ewald energy   TEWEN  =    221255.74698075
  -Hartree energ DENC   =   -342646.63251129
  -exchange      EXHF   =         0.00000000
  -V(xc)+E(xc)   XCENC  =      3650.95709805
  PAW double counting   =    140720.21892691  -145725.53222367
  entropy T*S    EENTRO =        -0.91925743
  eigenvalues    EBANDS =    -15500.17217031
  atomic energy  EATOM  =    136002.60505376
  Solvation  Ediel_sol  =         0.00000000
  ---------------------------------------------------
  free energy    TOTEN  =      -350.63486666 eV

  energy without entropy =     -349.71560923  energy(sigma->0) =     -350.17523795


--------------------------------------------------------------------------------------------------------




--------------------------------------- Iteration      1(  19)  ---------------------------------------


    POTLOK:  cpu time    0.2473: real time    0.2473
    SETDIJ:  cpu time    0.0180: real time    0.0180
     EDDAV:  cpu time    7.9888: real time    7.9902
       DOS:  cpu time    0.0012: real time    0.0012
    CHARGE:  cpu time    0.2150: real time    0.2150
    MIXING:  cpu time    0.0131: real time    0.0131
    --------------------------------------------
      LOOP:  cpu time    8.4834: real time    8.4849

 eigenvalue-minimisations  :  1416
 total energy-change (2. order) : 0.5298169E+00  (-0.1630467E-01)
 number of electron     792.0000131 magnetization 
 augmentation part      311.9906237 magnetization 

 Broyden mixing:
  rms(total) = 0.89490E+00    rms(broyden)= 0.89481E+00
  rms(prec ) = 0.99790E+00
  weight for this iteration     100.00

 eigenvalues of (default mixing * dielectric matrix)
  average eigenvalue GAMMA=   0.6212
  2.1869  1.5734  1.5734  0.5643  0.5643  0.4548  0.4548  0.3993  0.1149  0.1869
  0.1669  0.1669  0.1448  0.1448

 Free energy of the ion-electron system (eV)
  ---------------------------------------------------
  alpha Z        PSCENC =      1893.09323658
  Ewald energy   TEWEN  =    221255.74698075
  -Hartree energ DENC   =   -342654.20027003
  -exchange      EXHF   =         0.00000000
  -V(xc)+E(xc)   XCENC  =      3651.04274781
  PAW double counting   =    140320.46614798  -145321.65263938
  entropy T*S    EENTRO =        -0.93689610
  eigenvalues    EBANDS =    -15496.26941113
  atomic energy  EATOM  =    136002.60505376
  Solvation  Ediel_sol  =         0.00000000
  ---------------------------------------------------
  free energy    TOTEN  =      -350.10504977 eV

  energy without entropy =     -349.16815367  energy(sigma->0) =     -349.63660172


--------------------------------------------------------------------------------------------------------




--------------------------------------- Iteration      1(  20)  ---------------------------------------


    POTLOK:  cpu time    0.2485: real time    0.2485
    SETDIJ:  cpu time    0.0171: real time    0.0171
     EDDAV:  cpu time    7.9286: real time    7.9301
       DOS:  cpu time    0.0012: real time    0.0012
    CHARGE:  cpu time    0.2135: real time    0.2134
    MIXING:  cpu time    0.0136: real time    0.0136
    --------------------------------------------
      LOOP:  cpu time    8.4225: real time    8.4240

 eigenvalue-minimisations  :  1360
 total energy-change (2. order) : 0.4240869E+00  (-0.3211408E-01)
 number of electron     792.0000132 magnetization 
 augmentation part      311.9122462 magnetization 

 Broyden mixing:
  rms(total) = 0.61980E+00    rms(broyden)= 0.61958E+00
  rms(prec ) = 0.68443E+00
  weight for this iteration     100.00

 eigenvalues of (default mixing * dielectric matrix)
  average eigenvalue GAMMA=   0.6606
  2.2043  1.8067  1.8067  0.7712  0.7712  0.4847  0.4847  0.4581  0.1149  0.2030
  0.1785  0.1785  0.1483  0.1483  0.1502

 Free energy of the ion-electron system (eV)
  ---------------------------------------------------
  alpha Z        PSCENC =      1893.09323658
  Ewald energy   TEWEN  =    221255.74698075
  -Hartree energ DENC   =   -342672.62969613
  -exchange      EXHF   =         0.00000000
  -V(xc)+E(xc)   XCENC  =      3651.19894898
  PAW double counting   =    139827.86073831  -144823.90814167
  entropy T*S    EENTRO =        -0.96875556
  eigenvalues    EBANDS =    -15482.67932787
  atomic energy  EATOM  =    136002.60505376
  Solvation  Ediel_sol  =         0.00000000
  ---------------------------------------------------
  free energy    TOTEN  =      -349.68096284 eV

  energy without entropy =     -348.71220728  energy(sigma->0) =     -349.19658506


--------------------------------------------------------------------------------------------------------




--------------------------------------- Iteration      1(  21)  ---------------------------------------


    POTLOK:  cpu time    0.2515: real time    0.2515
    SETDIJ:  cpu time    0.0171: real time    0.0171
     EDDAV:  cpu time    7.5820: real time    7.5833
       DOS:  cpu time    0.0013: real time    0.0013
    CHARGE:  cpu time    0.2126: real time    0.2126
    MIXING:  cpu time    0.0143: real time    0.0143
    --------------------------------------------
      LOOP:  cpu time    8.0788: real time    8.0801

 eigenvalue-minimisations  :  1320
 total energy-change (2. order) : 0.1823617E+00  (-0.3319198E-01)
 number of electron     792.0000130 magnetization 
 augmentation part      311.8918963 magnetization 

 Broyden mixing:
  rms(total) = 0.37291E+00    rms(broyden)= 0.37262E+00
  rms(prec ) = 0.40994E+00
  weight for this iteration     100.00

 eigenvalues of (default mixing * dielectric matrix)
  average eigenvalue GAMMA=   0.6571
  2.2047  1.8715  1.8715  0.8748  0.8748  0.4894  0.4894  0.4690  0.2401  0.2192
  0.1149  0.1721  0.1721  0.1460  0.1460  0.1580

 Free energy of the ion-electron system (eV)
  ---------------------------------------------------
  alpha Z        PSCENC =      1893.09323658
  Ewald energy   TEWEN  =    221255.74698075
  -Hartree energ DENC   =   -342689.11400933
  -exchange      EXHF   =         0.00000000
  -V(xc)+E(xc)   XCENC  =      3651.26071446
  PAW double counting   =    139393.56809642  -144384.64824900
  entropy T*S    EENTRO =        -0.98336796
  eigenvalues    EBANDS =    -15471.02705676
  atomic energy  EATOM  =    136002.60505376
  Solvation  Ediel_sol  =         0.00000000
  ---------------------------------------------------
  free energy    TOTEN  =      -349.49860109 eV

  energy without entropy =     -348.51523313  energy(sigma->0) =     -349.00691711


--------------------------------------------------------------------------------------------------------




--------------------------------------- Iteration      1(  22)  ---------------------------------------


    POTLOK:  cpu time    0.2509: real time    0.2509
    SETDIJ:  cpu time    0.0171: real time    0.0171
     EDDAV:  cpu time    7.5325: real time    7.5342
       DOS:  cpu time    0.0013: real time    0.0012
    CHARGE:  cpu time    0.2123: real time    0.2123
    MIXING:  cpu time    0.0147: real time    0.0147
    --------------------------------------------
      LOOP:  cpu time    8.0287: real time    8.0304

 eigenvalue-minimisations  :  1272
 total energy-change (2. order) : 0.4419168E-01  (-0.1937777E-01)
 number of electron     792.0000131 magnetization 
 augmentation part      311.9529074 magnetization 

 Broyden mixing:
  rms(total) = 0.26356E+00    rms(broyden)= 0.26329E+00
  rms(prec ) = 0.27978E+00
  weight for this iteration     100.00

 eigenvalues of (default mixing * dielectric matrix)
  average eigenvalue GAMMA=   0.6921
  2.2419  1.9182  1.9182  1.1754  1.1754  0.4989  0.4989  0.5071  0.5071  0.2204
  0.1149  0.2017  0.1710  0.1710  0.1464  0.1464  0.1528

 Free energy of the ion-electron system (eV)
  ---------------------------------------------------
  alpha Z        PSCENC =      1893.09323658
  Ewald energy   TEWEN  =    221255.74698075
  -Hartree energ DENC   =   -342694.64112963
  -exchange      EXHF   =         0.00000000
  -V(xc)+E(xc)   XCENC  =      3651.24117588
  PAW double counting   =    139216.83973844  -144205.71749829
  entropy T*S    EENTRO =        -0.98452367
  eigenvalues    EBANDS =    -15467.63744322
  atomic energy  EATOM  =    136002.60505376
  Solvation  Ediel_sol  =         0.00000000
  ---------------------------------------------------
  free energy    TOTEN  =      -349.45440941 eV

  energy without entropy =     -348.46988574  energy(sigma->0) =     -348.96214757


--------------------------------------------------------------------------------------------------------




--------------------------------------- Iteration      1(  23)  ---------------------------------------


    POTLOK:  cpu time    0.2506: real time    0.2507
    SETDIJ:  cpu time    0.0171: real time    0.0171
     EDDAV:  cpu time    7.0099: real time    7.0118
       DOS:  cpu time    0.0013: real time    0.0013
    CHARGE:  cpu time    0.2145: real time    0.2146
    MIXING:  cpu time    0.0161: real time    0.0161
    --------------------------------------------
      LOOP:  cpu time    7.5096: real time    7.5115

 eigenvalue-minimisations  :  1208
 total energy-change (2. order) : 0.4299425E-02  (-0.1313957E-01)
 number of electron     792.0000132 magnetization 
 augmentation part      312.1351052 magnetization 

 Broyden mixing:
  rms(total) = 0.23192E+00    rms(broyden)= 0.23173E+00
  rms(prec ) = 0.25154E+00
  weight for this iteration     100.00

 eigenvalues of (default mixing * dielectric matrix)
  average eigenvalue GAMMA=   0.6854
  2.2717  1.8745  1.8745  1.3208  1.3208  0.4980  0.4980  0.6059  0.5189  0.2312
  0.2312  0.1149  0.1867  0.1717  0.1717  0.1462  0.1462  0.1550

 Free energy of the ion-electron system (eV)
  ---------------------------------------------------
  alpha Z        PSCENC =      1893.09323658
  Ewald energy   TEWEN  =    221255.74698075
  -Hartree energ DENC   =   -342703.02673533
  -exchange      EXHF   =         0.00000000
  -V(xc)+E(xc)   XCENC  =      3651.14504848
  PAW double counting   =    139034.77963965  -144021.19875336
  entropy T*S    EENTRO =        -0.99969789
  eigenvalues    EBANDS =    -15461.59488261
  atomic energy  EATOM  =    136002.60505376
  Solvation  Ediel_sol  =         0.00000000
  ---------------------------------------------------
  free energy    TOTEN  =      -349.45010998 eV

  energy without entropy =     -348.45041209  energy(sigma->0) =     -348.95026104


--------------------------------------------------------------------------------------------------------




--------------------------------------- Iteration      1(  24)  ---------------------------------------


    POTLOK:  cpu time    0.2526: real time    0.2526
    SETDIJ:  cpu time    0.0172: real time    0.0172
     EDDAV:  cpu time    6.7300: real time    6.7312
       DOS:  cpu time    0.0012: real time    0.0012
    CHARGE:  cpu time    0.2127: real time    0.2127
    MIXING:  cpu time    0.0169: real time    0.0169
    --------------------------------------------
      LOOP:  cpu time    7.2306: real time    7.2317

 eigenvalue-minimisations  :  1136
 total energy-change (2. order) : 0.1250067E-01  (-0.1034491E-01)
 number of electron     792.0000129 magnetization 
 augmentation part      312.2417671 magnetization 

 Broyden mixing:
  rms(total) = 0.15417E+00    rms(broyden)= 0.15391E+00
  rms(prec ) = 0.17273E+00
  weight for this iteration     100.00

 eigenvalues of (default mixing * dielectric matrix)
  average eigenvalue GAMMA=   0.7047
  2.5721  2.0935  1.7891  1.7891  0.7811  0.7811  0.4959  0.4959  0.5858  0.5061
  0.2158  0.2158  0.1149  0.1734  0.1734  0.1462  0.1462  0.1538  0.1604

 Free energy of the ion-electron system (eV)
  ---------------------------------------------------
  alpha Z        PSCENC =      1893.09323658
  Ewald energy   TEWEN  =    221255.74698075
  -Hartree energ DENC   =   -342706.94600566
  -exchange      EXHF   =         0.00000000
  -V(xc)+E(xc)   XCENC  =      3651.08988582
  PAW double counting   =    138976.32020389  -143961.98895792
  entropy T*S    EENTRO =        -0.98686238
  eigenvalues    EBANDS =    -15458.37114414
  atomic energy  EATOM  =    136002.60505376
  Solvation  Ediel_sol  =         0.00000000
  ---------------------------------------------------
  free energy    TOTEN  =      -349.43760932 eV

  energy without entropy =     -348.45074693  energy(sigma->0) =     -348.94417812


--------------------------------------------------------------------------------------------------------




--------------------------------------- Iteration      1(  25)  ---------------------------------------


    POTLOK:  cpu time    0.2520: real time    0.2522
    SETDIJ:  cpu time    0.0171: real time    0.0171
     EDDAV:  cpu time    7.6249: real time    7.6284
       DOS:  cpu time    0.0013: real time    0.0013
    CHARGE:  cpu time    0.2098: real time    0.2098
    MIXING:  cpu time    0.0173: real time    0.0173
    --------------------------------------------
      LOOP:  cpu time    8.1225: real time    8.1261

 eigenvalue-minimisations  :  1296
 total energy-change (2. order) : 0.1166994E-02  (-0.5549288E-02)
 number of electron     792.0000129 magnetization 
 augmentation part      312.2626526 magnetization 

 Broyden mixing:
  rms(total) = 0.13613E+00    rms(broyden)= 0.13595E+00
  rms(prec ) = 0.15240E+00
  weight for this iteration     100.00

 eigenvalues of (default mixing * dielectric matrix)
  average eigenvalue GAMMA=   0.6965
  2.7791  2.1497  1.7939  1.7939  0.8243  0.8243  0.4955  0.4955  0.5388  0.5388
  0.2253  0.2253  0.1149  0.1832  0.1832  0.1638  0.1638  0.1457  0.1457  0.1452

 Free energy of the ion-electron system (eV)
  ---------------------------------------------------
  alpha Z        PSCENC =      1893.09323658
  Ewald energy   TEWEN  =    221255.74698075
  -Hartree energ DENC   =   -342717.56658936
  -exchange      EXHF   =         0.00000000
  -V(xc)+E(xc)   XCENC  =      3651.10213215
  PAW double counting   =    138831.05921503  -143815.34064783
  entropy T*S    EENTRO =        -0.99768000
  eigenvalues    EBANDS =    -15449.13814339
  atomic energy  EATOM  =    136002.60505376
  Solvation  Ediel_sol  =         0.00000000
  ---------------------------------------------------
  free energy    TOTEN  =      -349.43644232 eV

[...]
    FORCOR:  cpu time    0.4060: real time    0.4062
    FORHAR:  cpu time    0.2370: real time    0.2372
    MIXING:  cpu time    0.0445: real time    0.0445
    OFIELD:  cpu time    0.0001: real time    0.0001

  FORCE on cell =-STRESS in cart. coord.  units (eV):
  Direction    XX          YY          ZZ          XY          YZ          ZX
  --------------------------------------------------------------------------------------
  Alpha Z  1893.09324  1893.09324  1893.09324
  Ewald  270487.18949270984.89613************     1.23781  -483.54018  1035.12141
  Hartree306580.24960306728.44264************   -56.99994  -327.04685   776.22397
  E(xc)   -5052.16428 -5051.00848 -5056.15076     0.02726    -0.54068     0.62716
  Local  ************************577730.92365    56.49974   789.39024 -1787.28749
  n-local  -620.20960  -617.38723  -615.21694     1.56392     1.78892    -2.78920
  augment  5792.27734  5786.02075  5797.36378    -1.73513     7.18488    -6.96891
  Kinetic 11092.14502 11070.37493 11136.02148    -6.77267    12.70415   -16.35542
  Fock        0.00000     0.00000     0.00000     0.00000     0.00000     0.00000
  -------------------------------------------------------------------------------------
  Total      82.08218    86.70630   108.24759    -6.17901    -0.05950    -1.42848
  in kB      66.92683    70.69717    88.26116    -5.03814    -0.04852    -1.16473
  external pressure =       75.30 kB  Pullay stress =        0.00 kB


 VOLUME and BASIS-vectors are now :
 -----------------------------------------------------------------------------
  energy-cutoff  :      450.00
  volume of cell :     1964.98
      direct lattice vectors                 reciprocal lattice vectors
    10.079732985  0.000000000  0.000000000     0.099208977 -0.037612667  0.000000000
     3.573298043  9.425102554  0.000000000     0.000000000  0.106099641  0.000000000
     0.000000000  0.000000000 20.683503555     0.000000000  0.000000000  0.048347708

  length of vectors
    10.079732985 10.079732985 20.683503555     0.106099641  0.106099641  0.048347708


 FORCES acting on ions
    electron-ion (+dipol)            ewald-force                    non-local-force                 convergence-correction
 -----------------------------------------------------------------------------------------------
   0.408E+03 0.128E+03 0.540E+04   -.412E+03 -.127E+03 -.540E+04   0.327E+01 -.180E+01 0.771E+01   -.241E-02 -.202E-02 -.135E-02
   0.572E+03 0.370E+03 0.300E+04   -.576E+03 -.374E+03 -.300E+04   0.314E+01 0.304E+01 -.172E+01   0.681E-02 -.137E-01 0.112E-01
   -.794E+02 -.455E+03 -.253E+03   0.785E+02 0.456E+03 0.253E+03   0.741E+00 -.163E+01 -.405E+00   0.838E-02 -.544E-03 0.416E-02
   -.199E+03 -.865E+03 -.337E+04   0.200E+03 0.867E+03 0.337E+04   -.131E+01 -.139E+01 0.106E+01   0.495E-02 -.122E-01 -.110E-01
   -.167E+03 -.668E+03 -.565E+04   0.167E+03 0.667E+03 0.564E+04   0.108E+00 0.134E+01 0.539E+01   -.902E-02 -.143E-01 -.117E-01
   0.215E+03 -.731E+03 0.225E+04   -.217E+03 0.734E+03 -.225E+04   0.181E+01 -.261E+01 0.544E+00   -.995E-02 -.573E-02 0.596E-02
   0.246E+01 -.451E+03 -.126E+04   -.311E+01 0.451E+03 0.126E+04   0.604E+00 -.687E+00 0.905E-01   -.659E-02 -.181E-01 0.631E-02
   -.849E+02 -.430E+03 -.457E+04   0.842E+02 0.432E+03 0.457E+04   -.430E+00 -.117E+01 -.402E+01   0.694E-02 -.107E-01 0.186E-02
   0.509E+03 -.176E+03 -.495E+04   -.509E+03 0.182E+03 0.496E+04   0.387E+00 -.513E+01 -.497E+01   -.682E-02 0.131E-01 0.796E-02
   0.354E+03 -.298E+03 0.338E+04   -.356E+03 0.297E+03 -.338E+04   0.142E+01 0.155E+00 0.400E+01   0.749E-02 -.695E-04 0.670E-03
   -.123E+03 -.561E+02 0.552E+03   0.124E+03 0.547E+02 -.547E+03   -.785E+00 0.495E+00 -.362E+01   0.356E-02 0.781E-02 0.120E-01
   0.205E+03 -.380E+03 -.201E+04   -.204E+03 0.383E+03 0.201E+04   0.524E-01 -.297E+01 0.105E+01   0.114E-02 0.146E-01 0.115E-01
   0.202E+03 -.421E+03 0.388E+04   -.204E+03 0.425E+03 -.388E+04   0.214E+01 -.398E+01 0.395E+01   0.502E-02 0.656E-02 -.229E-02
   0.338E+03 0.147E+03 0.688E+03   -.338E+03 -.145E+03 -.685E+03   0.611E+00 -.148E+01 -.219E+01   0.130E-01 0.425E-02 0.794E-02
   0.549E+03 0.219E+03 -.213E+04   -.552E+03 -.220E+03 0.213E+04   0.224E+01 0.717E+00 0.123E+01   0.117E-01 -.829E-02 0.562E-02
   0.639E+03 0.469E+03 -.495E+04   -.643E+03 -.471E+03 0.496E+04   0.284E+01 0.246E+01 -.325E+01   -.630E-02 -.884E-02 -.571E-02
   0.188E+03 0.886E+02 0.285E+04   -.187E+03 -.890E+02 -.285E+04   0.174E+00 -.457E+00 -.200E+01   -.589E-02 0.548E-02 0.116E-01
   0.376E+03 0.312E+03 -.195E+03   -.378E+03 -.312E+03 0.195E+03   0.171E+01 -.210E+00 -.303E+00   -.195E-02 -.353E-02 0.106E-01
   -.135E+03 0.866E+02 -.304E+04   0.136E+03 -.858E+02 0.303E+04   -.982E+00 -.427E+00 0.194E+01   0.760E-02 0.208E-01 -.708E-02
   -.501E+03 0.206E+03 -.540E+04   0.503E+03 -.206E+03 0.541E+04   -.190E+01 0.152E+00 -.332E+01   -.466E-02 0.126E-01 0.607E-02
   0.299E+03 -.456E+03 0.558E+04   -.298E+03 0.458E+03 -.558E+04   -.239E+01 -.200E+01 -.168E+01   -.312E-02 0.767E-02 -.761E-02
   0.636E+03 0.324E+03 -.443E+04   -.642E+03 -.327E+03 0.444E+04   0.385E+01 0.219E+01 -.240E+00   -.184E-02 -.224E-02 0.615E-02
   -.390E+03 0.115E+03 0.438E+04   0.392E+03 -.112E+03 -.439E+04   -.267E+00 -.320E+01 0.396E+01   0.419E-02 -.736E-02 0.395E-02
   0.215E+03 0.735E+03 0.185E+04   -.215E+03 -.737E+03 -.185E+04   -.291E+00 0.171E+01 -.129E+01   -.928E-02 -.125E-03 0.260E-02
   0.581E+03 0.335E+03 -.117E+04   -.583E+03 -.336E+03 0.117E+04   0.218E+01 0.103E+01 0.159E+01   -.106E-01 -.234E-02 0.404E-02
   -.711E+03 0.397E+02 -.414E+04   0.716E+03 -.405E+02 0.414E+04   -.438E+01 0.108E+01 -.113E+01   -.591E-02 -.915E-02 -.570E-02
   -.181E+03 0.501E+03 0.515E+04   0.179E+03 -.501E+03 -.515E+04   0.263E+01 -.182E+00 0.224E+00   0.659E-02 -.498E-02 0.184E-02
   -.629E+03 -.163E+03 0.197E+04   0.632E+03 0.162E+03 -.197E+04   -.360E+01 0.245E+00 -.101E+01   0.507E-02 0.514E-02 0.782E-02
   -.506E+03 -.125E+02 -.111E+04   0.508E+03 0.133E+02 0.111E+04   -.139E+01 -.804E+00 0.209E+01   -.827E-02 -.407E-02 0.509E-02
   -.527E+03 -.407E+03 0.434E+04   0.530E+03 0.408E+03 -.434E+04   -.412E+01 -.908E+00 0.344E+01   -.504E-03 0.119E-02 0.760E-02
   -.399E+03 0.142E+03 0.722E+03   0.399E+03 -.142E+03 -.721E+03   -.390E+00 0.202E+00 -.561E+00   -.712E-02 -.944E-02 0.164E-01
   -.455E+03 0.550E+03 -.255E+04   0.457E+03 -.550E+03 0.254E+04   -.255E+01 -.217E+00 0.135E+01   -.173E-02 0.656E-02 0.757E-02
   -.578E+03 0.642E+03 0.334E+04   0.582E+03 -.645E+03 -.334E+04   -.317E+01 0.258E+01 0.147E+01   0.266E-02 0.606E-02 0.230E-02
   -.374E+03 0.210E+03 0.230E+02   0.374E+03 -.210E+03 -.258E+02   -.484E+00 -.133E+00 0.253E+01   0.605E-02 0.557E-02 0.232E-02
   -.442E+03 0.516E+03 -.334E+04   0.448E+03 -.519E+03 0.334E+04   -.387E+01 0.265E+01 0.101E+01   0.145E-02 -.532E-02 0.706E-03
   -.242E+02 0.490E+01 0.540E+04   0.236E+02 -.770E+01 -.541E+04   0.248E+00 0.359E+01 0.604E+01   0.146E-02 0.288E-02 -.110E-02
   -.303E+02 0.102E+03 -.215E+04   0.318E+02 -.104E+03 0.216E+04   -.105E+01 0.116E+01 -.224E+01   -.293E-02 0.165E-02 -.665E-03
   0.135E+03 0.301E+02 0.176E+04   -.136E+03 -.314E+02 -.177E+04   0.264E-01 0.228E+01 0.282E+01   0.486E-02 0.644E-02 -.154E-02
   -.147E+02 0.693E+02 0.509E+02   0.151E+02 -.707E+02 -.493E+02   -.160E+00 0.126E+01 -.586E+00   0.478E-02 0.315E-02 0.849E-02
   0.330E+02 0.163E+03 -.837E+03   -.345E+02 -.166E+03 0.832E+03   0.113E+01 0.166E+01 0.159E+01   -.167E-02 0.479E-02 0.462E-02
   0.285E+02 -.183E+03 0.228E+04   -.277E+02 0.186E+03 -.229E+04   -.834E+00 -.159E+01 0.256E+01   -.487E-02 0.371E-02 -.326E-02
   0.569E+02 0.854E+02 0.806E+03   -.569E+02 -.856E+02 -.803E+03   0.515E-01 0.663E+00 -.608E+00   -.117E-02 -.227E-04 0.947E-02
   -.265E+02 0.149E+03 -.201E+03   0.262E+02 -.151E+03 0.200E+03   0.400E+00 0.201E+01 0.114E+01   -.219E-03 0.280E-02 0.250E-02
   -.341E+03 0.893E+02 -.155E+04   0.343E+03 -.902E+02 0.155E+04   0.756E-01 0.114E+00 -.135E+01   0.576E-02 0.107E-02 -.226E-02
   0.318E+02 0.152E+03 0.745E+03   -.312E+02 -.154E+03 -.746E+03   -.392E+00 0.140E+01 0.113E+01   -.382E-03 -.257E-02 0.185E-02
   0.290E+02 0.139E+03 -.497E+03   -.293E+02 -.141E+03 0.494E+03   0.412E+00 0.174E+01 0.122E+01   -.668E-03 -.377E-03 0.135E-02
   -.440E+02 0.150E+03 -.174E+04   0.435E+02 -.151E+03 0.174E+04   0.122E+01 -.539E+00 0.592E-01   0.670E-03 -.585E-02 0.222E-02
   -.767E+02 0.507E+03 0.203E+04   0.766E+02 -.511E+03 -.203E+04   -.133E+00 0.197E+01 0.127E+01   -.192E-02 0.220E-02 -.380E-02
   0.301E+02 0.190E+03 0.236E+04   -.293E+02 -.192E+03 -.237E+04   -.382E+00 0.762E+00 0.273E+01   0.249E-02 -.671E-02 -.224E-02
   -.207E+03 0.247E+02 0.877E+03   0.208E+03 -.246E+02 -.875E+03   -.112E+01 0.580E+00 -.689E+00   -.404E-02 -.575E-02 0.697E-03
   -.148E+03 -.166E+03 -.271E+03   0.150E+03 0.168E+03 0.271E+03   -.158E+01 -.200E+01 0.257E+00   -.492E-02 -.472E-02 0.758E-03
   -.254E+03 -.285E+03 -.144E+04   0.256E+03 0.287E+03 0.144E+04   -.122E+00 -.288E-01 -.824E+00   -.382E-02 -.512E-02 -.470E-02
   0.851E+02 -.383E+03 0.210E+04   -.857E+02 0.386E+03 -.210E+04   0.391E+00 -.109E+01 0.120E+01   0.831E-03 -.662E-03 -.675E-03
   -.530E+02 -.446E+02 0.484E+03   0.545E+02 0.435E+02 -.483E+03   -.126E+01 0.457E+00 -.364E+00   -.725E-04 -.233E-02 -.172E-03
   -.936E+02 -.902E+02 -.664E+03   0.954E+02 0.929E+02 0.663E+03   -.196E+01 -.260E+01 0.104E+00   0.402E-02 -.554E-02 0.554E-02
   -.610E+02 0.202E+03 -.189E+04   0.620E+02 -.205E+03 0.189E+04   0.288E+00 0.165E+01 -.107E+01   0.248E-02 0.198E-02 -.866E-03
   -.127E+03 -.609E+02 0.177E+03   0.129E+03 0.630E+02 -.177E+03   -.181E+01 -.200E+01 0.755E+00   0.602E-02 0.560E-02 0.445E-02
   -.113E+03 -.530E+02 -.819E+03   0.115E+03 0.554E+02 0.816E+03   -.148E+01 -.176E+01 0.133E+01   -.491E-03 0.579E-02 0.460E-04
   0.980E+02 0.238E+03 -.227E+04   -.984E+02 -.240E+03 0.227E+04   0.657E-01 0.159E+01 -.324E+01   -.322E-02 0.202E-02 0.568E-02
   -.199E+03 0.102E+03 0.150E+04   0.202E+03 -.102E+03 -.150E+04   -.150E+01 -.503E-01 -.697E-01   -.270E-03 0.273E-02 -.183E-02
   0.267E+03 0.245E+03 0.177E+04   -.269E+03 -.248E+03 -.178E+04   0.546E+00 0.199E+01 0.239E+01   0.372E-03 -.187E-02 0.693E-03
   0.154E+03 -.159E+03 0.553E+03   -.157E+03 0.161E+03 -.553E+03   0.232E+01 -.150E+01 0.101E+01   0.384E-02 0.210E-02 0.504E-03
   0.139E+03 -.743E+02 -.717E+03   -.142E+03 0.752E+02 0.716E+03   0.302E+01 -.784E+00 -.275E+00   0.621E-02 -.260E-02 0.655E-04
   0.403E+03 -.197E+03 -.188E+04   -.408E+03 0.199E+03 0.188E+04   0.291E+01 -.154E+01 -.158E+01   0.179E-02 -.759E-02 -.383E-02
   0.119E+03 -.115E+03 0.669E+02   -.121E+03 0.116E+03 -.664E+02   0.236E+01 -.125E+01 -.113E+00   -.563E-02 -.434E-02 0.322E-02
   0.603E+02 -.960E+02 -.112E+04   -.631E+02 0.975E+02 0.112E+04   0.302E+01 -.134E+01 -.829E+00   -.263E-02 -.324E-02 0.720E-03
   -.136E+03 -.105E+03 -.222E+04   0.136E+03 0.106E+03 0.222E+04   -.299E+00 -.712E+00 -.156E+01   0.218E-02 0.545E-02 0.236E-02
   -.562E+02 -.398E+03 0.137E+04   0.553E+02 0.402E+03 -.137E+04   0.646E+00 -.219E+01 0.101E+01   -.528E-02 -.312E-03 0.109E-02
   -.317E+03 -.217E+03 0.215E+04   0.320E+03 0.220E+03 -.216E+04   -.565E+00 -.162E+01 0.293E+01   0.333E-02 0.112E-02 -.268E-02
   0.184E+03 -.161E+03 0.854E+03   -.187E+03 0.163E+03 -.853E+03   0.218E+01 -.126E+01 0.680E+00   -.478E-03 -.125E-03 0.168E-03
   0.184E+03 -.592E+01 -.377E+03   -.187E+03 0.659E+01 0.378E+03   0.261E+01 -.561E+00 -.804E+00   -.474E-02 0.351E-02 0.726E-02
   0.466E+03 -.345E+00 -.156E+04   -.473E+03 0.207E+01 0.156E+04   0.419E+01 -.121E+01 -.987E+00   -.134E-02 0.488E-02 0.448E-02
 -----------------------------------------------------------------------------------------------
   -.109E+02 0.121E+02 -.281E+02   0.227E-12 0.448E-12 0.546E-11   0.111E+02 -.121E+02 0.280E+02   0.101E-02 -.215E-01 0.158E+00
 
 
 POSITION                                       TOTAL-FORCE (eV/Angst)
 -----------------------------------------------------------------------------------
      6.46302      9.36341      1.20264        -1.528000     -0.750792     -1.678521
      6.84285      7.49250      2.62550        -1.325434     -0.955158      3.129588
      7.82056      6.07621      5.25100        -0.142680     -0.232846      0.126145
      8.79827      4.65991      7.87651         0.150013      0.153429     -0.169663
      9.52989      3.17814      9.97643         0.292269     -0.048009      1.579516
      2.61774      3.87870      3.50067        -0.373336      0.096107      1.301224
      3.59545      2.46241      6.12617        -0.051048     -0.223055     -0.039000
      4.57317      1.04611      8.75167        -1.074604      0.696988     -0.743401
      3.67245      7.66647      9.29773        -0.064848      0.601796      0.522832
      7.97349      2.01838      2.96937        -0.633576     -0.468355     -0.822087
      8.47237      0.26490      4.37584         0.219178     -0.913615      1.683429
     13.02338      8.27371      7.00134         0.347030      0.486891     -0.977569
      5.19310      4.49178      2.80772         0.933487      0.172807     -0.448176
      6.61816      3.96023      4.55733         0.508624     -0.280794      1.048533
      7.59587      2.54394      7.18283        -0.069879     -0.604793     -1.302734
      8.23235      1.18097      9.39779        -0.813056      0.156358      0.816765
      1.41534      1.76273      2.80700         1.121195     -0.889662      3.532861
      2.39305      0.34643      5.43250         0.007918     -0.121144      0.002693
      6.94406      8.35524      8.05800         0.187614      0.408335     -4.042387
      6.02086      6.98127      9.67345        -0.173808     -0.288429      0.802758
      9.92530      2.41232      1.24349        -0.799603     -0.082862     -1.095346
      2.79556      4.82138      8.74553        -1.918243     -0.758381      1.042491
      8.96828      8.38829      1.98498         1.700730     -0.260982     -0.492347
     10.84326      7.57403      3.68216        -0.451264     -0.516841      1.658231
     11.82097      6.15773      6.30767        -0.069889     -0.394058     -1.584143
      0.84636      1.56122      8.79309         0.953783      0.281781      0.399448
      8.02221      5.63643      1.68083         0.225786     -0.962559     -0.951211
      9.02296      4.33443      3.86366        -0.199625      0.028971      0.495302
     10.00068      2.91813      6.48916         0.208168      0.033140     -0.144128
      3.82015      2.13692      2.11332        -0.380195      0.156802      1.088419
      4.79786      0.72063      4.73883        -0.062716     -0.045669      0.363432
      9.34887      8.72943      7.36433        -0.386118     -0.185143     -1.571223
      3.16834      7.94822      2.98849         0.937667     -0.249402      1.290402
      4.14605      6.53193      5.61399         0.285472     -0.020931     -0.309885
      5.12376      5.11563      8.23950         1.456696     -0.054751     -1.487705
     11.36606      9.22571      1.77880        -0.310221      0.795260     -1.612856
      9.96300      0.20022     10.07269         0.385424     -0.470972      2.137715
      7.35546      3.82659      2.42507        -1.620972      1.002744     -1.796987
      8.33317      2.41029      5.05057         0.194900     -0.154477      0.995782
      9.31088      0.99399      7.67607        -0.383264     -0.753772     -3.359551
      1.90764      1.77823      0.83711        -0.023693      0.751004     -3.407123
      3.13035      0.21279      3.30024         0.017268      0.533898      2.668970
      7.68136      8.22159      5.92574         0.103806     -0.168666     -0.065718
      7.75656      6.45488      8.63104         2.000841     -0.705525      0.975340
      2.47854      6.02409      4.17540         0.180913     -0.255809      0.416167
      3.45626      4.60779      6.80091         0.152859      0.072310     -2.654679
      4.25962      3.22500      8.84958         0.647139     -1.076352      1.809527
     11.68464      7.23272      1.82065        -0.165374     -2.027760     -3.175345
      7.57835      7.45564      0.71908         0.407045     -0.799756     -3.727396
      8.88655      6.52099      3.30837         0.773205      0.666519      1.655256
      9.86427      5.10469      5.93387         0.115309      0.221214      0.231447
     10.84198      3.68840      8.55937         1.812951      1.551592     -0.361300
      3.54604      4.12425      1.68627        -0.265426      2.143045     -3.034262
      4.66145      2.90719      4.18354         0.238685     -0.669585      0.902454
      5.63916      1.49089      6.80904        -0.197214      0.183548     -0.973133
      6.41330      0.19451      9.09257         1.272602     -1.284349      2.463430
      4.00964      8.71849      5.05870         0.247630      0.101092      0.323836
      4.98735      7.30220      7.68420         0.294515      0.602149     -1.511344
      4.29409      5.81057      9.99640        -0.325741     -0.578859      3.865819
      9.53836      0.70969      2.43320         1.113216      0.032987     -0.430530
      4.95349      7.98653      1.85826        -1.320068     -1.252537     -1.678110
      5.82436      6.04450      4.19167        -0.197803      0.587654      0.574795
      6.80207      4.62821      6.81717         0.114713      0.179048     -1.285430
      7.72322      3.24599      9.12008        -2.174213      0.955552      2.442914
      1.59925      2.43070      5.06683         0.013598     -0.118364      0.378897
      2.57697      1.01441      7.69234         0.193805      0.100118     -0.698158
      7.14648      8.91004      9.95594        -0.208703      0.820825      4.162759
     10.67202      3.71233      2.67336        -0.259973      2.209116     -0.773056
      4.80213      0.71559      0.97044         2.176403      0.968475     -2.323529
      6.47617      0.23320      3.31650        -0.923910      1.240200      1.876828
     11.02718      8.24201      5.94200        -0.105293      0.108436     -0.190844
     12.17129      6.77360      8.25565        -2.992668      0.524822      2.152874
 -----------------------------------------------------------------------------------
    total drift:                                0.141856      0.020808      0.026337


--------------------------------------------------------------------------------------------------------



  FREE ENERGIE OF THE ION-ELECTRON SYSTEM (eV)
  ---------------------------------------------------
  free  energy   TOTEN  =      -349.42997850 eV

  energy  without entropy=     -348.44035895  energy(sigma->0) =     -348.93516872
 


--------------------------------------------------------------------------------------------------------


    POTLOK:  cpu time    0.2659: real time    0.2661


--------------------------------------------------------------------------------------------------------


     LOOP+:  cpu time  300.6978: real time  300.8432
    4ORBIT:  cpu time    0.0000: real time    0.0000

 total amount of memory used by VASP MPI-rank0    68406. kBytes
=======================================================================

   base      :      30000. kBytes
   nonlr-proj:       2291. kBytes
   fftplans  :       8265. kBytes
   grid      :      13942. kBytes
   one-center:         93. kBytes
   wavefun   :      13815. kBytes
 
  
  
 General timing and accounting informations for this job:
 ========================================================
  
                  Total CPU time used (sec):      303.317
                            User time (sec):      302.854
                          System time (sec):        0.463
                         Elapsed time (sec):      303.710
  
                   Maximum memory used (kb):      191464.
                   Average memory used (kb):           0.
  
                          Minor page faults:       138376
                          Major page faults:            0
                 Voluntary context switches:          262
