"Millerite NiS"                         
           1
    10.079733    0.000000    0.000000
     3.573298    9.425103    0.000000
     0.000000    0.000000   20.683504
   Ty   Ty
  36  36
Direct configuration=     1
   0.39705889  0.79495179  0.12693702
   0.54732740  0.64468328  0.25387405
   0.69759592  0.49441476  0.38081107
   0.82616210  0.33583538  0.48207535
   0.11381506  0.41152895  0.16924937
   0.26408357  0.26126044  0.29618639
   0.41435209  0.11099193  0.42312341
   0.99504050  0.59536969  0.10273604
   0.07434089  0.81704990  0.44918474
   0.70772552  0.21339603  0.14664287
   0.83057123  0.02810611  0.21156171
   0.98083975  0.87783760  0.33849873
   0.36346782  0.55230418  0.11309791
   0.50762556  0.42017912  0.22033653
   0.65789407  0.26991061  0.34727355
   0.77091015  0.12530987  0.45401367
   0.07411322  0.18702479  0.13571184
   0.22438173  0.03675628  0.26264887
   0.37465025  0.88648777  0.38958589
   0.33202274  0.74188893  0.46763608
   0.07353287  0.36265828  0.04846563
   0.09571917  0.51283557  0.42296341
   0.63001236  0.84150074  0.08527764
   0.79086939  0.80360196  0.17802418
   0.94113790  0.65333344  0.30496121
   0.02557856  0.16538163  0.42501862
   0.59157216  0.59353496  0.08030059
   0.73212972  0.45988096  0.18679900
   0.88239823  0.30961245  0.31373603
   0.29861738  0.22672664  0.10217432
   0.44888589  0.07645812  0.22911134
   0.59915440  0.92618961  0.35604837
   0.01537355  0.84330380  0.14448666
   0.16564206  0.69303529  0.27142369
   0.31591057  0.54276677  0.39836071
   0.76788515  0.00172084  0.08133231
   0.97887203  0.02386677  0.48767614
   0.58579929  0.40599939  0.11724657
   0.73606781  0.25573088  0.24418359
   0.88633632  0.10546236  0.37112062
   0.17377094  0.15114963  0.04677600
   0.30255546  0.02257655  0.15955891
   0.45282398  0.87230804  0.28649593
   0.52429105  0.68475698  0.41789753
   0.01931164  0.63915371  0.20187125
   0.16958015  0.48888520  0.32880827
   0.30037281  0.34180088  0.42797465
   0.86904312  0.78942223  0.07493423
   0.48115932  0.78055548  0.03629212
   0.63635413  0.69187455  0.15995199
   0.78662264  0.54160604  0.28688901
   0.93689115  0.39133753  0.41382604
   0.21467786  0.45223248  0.08480631
   0.35311030  0.30845171  0.20226433
   0.50337881  0.15818320  0.32920136
   0.62857953  0.01953580  0.43994792
   0.06986647  0.92502888  0.24457667
   0.22013498  0.77476036  0.37151370
   0.20418403  0.61872308  0.48314762
   0.91959796  0.07529739  0.11763965
   0.21266011  0.75871300  0.09722995
   0.35047896  0.64131972  0.20265741
   0.50074748  0.49105120  0.32959444
   0.64360414  0.34475856  0.44088361
   0.06723514  0.25789688  0.24496976
   0.21750365  0.10762837  0.37190678
   0.37142472  0.94645372  0.48128044
   0.91696662  0.40816539  0.11803273
   0.62036630  0.99006516  0.01790070
   0.63372279  0.02474255  0.16034507
   0.78399131  0.87447404  0.28728210
   0.95219726  0.72026144  0.39925377
