"Millerite NiS"                         
           1
     8.700731   -4.005399    0.000000
     0.000000   11.452784    0.000000
     0.000000    0.000000   20.216397
   Ni   S 
    38    38
Direct configuration=     1
   0.63793591  0.42904558  0.05135981
   0.72899292  0.61115959  0.17517587
   0.82004993  0.79327361  0.29899193
   0.91110694  0.97538762  0.42280799
   0.45636426  0.06590227  0.25771991
   0.54742127  0.24801628  0.38153597
   0.63847827  0.43013030  0.50535203
   0.27425024  0.70167424  0.01008779
   0.36530725  0.88378825  0.13390385
   0.00162158  0.15641692  0.09263183
   0.09267859  0.33853093  0.21644789
   0.18373560  0.52064495  0.34026395
   0.27479261  0.70275896  0.46408001
   0.68605153  0.26107081  0.11678570
   0.77710854  0.44318482  0.24060176
   0.86816554  0.62529884  0.36441782
   0.95922255  0.80741285  0.48823388
   0.59553688  0.08004151  0.44696186
   0.32236586  0.53369947  0.07551368
   0.41342287  0.71581348  0.19932974
   0.50447988  0.89792750  0.32314580
   0.14079421  0.17055616  0.28187378
   0.23185121  0.35267018  0.40568984
   0.04973720  0.98844215  0.15805772
   0.95868019  0.80632813  0.03424166
   0.08425593  0.79327361  0.29899193
   0.17531294  0.97538762  0.42280799
   0.90214191  0.42904558  0.05135981
   0.99319892  0.61115959  0.17517587
   0.72057026  0.06590227  0.25771991
   0.81162727  0.24801628  0.38153597
   0.90268427  0.43013030  0.50535203
   0.53845624  0.70167424  0.01008779
   0.62951325  0.88378825  0.13390385
   0.26582758  0.15641692  0.09263183
   0.35688459  0.33853093  0.21644789
   0.44794160  0.52064495  0.34026395
   0.53899861  0.70275896  0.46408001
   0.01340710  0.57935194  0.28967097
   0.10446410  0.76146596  0.41348703
   0.83129308  0.21512391  0.04203885
   0.92235009  0.39723793  0.16585491
   0.74077844  0.03409462  0.37221501
   0.83183544  0.21620863  0.49603107
   0.46760741  0.48775257  0.00076683
   0.55866442  0.66986659  0.12458289
   0.64972143  0.85198060  0.24839895
   0.28603576  0.12460926  0.20712693
   0.37709277  0.30672328  0.33094299
   0.19497875  0.94249525  0.08331087
   0.13425249  0.15747274  0.45399222
   0.04319549  0.97535872  0.33017616
   0.86108147  0.61113069  0.08254404
   0.95213848  0.79324471  0.20636010
   0.58845281  0.06587337  0.16508808
   0.67950982  0.24798738  0.28890414
   0.77056683  0.43010140  0.41272020
   0.49739580  0.88375935  0.04127202
   0.13371013  0.15638801  0.00000000
   0.22476714  0.33850203  0.12381606
   0.31582415  0.52061604  0.24763212
   0.40688116  0.70273006  0.37144818
   0.49793816  0.88484407  0.49526424
   0.49486308  0.21512391  0.04203885
   0.58592009  0.39723793  0.16585491
   0.67697710  0.57935194  0.28967097
   0.76803410  0.76146596  0.41348703
   0.40434844  0.03409462  0.37221501
   0.49540544  0.21620863  0.49603107
   0.13117741  0.48775257  0.00076683
   0.22223442  0.66986659  0.12458289
   0.31329143  0.85198060  0.24839895
   0.04066277  0.30672328  0.33094299
   0.13171977  0.48883730  0.45475905
   0.94960576  0.12460926  0.20712693
   0.85854875  0.94249525  0.08331087
