<?xml version="1.0" encoding="ISO-8859-1"?>
<modeling>
 <generator>
  <i name="program" type="string">vasp </i>
  <i name="version" type="string">6.1.0  </i>
  <i name="subversion" type="string">28Jan20 (build Mar 31 2020 17:42:31) gamma-only                       parallel </i>
  <i name="platform" type="string">LinuxIFC </i>
  <i name="date" type="string">2020 04 12 </i>
  <i name="time" type="string">23:02:16 </i>
 </generator>
 <incar>
  <i type="string" name="SYSTEM">"Millerite NiS"</i>
  <i type="int" name="NSIM">     4</i>
  <i type="int" name="NELM">   100</i>
  <i name="ENCUT">    450.00000000</i>
  <i type="string" name="LREAL">A</i>
  <i type="int" name="ISMEAR">     0</i>
  <i type="int" name="NWRITE">     2</i>
  <i type="logical" name="LWAVE"> F  </i>
  <i type="logical" name="LCHARG"> F  </i>
  <i type="int" name="NCORE">     6</i>
  <i type="int" name="NELM">   100</i>
 </incar>
 <structure name="primitive_cell" >
  <crystal>
   <varray name="basis" >
    <v>      16.88469405       0.00000000       0.00000000 </v>
    <v>       0.00000000       9.57841000       0.00000000 </v>
    <v>       0.00000000       0.00000000      16.19761915 </v>
   </varray>
   <i name="volume">   2619.61701075 </i>
   <varray name="rec_basis" >
    <v>       0.05922524       0.00000000       0.00000000 </v>
    <v>       0.00000000       0.10440146       0.00000000 </v>
    <v>       0.00000000       0.00000000       0.06173747 </v>
   </varray>
  </crystal>
  <varray name="positions" >
   <v>       0.06497261       0.92341313       0.31080449 </v>
   <v>       0.09954057       0.92341313       0.12037258 </v>
   <v>       0.58225659       0.42341313       0.21558854 </v>
   <v>       0.61682455       0.42341313       0.02515663 </v>
   <v>       0.23740060       0.42341313       0.27906584 </v>
   <v>       0.27196856       0.42341313       0.08863393 </v>
   <v>       0.72011663       0.92341313       0.37428180 </v>
   <v>       0.75468458       0.92341313       0.18384989 </v>
   <v>       0.40982860       0.92341313       0.24732719 </v>
   <v>       0.44439655       0.92341313       0.05689528 </v>
   <v>       0.89254462       0.42341313       0.34254314 </v>
   <v>       0.92711258       0.42341313       0.15211123 </v>
   <v>       0.42015216       0.55551613       0.38086382 </v>
   <v>       0.45472012       0.55551613       0.19043191 </v>
   <v>       0.48928808       0.55551613       0.00000000 </v>
   <v>       0.93743614       0.05551613       0.28564787 </v>
   <v>       0.97200410       0.05551613       0.09521596 </v>
   <v>       0.10986414       0.55551613       0.25390921 </v>
   <v>       0.14443209       0.55551613       0.06347730 </v>
   <v>       0.59258016       0.05551613       0.34912517 </v>
   <v>       0.62714811       0.05551613       0.15869326 </v>
   <v>       0.28229213       0.05551613       0.22217056 </v>
   <v>       0.31686009       0.05551613       0.03173865 </v>
   <v>       0.76500815       0.55551613       0.31738652 </v>
   <v>       0.79957611       0.55551613       0.12695461 </v>
   <v>       0.06497261       0.18761913       0.31080449 </v>
   <v>       0.09954057       0.18761913       0.12037258 </v>
   <v>       0.58225659       0.68761913       0.21558854 </v>
   <v>       0.61682455       0.68761913       0.02515663 </v>
   <v>       0.23740060       0.68761913       0.27906584 </v>
   <v>       0.27196856       0.68761913       0.08863393 </v>
   <v>       0.72011663       0.18761913       0.37428180 </v>
   <v>       0.75468458       0.18761913       0.18384989 </v>
   <v>       0.40982860       0.18761913       0.24732719 </v>
   <v>       0.44439655       0.18761913       0.05689528 </v>
   <v>       0.89254462       0.68761913       0.34254314 </v>
   <v>       0.92711258       0.68761913       0.15211123 </v>
   <v>       0.02101885       0.22373113       0.00146664 </v>
   <v>       0.46916691       0.72373113       0.28711451 </v>
   <v>       0.50373487       0.72373113       0.09668260 </v>
   <v>       0.95188293       0.22373113       0.38233046 </v>
   <v>       0.98645089       0.22373113       0.19189855 </v>
   <v>       0.12431093       0.72373113       0.35059181 </v>
   <v>       0.15887888       0.72373113       0.16015990 </v>
   <v>       0.64159490       0.22373113       0.25537586 </v>
   <v>       0.67616286       0.22373113       0.06494395 </v>
   <v>       0.33130688       0.22373113       0.12842125 </v>
   <v>       0.81402290       0.72373113       0.22363721 </v>
   <v>       0.84859085       0.72373113       0.03320530 </v>
   <v>       0.14885104       0.05551613       0.22393206 </v>
   <v>       0.18341900       0.05551613       0.03350015 </v>
   <v>       0.63156706       0.55551613       0.31914801 </v>
   <v>       0.66613502       0.55551613       0.12871610 </v>
   <v>       0.28671108       0.55551613       0.38262532 </v>
   <v>       0.32127903       0.55551613       0.19219341 </v>
   <v>       0.35584699       0.55551613       0.00176149 </v>
   <v>       0.80399506       0.05551613       0.28740936 </v>
   <v>       0.83856301       0.05551613       0.09697745 </v>
   <v>       0.01099101       0.55551613       0.06523880 </v>
   <v>       0.45913907       0.05551613       0.35088666 </v>
   <v>       0.49370703       0.05551613       0.16045475 </v>
   <v>       0.97642305       0.55551613       0.25567071 </v>
   <v>       0.02101885       0.88730113       0.00146664 </v>
   <v>       0.46916691       0.38730113       0.28711451 </v>
   <v>       0.50373487       0.38730113       0.09668260 </v>
   <v>       0.95188293       0.88730113       0.38233046 </v>
   <v>       0.98645089       0.88730113       0.19189855 </v>
   <v>       0.15887888       0.38730113       0.16015990 </v>
   <v>       0.64159490       0.88730113       0.25537586 </v>
   <v>       0.67616286       0.88730113       0.06494395 </v>
   <v>       0.29673892       0.88730113       0.31885316 </v>
   <v>       0.33130688       0.88730113       0.12842125 </v>
   <v>       0.81402290       0.38730113       0.22363721 </v>
   <v>       0.84859085       0.38730113       0.03320530 </v>
  </varray>
 </structure>
 <varray name="primitive_index" >
  <v type="int" >        1 </v>
  <v type="int" >        2 </v>
  <v type="int" >        3 </v>
  <v type="int" >        4 </v>
  <v type="int" >        5 </v>
  <v type="int" >        6 </v>
  <v type="int" >        7 </v>
  <v type="int" >        8 </v>
  <v type="int" >        9 </v>
  <v type="int" >       10 </v>
  <v type="int" >       11 </v>
  <v type="int" >       12 </v>
  <v type="int" >       13 </v>
  <v type="int" >       14 </v>
  <v type="int" >       15 </v>
  <v type="int" >       16 </v>
  <v type="int" >       17 </v>
  <v type="int" >       18 </v>
  <v type="int" >       19 </v>
  <v type="int" >       20 </v>
  <v type="int" >       21 </v>
  <v type="int" >       22 </v>
  <v type="int" >       23 </v>
  <v type="int" >       24 </v>
  <v type="int" >       25 </v>
  <v type="int" >       26 </v>
  <v type="int" >       27 </v>
  <v type="int" >       28 </v>
  <v type="int" >       29 </v>
  <v type="int" >       30 </v>
  <v type="int" >       31 </v>
  <v type="int" >       32 </v>
  <v type="int" >       33 </v>
  <v type="int" >       34 </v>
  <v type="int" >       35 </v>
  <v type="int" >       36 </v>
  <v type="int" >       37 </v>
  <v type="int" >       38 </v>
  <v type="int" >       39 </v>
  <v type="int" >       40 </v>
  <v type="int" >       41 </v>
  <v type="int" >       42 </v>
  <v type="int" >       43 </v>
  <v type="int" >       44 </v>
  <v type="int" >       45 </v>
  <v type="int" >       46 </v>
  <v type="int" >       47 </v>
  <v type="int" >       48 </v>
  <v type="int" >       49 </v>
  <v type="int" >       50 </v>
  <v type="int" >       51 </v>
  <v type="int" >       52 </v>
  <v type="int" >       53 </v>
  <v type="int" >       54 </v>
  <v type="int" >       55 </v>
  <v type="int" >       56 </v>
  <v type="int" >       57 </v>
  <v type="int" >       58 </v>
  <v type="int" >       59 </v>
  <v type="int" >       60 </v>
  <v type="int" >       61 </v>
  <v type="int" >       62 </v>
  <v type="int" >       63 </v>
  <v type="int" >       64 </v>
  <v type="int" >       65 </v>
  <v type="int" >       66 </v>
  <v type="int" >       67 </v>
  <v type="int" >       68 </v>
  <v type="int" >       69 </v>
  <v type="int" >       70 </v>
  <v type="int" >       71 </v>
  <v type="int" >       72 </v>
  <v type="int" >       73 </v>
  <v type="int" >       74 </v>
 </varray>
 <kpoints>
  <generation param="Gamma">
   <v type="int" name="divisions">       1        1        1 </v>
   <v name="usershift">      0.00000000       0.00000000       0.00000000 </v>
   <v name="genvec1">      1.00000000       0.00000000       0.00000000 </v>
   <v name="genvec2">      0.00000000       1.00000000       0.00000000 </v>
   <v name="genvec3">      0.00000000       0.00000000       1.00000000 </v>
   <v name="shift">      0.00000000       0.00000000       0.00000000 </v>
  </generation>
  <varray name="kpointlist" >
   <v>       0.00000000       0.00000000       0.00000000 </v>
  </varray>
  <varray name="weights" >
   <v>       1.00000000 </v>
  </varray>
 </kpoints>
 <parameters>
  <separator name="general" >
   <i type="string" name="SYSTEM">"Millerite NiS"</i>
   <i type="logical" name="LCOMPAT"> F  </i>
  </separator>
  <separator name="electronic" >
   <i type="string" name="PREC">normal</i>
   <i name="ENMAX">    450.00000000</i>
   <i name="ENAUG">    703.44300000</i>
   <i name="EDIFF">      0.00010000</i>
   <i type="int" name="IALGO">    38</i>
   <i type="int" name="IWAVPR">    10</i>
   <i type="int" name="NBANDS">   488</i>
   <i type="int" name="NBANDSLOW">    -1</i>
   <i type="int" name="NBANDSHIGH">    -1</i>
   <i name="NELECT">    814.00000000</i>
   <i type="int" name="TURBO">     0</i>
   <i type="int" name="IRESTART">     0</i>
   <i type="int" name="NREBOOT">     0</i>
   <i type="int" name="NMIN">     0</i>
   <i name="EREF">      0.00000000</i>
   <separator name="electronic smearing" >
    <i type="int" name="ISMEAR">     0</i>
    <i name="SIGMA">      0.20000000</i>
    <i name="KSPACING">      0.50000000</i>
    <i type="logical" name="KGAMMA"> T  </i>
    <i type="logical" name="KBLOWUP"> T  </i>
   </separator>
   <separator name="electronic projectors" >
    <i type="logical" name="LREAL"> T  </i>
    <v name="ROPT">     -0.00050000     -0.00050000</v>
    <i type="int" name="LMAXPAW">  -100</i>
    <i type="int" name="LMAXMIX">     2</i>
    <i type="logical" name="NLSPLINE"> F  </i>
   </separator>
   <separator name="electronic startup" >
    <i type="int" name="ISTART">     0</i>
    <i type="int" name="ICHARG">     2</i>
    <i type="int" name="INIWAV">     1</i>
   </separator>
   <separator name="electronic spin" >
    <i type="int" name="ISPIN">     1</i>
    <i type="logical" name="LNONCOLLINEAR"> F  </i>
    <v name="MAGMOM">      1.00000000      1.00000000      1.00000000      1.00000000      1.00000000      1.00000000      1.00000000      1.00000000      1.00000000      1.00000000      1.00000000      1.00000000      1.00000000      1.00000000      1.00000000      1.00000000      1.00000000      1.00000000      1.00000000      1.00000000
      1.00000000      1.00000000      1.00000000      1.00000000      1.00000000      1.00000000      1.00000000      1.00000000      1.00000000      1.00000000      1.00000000      1.00000000      1.00000000      1.00000000      1.00000000      1.00000000      1.00000000      1.00000000      1.00000000      1.00000000
      1.00000000      1.00000000      1.00000000      1.00000000      1.00000000      1.00000000      1.00000000      1.00000000      1.00000000      1.00000000      1.00000000      1.00000000      1.00000000      1.00000000      1.00000000      1.00000000      1.00000000      1.00000000      1.00000000      1.00000000
      1.00000000      1.00000000      1.00000000      1.00000000      1.00000000      1.00000000      1.00000000      1.00000000      1.00000000      1.00000000      1.00000000      1.00000000      1.00000000      1.00000000</v>
    <i name="NUPDOWN">     -1.00000000</i>
    <i type="logical" name="LSORBIT"> F  </i>
    <v name="SAXIS">      0.00000000      0.00000000      1.00000000</v>
    <i type="logical" name="LSPIRAL"> F  </i>
    <v name="QSPIRAL">      0.00000000      0.00000000      0.00000000</v>
    <i type="logical" name="LZEROZ"> F  </i>
   </separator>
   <separator name="electronic exchange-correlation" >
    <i type="logical" name="LASPH"> F  </i>
    <i type="logical" name="LMETAGGA"> F  </i>
   </separator>
   <separator name="electronic convergence" >
    <i type="int" name="NELM">   100</i>
    <i type="int" name="NELMDL">    -5</i>
    <i type="int" name="NELMIN">     2</i>
    <i name="ENINI">    450.00000000</i>
    <separator name="electronic convergence detail" >
     <i type="logical" name="LDIAG"> T  </i>
     <i type="logical" name="LSUBROT"> F  </i>
     <i name="WEIMIN">      0.00000000</i>
     <i name="EBREAK">      0.00000005</i>
     <i name="DEPER">      0.30000000</i>
     <i type="int" name="NRMM">     4</i>
     <i name="TIME">      0.40000000</i>
    </separator>
   </separator>
   <separator name="electronic mixer" >
    <i name="AMIX">      0.40000000</i>
    <i name="BMIX">      1.00000000</i>
    <i name="AMIN">      0.10000000</i>
    <i name="AMIX_MAG">      1.60000000</i>
    <i name="BMIX_MAG">      1.00000000</i>
    <separator name="electronic mixer details" >
     <i type="int" name="IMIX">     4</i>
     <i type="logical" name="MIXFIRST"> F  </i>
     <i type="int" name="MAXMIX">   -45</i>
     <i name="WC">    100.00000000</i>
     <i type="int" name="INIMIX">     1</i>
     <i type="int" name="MIXPRE">     1</i>
     <i type="int" name="MREMOVE">     5</i>
    </separator>
   </separator>
   <separator name="electronic dipolcorrection" >
    <i type="logical" name="LDIPOL"> F  </i>
    <i type="logical" name="LMONO"> F  </i>
    <i type="int" name="IDIPOL">     0</i>
    <i name="EPSILON">      1.00000000</i>
    <v name="DIPOL">   -100.00000000   -100.00000000   -100.00000000</v>
    <i name="EFIELD">      0.00000000</i>
   </separator>
  </separator>
  <separator name="grids" >
   <i type="int" name="NGX">    90</i>
   <i type="int" name="NGY">    50</i>
   <i type="int" name="NGZ">    84</i>
   <i type="int" name="NGXF">   180</i>
   <i type="int" name="NGYF">   100</i>
   <i type="int" name="NGZF">   168</i>
   <i type="logical" name="ADDGRID"> F  </i>
  </separator>
  <separator name="ionic" >
   <i type="int" name="NSW">     0</i>
   <i type="int" name="IBRION">    -1</i>
   <i type="int" name="MDALGO">     0</i>
   <i type="int" name="ISIF">     2</i>
   <i name="PSTRESS">      0.00000000</i>
   <i name="EDIFFG">      0.00100000</i>
   <i type="int" name="NFREE">     0</i>
   <i name="POTIM">      0.50000000</i>
   <i name="SMASS">     -3.00000000</i>
   <i name="SCALEE">      1.00000000</i>
  </separator>
  <separator name="ionic md" >
   <i name="TEBEG">      0.00010000</i>
   <i name="TEEND">      0.00010000</i>
   <i type="int" name="NBLOCK">     1</i>
   <i type="int" name="KBLOCK">     1</i>
   <i type="int" name="NPACO">   256</i>
   <i name="APACO">     16.00000000</i>
  </separator>
  <separator name="symmetry" >
   <i type="int" name="ISYM">     2</i>
   <i name="SYMPREC">      0.00001000</i>
  </separator>
  <separator name="dos" >
   <i type="int" name="LORBIT">     0</i>
   <v name="RWIGS">     -1.00000000     -1.00000000</v>
   <i type="int" name="NEDOS">   301</i>
   <i name="EMIN">     10.00000000</i>
   <i name="EMAX">    -10.00000000</i>
   <i name="EFERMI">      0.00000000</i>
  </separator>
  <separator name="writing" >
   <i type="int" name="NWRITE">     2</i>
   <i type="logical" name="LWAVE"> F  </i>
   <i type="logical" name="LDOWNSAMPLE"> F  </i>
   <i type="logical" name="LCHARG"> F  </i>
   <i type="logical" name="LPARD"> F  </i>
   <i type="logical" name="LVTOT"> F  </i>
   <i type="logical" name="LVHAR"> F  </i>
   <i type="logical" name="LELF"> F  </i>
   <i type="logical" name="LOPTICS"> F  </i>
   <v name="STM">      0.00000000      0.00000000      0.00000000      0.00000000      0.00000000      0.00000000      0.00000000</v>
  </separator>
  <separator name="performance" >
   <i type="int" name="NPAR">     8</i>
   <i type="int" name="NSIM">     4</i>
   <i type="int" name="NBLK">    -1</i>
   <i type="logical" name="LPLANE"> T  </i>
   <i type="logical" name="LSCALAPACK"> T  </i>
   <i type="logical" name="LSCAAWARE"> F  </i>
   <i type="logical" name="LSCALU"> F  </i>
   <i type="logical" name="LASYNC"> F  </i>
   <i type="logical" name="LORBITALREAL"> F  </i>
  </separator>
  <separator name="miscellaneous" >
   <i type="int" name="IDIOT">     3</i>
   <i type="int" name="PHON_NSTRUCT">    -1</i>
   <i type="logical" name="LMUSIC"> F  </i>
   <v name="POMASS">     58.69000000     32.06600000</v>
   <v name="DARWINR">      0.00000000      0.00000000</v>
   <v name="DARWINV">      1.00000000      1.00000000</v>
   <i type="logical" name="LCORR"> T  </i>
  </separator>
  <i type="logical" name="GGA_COMPAT"> T  </i>
  <i type="logical" name="LBERRY"> F  </i>
  <i type="int" name="ICORELEVEL">     0</i>
  <i type="logical" name="LDAU"> F  </i>
  <i type="int" name="I_CONSTRAINED_M">     0</i>
  <separator name="electronic exchange-correlation" >
   <i type="string" name="GGA">--</i>
   <i type="int" name="VOSKOWN">     0</i>
   <i type="logical" name="LHFCALC"> F  </i>
   <i type="string" name="PRECFOCK"></i>
   <i type="logical" name="LSYMGRAD"> F  </i>
   <i type="logical" name="LHFONE"> F  </i>
   <i type="logical" name="LRHFCALC"> F  </i>
   <i type="logical" name="LTHOMAS"> F  </i>
   <i type="logical" name="LMODELHF"> F  </i>
   <i type="logical" name="LFOCKACE"> F  </i>
   <i name="ENCUT4O">     -1.00000000</i>
   <i type="int" name="EXXOEP">     0</i>
   <i type="int" name="FOURORBIT">     0</i>
   <i name="AEXX">      0.00000000</i>
   <i name="HFALPHA">      0.00000000</i>
   <i name="MCALPHA">      0.00000000</i>
   <i name="ALDAX">      1.00000000</i>
   <i name="AGGAX">      1.00000000</i>
   <i name="ALDAC">      1.00000000</i>
   <i name="AGGAC">      1.00000000</i>
   <i type="int" name="NKREDX">     1</i>
   <i type="int" name="NKREDY">     1</i>
   <i type="int" name="NKREDZ">     1</i>
   <i type="logical" name="SHIFTRED"> F  </i>
   <i type="logical" name="ODDONLY"> F  </i>
   <i type="logical" name="EVENONLY"> F  </i>
   <i type="int" name="LMAXFOCK">     0</i>
   <i type="int" name="NMAXFOCKAE">     0</i>
   <i type="logical" name="LFOCKAEDFT"> F  </i>
   <i name="HFSCREEN">      0.00000000</i>
   <i name="HFSCREENC">      0.00000000</i>
   <i type="int" name="NBANDSGWLOW">     0</i>
  </separator>
  <separator name="vdW DFT" >
   <i type="logical" name="LUSE_VDW"> F  </i>
   <i name="Zab_VDW">     -0.84910000</i>
   <i name="PARAM1">      0.12340000</i>
   <i name="PARAM2">      1.00000000</i>
   <i name="PARAM3">      0.00000000</i>
  </separator>
  <separator name="model GW" >
   <i type="int" name="MODEL_GW">     0</i>
   <i name="MODEL_EPS0">     21.24013792</i>
   <i name="MODEL_ALPHA">      1.00000000</i>
  </separator>
  <separator name="linear response parameters" >
   <i type="logical" name="LEPSILON"> F  </i>
   <i type="logical" name="LRPA"> F  </i>
   <i type="logical" name="LNABLA"> F  </i>
   <i type="logical" name="LVEL"> F  </i>
   <i type="int" name="KINTER">     0</i>
   <i name="CSHIFT">      0.10000000</i>
   <i name="OMEGAMAX">     -1.00000000</i>
   <i name="DEG_THRESHOLD">      0.00200000</i>
   <i name="RTIME">     -0.10000000</i>
   <i name="WPLASMAI">      0.00000000</i>
   <v name="DFIELD">      0.00000000      0.00000000      0.00000000</v>
   <v name="WPLASMA">      0.00000000      0.00000000      0.00000000      0.00000000      0.00000000      0.00000000      0.00000000      0.00000000      0.00000000</v>
  </separator>
  <separator name="orbital magnetization" >
   <i type="logical" name="NUCIND"> F  </i>
   <v name="MAGPOS">      0.00000000      0.00000000      0.00000000</v>
   <i type="logical" name="LNICSALL"> T  </i>
   <i type="logical" name="ORBITALMAG"> F  </i>
   <i type="logical" name="LMAGBLOCH"> F  </i>
   <i type="logical" name="LCHIMAG"> F  </i>
   <i type="logical" name="LGAUGE"> T  </i>
   <i type="int" name="MAGATOM">     0</i>
   <v name="MAGDIPOL">      0.00000000      0.00000000      0.00000000</v>
   <v name="AVECCONST">      0.00000000      0.00000000      0.00000000</v>
  </separator>
  <separator name="response functions" >
   <i type="logical" name="LFINITE_TEMPERATURE"> F  </i>
   <i type="logical" name="LADDER"> F  </i>
   <i type="logical" name="LRPAFORCE"> F  </i>
   <i type="logical" name="LFXC"> F  </i>
   <i type="logical" name="LHARTREE"> T  </i>
   <i type="int" name="IBSE">     0</i>
   <v type="int" name="KPOINT">    -1     0     0     0</v>
   <i type="logical" name="LTCTC"> F  </i>
   <i type="logical" name="LTCTE"> F  </i>
   <i type="logical" name="LTETE"> F  </i>
   <i type="logical" name="LTRIPLET"> F  </i>
   <i type="logical" name="LFXCEPS"> F  </i>
   <i type="logical" name="LFXHEG"> F  </i>
   <i type="int" name="NATURALO">     2</i>
   <i type="logical" name="LHOLEGF"> F  </i>
   <i type="logical" name="L2ORDER"> F  </i>
   <i type="logical" name="LDMP1"> F  </i>
   <i type="logical" name="LMP2LT"> F  </i>
   <i type="logical" name="LSMP2LT"> F  </i>
   <i type="logical" name="LGWLF"> F  </i>
   <i name="ENCUTGW">     -2.00000000</i>
   <i name="ENCUTGWSOFT">     -2.00000000</i>
   <i name="ENCUTLF">     -1.00000000</i>
   <i type="logical" name="LESF_SPLINES"> F  </i>
   <i type="int" name="LMAXMP2">    -1</i>
   <i name="SCISSOR">      0.00000000</i>
   <i type="int" name="NOMEGA">     0</i>
   <i type="int" name="NOMEGAR">     0</i>
   <i type="int" name="NBANDSGW">    -1</i>
   <i type="int" name="NBANDSO">    -1</i>
   <i type="int" name="NBANDSV">    -1</i>
   <i type="int" name="NELM">   100</i>
   <i type="int" name="NELMHF">     1</i>
   <i type="int" name="DIM">     3</i>
   <i type="int" name="IESPILON">     4</i>
   <i type="int" name="ANTIRES">     0</i>
   <i name="OMEGAMAX">    -30.00000000</i>
   <i name="OMEGAMIN">    -30.00000000</i>
   <i name="OMEGATL">   -200.00000000</i>
   <i type="int" name="OMEGAGRID">     0</i>
   <i name="CSHIFT">     -0.10000000</i>
   <i type="logical" name="LSELFENERGY"> F  </i>
   <i type="logical" name="LSPECTRAL"> F  </i>
   <i type="logical" name="LSPECTRALGW"> F  </i>
   <i type="logical" name="LSINGLES"> F  </i>
   <i type="logical" name="LFERMIGW"> F  </i>
   <i type="logical" name="ODDONLYGW"> F  </i>
   <i type="logical" name="EVENONLYGW"> F  </i>
   <i type="int" name="NKREDLFX">     1</i>
   <i type="int" name="NKREDLFY">     1</i>
   <i type="int" name="NKREDLFZ">     1</i>
   <i type="int" name="MAXMEM">  2800</i>
   <i type="int" name="TELESCOPE">     0</i>
   <i type="int" name="NTAUPAR">    -1</i>
   <i type="int" name="NOMEGAPAR">    -1</i>
   <i name="LAMBDA">      1.00000000</i>
  </separator>
  <separator name="External order field" >
   <i name="OFIELD_KAPPA">      0.00000000</i>
   <v name="OFIELD_K">      0.00000000      0.00000000      0.00000000</v>
   <i name="OFIELD_Q6_NEAR">      0.00000000</i>
   <i name="OFIELD_Q6_FAR">      0.00000000</i>
   <i name="OFIELD_A">      0.00000000</i>
  </separator>
 </parameters>
 <atominfo>
  <atoms>      74 </atoms>
  <types>       2 </types>
  <array name="atoms" >
   <dimension dim="1">ion</dimension>
   <field type="string">element</field>
   <field type="int">atomtype</field>
   <set>
    <rc><c>Ni</c><c>   1</c></rc>
    <rc><c>Ni</c><c>   1</c></rc>
    <rc><c>Ni</c><c>   1</c></rc>
    <rc><c>Ni</c><c>   1</c></rc>
    <rc><c>Ni</c><c>   1</c></rc>
    <rc><c>Ni</c><c>   1</c></rc>
    <rc><c>Ni</c><c>   1</c></rc>
    <rc><c>Ni</c><c>   1</c></rc>
    <rc><c>Ni</c><c>   1</c></rc>
    <rc><c>Ni</c><c>   1</c></rc>
    <rc><c>Ni</c><c>   1</c></rc>
    <rc><c>Ni</c><c>   1</c></rc>
    <rc><c>Ni</c><c>   1</c></rc>
    <rc><c>Ni</c><c>   1</c></rc>
    <rc><c>Ni</c><c>   1</c></rc>
    <rc><c>Ni</c><c>   1</c></rc>
    <rc><c>Ni</c><c>   1</c></rc>
    <rc><c>Ni</c><c>   1</c></rc>
    <rc><c>Ni</c><c>   1</c></rc>
    <rc><c>Ni</c><c>   1</c></rc>
    <rc><c>Ni</c><c>   1</c></rc>
    <rc><c>Ni</c><c>   1</c></rc>
    <rc><c>Ni</c><c>   1</c></rc>
    <rc><c>Ni</c><c>   1</c></rc>
    <rc><c>Ni</c><c>   1</c></rc>
    <rc><c>Ni</c><c>   1</c></rc>
    <rc><c>Ni</c><c>   1</c></rc>
    <rc><c>Ni</c><c>   1</c></rc>
    <rc><c>Ni</c><c>   1</c></rc>
    <rc><c>Ni</c><c>   1</c></rc>
    <rc><c>Ni</c><c>   1</c></rc>
    <rc><c>Ni</c><c>   1</c></rc>
    <rc><c>Ni</c><c>   1</c></rc>
    <rc><c>Ni</c><c>   1</c></rc>
    <rc><c>Ni</c><c>   1</c></rc>
    <rc><c>Ni</c><c>   1</c></rc>
    <rc><c>Ni</c><c>   1</c></rc>
    <rc><c>S </c><c>   2</c></rc>
    <rc><c>S </c><c>   2</c></rc>
    <rc><c>S </c><c>   2</c></rc>
    <rc><c>S </c><c>   2</c></rc>
    <rc><c>S </c><c>   2</c></rc>
    <rc><c>S </c><c>   2</c></rc>
    <rc><c>S </c><c>   2</c></rc>
    <rc><c>S </c><c>   2</c></rc>
    <rc><c>S </c><c>   2</c></rc>
    <rc><c>S </c><c>   2</c></rc>
    <rc><c>S </c><c>   2</c></rc>
    <rc><c>S </c><c>   2</c></rc>
    <rc><c>S </c><c>   2</c></rc>
    <rc><c>S </c><c>   2</c></rc>
    <rc><c>S </c><c>   2</c></rc>
    <rc><c>S </c><c>   2</c></rc>
    <rc><c>S </c><c>   2</c></rc>
    <rc><c>S </c><c>   2</c></rc>
    <rc><c>S </c><c>   2</c></rc>
    <rc><c>S </c><c>   2</c></rc>
    <rc><c>S </c><c>   2</c></rc>
    <rc><c>S </c><c>   2</c></rc>
    <rc><c>S </c><c>   2</c></rc>
    <rc><c>S </c><c>   2</c></rc>
    <rc><c>S </c><c>   2</c></rc>
    <rc><c>S </c><c>   2</c></rc>
    <rc><c>S </c><c>   2</c></rc>
    <rc><c>S </c><c>   2</c></rc>
    <rc><c>S </c><c>   2</c></rc>
    <rc><c>S </c><c>   2</c></rc>
    <rc><c>S </c><c>   2</c></rc>
    <rc><c>S </c><c>   2</c></rc>
    <rc><c>S </c><c>   2</c></rc>
    <rc><c>S </c><c>   2</c></rc>
    <rc><c>S </c><c>   2</c></rc>
    <rc><c>S </c><c>   2</c></rc>
    <rc><c>S </c><c>   2</c></rc>
   </set>
  </array>
  <array name="atomtypes" >
   <dimension dim="1">type</dimension>
   <field type="int">atomspertype</field>
   <field type="string">element</field>
   <field>mass</field>
   <field>valence</field>
   <field type="string">pseudopotential</field>
   <set>
    <rc><c>  37</c><c>Ni</c><c>     58.69000000</c><c>     16.00000000</c><c>  PAW_PBE Ni_pv 06Sep2000               </c></rc>
    <rc><c>  37</c><c>S </c><c>     32.06600000</c><c>      6.00000000</c><c>  PAW_PBE S 06Sep2000                   </c></rc>
   </set>
  </array>
 </atominfo>
 <structure name="initialpos" >
  <crystal>
   <varray name="basis" >
    <v>      16.88469405       0.00000000       0.00000000 </v>
    <v>       0.00000000       9.57841000       0.00000000 </v>
    <v>       0.00000000       0.00000000      16.19761915 </v>
   </varray>
   <i name="volume">   2619.61701075 </i>
   <varray name="rec_basis" >
    <v>       0.05922524       0.00000000       0.00000000 </v>
    <v>       0.00000000       0.10440146       0.00000000 </v>
    <v>       0.00000000       0.00000000       0.06173747 </v>
   </varray>
  </crystal>
  <varray name="positions" >
   <v>       0.06497261       0.92341313       0.31080449 </v>
   <v>       0.09954057       0.92341313       0.12037258 </v>
   <v>       0.58225659       0.42341313       0.21558854 </v>
   <v>       0.61682455       0.42341313       0.02515663 </v>
   <v>       0.23740060       0.42341313       0.27906584 </v>
   <v>       0.27196856       0.42341313       0.08863393 </v>
   <v>       0.72011663       0.92341313       0.37428180 </v>
   <v>       0.75468458       0.92341313       0.18384989 </v>
   <v>       0.40982860       0.92341313       0.24732719 </v>
   <v>       0.44439655       0.92341313       0.05689528 </v>
   <v>       0.89254462       0.42341313       0.34254314 </v>
   <v>       0.92711258       0.42341313       0.15211123 </v>
   <v>       0.42015216       0.55551613       0.38086382 </v>
   <v>       0.45472012       0.55551613       0.19043191 </v>
   <v>       0.48928808       0.55551613       0.00000000 </v>
   <v>       0.93743614       0.05551613       0.28564787 </v>
   <v>       0.97200410       0.05551613       0.09521596 </v>
   <v>       0.10986414       0.55551613       0.25390921 </v>
   <v>       0.14443209       0.55551613       0.06347730 </v>
   <v>       0.59258016       0.05551613       0.34912517 </v>
   <v>       0.62714811       0.05551613       0.15869326 </v>
   <v>       0.28229213       0.05551613       0.22217056 </v>
   <v>       0.31686009       0.05551613       0.03173865 </v>
   <v>       0.76500815       0.55551613       0.31738652 </v>
   <v>       0.79957611       0.55551613       0.12695461 </v>
   <v>       0.06497261       0.18761913       0.31080449 </v>
   <v>       0.09954057       0.18761913       0.12037258 </v>
   <v>       0.58225659       0.68761913       0.21558854 </v>
   <v>       0.61682455       0.68761913       0.02515663 </v>
   <v>       0.23740060       0.68761913       0.27906584 </v>
   <v>       0.27196856       0.68761913       0.08863393 </v>
   <v>       0.72011663       0.18761913       0.37428180 </v>
   <v>       0.75468458       0.18761913       0.18384989 </v>
   <v>       0.40982860       0.18761913       0.24732719 </v>
   <v>       0.44439655       0.18761913       0.05689528 </v>
   <v>       0.89254462       0.68761913       0.34254314 </v>
   <v>       0.92711258       0.68761913       0.15211123 </v>
   <v>       0.02101885       0.22373113       0.00146664 </v>
   <v>       0.46916691       0.72373113       0.28711451 </v>
   <v>       0.50373487       0.72373113       0.09668260 </v>
   <v>       0.95188293       0.22373113       0.38233046 </v>
   <v>       0.98645089       0.22373113       0.19189855 </v>
   <v>       0.12431093       0.72373113       0.35059181 </v>
   <v>       0.15887888       0.72373113       0.16015990 </v>
   <v>       0.64159490       0.22373113       0.25537586 </v>
   <v>       0.67616286       0.22373113       0.06494395 </v>
   <v>       0.33130688       0.22373113       0.12842125 </v>
   <v>       0.81402290       0.72373113       0.22363721 </v>
   <v>       0.84859085       0.72373113       0.03320530 </v>
   <v>       0.14885104       0.05551613       0.22393206 </v>
   <v>       0.18341900       0.05551613       0.03350015 </v>
   <v>       0.63156706       0.55551613       0.31914801 </v>
   <v>       0.66613502       0.55551613       0.12871610 </v>
   <v>       0.28671108       0.55551613       0.38262532 </v>
   <v>       0.32127903       0.55551613       0.19219341 </v>
   <v>       0.35584699       0.55551613       0.00176149 </v>
   <v>       0.80399506       0.05551613       0.28740936 </v>
   <v>       0.83856301       0.05551613       0.09697745 </v>
   <v>       0.01099101       0.55551613       0.06523880 </v>
   <v>       0.45913907       0.05551613       0.35088666 </v>
   <v>       0.49370703       0.05551613       0.16045475 </v>
   <v>       0.97642305       0.55551613       0.25567071 </v>
   <v>       0.02101885       0.88730113       0.00146664 </v>
   <v>       0.46916691       0.38730113       0.28711451 </v>
   <v>       0.50373487       0.38730113       0.09668260 </v>
   <v>       0.95188293       0.88730113       0.38233046 </v>
   <v>       0.98645089       0.88730113       0.19189855 </v>
   <v>       0.15887888       0.38730113       0.16015990 </v>
   <v>       0.64159490       0.88730113       0.25537586 </v>
   <v>       0.67616286       0.88730113       0.06494395 </v>
   <v>       0.29673892       0.88730113       0.31885316 </v>
   <v>       0.33130688       0.88730113       0.12842125 </v>
   <v>       0.81402290       0.38730113       0.22363721 </v>
   <v>       0.84859085       0.38730113       0.03320530 </v>
  </varray>
 </structure>
 <calculation>
  <scstep>
   <time name="dav">    2.60    2.61</time>
   <time name="total">    2.66    2.67</time>
   <energy>
    <i name="alphaZ">   1500.00209625 </i>
    <i name="ewald"> 107671.56388564 </i>
    <i name="hartreedc">-232030.13196839 </i>
    <i name="XCdc">   3740.88635748 </i>
    <i name="pawpsdc"> 115860.90926010 </i>
    <i name="pawaedc">-120909.33166199 </i>
    <i name="eentropy">     -0.55636638 </i>
    <i name="bandstr">  -6667.53591023 </i>
    <i name="atom"> 139780.45519414 </i>
    <i name="e_fr_energy">   8946.26088662 </i>
    <i name="e_wo_entrp">   8946.81725300 </i>
    <i name="e_0_energy">   8946.53906981 </i>
   </energy>
  </scstep>
  <scstep>
   <time name="dav">    2.29    2.29</time>
   <time name="total">    2.29    2.30</time>
   <energy>
    <i name="e_fr_energy">    509.78106007 </i>
    <i name="e_wo_entrp">    510.56364749 </i>
    <i name="e_0_energy">    510.17235378 </i>
   </energy>
  </scstep>
  <scstep>
   <time name="dav">    2.53    2.53</time>
   <time name="total">    2.53    2.53</time>
   <energy>
    <i name="e_fr_energy">   -355.63936744 </i>
    <i name="e_wo_entrp">   -354.22294143 </i>
    <i name="e_0_energy">   -354.93115444 </i>
   </energy>
  </scstep>
  <scstep>
   <time name="dav">    2.60    2.61</time>
   <time name="total">    2.60    2.61</time>
   <energy>
    <i name="e_fr_energy">   -409.04456107 </i>
    <i name="e_wo_entrp">   -407.56806559 </i>
    <i name="e_0_energy">   -408.30631333 </i>
   </energy>
  </scstep>
  <scstep>
   <time name="dav">    2.58    2.59</time>
   <time name="total">    2.64    2.64</time>
   <energy>
    <i name="e_fr_energy">   -410.46001491 </i>
    <i name="e_wo_entrp">   -408.98222581 </i>
    <i name="e_0_energy">   -409.72112036 </i>
   </energy>
  </scstep>
  <scstep>
   <time name="dav">    2.60    2.61</time>
   <time name="total">    2.71    2.72</time>
   <energy>
    <i name="e_fr_energy">   -539.60452960 </i>
    <i name="e_wo_entrp">   -538.63860290 </i>
    <i name="e_0_energy">   -539.12156625 </i>
   </energy>
  </scstep>
  <scstep>
   <time name="dav">    2.53    2.54</time>
   <time name="total">    2.65    2.66</time>
   <energy>
    <i name="e_fr_energy">   -389.21161733 </i>
    <i name="e_wo_entrp">   -388.11288663 </i>
    <i name="e_0_energy">   -388.66225198 </i>
   </energy>
  </scstep>
  <scstep>
   <time name="dav">    2.91    2.91</time>
   <time name="total">    3.02    3.03</time>
   <energy>
    <i name="e_fr_energy">   -396.33802488 </i>
    <i name="e_wo_entrp">   -394.77247640 </i>
    <i name="e_0_energy">   -395.55525064 </i>
   </energy>
  </scstep>
  <scstep>
   <time name="dav">    2.70    2.71</time>
   <time name="total">    2.81    2.82</time>
   <energy>
    <i name="e_fr_energy">   -375.44046131 </i>
    <i name="e_wo_entrp">   -373.90150418 </i>
    <i name="e_0_energy">   -374.67098274 </i>
   </energy>
  </scstep>
  <scstep>
   <time name="dav">    2.88    2.89</time>
   <time name="total">    3.00    3.00</time>
   <energy>
    <i name="e_fr_energy">   -379.31895015 </i>
    <i name="e_wo_entrp">   -377.57696770 </i>
    <i name="e_0_energy">   -378.44795893 </i>
   </energy>
  </scstep>
  <scstep>
   <time name="dav">    2.85    2.86</time>
   <time name="total">    2.96    2.97</time>
   <energy>
    <i name="e_fr_energy">   -369.70850115 </i>
    <i name="e_wo_entrp">   -368.27045176 </i>
    <i name="e_0_energy">   -368.98947645 </i>
   </energy>
  </scstep>
  <scstep>
   <time name="dav">    2.92    2.93</time>
   <time name="total">    3.03    3.04</time>
   <energy>
    <i name="e_fr_energy">   -366.79225285 </i>
    <i name="e_wo_entrp">   -365.53803799 </i>
    <i name="e_0_energy">   -366.16514542 </i>
   </energy>
  </scstep>
  <scstep>
   <time name="dav">    2.90    2.91</time>
   <time name="total">    3.01    3.02</time>
   <energy>
    <i name="e_fr_energy">   -361.60933760 </i>
    <i name="e_wo_entrp">   -360.52128932 </i>
    <i name="e_0_energy">   -361.06531346 </i>
   </energy>
  </scstep>
  <scstep>
   <time name="dav">    2.78    2.79</time>
   <time name="total">    2.89    2.90</time>
   <energy>
    <i name="e_fr_energy">   -360.20677308 </i>
    <i name="e_wo_entrp">   -358.97406007 </i>
    <i name="e_0_energy">   -359.59041658 </i>
   </energy>
  </scstep>
  <scstep>
   <time name="dav">    2.81    2.82</time>
   <time name="total">    2.92    2.93</time>
   <energy>
    <i name="e_fr_energy">   -358.40421264 </i>
    <i name="e_wo_entrp">   -357.26080727 </i>
    <i name="e_0_energy">   -357.83250996 </i>
   </energy>
  </scstep>
  <scstep>
   <time name="dav">    2.76    2.77</time>
   <time name="total">    2.87    2.88</time>
   <energy>
    <i name="e_fr_energy">   -357.55046551 </i>
    <i name="e_wo_entrp">   -356.33228823 </i>
    <i name="e_0_energy">   -356.94137687 </i>
   </energy>
  </scstep>
  <scstep>
   <time name="dav">    2.87    2.88</time>
   <time name="total">    2.98    2.99</time>
   <energy>
    <i name="e_fr_energy">   -356.26424570 </i>
    <i name="e_wo_entrp">   -355.08381410 </i>
    <i name="e_0_energy">   -355.67402990 </i>
   </energy>
  </scstep>
  <scstep>
   <time name="dav">    2.83    2.84</time>
   <time name="total">    2.94    2.95</time>
   <energy>
    <i name="e_fr_energy">   -355.76080710 </i>
    <i name="e_wo_entrp">   -354.54431335 </i>
    <i name="e_0_energy">   -355.15256023 </i>
   </energy>
  </scstep>
  <scstep>
   <time name="dav">    2.81    2.82</time>
   <time name="total">    2.92    2.94</time>
   <energy>
    <i name="e_fr_energy">   -355.04284786 </i>
    <i name="e_wo_entrp">   -353.77801880 </i>
    <i name="e_0_energy">   -354.41043333 </i>
   </energy>
  </scstep>
  <scstep>
   <time name="dav">    2.85    2.86</time>
   <time name="total">    2.96    2.97</time>
   <energy>
    <i name="e_fr_energy">   -354.76426212 </i>
    <i name="e_wo_entrp">   -353.48566882 </i>
    <i name="e_0_energy">   -354.12496547 </i>
   </energy>
  </scstep>
  <scstep>
   <time name="dav">    2.82    2.82</time>
   <time name="total">    2.93    2.94</time>
   <energy>
    <i name="e_fr_energy">   -354.73136285 </i>
    <i name="e_wo_entrp">   -353.46727542 </i>
    <i name="e_0_energy">   -354.09931914 </i>
   </energy>
  </scstep>
  <scstep>
   <time name="dav">    2.81    2.82</time>
   <time name="total">    2.92    2.93</time>
   <energy>
    <i name="e_fr_energy">   -354.62073439 </i>
    <i name="e_wo_entrp">   -353.33380626 </i>
    <i name="e_0_energy">   -353.97727032 </i>
   </energy>
  </scstep>
  <scstep>
   <time name="dav">    2.71    2.72</time>
   <time name="total">    2.82    2.83</time>
   <energy>
    <i name="e_fr_energy">   -354.65285658 </i>
    <i name="e_wo_entrp">   -353.32535004 </i>
    <i name="e_0_energy">   -353.98910331 </i>
   </energy>
  </scstep>
  <scstep>
   <time name="dav">    2.67    2.68</time>
   <time name="total">    2.79    2.79</time>
   <energy>
    <i name="e_fr_energy">   -354.68269886 </i>
    <i name="e_wo_entrp">   -353.32429305 </i>
    <i name="e_0_energy">   -354.00349596 </i>
   </energy>
  </scstep>
  <scstep>
   <time name="dav">    2.66    2.66</time>
   <time name="total">    2.77    2.78</time>
   <energy>
    <i name="e_fr_energy">   -354.60059391 </i>
    <i name="e_wo_entrp">   -353.25291185 </i>
    <i name="e_0_energy">   -353.92675288 </i>
   </energy>
  </scstep>
  <scstep>
   <time name="dav">    2.76    2.77</time>
   <time name="total">    2.87    2.88</time>
   <energy>
    <i name="e_fr_energy">   -354.59594256 </i>
    <i name="e_wo_entrp">   -353.24176632 </i>
    <i name="e_0_energy">   -353.91885444 </i>
   </energy>
  </scstep>
  <scstep>
   <time name="dav">    2.78    2.78</time>
   <time name="total">    2.89    2.89</time>
   <energy>
    <i name="e_fr_energy">   -354.56785862 </i>
    <i name="e_wo_entrp">   -353.21118063 </i>
    <i name="e_0_energy">   -353.88951962 </i>
   </energy>
  </scstep>
  <scstep>
   <time name="dav">    2.79    2.80</time>
   <time name="total">    2.90    2.91</time>
   <energy>
    <i name="e_fr_energy">   -354.56368624 </i>
    <i name="e_wo_entrp">   -353.20792408 </i>
    <i name="e_0_energy">   -353.88580516 </i>
   </energy>
  </scstep>
  <scstep>
   <time name="dav">    2.75    2.75</time>
   <time name="total">    2.86    2.87</time>
   <energy>
    <i name="e_fr_energy">   -354.55897497 </i>
    <i name="e_wo_entrp">   -353.20068725 </i>
    <i name="e_0_energy">   -353.87983111 </i>
   </energy>
  </scstep>
  <scstep>
   <time name="dav">    2.90    2.90</time>
   <time name="total">    3.01    3.02</time>
   <energy>
    <i name="e_fr_energy">   -354.53540773 </i>
    <i name="e_wo_entrp">   -353.19303775 </i>
    <i name="e_0_energy">   -353.86422274 </i>
   </energy>
  </scstep>
  <scstep>
   <time name="dav">    2.74    2.74</time>
   <time name="total">    2.85    2.86</time>
   <energy>
    <i name="e_fr_energy">   -354.53310577 </i>
    <i name="e_wo_entrp">   -353.19409902 </i>
    <i name="e_0_energy">   -353.86360239 </i>
   </energy>
  </scstep>
  <scstep>
   <time name="dav">    2.81    2.81</time>
   <time name="total">    2.92    2.93</time>
   <energy>
    <i name="e_fr_energy">   -354.52867850 </i>
    <i name="e_wo_entrp">   -353.19666382 </i>
    <i name="e_0_energy">   -353.86267116 </i>
   </energy>
  </scstep>
  <scstep>
   <time name="dav">    2.79    2.79</time>
   <time name="total">    2.90    2.91</time>
   <energy>
    <i name="e_fr_energy">   -354.52575688 </i>
    <i name="e_wo_entrp">   -353.19585462 </i>
    <i name="e_0_energy">   -353.86080575 </i>
   </energy>
  </scstep>
  <scstep>
   <time name="dav">    2.80    2.81</time>
   <time name="total">    2.92    2.92</time>
   <energy>
    <i name="e_fr_energy">   -354.52493325 </i>
    <i name="e_wo_entrp">   -353.19833642 </i>
    <i name="e_0_energy">   -353.86163483 </i>
   </energy>
  </scstep>
  <scstep>
   <time name="dav">    2.61    2.61</time>
   <time name="total">    2.72    2.72</time>
   <energy>
    <i name="e_fr_energy">   -354.52382495 </i>
    <i name="e_wo_entrp">   -353.19699341 </i>
    <i name="e_0_energy">   -353.86040918 </i>
   </energy>
  </scstep>
  <scstep>
   <time name="dav">    2.45    2.46</time>
   <time name="total">    2.56    2.57</time>
   <energy>
    <i name="e_fr_energy">   -354.52411942 </i>
    <i name="e_wo_entrp">   -353.19909489 </i>
    <i name="e_0_energy">   -353.86160716 </i>
   </energy>
  </scstep>
  <scstep>
   <time name="dav">    2.22    2.23</time>
   <time name="total">    2.28    2.28</time>
   <energy>
    <i name="alphaZ">   1500.00209625 </i>
    <i name="ewald"> 107671.56388564 </i>
    <i name="hartreedc">-231279.10905110 </i>
    <i name="XCdc">   3711.51781545 </i>
    <i name="pawpsdc"> 132251.98305385 </i>
    <i name="pawaedc">-137358.10239508 </i>
    <i name="eentropy">     -1.32419559 </i>
    <i name="bandstr"> -16631.51051058 </i>
    <i name="atom"> 139780.45519414 </i>
    <i name="e_fr_energy">   -354.52410703 </i>
    <i name="e_wo_entrp">   -353.19991144 </i>
    <i name="e_0_energy">   -353.86200924 </i>
   </energy>
  </scstep>
  <structure>
   <crystal>
    <varray name="basis" >
     <v>      16.88469405       0.00000000       0.00000000 </v>
     <v>       0.00000000       9.57841000       0.00000000 </v>
     <v>       0.00000000       0.00000000      16.19761915 </v>
    </varray>
    <i name="volume">   2619.61701075 </i>
    <varray name="rec_basis" >
     <v>       0.05922524       0.00000000       0.00000000 </v>
     <v>       0.00000000       0.10440146       0.00000000 </v>
     <v>       0.00000000       0.00000000       0.06173747 </v>
    </varray>
   </crystal>
   <varray name="positions" >
    <v>       0.06497261       0.92341313       0.31080449 </v>
    <v>       0.09954057       0.92341313       0.12037258 </v>
    <v>       0.58225659       0.42341313       0.21558854 </v>
    <v>       0.61682455       0.42341313       0.02515663 </v>
    <v>       0.23740060       0.42341313       0.27906584 </v>
    <v>       0.27196856       0.42341313       0.08863393 </v>
    <v>       0.72011663       0.92341313       0.37428180 </v>
    <v>       0.75468458       0.92341313       0.18384989 </v>
    <v>       0.40982860       0.92341313       0.24732719 </v>
    <v>       0.44439655       0.92341313       0.05689528 </v>
    <v>       0.89254462       0.42341313       0.34254314 </v>
    <v>       0.92711258       0.42341313       0.15211123 </v>
    <v>       0.42015216       0.55551613       0.38086382 </v>
    <v>       0.45472012       0.55551613       0.19043191 </v>
    <v>       0.48928808       0.55551613       0.00000000 </v>
    <v>       0.93743614       0.05551613       0.28564787 </v>
    <v>       0.97200410       0.05551613       0.09521596 </v>
    <v>       0.10986414       0.55551613       0.25390921 </v>
    <v>       0.14443209       0.55551613       0.06347730 </v>
    <v>       0.59258016       0.05551613       0.34912517 </v>
    <v>       0.62714811       0.05551613       0.15869326 </v>
    <v>       0.28229213       0.05551613       0.22217056 </v>
    <v>       0.31686009       0.05551613       0.03173865 </v>
    <v>       0.76500815       0.55551613       0.31738652 </v>
    <v>       0.79957611       0.55551613       0.12695461 </v>
    <v>       0.06497261       0.18761913       0.31080449 </v>
    <v>       0.09954057       0.18761913       0.12037258 </v>
    <v>       0.58225659       0.68761913       0.21558854 </v>
    <v>       0.61682455       0.68761913       0.02515663 </v>
    <v>       0.23740060       0.68761913       0.27906584 </v>
    <v>       0.27196856       0.68761913       0.08863393 </v>
    <v>       0.72011663       0.18761913       0.37428180 </v>
    <v>       0.75468458       0.18761913       0.18384989 </v>
    <v>       0.40982860       0.18761913       0.24732719 </v>
    <v>       0.44439655       0.18761913       0.05689528 </v>
    <v>       0.89254462       0.68761913       0.34254314 </v>
    <v>       0.92711258       0.68761913       0.15211123 </v>
    <v>       0.02101885       0.22373113       0.00146664 </v>
    <v>       0.46916691       0.72373113       0.28711451 </v>
    <v>       0.50373487       0.72373113       0.09668260 </v>
    <v>       0.95188293       0.22373113       0.38233046 </v>
    <v>       0.98645089       0.22373113       0.19189855 </v>
    <v>       0.12431093       0.72373113       0.35059181 </v>
    <v>       0.15887888       0.72373113       0.16015990 </v>
    <v>       0.64159490       0.22373113       0.25537586 </v>
    <v>       0.67616286       0.22373113       0.06494395 </v>
    <v>       0.33130688       0.22373113       0.12842125 </v>
    <v>       0.81402290       0.72373113       0.22363721 </v>
    <v>       0.84859085       0.72373113       0.03320530 </v>
    <v>       0.14885104       0.05551613       0.22393206 </v>
    <v>       0.18341900       0.05551613       0.03350015 </v>
    <v>       0.63156706       0.55551613       0.31914801 </v>
    <v>       0.66613502       0.55551613       0.12871610 </v>
    <v>       0.28671108       0.55551613       0.38262532 </v>
    <v>       0.32127903       0.55551613       0.19219341 </v>
    <v>       0.35584699       0.55551613       0.00176149 </v>
    <v>       0.80399506       0.05551613       0.28740936 </v>
    <v>       0.83856301       0.05551613       0.09697745 </v>
    <v>       0.01099101       0.55551613       0.06523880 </v>
    <v>       0.45913907       0.05551613       0.35088666 </v>
    <v>       0.49370703       0.05551613       0.16045475 </v>
    <v>       0.97642305       0.55551613       0.25567071 </v>
    <v>       0.02101885       0.88730113       0.00146664 </v>
    <v>       0.46916691       0.38730113       0.28711451 </v>
    <v>       0.50373487       0.38730113       0.09668260 </v>
    <v>       0.95188293       0.88730113       0.38233046 </v>
    <v>       0.98645089       0.88730113       0.19189855 </v>
    <v>       0.15887888       0.38730113       0.16015990 </v>
    <v>       0.64159490       0.88730113       0.25537586 </v>
    <v>       0.67616286       0.88730113       0.06494395 </v>
    <v>       0.29673892       0.88730113       0.31885316 </v>
    <v>       0.33130688       0.88730113       0.12842125 </v>
    <v>       0.81402290       0.38730113       0.22363721 </v>
    <v>       0.84859085       0.38730113       0.03320530 </v>
   </varray>
  </structure>
  <varray name="forces" >
   <v>      -0.26930237      -0.83197944      -0.09471289 </v>
   <v>       0.06220230       0.22035489      -0.60345611 </v>
   <v>       0.26373890      -0.01354464       0.17624325 </v>
   <v>      -0.16356488      -0.35347297       1.70232722 </v>
   <v>       0.42212516       0.87759527      -0.52151925 </v>
   <v>       0.79103716       0.45491648       0.44173571 </v>
   <v>      -0.01839284       0.68928421      -1.64280114 </v>
   <v>       0.16725970       0.04709056      -0.22563430 </v>
   <v>      -0.10025964      -0.06298882       0.40841095 </v>
   <v>      -0.13060315      -0.19322040       1.39329393 </v>
   <v>       0.29565296      -0.34630031      -0.93056987 </v>
   <v>       0.01105400       0.13740524      -0.36309204 </v>
   <v>      -0.77975464      -0.07259354      -1.79571901 </v>
   <v>      -0.14959971       0.09022566      -0.13068778 </v>
   <v>      -0.65205060      -0.04320205       1.60909692 </v>
   <v>       0.23668832      -0.01263559       0.36435706 </v>
   <v>      -0.14785908       0.02518622      -0.61996813 </v>
   <v>      -0.06400239       0.43993058      -0.20248721 </v>
   <v>      -0.97127551       0.10702764       1.63188972 </v>
   <v>      -0.22049928       0.01990650      -1.06274680 </v>
   <v>      -0.24129566      -0.03409736      -0.24922311 </v>
   <v>      -0.11455903      -0.53643123      -0.25298808 </v>
   <v>      -0.86676833      -0.14699995       1.81531362 </v>
   <v>      -0.17061992      -0.01170194      -1.05461686 </v>
   <v>       0.07122756       0.04493290      -0.59946074 </v>
   <v>      -0.76587387      -0.18331863      -0.72046493 </v>
   <v>       0.03095020      -0.16539833      -0.61772440 </v>
   <v>       0.24595599       0.05576152       0.18441220 </v>
   <v>      -0.14444212       0.32949899       1.68939624 </v>
   <v>      -0.01170148       0.42594752       0.27503524 </v>
   <v>       0.78364504      -0.33188665       0.36098751 </v>
   <v>      -0.03821592      -0.68520068      -1.66373241 </v>
   <v>       0.17980568      -0.05994887      -0.19234099 </v>
   <v>       0.76069715      -0.04483442      -0.10005671 </v>
   <v>      -0.06366856       0.12554869       1.48022576 </v>
   <v>       0.34212001       0.43563192      -0.91108957 </v>
   <v>      -0.01029855      -0.12863945      -0.38757641 </v>
   <v>       0.21551790      -0.91685900       1.36633250 </v>
   <v>      -0.42611063      -0.46632242       0.39445107 </v>
   <v>       0.10859922       0.04831688      -1.00544830 </v>
   <v>       0.44091620       0.71606847      -0.42511594 </v>
   <v>       0.11968353      -0.37562704      -0.26578061 </v>
   <v>       0.02354070       0.28179729      -0.52078534 </v>
   <v>       0.35065373      -0.39481557      -1.14522493 </v>
   <v>      -0.08308789      -0.26862547       0.91032098 </v>
   <v>       0.06301009      -0.16160955      -0.02250000 </v>
   <v>      -0.15090120      -0.07353363      -0.00027131 </v>
   <v>      -0.06661448      -0.52660788       0.67120431 </v>
   <v>       0.20681165      -0.83634586       1.28206012 </v>
   <v>       0.23598382       0.25584680       1.07902794 </v>
   <v>      -0.27490687      -0.04473190      -0.13219521 </v>
   <v>       1.17505920       0.01581808       0.07368294 </v>
   <v>       0.10317699       0.00618084      -1.12888131 </v>
   <v>       0.82927246      -0.73930894      -0.42925720 </v>
   <v>      -0.26290015      -0.14829602      -0.07926775 </v>
   <v>      -1.11323090       0.04946794       0.13787807 </v>
   <v>      -0.49903723      -0.02425339       0.88678862 </v>
   <v>      -0.28851556      -0.04207785      -0.25510017 </v>
   <v>       0.05486162       0.03342824      -0.37806367 </v>
   <v>       0.66852236       0.33810778      -0.27020190 </v>
   <v>       0.04947724      -0.07984840      -1.26602175 </v>
   <v>      -0.12342934      -0.22911760       0.93437745 </v>
   <v>       0.26344150       0.91331208       1.39318004 </v>
   <v>      -0.86803306       0.23456491       0.55403178 </v>
   <v>       0.14677202      -0.07735087      -0.93137581 </v>
   <v>       0.03102556      -0.62641162      -0.44251690 </v>
   <v>      -0.00025271       0.45362288      -0.45970933 </v>
   <v>       0.05531488       0.17285871       0.06125689 </v>
   <v>      -0.08358777       0.25169017       0.87633194 </v>
   <v>       0.05312844       0.19618835      -0.03002620 </v>
   <v>       0.07688460       0.25629827      -0.64228927 </v>
   <v>       0.16592805       0.20243572      -1.31231126 </v>
   <v>      -0.00969442       0.52423947       0.64804594 </v>
   <v>       0.24316786       0.81365069       1.28331701 </v>
  </varray>
  <varray name="stress" >
   <v>     -26.14293353      -0.35165569       5.04553244 </v>
   <v>      -0.35165578     -25.91823351      -0.12362291 </v>
   <v>       5.04553260      -0.12362279     -36.63400448 </v>
  </varray>
  <energy>
   <i name="e_fr_energy">   -354.52410703 </i>
   <i name="e_wo_entrp">   -353.19991144 </i>
   <i name="e_0_energy">   -353.86200924 </i>
  </energy>
  <time name="totalsc">  106.44  106.77</time>
  <eigenvalues>
   <array>
    <dimension dim="1">band</dimension>
    <dimension dim="2">kpoint</dimension>
    <dimension dim="3">spin</dimension>
    <field>eigene</field>
    <field>occ</field>
    <set>
     <set comment="spin 1">
      <set comment="kpoint 1">
       <r>  -64.4261    1.0000 </r>
       <r>  -64.4104    1.0000 </r>
       <r>  -64.3941    1.0000 </r>
       <r>  -64.3738    1.0000 </r>
       <r>  -64.3708    1.0000 </r>
       <r>  -64.3529    1.0000 </r>
       <r>  -64.3426    1.0000 </r>
       <r>  -64.3424    1.0000 </r>
       <r>  -64.3301    1.0000 </r>
       <r>  -64.3171    1.0000 </r>
       <r>  -64.3169    1.0000 </r>
       <r>  -64.3099    1.0000 </r>
       <r>  -64.3090    1.0000 </r>
       <r>  -64.3083    1.0000 </r>
       <r>  -64.3030    1.0000 </r>
       <r>  -64.2928    1.0000 </r>
       <r>  -64.2913    1.0000 </r>
       <r>  -64.2890    1.0000 </r>
       <r>  -64.2796    1.0000 </r>
       <r>  -64.2768    1.0000 </r>
       <r>  -64.2644    1.0000 </r>
       <r>  -64.2630    1.0000 </r>
       <r>  -64.2620    1.0000 </r>
       <r>  -64.2599    1.0000 </r>
       <r>  -64.2573    1.0000 </r>
       <r>  -64.2544    1.0000 </r>
       <r>  -64.2530    1.0000 </r>
       <r>  -64.2434    1.0000 </r>
       <r>  -64.2396    1.0000 </r>
       <r>  -64.2168    1.0000 </r>
       <r>  -64.2095    1.0000 </r>
       <r>  -64.1803    1.0000 </r>
       <r>  -64.1784    1.0000 </r>
       <r>  -64.1414    1.0000 </r>
       <r>  -64.1400    1.0000 </r>
       <r>  -64.1314    1.0000 </r>
       <r>  -64.1227    1.0000 </r>
       <r>  -64.1100    1.0000 </r>
       <r>  -64.1045    1.0000 </r>
       <r>  -64.0862    1.0000 </r>
       <r>  -64.0836    1.0000 </r>
       <r>  -64.0832    1.0000 </r>
       <r>  -64.0712    1.0000 </r>
       <r>  -64.0660    1.0000 </r>
       <r>  -64.0624    1.0000 </r>
       <r>  -64.0584    1.0000 </r>
       <r>  -64.0563    1.0000 </r>
       <r>  -64.0442    1.0000 </r>
       <r>  -64.0123    1.0000 </r>
       <r>  -63.9765    1.0000 </r>
       <r>  -63.9695    1.0000 </r>
       <r>  -63.9670    1.0000 </r>
       <r>  -63.9654    1.0000 </r>
       <r>  -63.9396    1.0000 </r>
       <r>  -63.9374    1.0000 </r>
       <r>  -63.9243    1.0000 </r>
       <r>  -63.9212    1.0000 </r>
       <r>  -63.9159    1.0000 </r>
       <r>  -63.8914    1.0000 </r>
       <r>  -63.8799    1.0000 </r>
       <r>  -63.8791    1.0000 </r>
       <r>  -63.8462    1.0000 </r>
       <r>  -63.8349    1.0000 </r>
       <r>  -63.8334    1.0000 </r>
       <r>  -63.8102    1.0000 </r>
       <r>  -63.7886    1.0000 </r>
       <r>  -63.7094    1.0000 </r>
       <r>  -63.7079    1.0000 </r>
       <r>  -63.6992    1.0000 </r>
       <r>  -63.6915    1.0000 </r>
       <r>  -63.6779    1.0000 </r>
       <r>  -63.6717    1.0000 </r>
       <r>  -63.6716    1.0000 </r>
       <r>  -63.6701    1.0000 </r>
       <r>  -63.6489    1.0000 </r>
       <r>  -63.6432    1.0000 </r>
       <r>  -63.6366    1.0000 </r>
       <r>  -63.6362    1.0000 </r>
       <r>  -63.6150    1.0000 </r>
       <r>  -63.6070    1.0000 </r>
       <r>  -63.6046    1.0000 </r>
       <r>  -63.6021    1.0000 </r>
       <r>  -63.5999    1.0000 </r>
       <r>  -63.5941    1.0000 </r>
       <r>  -63.5687    1.0000 </r>
       <r>  -63.5617    1.0000 </r>
       <r>  -63.5567    1.0000 </r>
       <r>  -63.5550    1.0000 </r>
       <r>  -63.5442    1.0000 </r>
       <r>  -63.5236    1.0000 </r>
       <r>  -63.4419    1.0000 </r>
       <r>  -63.4302    1.0000 </r>
       <r>  -63.4264    1.0000 </r>
       <r>  -63.4107    1.0000 </r>
       <r>  -63.3887    1.0000 </r>
       <r>  -63.3461    1.0000 </r>
       <r>  -63.3179    1.0000 </r>
       <r>  -63.3039    1.0000 </r>
       <r>  -63.2802    1.0000 </r>
       <r>  -63.2625    1.0000 </r>
       <r>  -63.2135    1.0000 </r>
       <r>  -63.2057    1.0000 </r>
       <r>  -63.2004    1.0000 </r>
       <r>  -63.1577    1.0000 </r>
       <r>  -63.1509    1.0000 </r>
       <r>  -63.1381    1.0000 </r>
       <r>  -63.0565    1.0000 </r>
       <r>  -63.0189    1.0000 </r>
       <r>  -62.9945    1.0000 </r>
       <r>  -62.9935    1.0000 </r>
       <r>  -62.9712    1.0000 </r>
       <r>  -15.2537    1.0000 </r>
       <r>  -14.9907    1.0000 </r>
       <r>  -14.9393    1.0000 </r>
       <r>  -14.5692    1.0000 </r>
       <r>  -14.5017    1.0000 </r>
       <r>  -14.4215    1.0000 </r>
       <r>  -14.2613    1.0000 </r>
       <r>  -14.1240    1.0000 </r>
       <r>  -14.1027    1.0000 </r>
       <r>  -14.0700    1.0000 </r>
       <r>  -14.0530    1.0000 </r>
       <r>  -13.9407    1.0000 </r>
       <r>  -13.8239    1.0000 </r>
       <r>  -13.7716    1.0000 </r>
       <r>  -13.7553    1.0000 </r>
       <r>  -13.6954    1.0000 </r>
       <r>  -13.6719    1.0000 </r>
       <r>  -13.6207    1.0000 </r>
       <r>  -13.5428    1.0000 </r>
       <r>  -13.2575    1.0000 </r>
       <r>  -13.1888    1.0000 </r>
       <r>  -13.1193    1.0000 </r>
       <r>  -12.9599    1.0000 </r>
       <r>  -12.9086    1.0000 </r>
       <r>  -12.8746    1.0000 </r>
       <r>  -12.7562    1.0000 </r>
       <r>  -12.6968    1.0000 </r>
       <r>  -12.6710    1.0000 </r>
       <r>  -12.5623    1.0000 </r>
       <r>  -12.5289    1.0000 </r>
       <r>  -12.4557    1.0000 </r>
       <r>  -12.4482    1.0000 </r>
       <r>  -12.4057    1.0000 </r>
       <r>  -12.1267    1.0000 </r>
       <r>  -12.1098    1.0000 </r>
       <r>  -12.0016    1.0000 </r>
       <r>  -11.7294    1.0000 </r>
       <r>   -7.0196    1.0000 </r>
       <r>   -6.9403    1.0000 </r>
       <r>   -6.9242    1.0000 </r>
       <r>   -6.9094    1.0000 </r>
       <r>   -6.8088    1.0000 </r>
       <r>   -6.6766    1.0000 </r>
       <r>   -6.4737    1.0000 </r>
       <r>   -6.4337    1.0000 </r>
       <r>   -6.4053    1.0000 </r>
       <r>   -6.3839    1.0000 </r>
       <r>   -6.3564    1.0000 </r>
       <r>   -6.3346    1.0000 </r>
       <r>   -6.2746    1.0000 </r>
       <r>   -6.2150    1.0000 </r>
       <r>   -6.0995    1.0000 </r>
       <r>   -6.0859    1.0000 </r>
       <r>   -6.0314    1.0000 </r>
       <r>   -6.0182    1.0000 </r>
       <r>   -5.9661    1.0000 </r>
       <r>   -5.9508    1.0000 </r>
       <r>   -5.9099    1.0000 </r>
       <r>   -5.8646    1.0000 </r>
       <r>   -5.7205    1.0000 </r>
       <r>   -5.6931    1.0000 </r>
       <r>   -5.6620    1.0000 </r>
       <r>   -5.6470    1.0000 </r>
       <r>   -5.6361    1.0000 </r>
       <r>   -5.6019    1.0000 </r>
       <r>   -5.5789    1.0000 </r>
       <r>   -5.5301    1.0000 </r>
       <r>   -5.4590    1.0000 </r>
       <r>   -5.4369    1.0000 </r>
       <r>   -5.3861    1.0000 </r>
       <r>   -5.3587    1.0000 </r>
       <r>   -5.3389    1.0000 </r>
       <r>   -5.2996    1.0000 </r>
       <r>   -5.1703    1.0000 </r>
       <r>   -5.1252    1.0000 </r>
       <r>   -5.1227    1.0000 </r>
       <r>   -5.0774    1.0000 </r>
       <r>   -4.9830    1.0000 </r>
       <r>   -4.9335    1.0000 </r>
       <r>   -4.9099    1.0000 </r>
       <r>   -4.8516    1.0000 </r>
       <r>   -4.8100    1.0000 </r>
       <r>   -4.7866    1.0000 </r>
       <r>   -4.7543    1.0000 </r>
       <r>   -4.7123    1.0000 </r>
       <r>   -4.6845    1.0000 </r>
       <r>   -4.6157    1.0000 </r>
       <r>   -4.5795    1.0000 </r>
       <r>   -4.5560    1.0000 </r>
       <r>   -4.5480    1.0000 </r>
       <r>   -4.5087    1.0000 </r>
       <r>   -4.4891    1.0000 </r>
       <r>   -4.4377    1.0000 </r>
       <r>   -4.3801    1.0000 </r>
       <r>   -4.3644    1.0000 </r>
       <r>   -4.2896    1.0000 </r>
       <r>   -4.2670    1.0000 </r>
       <r>   -4.2228    1.0000 </r>
       <r>   -4.1797    1.0000 </r>
       <r>   -4.1173    1.0000 </r>
       <r>   -4.0915    1.0000 </r>
       <r>   -4.0697    1.0000 </r>
       <r>   -4.0516    1.0000 </r>
       <r>   -4.0229    1.0000 </r>
       <r>   -3.9878    1.0000 </r>
       <r>   -3.9735    1.0000 </r>
       <r>   -3.9339    1.0000 </r>
       <r>   -3.9256    1.0000 </r>
       <r>   -3.9172    1.0000 </r>
       <r>   -3.8954    1.0000 </r>
       <r>   -3.8702    1.0000 </r>
       <r>   -3.8375    1.0000 </r>
       <r>   -3.8165    1.0000 </r>
       <r>   -3.7665    1.0000 </r>
       <r>   -3.7542    1.0000 </r>
       <r>   -3.7105    1.0000 </r>
       <r>   -3.6429    1.0000 </r>
       <r>   -3.6127    1.0000 </r>
       <r>   -3.5878    1.0000 </r>
       <r>   -3.5308    1.0000 </r>
       <r>   -3.4816    1.0000 </r>
       <r>   -3.4729    1.0000 </r>
       <r>   -3.4231    1.0000 </r>
       <r>   -3.3945    1.0000 </r>
       <r>   -3.3775    1.0000 </r>
       <r>   -3.3487    1.0000 </r>
       <r>   -3.3160    1.0000 </r>
       <r>   -3.3075    1.0000 </r>
       <r>   -3.2799    1.0000 </r>
       <r>   -3.2403    1.0000 </r>
       <r>   -3.2307    1.0000 </r>
       <r>   -3.1586    1.0000 </r>
       <r>   -3.1430    1.0000 </r>
       <r>   -3.1211    1.0000 </r>
       <r>   -3.1025    1.0000 </r>
       <r>   -3.0834    1.0000 </r>
       <r>   -3.0425    1.0000 </r>
       <r>   -3.0154    1.0000 </r>
       <r>   -2.9954    1.0000 </r>
       <r>   -2.9347    1.0000 </r>
       <r>   -2.8708    1.0000 </r>
       <r>   -2.8587    1.0000 </r>
       <r>   -2.8251    1.0000 </r>
       <r>   -2.8052    1.0000 </r>
       <r>   -2.7847    1.0000 </r>
       <r>   -2.7442    1.0000 </r>
       <r>   -2.7170    1.0000 </r>
       <r>   -2.6670    1.0000 </r>
       <r>   -2.6447    1.0000 </r>
       <r>   -2.5867    1.0000 </r>
       <r>   -2.5790    1.0000 </r>
       <r>   -2.5585    1.0000 </r>
       <r>   -2.5119    1.0000 </r>
       <r>   -2.5037    1.0000 </r>
       <r>   -2.4828    1.0000 </r>
       <r>   -2.4553    1.0000 </r>
       <r>   -2.4427    1.0000 </r>
       <r>   -2.4260    1.0000 </r>
       <r>   -2.4067    1.0000 </r>
       <r>   -2.3901    1.0000 </r>
       <r>   -2.3819    1.0000 </r>
       <r>   -2.3487    1.0000 </r>
       <r>   -2.3341    1.0000 </r>
       <r>   -2.3209    1.0000 </r>
       <r>   -2.3009    1.0000 </r>
       <r>   -2.2911    1.0000 </r>
       <r>   -2.2659    1.0000 </r>
       <r>   -2.2580    1.0000 </r>
       <r>   -2.2261    1.0000 </r>
       <r>   -2.2209    1.0000 </r>
       <r>   -2.2066    1.0000 </r>
       <r>   -2.2053    1.0000 </r>
       <r>   -2.1902    1.0000 </r>
       <r>   -2.1770    1.0000 </r>
       <r>   -2.1545    1.0000 </r>
       <r>   -2.1367    1.0000 </r>
       <r>   -2.1293    1.0000 </r>
       <r>   -2.1117    1.0000 </r>
       <r>   -2.0962    1.0000 </r>
       <r>   -2.0741    1.0000 </r>
       <r>   -2.0673    1.0000 </r>
       <r>   -2.0411    1.0000 </r>
       <r>   -2.0374    1.0000 </r>
       <r>   -2.0224    1.0000 </r>
       <r>   -2.0163    1.0000 </r>
       <r>   -2.0043    1.0000 </r>
       <r>   -1.9992    1.0000 </r>
       <r>   -1.9878    1.0000 </r>
       <r>   -1.9793    1.0000 </r>
       <r>   -1.9429    1.0000 </r>
       <r>   -1.9342    1.0000 </r>
       <r>   -1.9180    1.0000 </r>
       <r>   -1.9087    1.0000 </r>
       <r>   -1.8969    1.0000 </r>
       <r>   -1.8672    1.0000 </r>
       <r>   -1.8640    1.0000 </r>
       <r>   -1.8491    1.0000 </r>
       <r>   -1.8347    1.0000 </r>
       <r>   -1.8310    1.0000 </r>
       <r>   -1.8211    1.0000 </r>
       <r>   -1.8177    1.0000 </r>
       <r>   -1.8054    1.0000 </r>
       <r>   -1.7882    1.0000 </r>
       <r>   -1.7788    1.0000 </r>
       <r>   -1.7581    1.0000 </r>
       <r>   -1.7441    1.0000 </r>
       <r>   -1.7393    1.0000 </r>
       <r>   -1.7220    1.0000 </r>
       <r>   -1.7094    1.0000 </r>
       <r>   -1.7051    1.0000 </r>
       <r>   -1.6952    1.0000 </r>
       <r>   -1.6896    1.0000 </r>
       <r>   -1.6819    1.0000 </r>
       <r>   -1.6633    1.0000 </r>
       <r>   -1.6473    1.0000 </r>
       <r>   -1.6303    1.0000 </r>
       <r>   -1.6060    1.0000 </r>
       <r>   -1.5979    1.0000 </r>
       <r>   -1.5835    1.0000 </r>
       <r>   -1.5749    1.0000 </r>
       <r>   -1.5652    1.0000 </r>
       <r>   -1.5600    1.0000 </r>
       <r>   -1.5546    1.0000 </r>
       <r>   -1.5400    1.0000 </r>
       <r>   -1.5186    1.0000 </r>
       <r>   -1.5112    1.0000 </r>
       <r>   -1.4949    1.0000 </r>
       <r>   -1.4816    1.0000 </r>
       <r>   -1.4701    1.0000 </r>
       <r>   -1.4588    1.0000 </r>
       <r>   -1.4352    1.0000 </r>
       <r>   -1.4273    1.0000 </r>
       <r>   -1.4224    1.0000 </r>
       <r>   -1.4121    1.0000 </r>
       <r>   -1.4014    1.0000 </r>
       <r>   -1.3907    1.0000 </r>
       <r>   -1.3754    1.0000 </r>
       <r>   -1.3518    1.0000 </r>
       <r>   -1.3389    1.0000 </r>
       <r>   -1.3310    1.0000 </r>
       <r>   -1.3147    1.0000 </r>
       <r>   -1.3000    1.0000 </r>
       <r>   -1.2941    1.0000 </r>
       <r>   -1.2655    1.0000 </r>
       <r>   -1.2570    1.0000 </r>
       <r>   -1.2547    1.0000 </r>
       <r>   -1.2406    1.0000 </r>
       <r>   -1.2337    1.0000 </r>
       <r>   -1.2119    1.0000 </r>
       <r>   -1.2038    1.0000 </r>
       <r>   -1.1893    1.0000 </r>
       <r>   -1.1810    1.0000 </r>
       <r>   -1.1761    1.0000 </r>
       <r>   -1.1500    1.0000 </r>
       <r>   -1.1318    1.0000 </r>
       <r>   -1.1243    1.0000 </r>
       <r>   -1.1161    1.0000 </r>
       <r>   -1.0880    1.0000 </r>
       <r>   -1.0770    1.0000 </r>
       <r>   -1.0398    1.0000 </r>
       <r>   -1.0228    1.0000 </r>
       <r>   -1.0137    1.0000 </r>
       <r>   -0.9847    1.0000 </r>
       <r>   -0.9750    1.0000 </r>
       <r>   -0.9634    1.0000 </r>
       <r>   -0.9584    1.0000 </r>
       <r>   -0.9442    1.0000 </r>
       <r>   -0.9188    1.0000 </r>
       <r>   -0.9163    1.0000 </r>
       <r>   -0.8875    1.0000 </r>
       <r>   -0.8801    1.0000 </r>
       <r>   -0.8671    1.0000 </r>
       <r>   -0.8578    1.0000 </r>
       <r>   -0.8259    0.9999 </r>
       <r>   -0.7902    0.9998 </r>
       <r>   -0.7739    0.9997 </r>
       <r>   -0.7437    0.9993 </r>
       <r>   -0.7204    0.9988 </r>
       <r>   -0.6989    0.9981 </r>
       <r>   -0.6679    0.9962 </r>
       <r>   -0.6665    0.9961 </r>
       <r>   -0.6389    0.9932 </r>
       <r>   -0.5975    0.9852 </r>
       <r>   -0.5819    0.9805 </r>
       <r>   -0.5628    0.9732 </r>
       <r>   -0.5424    0.9629 </r>
       <r>   -0.5319    0.9565 </r>
       <r>   -0.5164    0.9454 </r>
       <r>   -0.4861    0.9174 </r>
       <r>   -0.4674    0.8953 </r>
       <r>   -0.4666    0.8943 </r>
       <r>   -0.4496    0.8707 </r>
       <r>   -0.4137    0.8094 </r>
       <r>   -0.3836    0.7461 </r>
       <r>   -0.3419    0.6435 </r>
       <r>   -0.3290    0.6089 </r>
       <r>   -0.3014    0.5323 </r>
       <r>   -0.2384    0.3579 </r>
       <r>   -0.2188    0.3075 </r>
       <r>   -0.2020    0.2670 </r>
       <r>   -0.1422    0.1482 </r>
       <r>   -0.1168    0.1105 </r>
       <r>   -0.0451    0.0417 </r>
       <r>   -0.0310    0.0336 </r>
       <r>    0.0213    0.0139 </r>
       <r>    0.0352    0.0108 </r>
       <r>    0.0768    0.0048 </r>
       <r>    0.1566    0.0008 </r>
       <r>    0.1987    0.0003 </r>
       <r>    0.2120    0.0002 </r>
       <r>    0.2249    0.0001 </r>
       <r>    0.3050    0.0000 </r>
       <r>    0.3170    0.0000 </r>
       <r>    0.3403    0.0000 </r>
       <r>    0.3525    0.0000 </r>
       <r>    0.3911    0.0000 </r>
       <r>    0.4217    0.0000 </r>
       <r>    0.4404    0.0000 </r>
       <r>    0.4821    0.0000 </r>
       <r>    0.5251    0.0000 </r>
       <r>    0.5867    0.0000 </r>
       <r>    0.6281    0.0000 </r>
       <r>    0.6935    0.0000 </r>
       <r>    0.7166    0.0000 </r>
       <r>    0.7216    0.0000 </r>
       <r>    0.7591    0.0000 </r>
       <r>    0.7767    0.0000 </r>
       <r>    0.8216    0.0000 </r>
       <r>    0.8517    0.0000 </r>
       <r>    0.8678    0.0000 </r>
       <r>    0.9230    0.0000 </r>
       <r>    0.9535    0.0000 </r>
       <r>    0.9715    0.0000 </r>
       <r>    1.0124    0.0000 </r>
       <r>    1.0309    0.0000 </r>
       <r>    1.0421    0.0000 </r>
       <r>    1.1741    0.0000 </r>
       <r>    1.9803    0.0000 </r>
       <r>    2.1037    0.0000 </r>
       <r>    2.4195    0.0000 </r>
       <r>    2.5391    0.0000 </r>
       <r>    2.7680    0.0000 </r>
       <r>    2.9652    0.0000 </r>
       <r>    3.3023    0.0000 </r>
       <r>    3.3963    0.0000 </r>
       <r>    3.4884    0.0000 </r>
       <r>    3.5182    0.0000 </r>
       <r>    3.5873    0.0000 </r>
       <r>    3.7868    0.0000 </r>
       <r>    4.0647    0.0000 </r>
       <r>    4.0870    0.0000 </r>
       <r>    4.1383    0.0000 </r>
       <r>    4.1628    0.0000 </r>
       <r>    4.2545    0.0000 </r>
       <r>    4.3259    0.0000 </r>
       <r>    4.3738    0.0000 </r>
       <r>    4.3929    0.0000 </r>
       <r>    4.4472    0.0000 </r>
       <r>    4.6129    0.0000 </r>
       <r>    4.7015    0.0000 </r>
       <r>    4.7141    0.0000 </r>
       <r>    4.7538    0.0000 </r>
       <r>    4.7686    0.0000 </r>
       <r>    4.8865    0.0000 </r>
       <r>    4.9267    0.0000 </r>
       <r>    4.9921    0.0000 </r>
       <r>    5.0098    0.0000 </r>
       <r>    5.1186    0.0000 </r>
       <r>    5.2014    0.0000 </r>
       <r>    5.2333    0.0000 </r>
       <r>    5.2848    0.0000 </r>
       <r>    5.3589    0.0000 </r>
       <r>    5.3973    0.0000 </r>
       <r>    5.4274    0.0000 </r>
       <r>    5.4710    0.0000 </r>
       <r>    5.5302    0.0000 </r>
       <r>    5.5502    0.0000 </r>
      </set>
     </set>
    </set>
   </array>
  </eigenvalues>
  <separator name="orbital magnetization" >
   <v name="MAGDIPOLOUT">      0.00000000      0.00000000      0.00000000</v>
  </separator>
  <dos>
   <i name="efermi">     -0.28989766 </i>
   <total>
    <array>
     <dimension dim="1">gridpoints</dimension>
     <dimension dim="2">spin</dimension>
     <field>energy</field>
     <field>total</field>
     <field>integrated</field>
     <set>
      <set comment="spin 1">
       <r>   -67.9249     0.0000     0.0000 </r>
       <r>   -67.6683     0.0000     0.0000 </r>
       <r>   -67.4118     0.0000     0.0000 </r>
       <r>   -67.1552     0.0000     0.0000 </r>
       <r>   -66.8986     0.0000     0.0000 </r>
       <r>   -66.6420     0.0000     0.0000 </r>
       <r>   -66.3854     0.0000     0.0000 </r>
       <r>   -66.1289     0.0000     0.0000 </r>
       <r>   -65.8723     0.0000     0.0000 </r>
       <r>   -65.6157     0.0000     0.0000 </r>
       <r>   -65.3591     0.0000     0.0000 </r>
       <r>   -65.1025     0.0000     0.0000 </r>
       <r>   -64.8460     0.0436     0.0112 </r>
       <r>   -64.5894     7.1441     1.8442 </r>
       <r>   -64.3328   101.8137    27.9676 </r>
       <r>   -64.0762   210.5127    81.9809 </r>
       <r>   -63.8196   169.1915   125.3920 </r>
       <r>   -63.5631   154.6667   165.0764 </r>
       <r>   -63.3065   113.9488   194.3134 </r>
       <r>   -63.0499    73.2705   213.1131 </r>
       <r>   -62.7933    31.7412   221.2573 </r>
       <r>   -62.5367     2.8733   221.9945 </r>
       <r>   -62.2802     0.0215   222.0000 </r>
       <r>   -62.0236     0.0000   222.0000 </r>
       <r>   -61.7670     0.0000   222.0000 </r>
       <r>   -61.5104     0.0000   222.0000 </r>
       <r>   -61.2538     0.0000   222.0000 </r>
       <r>   -60.9973     0.0000   222.0000 </r>
       <r>   -60.7407     0.0000   222.0000 </r>
       <r>   -60.4841     0.0000   222.0000 </r>
       <r>   -60.2275     0.0000   222.0000 </r>
       <r>   -59.9709     0.0000   222.0000 </r>
       <r>   -59.7144     0.0000   222.0000 </r>
       <r>   -59.4578     0.0000   222.0000 </r>
       <r>   -59.2012     0.0000   222.0000 </r>
       <r>   -58.9446     0.0000   222.0000 </r>
       <r>   -58.6880     0.0000   222.0000 </r>
       <r>   -58.4315     0.0000   222.0000 </r>
       <r>   -58.1749     0.0000   222.0000 </r>
       <r>   -57.9183     0.0000   222.0000 </r>
       <r>   -57.6617     0.0000   222.0000 </r>
       <r>   -57.4051     0.0000   222.0000 </r>
       <r>   -57.1486     0.0000   222.0000 </r>
       <r>   -56.8920     0.0000   222.0000 </r>
       <r>   -56.6354     0.0000   222.0000 </r>
       <r>   -56.3788     0.0000   222.0000 </r>
       <r>   -56.1223     0.0000   222.0000 </r>
       <r>   -55.8657     0.0000   222.0000 </r>
       <r>   -55.6091     0.0000   222.0000 </r>
       <r>   -55.3525     0.0000   222.0000 </r>
       <r>   -55.0959     0.0000   222.0000 </r>
       <r>   -54.8394     0.0000   222.0000 </r>
       <r>   -54.5828     0.0000   222.0000 </r>
       <r>   -54.3262     0.0000   222.0000 </r>
       <r>   -54.0696     0.0000   222.0000 </r>
       <r>   -53.8130     0.0000   222.0000 </r>
       <r>   -53.5565     0.0000   222.0000 </r>
       <r>   -53.2999     0.0000   222.0000 </r>
       <r>   -53.0433     0.0000   222.0000 </r>
       <r>   -52.7867     0.0000   222.0000 </r>
       <r>   -52.5301     0.0000   222.0000 </r>
       <r>   -52.2736     0.0000   222.0000 </r>
       <r>   -52.0170     0.0000   222.0000 </r>
       <r>   -51.7604     0.0000   222.0000 </r>
       <r>   -51.5038     0.0000   222.0000 </r>
       <r>   -51.2472     0.0000   222.0000 </r>
       <r>   -50.9907     0.0000   222.0000 </r>
       <r>   -50.7341     0.0000   222.0000 </r>
       <r>   -50.4775     0.0000   222.0000 </r>
       <r>   -50.2209     0.0000   222.0000 </r>
       <r>   -49.9643     0.0000   222.0000 </r>
       <r>   -49.7078     0.0000   222.0000 </r>
       <r>   -49.4512     0.0000   222.0000 </r>
       <r>   -49.1946     0.0000   222.0000 </r>
       <r>   -48.9380     0.0000   222.0000 </r>
       <r>   -48.6814     0.0000   222.0000 </r>
       <r>   -48.4249     0.0000   222.0000 </r>
       <r>   -48.1683     0.0000   222.0000 </r>
       <r>   -47.9117     0.0000   222.0000 </r>
       <r>   -47.6551     0.0000   222.0000 </r>
       <r>   -47.3985     0.0000   222.0000 </r>
       <r>   -47.1420     0.0000   222.0000 </r>
       <r>   -46.8854     0.0000   222.0000 </r>
       <r>   -46.6288     0.0000   222.0000 </r>
       <r>   -46.3722     0.0000   222.0000 </r>
       <r>   -46.1156     0.0000   222.0000 </r>
       <r>   -45.8591     0.0000   222.0000 </r>
       <r>   -45.6025     0.0000   222.0000 </r>
       <r>   -45.3459     0.0000   222.0000 </r>
       <r>   -45.0893     0.0000   222.0000 </r>
       <r>   -44.8327     0.0000   222.0000 </r>
       <r>   -44.5762     0.0000   222.0000 </r>
       <r>   -44.3196     0.0000   222.0000 </r>
       <r>   -44.0630     0.0000   222.0000 </r>
       <r>   -43.8064     0.0000   222.0000 </r>
       <r>   -43.5498     0.0000   222.0000 </r>
       <r>   -43.2933     0.0000   222.0000 </r>
       <r>   -43.0367     0.0000   222.0000 </r>
       <r>   -42.7801     0.0000   222.0000 </r>
       <r>   -42.5235     0.0000   222.0000 </r>
       <r>   -42.2669     0.0000   222.0000 </r>
       <r>   -42.0104     0.0000   222.0000 </r>
       <r>   -41.7538     0.0000   222.0000 </r>
       <r>   -41.4972     0.0000   222.0000 </r>
       <r>   -41.2406     0.0000   222.0000 </r>
       <r>   -40.9840     0.0000   222.0000 </r>
       <r>   -40.7275     0.0000   222.0000 </r>
       <r>   -40.4709     0.0000   222.0000 </r>
       <r>   -40.2143     0.0000   222.0000 </r>
       <r>   -39.9577     0.0000   222.0000 </r>
       <r>   -39.7011     0.0000   222.0000 </r>
       <r>   -39.4446     0.0000   222.0000 </r>
       <r>   -39.1880     0.0000   222.0000 </r>
       <r>   -38.9314     0.0000   222.0000 </r>
       <r>   -38.6748     0.0000   222.0000 </r>
       <r>   -38.4182     0.0000   222.0000 </r>
       <r>   -38.1617     0.0000   222.0000 </r>
       <r>   -37.9051     0.0000   222.0000 </r>
       <r>   -37.6485     0.0000   222.0000 </r>
       <r>   -37.3919     0.0000   222.0000 </r>
       <r>   -37.1353     0.0000   222.0000 </r>
       <r>   -36.8788     0.0000   222.0000 </r>
       <r>   -36.6222     0.0000   222.0000 </r>
       <r>   -36.3656     0.0000   222.0000 </r>
       <r>   -36.1090     0.0000   222.0000 </r>
       <r>   -35.8524     0.0000   222.0000 </r>
       <r>   -35.5959     0.0000   222.0000 </r>
       <r>   -35.3393     0.0000   222.0000 </r>
       <r>   -35.0827     0.0000   222.0000 </r>
       <r>   -34.8261     0.0000   222.0000 </r>
       <r>   -34.5695     0.0000   222.0000 </r>
       <r>   -34.3130     0.0000   222.0000 </r>
       <r>   -34.0564     0.0000   222.0000 </r>
       <r>   -33.7998     0.0000   222.0000 </r>
       <r>   -33.5432     0.0000   222.0000 </r>
       <r>   -33.2866     0.0000   222.0000 </r>
       <r>   -33.0301     0.0000   222.0000 </r>
       <r>   -32.7735     0.0000   222.0000 </r>
       <r>   -32.5169     0.0000   222.0000 </r>
       <r>   -32.2603     0.0000   222.0000 </r>
       <r>   -32.0037     0.0000   222.0000 </r>
       <r>   -31.7472     0.0000   222.0000 </r>
       <r>   -31.4906     0.0000   222.0000 </r>
       <r>   -31.2340     0.0000   222.0000 </r>
       <r>   -30.9774     0.0000   222.0000 </r>
       <r>   -30.7208     0.0000   222.0000 </r>
       <r>   -30.4643     0.0000   222.0000 </r>
       <r>   -30.2077     0.0000   222.0000 </r>
       <r>   -29.9511     0.0000   222.0000 </r>
       <r>   -29.6945     0.0000   222.0000 </r>
       <r>   -29.4379     0.0000   222.0000 </r>
       <r>   -29.1814     0.0000   222.0000 </r>
       <r>   -28.9248     0.0000   222.0000 </r>
       <r>   -28.6682     0.0000   222.0000 </r>
       <r>   -28.4116     0.0000   222.0000 </r>
       <r>   -28.1550     0.0000   222.0000 </r>
       <r>   -27.8985     0.0000   222.0000 </r>
       <r>   -27.6419     0.0000   222.0000 </r>
       <r>   -27.3853     0.0000   222.0000 </r>
       <r>   -27.1287     0.0000   222.0000 </r>
       <r>   -26.8721     0.0000   222.0000 </r>
       <r>   -26.6156     0.0000   222.0000 </r>
       <r>   -26.3590     0.0000   222.0000 </r>
       <r>   -26.1024     0.0000   222.0000 </r>
       <r>   -25.8458     0.0000   222.0000 </r>
       <r>   -25.5892     0.0000   222.0000 </r>
       <r>   -25.3327     0.0000   222.0000 </r>
       <r>   -25.0761     0.0000   222.0000 </r>
       <r>   -24.8195     0.0000   222.0000 </r>
       <r>   -24.5629     0.0000   222.0000 </r>
       <r>   -24.3063     0.0000   222.0000 </r>
       <r>   -24.0498     0.0000   222.0000 </r>
       <r>   -23.7932     0.0000   222.0000 </r>
       <r>   -23.5366     0.0000   222.0000 </r>
       <r>   -23.2800     0.0000   222.0000 </r>
       <r>   -23.0234     0.0000   222.0000 </r>
       <r>   -22.7669     0.0000   222.0000 </r>
       <r>   -22.5103     0.0000   222.0000 </r>
       <r>   -22.2537     0.0000   222.0000 </r>
       <r>   -21.9971     0.0000   222.0000 </r>
       <r>   -21.7405     0.0000   222.0000 </r>
       <r>   -21.4840     0.0000   222.0000 </r>
       <r>   -21.2274     0.0000   222.0000 </r>
       <r>   -20.9708     0.0000   222.0000 </r>
       <r>   -20.7142     0.0000   222.0000 </r>
       <r>   -20.4576     0.0000   222.0000 </r>
       <r>   -20.2011     0.0000   222.0000 </r>
       <r>   -19.9445     0.0000   222.0000 </r>
       <r>   -19.6879     0.0000   222.0000 </r>
       <r>   -19.4313     0.0000   222.0000 </r>
       <r>   -19.1747     0.0000   222.0000 </r>
       <r>   -18.9182     0.0000   222.0000 </r>
       <r>   -18.6616     0.0000   222.0000 </r>
       <r>   -18.4050     0.0000   222.0000 </r>
       <r>   -18.1484     0.0000   222.0000 </r>
       <r>   -17.8919     0.0000   222.0000 </r>
       <r>   -17.6353     0.0000   222.0000 </r>
       <r>   -17.3787     0.0000   222.0000 </r>
       <r>   -17.1221     0.0000   222.0000 </r>
       <r>   -16.8655     0.0000   222.0000 </r>
       <r>   -16.6090     0.0000   222.0000 </r>
       <r>   -16.3524     0.0000   222.0000 </r>
       <r>   -16.0958     0.0000   222.0000 </r>
       <r>   -15.8392     0.0001   222.0000 </r>
       <r>   -15.5826     0.0780   222.0200 </r>
       <r>   -15.3261     2.3880   222.6328 </r>
       <r>   -15.0695     8.2236   224.7428 </r>
       <r>   -14.8129    10.8891   227.5367 </r>
       <r>   -14.5563    10.1674   230.1455 </r>
       <r>   -14.2997    17.9927   234.7620 </r>
       <r>   -14.0432    26.4364   241.5451 </r>
       <r>   -13.7866    32.1239   249.7874 </r>
       <r>   -13.5300    31.3307   257.8263 </r>
       <r>   -13.2734    15.0892   261.6978 </r>
       <r>   -13.0168    19.7675   266.7698 </r>
       <r>   -12.7603    26.6522   273.6082 </r>
       <r>   -12.5037    32.3052   281.8971 </r>
       <r>   -12.2471    24.4673   288.1749 </r>
       <r>   -11.9905    16.4151   292.3867 </r>
       <r>   -11.7339     9.8052   294.9025 </r>
       <r>   -11.4774     3.9853   295.9250 </r>
       <r>   -11.2208     0.2909   295.9997 </r>
       <r>   -10.9642     0.0013   296.0000 </r>
       <r>   -10.7076     0.0000   296.0000 </r>
       <r>   -10.4510     0.0000   296.0000 </r>
       <r>   -10.1945     0.0000   296.0000 </r>
       <r>    -9.9379     0.0000   296.0000 </r>
       <r>    -9.6813     0.0000   296.0000 </r>
       <r>    -9.4247     0.0000   296.0000 </r>
       <r>    -9.1681     0.0000   296.0000 </r>
       <r>    -8.9116     0.0000   296.0000 </r>
       <r>    -8.6550     0.0000   296.0000 </r>
       <r>    -8.3984     0.0000   296.0000 </r>
       <r>    -8.1418     0.0000   296.0000 </r>
       <r>    -7.8852     0.0000   296.0000 </r>
       <r>    -7.6287     0.0001   296.0000 </r>
       <r>    -7.3721     0.0687   296.0176 </r>
       <r>    -7.1155     4.0875   297.0664 </r>
       <r>    -6.8589    22.1345   302.7457 </r>
       <r>    -6.6023    21.3867   308.2331 </r>
       <r>    -6.3458    33.3724   316.7958 </r>
       <r>    -6.0892    42.1082   327.5999 </r>
       <r>    -5.8326    44.0956   338.9139 </r>
       <r>    -5.5760    48.9519   351.4740 </r>
       <r>    -5.3194    49.8647   364.2683 </r>
       <r>    -5.0629    40.3043   374.6096 </r>
       <r>    -4.8063    44.8525   386.1178 </r>
       <r>    -4.5497    54.2472   400.0365 </r>
       <r>    -4.2931    52.9811   413.6304 </r>
       <r>    -4.0365    59.3743   428.8646 </r>
       <r>    -3.7800    72.3989   447.4408 </r>
       <r>    -3.5234    57.9242   462.3029 </r>
       <r>    -3.2668    65.2701   479.0499 </r>
       <r>    -3.0102    67.3459   496.3295 </r>
       <r>    -2.7536    61.9623   512.2278 </r>
       <r>    -2.4971    75.0225   531.4771 </r>
       <r>    -2.2405   111.7288   560.1445 </r>
       <r>    -1.9839   140.6279   596.2268 </r>
       <r>    -1.7273   158.5527   636.9082 </r>
       <r>    -1.4707   162.5703   678.6204 </r>
       <r>    -1.2142   153.7678   718.0742 </r>
       <r>    -0.9576   131.7442   751.8771 </r>
       <r>    -0.7010   105.3846   778.9167 </r>
       <r>    -0.4444    91.3374   802.3520 </r>
       <r>    -0.1878    69.8123   820.2644 </r>
       <r>     0.0687    52.8553   833.8260 </r>
       <r>     0.3253    56.5889   848.3456 </r>
       <r>     0.5819    57.7383   863.1601 </r>
       <r>     0.8385    58.3340   878.1274 </r>
       <r>     1.0951    51.8303   891.4260 </r>
       <r>     1.3516    16.6829   895.7065 </r>
       <r>     1.6082     1.1698   896.0067 </r>
       <r>     1.8648     1.9435   896.5053 </r>
       <r>     2.1214     9.0182   898.8192 </r>
       <r>     2.3780     8.3895   900.9718 </r>
       <r>     2.6345    10.7756   903.7366 </r>
       <r>     2.8911     9.6272   906.2068 </r>
       <r>     3.1477     7.6733   908.1756 </r>
       <r>     3.4043    13.9197   911.7471 </r>
       <r>     3.6609    21.1347   917.1699 </r>
       <r>     3.9174    12.4732   920.3702 </r>
       <r>     4.1740    23.7596   926.4665 </r>
       <r>     4.4306    33.1585   934.9742 </r>
       <r>     4.6872    29.3685   942.5096 </r>
       <r>     4.9438    35.1350   951.5246 </r>
       <r>     5.2003    33.0956   960.0162 </r>
       <r>     5.4569    37.3925   969.6104 </r>
       <r>     5.7135    22.5116   975.3864 </r>
       <r>     5.9701     2.3702   975.9945 </r>
       <r>     6.2267     0.0213   976.0000 </r>
       <r>     6.4832     0.0000   976.0000 </r>
       <r>     6.7398     0.0000   976.0000 </r>
       <r>     6.9964     0.0000   976.0000 </r>
       <r>     7.2530     0.0000   976.0000 </r>
       <r>     7.5096     0.0000   976.0000 </r>
       <r>     7.7661     0.0000   976.0000 </r>
       <r>     8.0227     0.0000   976.0000 </r>
       <r>     8.2793     0.0000   976.0000 </r>
       <r>     8.5359     0.0000   976.0000 </r>
       <r>     8.7925     0.0000   976.0000 </r>
       <r>     9.0490     0.0000   976.0000 </r>
      </set>
     </set>
    </array>
   </total>
  </dos>
 </calculation>
 <structure name="finalpos" >
  <crystal>
   <varray name="basis" >
    <v>      16.88469405       0.00000000       0.00000000 </v>
    <v>       0.00000000       9.57841000       0.00000000 </v>
    <v>       0.00000000       0.00000000      16.19761915 </v>
   </varray>
   <i name="volume">   2619.61701075 </i>
   <varray name="rec_basis" >
    <v>       0.05922524       0.00000000       0.00000000 </v>
    <v>       0.00000000       0.10440146       0.00000000 </v>
    <v>       0.00000000       0.00000000       0.06173747 </v>
   </varray>
  </crystal>
  <varray name="positions" >
   <v>       0.06497261       0.92341313       0.31080449 </v>
   <v>       0.09954057       0.92341313       0.12037258 </v>
   <v>       0.58225659       0.42341313       0.21558854 </v>
   <v>       0.61682455       0.42341313       0.02515663 </v>
   <v>       0.23740060       0.42341313       0.27906584 </v>
   <v>       0.27196856       0.42341313       0.08863393 </v>
   <v>       0.72011663       0.92341313       0.37428180 </v>
   <v>       0.75468458       0.92341313       0.18384989 </v>
   <v>       0.40982860       0.92341313       0.24732719 </v>
   <v>       0.44439655       0.92341313       0.05689528 </v>
   <v>       0.89254462       0.42341313       0.34254314 </v>
   <v>       0.92711258       0.42341313       0.15211123 </v>
   <v>       0.42015216       0.55551613       0.38086382 </v>
   <v>       0.45472012       0.55551613       0.19043191 </v>
   <v>       0.48928808       0.55551613       0.00000000 </v>
   <v>       0.93743614       0.05551613       0.28564787 </v>
   <v>       0.97200410       0.05551613       0.09521596 </v>
   <v>       0.10986414       0.55551613       0.25390921 </v>
   <v>       0.14443209       0.55551613       0.06347730 </v>
   <v>       0.59258016       0.05551613       0.34912517 </v>
   <v>       0.62714811       0.05551613       0.15869326 </v>
   <v>       0.28229213       0.05551613       0.22217056 </v>
   <v>       0.31686009       0.05551613       0.03173865 </v>
   <v>       0.76500815       0.55551613       0.31738652 </v>
   <v>       0.79957611       0.55551613       0.12695461 </v>
   <v>       0.06497261       0.18761913       0.31080449 </v>
   <v>       0.09954057       0.18761913       0.12037258 </v>
   <v>       0.58225659       0.68761913       0.21558854 </v>
   <v>       0.61682455       0.68761913       0.02515663 </v>
   <v>       0.23740060       0.68761913       0.27906584 </v>
   <v>       0.27196856       0.68761913       0.08863393 </v>
   <v>       0.72011663       0.18761913       0.37428180 </v>
   <v>       0.75468458       0.18761913       0.18384989 </v>
   <v>       0.40982860       0.18761913       0.24732719 </v>
   <v>       0.44439655       0.18761913       0.05689528 </v>
   <v>       0.89254462       0.68761913       0.34254314 </v>
   <v>       0.92711258       0.68761913       0.15211123 </v>
   <v>       0.02101885       0.22373113       0.00146664 </v>
   <v>       0.46916691       0.72373113       0.28711451 </v>
   <v>       0.50373487       0.72373113       0.09668260 </v>
   <v>       0.95188293       0.22373113       0.38233046 </v>
   <v>       0.98645089       0.22373113       0.19189855 </v>
   <v>       0.12431093       0.72373113       0.35059181 </v>
   <v>       0.15887888       0.72373113       0.16015990 </v>
   <v>       0.64159490       0.22373113       0.25537586 </v>
   <v>       0.67616286       0.22373113       0.06494395 </v>
   <v>       0.33130688       0.22373113       0.12842125 </v>
   <v>       0.81402290       0.72373113       0.22363721 </v>
   <v>       0.84859085       0.72373113       0.03320530 </v>
   <v>       0.14885104       0.05551613       0.22393206 </v>
   <v>       0.18341900       0.05551613       0.03350015 </v>
   <v>       0.63156706       0.55551613       0.31914801 </v>
   <v>       0.66613502       0.55551613       0.12871610 </v>
   <v>       0.28671108       0.55551613       0.38262532 </v>
   <v>       0.32127903       0.55551613       0.19219341 </v>
   <v>       0.35584699       0.55551613       0.00176149 </v>
   <v>       0.80399506       0.05551613       0.28740936 </v>
   <v>       0.83856301       0.05551613       0.09697745 </v>
   <v>       0.01099101       0.55551613       0.06523880 </v>
   <v>       0.45913907       0.05551613       0.35088666 </v>
   <v>       0.49370703       0.05551613       0.16045475 </v>
   <v>       0.97642305       0.55551613       0.25567071 </v>
   <v>       0.02101885       0.88730113       0.00146664 </v>
   <v>       0.46916691       0.38730113       0.28711451 </v>
   <v>       0.50373487       0.38730113       0.09668260 </v>
   <v>       0.95188293       0.88730113       0.38233046 </v>
   <v>       0.98645089       0.88730113       0.19189855 </v>
   <v>       0.15887888       0.38730113       0.16015990 </v>
   <v>       0.64159490       0.88730113       0.25537586 </v>
   <v>       0.67616286       0.88730113       0.06494395 </v>
   <v>       0.29673892       0.88730113       0.31885316 </v>
   <v>       0.33130688       0.88730113       0.12842125 </v>
   <v>       0.81402290       0.38730113       0.22363721 </v>
   <v>       0.84859085       0.38730113       0.03320530 </v>
  </varray>
 </structure>
</modeling>
