  74  74   0   0
  0.3639907E+02  0.1688469E-08  0.9578410E-09  0.1665465E-08  0.5000000E-15
  1.000000000000000E-004
  CAR 
 "Millerite NiS"                         
      8.93501098    -67.96584824  301     -0.29441348      1.00000000
    -67.966  0.0000E+00  0.0000E+00
    -67.710  0.0000E+00  0.0000E+00
    -67.453  0.0000E+00  0.0000E+00
    -67.197  0.0000E+00  0.0000E+00
    -66.941  0.0000E+00  0.0000E+00
    -66.684  0.0000E+00  0.0000E+00
    -66.428  0.0000E+00  0.0000E+00
    -66.171  0.0000E+00  0.0000E+00
    -65.915  0.0000E+00  0.0000E+00
    -65.659  0.0000E+00  0.0000E+00
    -65.402  0.3600E-09  0.9227E-10
    -65.146  0.1865E-04  0.4781E-05
    -64.890  0.4700E-01  0.1205E-01
    -64.633  0.7345E+01  0.1895E+01
    -64.377  0.1058E+03  0.2903E+02
    -64.121  0.2340E+03  0.8900E+02
    -63.864  0.1662E+03  0.1316E+03
    -63.608  0.1190E+03  0.1621E+03
    -63.352  0.8785E+02  0.1846E+03
    -63.095  0.6970E+02  0.2025E+03
    -62.839  0.5306E+02  0.2161E+03
    -62.583  0.1717E+02  0.2205E+03
    -62.326  0.5223E+01  0.2218E+03
    -62.070  0.6367E+00  0.2220E+03
    -61.814  0.5277E-02  0.2220E+03
    -61.557  0.2047E-05  0.2220E+03
    -61.301  0.3322E-10  0.2220E+03
    -61.045  0.0000E+00  0.2220E+03
    -60.788  0.0000E+00  0.2220E+03
    -60.532  0.0000E+00  0.2220E+03
    -60.276  0.0000E+00  0.2220E+03
    -60.019  0.0000E+00  0.2220E+03
    -59.763  0.0000E+00  0.2220E+03
    -59.507  0.0000E+00  0.2220E+03
    -59.250  0.0000E+00  0.2220E+03
    -58.994  0.0000E+00  0.2220E+03
    -58.738  0.0000E+00  0.2220E+03
    -58.481  0.0000E+00  0.2220E+03
    -58.225  0.0000E+00  0.2220E+03
    -57.969  0.0000E+00  0.2220E+03
    -57.712  0.0000E+00  0.2220E+03
    -57.456  0.0000E+00  0.2220E+03
    -57.200  0.0000E+00  0.2220E+03
    -56.943  0.0000E+00  0.2220E+03
    -56.687  0.0000E+00  0.2220E+03
    -56.431  0.0000E+00  0.2220E+03
    -56.174  0.0000E+00  0.2220E+03
    -55.918  0.0000E+00  0.2220E+03
    -55.662  0.0000E+00  0.2220E+03
    -55.405  0.0000E+00  0.2220E+03
    -55.149  0.0000E+00  0.2220E+03
    -54.893  0.0000E+00  0.2220E+03
    -54.636  0.0000E+00  0.2220E+03
    -54.380  0.0000E+00  0.2220E+03
    -54.124  0.0000E+00  0.2220E+03
    -53.867  0.0000E+00  0.2220E+03
    -53.611  0.0000E+00  0.2220E+03
    -53.355  0.0000E+00  0.2220E+03
    -53.098  0.0000E+00  0.2220E+03
    -52.842  0.0000E+00  0.2220E+03
    -52.586  0.0000E+00  0.2220E+03
    -52.329  0.0000E+00  0.2220E+03
    -52.073  0.0000E+00  0.2220E+03
    -51.817  0.0000E+00  0.2220E+03
    -51.560  0.0000E+00  0.2220E+03
    -51.304  0.0000E+00  0.2220E+03
    -51.048  0.0000E+00  0.2220E+03
    -50.791  0.0000E+00  0.2220E+03
    -50.535  0.0000E+00  0.2220E+03
    -50.279  0.0000E+00  0.2220E+03
    -50.022  0.0000E+00  0.2220E+03
    -49.766  0.0000E+00  0.2220E+03
    -49.510  0.0000E+00  0.2220E+03
    -49.253  0.0000E+00  0.2220E+03
    -48.997  0.0000E+00  0.2220E+03
    -48.741  0.0000E+00  0.2220E+03
    -48.484  0.0000E+00  0.2220E+03
    -48.228  0.0000E+00  0.2220E+03
    -47.972  0.0000E+00  0.2220E+03
    -47.715  0.0000E+00  0.2220E+03
    -47.459  0.0000E+00  0.2220E+03
    -47.203  0.0000E+00  0.2220E+03
    -46.946  0.0000E+00  0.2220E+03
    -46.690  0.0000E+00  0.2220E+03
    -46.434  0.0000E+00  0.2220E+03
    -46.177  0.0000E+00  0.2220E+03
    -45.921  0.0000E+00  0.2220E+03
    -45.665  0.0000E+00  0.2220E+03
    -45.408  0.0000E+00  0.2220E+03
    -45.152  0.0000E+00  0.2220E+03
    -44.896  0.0000E+00  0.2220E+03
    -44.639  0.0000E+00  0.2220E+03
    -44.383  0.0000E+00  0.2220E+03
    -44.127  0.0000E+00  0.2220E+03
    -43.870  0.0000E+00  0.2220E+03
    -43.614  0.0000E+00  0.2220E+03
    -43.358  0.0000E+00  0.2220E+03
    -43.101  0.0000E+00  0.2220E+03
    -42.845  0.0000E+00  0.2220E+03
    -42.589  0.0000E+00  0.2220E+03
    -42.332  0.0000E+00  0.2220E+03
    -42.076  0.0000E+00  0.2220E+03
    -41.820  0.0000E+00  0.2220E+03
    -41.563  0.0000E+00  0.2220E+03
    -41.307  0.0000E+00  0.2220E+03
    -41.051  0.0000E+00  0.2220E+03
    -40.794  0.0000E+00  0.2220E+03
    -40.538  0.0000E+00  0.2220E+03
    -40.282  0.0000E+00  0.2220E+03
    -40.025  0.0000E+00  0.2220E+03
    -39.769  0.0000E+00  0.2220E+03
    -39.513  0.0000E+00  0.2220E+03
    -39.256  0.0000E+00  0.2220E+03
    -39.000  0.0000E+00  0.2220E+03
    -38.744  0.0000E+00  0.2220E+03
    -38.487  0.0000E+00  0.2220E+03
    -38.231  0.0000E+00  0.2220E+03
    -37.975  0.0000E+00  0.2220E+03
    -37.718  0.0000E+00  0.2220E+03
    -37.462  0.0000E+00  0.2220E+03
    -37.206  0.0000E+00  0.2220E+03
    -36.949  0.0000E+00  0.2220E+03
    -36.693  0.0000E+00  0.2220E+03
    -36.436  0.0000E+00  0.2220E+03
    -36.180  0.0000E+00  0.2220E+03
    -35.924  0.0000E+00  0.2220E+03
    -35.667  0.0000E+00  0.2220E+03
    -35.411  0.0000E+00  0.2220E+03
    -35.155  0.0000E+00  0.2220E+03
    -34.898  0.0000E+00  0.2220E+03
    -34.642  0.0000E+00  0.2220E+03
    -34.386  0.0000E+00  0.2220E+03
    -34.129  0.0000E+00  0.2220E+03
    -33.873  0.0000E+00  0.2220E+03
    -33.617  0.0000E+00  0.2220E+03
    -33.360  0.0000E+00  0.2220E+03
    -33.104  0.0000E+00  0.2220E+03
    -32.848  0.0000E+00  0.2220E+03
    -32.591  0.0000E+00  0.2220E+03
    -32.335  0.0000E+00  0.2220E+03
    -32.079  0.0000E+00  0.2220E+03
    -31.822  0.0000E+00  0.2220E+03
    -31.566  0.0000E+00  0.2220E+03
    -31.310  0.0000E+00  0.2220E+03
    -31.053  0.0000E+00  0.2220E+03
    -30.797  0.0000E+00  0.2220E+03
    -30.541  0.0000E+00  0.2220E+03
    -30.284  0.0000E+00  0.2220E+03
    -30.028  0.0000E+00  0.2220E+03
    -29.772  0.0000E+00  0.2220E+03
    -29.515  0.0000E+00  0.2220E+03
    -29.259  0.0000E+00  0.2220E+03
    -29.003  0.0000E+00  0.2220E+03
    -28.746  0.0000E+00  0.2220E+03
    -28.490  0.0000E+00  0.2220E+03
    -28.234  0.0000E+00  0.2220E+03
    -27.977  0.0000E+00  0.2220E+03
    -27.721  0.0000E+00  0.2220E+03
    -27.465  0.0000E+00  0.2220E+03
    -27.208  0.0000E+00  0.2220E+03
    -26.952  0.0000E+00  0.2220E+03
    -26.696  0.0000E+00  0.2220E+03
    -26.439  0.0000E+00  0.2220E+03
    -26.183  0.0000E+00  0.2220E+03
    -25.927  0.0000E+00  0.2220E+03
    -25.670  0.0000E+00  0.2220E+03
    -25.414  0.0000E+00  0.2220E+03
    -25.158  0.0000E+00  0.2220E+03
    -24.901  0.0000E+00  0.2220E+03
    -24.645  0.0000E+00  0.2220E+03
    -24.389  0.0000E+00  0.2220E+03
    -24.132  0.0000E+00  0.2220E+03
    -23.876  0.0000E+00  0.2220E+03
    -23.620  0.0000E+00  0.2220E+03
    -23.363  0.0000E+00  0.2220E+03
    -23.107  0.0000E+00  0.2220E+03
    -22.851  0.0000E+00  0.2220E+03
    -22.594  0.0000E+00  0.2220E+03
    -22.338  0.0000E+00  0.2220E+03
    -22.082  0.0000E+00  0.2220E+03
    -21.825  0.0000E+00  0.2220E+03
    -21.569  0.0000E+00  0.2220E+03
    -21.313  0.0000E+00  0.2220E+03
    -21.056  0.0000E+00  0.2220E+03
    -20.800  0.0000E+00  0.2220E+03
    -20.544  0.0000E+00  0.2220E+03
    -20.287  0.0000E+00  0.2220E+03
    -20.031  0.0000E+00  0.2220E+03
    -19.775  0.0000E+00  0.2220E+03
    -19.518  0.0000E+00  0.2220E+03
    -19.262  0.0000E+00  0.2220E+03
    -19.006  0.0000E+00  0.2220E+03
    -18.749  0.0000E+00  0.2220E+03
    -18.493  0.0000E+00  0.2220E+03
    -18.237  0.0000E+00  0.2220E+03
    -17.980  0.0000E+00  0.2220E+03
    -17.724  0.0000E+00  0.2220E+03
    -17.468  0.0000E+00  0.2220E+03
    -17.211  0.0000E+00  0.2220E+03
    -16.955  0.0000E+00  0.2220E+03
    -16.699  0.0000E+00  0.2220E+03
    -16.442  0.4331E-15  0.2220E+03
    -16.186  0.3991E-09  0.2220E+03
    -15.930  0.1289E-04  0.2220E+03
    -15.673  0.1768E-01  0.2220E+03
    -15.417  0.1183E+01  0.2223E+03
    -15.161  0.6156E+01  0.2239E+03
    -14.904  0.1063E+02  0.2266E+03
    -14.648  0.8383E+01  0.2288E+03
    -14.392  0.1514E+02  0.2326E+03
    -14.135  0.2580E+02  0.2393E+03
    -13.879  0.3031E+02  0.2470E+03
    -13.623  0.2864E+02  0.2544E+03
    -13.366  0.2877E+02  0.2617E+03
    -13.110  0.2722E+02  0.2687E+03
    -12.854  0.2361E+02  0.2748E+03
    -12.597  0.2568E+02  0.2813E+03
    -12.341  0.2133E+02  0.2868E+03
    -12.085  0.1441E+02  0.2905E+03
    -11.828  0.1323E+02  0.2939E+03
    -11.572  0.7589E+01  0.2958E+03
    -11.316  0.6006E+00  0.2960E+03
    -11.059  0.2999E-02  0.2960E+03
    -10.803  0.7277E-06  0.2960E+03
    -10.547  0.7643E-11  0.2960E+03
    -10.290  0.0000E+00  0.2960E+03
    -10.034  0.0000E+00  0.2960E+03
     -9.778  0.0000E+00  0.2960E+03
     -9.521  0.0000E+00  0.2960E+03
     -9.265  0.0000E+00  0.2960E+03
     -9.009  0.0000E+00  0.2960E+03
     -8.752  0.0000E+00  0.2960E+03
     -8.496  0.0000E+00  0.2960E+03
     -8.240  0.0000E+00  0.2960E+03
     -7.983  0.5142E-10  0.2960E+03
     -7.727  0.3103E-05  0.2960E+03
     -7.471  0.8602E-02  0.2960E+03
     -7.214  0.1319E+01  0.2963E+03
     -6.958  0.1544E+02  0.3003E+03
     -6.701  0.2450E+02  0.3066E+03
     -6.445  0.2746E+02  0.3136E+03
     -6.189  0.3848E+02  0.3235E+03
     -5.932  0.4451E+02  0.3349E+03
     -5.676  0.5149E+02  0.3481E+03
     -5.420  0.5332E+02  0.3618E+03
     -5.163  0.3867E+02  0.3717E+03
     -4.907  0.3956E+02  0.3818E+03
     -4.651  0.5356E+02  0.3955E+03
     -4.394  0.6310E+02  0.4117E+03
     -4.138  0.5803E+02  0.4266E+03
     -3.882  0.7022E+02  0.4446E+03
     -3.625  0.6670E+02  0.4617E+03
     -3.369  0.5724E+02  0.4764E+03
     -3.113  0.6217E+02  0.4923E+03
     -2.856  0.6129E+02  0.5080E+03
     -2.600  0.6920E+02  0.5257E+03
     -2.344  0.9731E+02  0.5507E+03
     -2.087  0.1291E+03  0.5838E+03
     -1.831  0.1618E+03  0.6252E+03
     -1.575  0.1648E+03  0.6675E+03
     -1.318  0.1486E+03  0.7056E+03
     -1.062  0.1228E+03  0.7371E+03
     -0.806  0.1164E+03  0.7669E+03
     -0.549  0.1036E+03  0.7935E+03
     -0.293  0.8050E+02  0.8141E+03
     -0.037  0.6346E+02  0.8304E+03
      0.220  0.5643E+02  0.8448E+03
      0.476  0.5420E+02  0.8587E+03
      0.732  0.5749E+02  0.8735E+03
      0.989  0.5514E+02  0.8876E+03
      1.245  0.1970E+02  0.8926E+03
      1.501  0.1161E+02  0.8956E+03
      1.758  0.1408E+02  0.8992E+03
      2.014  0.8138E+01  0.9013E+03
      2.270  0.1072E+02  0.9041E+03
      2.527  0.6630E+01  0.9058E+03
      2.783  0.5836E+01  0.9073E+03
      3.039  0.1171E+02  0.9103E+03
      3.296  0.7495E+01  0.9122E+03
      3.552  0.1144E+02  0.9151E+03
      3.808  0.1867E+02  0.9199E+03
      4.065  0.2187E+02  0.9255E+03
      4.321  0.3666E+02  0.9349E+03
      4.577  0.2913E+02  0.9424E+03
      4.834  0.3014E+02  0.9501E+03
      5.090  0.3281E+02  0.9585E+03
      5.346  0.4050E+02  0.9689E+03
      5.603  0.2520E+02  0.9753E+03
      5.859  0.2534E+01  0.9760E+03
      6.115  0.2126E-01  0.9760E+03
      6.372  0.9891E-05  0.9760E+03
      6.628  0.2121E-09  0.9760E+03
      6.884  0.0000E+00  0.9760E+03
      7.141  0.0000E+00  0.9760E+03
      7.397  0.0000E+00  0.9760E+03
      7.653  0.0000E+00  0.9760E+03
      7.910  0.0000E+00  0.9760E+03
      8.166  0.0000E+00  0.9760E+03
      8.422  0.0000E+00  0.9760E+03
      8.679  0.0000E+00  0.9760E+03
      8.935  0.0000E+00  0.9760E+03
