       N       E                     dE             d eps       ncg     rms          rms(c)
DAV:   1     0.149222194976E+05    0.14922E+05   -0.74149E+05  1676   0.170E+03
DAV:   2     0.992881968522E+03   -0.13929E+05   -0.13425E+05  1458   0.548E+02
DAV:   3    -0.481748849495E+03   -0.14746E+04   -0.13963E+04  1544   0.195E+02
DAV:   4    -0.577504484451E+03   -0.95756E+02   -0.94636E+02  1608   0.443E+01
DAV:   5    -0.581102147132E+03   -0.35977E+01   -0.35916E+01  1784   0.901E+00    0.115E+02
DAV:   6    -0.692393684994E+03   -0.11129E+03   -0.13418E+03  1712   0.127E+02    0.195E+02
DAV:   7    -0.552104245948E+03    0.14029E+03   -0.30127E+02  1568   0.859E+01    0.944E+01
DAV:   8    -0.687409052225E+03   -0.13530E+03   -0.27411E+02  1936   0.110E+02    0.199E+02
DAV:   9    -0.605930540155E+03    0.81479E+02   -0.29259E+02  1872   0.862E+01    0.146E+02
DAV:  10    -0.625250340260E+03   -0.19320E+02   -0.27631E+02  1944   0.874E+01    0.145E+02
DAV:  11    -0.602200410110E+03    0.23050E+02   -0.11341E+02  1848   0.513E+01    0.120E+02
DAV:  12    -0.554765509005E+03    0.47435E+02   -0.94465E+01  1856   0.504E+01    0.727E+01
DAV:  13    -0.571355105613E+03   -0.16590E+02   -0.10874E+02  1872   0.597E+01    0.125E+02
DAV:  14    -0.544935175327E+03    0.26420E+02   -0.63089E+01  1880   0.383E+01    0.861E+01
DAV:  15    -0.527998573916E+03    0.16937E+02   -0.44297E+01  1888   0.269E+01    0.492E+01
DAV:  16    -0.521253748956E+03    0.67448E+01   -0.18348E+01  1896   0.210E+01    0.336E+01
DAV:  17    -0.517887041967E+03    0.33667E+01   -0.59929E+00  1904   0.130E+01    0.288E+01
DAV:  18    -0.517067208940E+03    0.81983E+00   -0.30372E+00  1696   0.930E+00    0.267E+01
DAV:  19    -0.516288743883E+03    0.77847E+00   -0.72757E-01  1872   0.380E+00    0.256E+01
DAV:  20    -0.515183540560E+03    0.11052E+01   -0.60073E-01  1864   0.473E+00    0.234E+01
DAV:  21    -0.513959301656E+03    0.12242E+01   -0.70789E-01  1888   0.535E+00    0.210E+01
DAV:  22    -0.512015069116E+03    0.19442E+01   -0.87530E-01  1952   0.601E+00    0.157E+01
DAV:  23    -0.510776451792E+03    0.12386E+01   -0.84632E-01  1880   0.464E+00    0.103E+01
DAV:  24    -0.510566422421E+03    0.21003E+00   -0.45942E-01  1856   0.284E+00    0.893E+00
DAV:  25    -0.510669600374E+03   -0.10318E+00   -0.25662E-01  1560   0.241E+00    0.931E+00
DAV:  26    -0.510357851042E+03    0.31175E+00   -0.51535E-01  2048   0.524E+00    0.678E+00
DAV:  27    -0.510132167245E+03    0.22568E+00   -0.44960E-01  2040   0.381E+00    0.277E+00
DAV:  28    -0.510165672331E+03   -0.33505E-01   -0.20583E-01  1840   0.209E+00    0.343E+00
DAV:  29    -0.510132821831E+03    0.32851E-01   -0.11649E-01  1536   0.185E+00    0.208E+00
DAV:  30    -0.510142737109E+03   -0.99153E-02   -0.51979E-02  1832   0.127E+00    0.214E+00
DAV:  31    -0.510134414999E+03    0.83221E-02   -0.55119E-02  2080   0.129E+00    0.165E+00
DAV:  32    -0.510134624227E+03   -0.20923E-03   -0.26168E-02  1856   0.814E-01    0.152E+00
DAV:  33    -0.510125155061E+03    0.94692E-02   -0.20701E-02  1704   0.932E-01    0.788E-01
DAV:  34    -0.510125223872E+03   -0.68811E-04   -0.76945E-03  1880   0.492E-01    0.721E-01
DAV:  35    -0.510124056358E+03    0.11675E-02   -0.20384E-03  1760   0.245E-01    0.540E-01
DAV:  36    -0.510124181059E+03   -0.12470E-03   -0.77121E-04  1504   0.150E-01    0.500E-01
DAV:  37    -0.510124027476E+03    0.15358E-03   -0.11871E-03  1688   0.215E-01    0.408E-01
DAV:  38    -0.510124365700E+03   -0.33822E-03   -0.12464E-03  1616   0.201E-01    0.367E-01
DAV:  39    -0.510124222465E+03    0.14323E-03   -0.68203E-04  1304   0.142E-01    0.233E-01
DAV:  40    -0.510124358695E+03   -0.13623E-03   -0.22853E-04   904   0.824E-02    0.212E-01
DAV:  41    -0.510124507477E+03   -0.14878E-03   -0.20791E-04   864   0.840E-02    0.186E-01
DAV:  42    -0.510124625356E+03   -0.11788E-03   -0.16075E-04   864   0.653E-02    0.151E-01
DAV:  43    -0.510124857006E+03   -0.23165E-03   -0.16859E-04   888   0.717E-02    0.820E-02
DAV:  44    -0.510125064203E+03   -0.20720E-03   -0.15086E-04   928   0.378E-02    0.763E-02
DAV:  45    -0.510125171968E+03   -0.10777E-03   -0.76739E-05   848   0.444E-02    0.697E-02
DAV:  46    -0.510125387487E+03   -0.21552E-03   -0.35384E-05   856   0.277E-02    0.583E-02
DAV:  47    -0.510125479397E+03   -0.91910E-04   -0.32223E-05   848   0.302E-02
   1 F= -.51012548E+03 E0= -.50942722E+03  d E =-.139653E+01
