  72  72   0   0
  0.3633021E+02  0.1688469E-08  0.9578410E-09  0.1617386E-08  0.5000000E-15
  1.000000000000000E-004
  CAR 
 "Millerite NiS"                         
      9.15242553    -68.08290694  301     -0.42430416      1.00000000
    -68.083  0.0000E+00  0.0000E+00
    -67.825  0.0000E+00  0.0000E+00
    -67.568  0.0000E+00  0.0000E+00
    -67.311  0.0000E+00  0.0000E+00
    -67.053  0.0000E+00  0.0000E+00
    -66.796  0.0000E+00  0.0000E+00
    -66.538  0.0000E+00  0.0000E+00
    -66.281  0.0000E+00  0.0000E+00
    -66.023  0.0000E+00  0.0000E+00
    -65.766  0.0000E+00  0.0000E+00
    -65.508  0.3848E-09  0.9907E-10
    -65.251  0.2151E-04  0.5538E-05
    -64.993  0.5589E-01  0.1439E-01
    -64.736  0.8180E+01  0.2120E+01
    -64.479  0.9920E+02  0.2766E+02
    -64.221  0.1997E+03  0.7907E+02
    -63.964  0.1851E+03  0.1267E+03
    -63.706  0.1512E+03  0.1657E+03
    -63.449  0.1009E+03  0.1916E+03
    -63.191  0.5283E+02  0.2052E+03
    -62.934  0.3110E+02  0.2133E+03
    -62.676  0.8464E+01  0.2154E+03
    -62.419  0.2145E+01  0.2160E+03
    -62.162  0.6289E-01  0.2160E+03
    -61.904  0.9297E-04  0.2160E+03
    -61.647  0.5801E-08  0.2160E+03
    -61.389  0.1380E-13  0.2160E+03
    -61.132  0.0000E+00  0.2160E+03
    -60.874  0.0000E+00  0.2160E+03
    -60.617  0.0000E+00  0.2160E+03
    -60.359  0.0000E+00  0.2160E+03
    -60.102  0.0000E+00  0.2160E+03
    -59.844  0.0000E+00  0.2160E+03
    -59.587  0.0000E+00  0.2160E+03
    -59.330  0.0000E+00  0.2160E+03
    -59.072  0.0000E+00  0.2160E+03
    -58.815  0.0000E+00  0.2160E+03
    -58.557  0.0000E+00  0.2160E+03
    -58.300  0.0000E+00  0.2160E+03
    -58.042  0.0000E+00  0.2160E+03
    -57.785  0.0000E+00  0.2160E+03
    -57.527  0.0000E+00  0.2160E+03
    -57.270  0.0000E+00  0.2160E+03
    -57.013  0.0000E+00  0.2160E+03
    -56.755  0.0000E+00  0.2160E+03
    -56.498  0.0000E+00  0.2160E+03
    -56.240  0.0000E+00  0.2160E+03
    -55.983  0.0000E+00  0.2160E+03
    -55.725  0.0000E+00  0.2160E+03
    -55.468  0.0000E+00  0.2160E+03
    -55.210  0.0000E+00  0.2160E+03
    -54.953  0.0000E+00  0.2160E+03
    -54.695  0.0000E+00  0.2160E+03
    -54.438  0.0000E+00  0.2160E+03
    -54.181  0.0000E+00  0.2160E+03
    -53.923  0.0000E+00  0.2160E+03
    -53.666  0.0000E+00  0.2160E+03
    -53.408  0.0000E+00  0.2160E+03
    -53.151  0.0000E+00  0.2160E+03
    -52.893  0.0000E+00  0.2160E+03
    -52.636  0.0000E+00  0.2160E+03
    -52.378  0.0000E+00  0.2160E+03
    -52.121  0.0000E+00  0.2160E+03
    -51.863  0.0000E+00  0.2160E+03
    -51.606  0.0000E+00  0.2160E+03
    -51.349  0.0000E+00  0.2160E+03
    -51.091  0.0000E+00  0.2160E+03
    -50.834  0.0000E+00  0.2160E+03
    -50.576  0.0000E+00  0.2160E+03
    -50.319  0.0000E+00  0.2160E+03
    -50.061  0.0000E+00  0.2160E+03
    -49.804  0.0000E+00  0.2160E+03
    -49.546  0.0000E+00  0.2160E+03
    -49.289  0.0000E+00  0.2160E+03
    -49.032  0.0000E+00  0.2160E+03
    -48.774  0.0000E+00  0.2160E+03
    -48.517  0.0000E+00  0.2160E+03
    -48.259  0.0000E+00  0.2160E+03
    -48.002  0.0000E+00  0.2160E+03
    -47.744  0.0000E+00  0.2160E+03
    -47.487  0.0000E+00  0.2160E+03
    -47.229  0.0000E+00  0.2160E+03
    -46.972  0.0000E+00  0.2160E+03
    -46.714  0.0000E+00  0.2160E+03
    -46.457  0.0000E+00  0.2160E+03
    -46.200  0.0000E+00  0.2160E+03
    -45.942  0.0000E+00  0.2160E+03
    -45.685  0.0000E+00  0.2160E+03
    -45.427  0.0000E+00  0.2160E+03
    -45.170  0.0000E+00  0.2160E+03
    -44.912  0.0000E+00  0.2160E+03
    -44.655  0.0000E+00  0.2160E+03
    -44.397  0.0000E+00  0.2160E+03
    -44.140  0.0000E+00  0.2160E+03
    -43.883  0.0000E+00  0.2160E+03
    -43.625  0.0000E+00  0.2160E+03
    -43.368  0.0000E+00  0.2160E+03
    -43.110  0.0000E+00  0.2160E+03
    -42.853  0.0000E+00  0.2160E+03
    -42.595  0.0000E+00  0.2160E+03
    -42.338  0.0000E+00  0.2160E+03
    -42.080  0.0000E+00  0.2160E+03
    -41.823  0.0000E+00  0.2160E+03
    -41.565  0.0000E+00  0.2160E+03
    -41.308  0.0000E+00  0.2160E+03
    -41.051  0.0000E+00  0.2160E+03
    -40.793  0.0000E+00  0.2160E+03
    -40.536  0.0000E+00  0.2160E+03
    -40.278  0.0000E+00  0.2160E+03
    -40.021  0.0000E+00  0.2160E+03
    -39.763  0.0000E+00  0.2160E+03
    -39.506  0.0000E+00  0.2160E+03
    -39.248  0.0000E+00  0.2160E+03
    -38.991  0.0000E+00  0.2160E+03
    -38.733  0.0000E+00  0.2160E+03
    -38.476  0.0000E+00  0.2160E+03
    -38.219  0.0000E+00  0.2160E+03
    -37.961  0.0000E+00  0.2160E+03
    -37.704  0.0000E+00  0.2160E+03
    -37.446  0.0000E+00  0.2160E+03
    -37.189  0.0000E+00  0.2160E+03
    -36.931  0.0000E+00  0.2160E+03
    -36.674  0.0000E+00  0.2160E+03
    -36.416  0.0000E+00  0.2160E+03
    -36.159  0.0000E+00  0.2160E+03
    -35.902  0.0000E+00  0.2160E+03
    -35.644  0.0000E+00  0.2160E+03
    -35.387  0.0000E+00  0.2160E+03
    -35.129  0.0000E+00  0.2160E+03
    -34.872  0.0000E+00  0.2160E+03
    -34.614  0.0000E+00  0.2160E+03
    -34.357  0.0000E+00  0.2160E+03
    -34.099  0.0000E+00  0.2160E+03
    -33.842  0.0000E+00  0.2160E+03
    -33.584  0.0000E+00  0.2160E+03
    -33.327  0.0000E+00  0.2160E+03
    -33.070  0.0000E+00  0.2160E+03
    -32.812  0.0000E+00  0.2160E+03
    -32.555  0.0000E+00  0.2160E+03
    -32.297  0.0000E+00  0.2160E+03
    -32.040  0.0000E+00  0.2160E+03
    -31.782  0.0000E+00  0.2160E+03
    -31.525  0.0000E+00  0.2160E+03
    -31.267  0.0000E+00  0.2160E+03
    -31.010  0.0000E+00  0.2160E+03
    -30.752  0.0000E+00  0.2160E+03
    -30.495  0.0000E+00  0.2160E+03
    -30.238  0.0000E+00  0.2160E+03
    -29.980  0.0000E+00  0.2160E+03
    -29.723  0.0000E+00  0.2160E+03
    -29.465  0.0000E+00  0.2160E+03
    -29.208  0.0000E+00  0.2160E+03
    -28.950  0.0000E+00  0.2160E+03
    -28.693  0.0000E+00  0.2160E+03
    -28.435  0.0000E+00  0.2160E+03
    -28.178  0.0000E+00  0.2160E+03
    -27.921  0.0000E+00  0.2160E+03
    -27.663  0.0000E+00  0.2160E+03
    -27.406  0.0000E+00  0.2160E+03
    -27.148  0.0000E+00  0.2160E+03
    -26.891  0.0000E+00  0.2160E+03
    -26.633  0.0000E+00  0.2160E+03
    -26.376  0.0000E+00  0.2160E+03
    -26.118  0.0000E+00  0.2160E+03
    -25.861  0.0000E+00  0.2160E+03
    -25.603  0.0000E+00  0.2160E+03
    -25.346  0.0000E+00  0.2160E+03
    -25.089  0.0000E+00  0.2160E+03
    -24.831  0.0000E+00  0.2160E+03
    -24.574  0.0000E+00  0.2160E+03
    -24.316  0.0000E+00  0.2160E+03
    -24.059  0.0000E+00  0.2160E+03
    -23.801  0.0000E+00  0.2160E+03
    -23.544  0.0000E+00  0.2160E+03
    -23.286  0.0000E+00  0.2160E+03
    -23.029  0.0000E+00  0.2160E+03
    -22.772  0.0000E+00  0.2160E+03
    -22.514  0.0000E+00  0.2160E+03
    -22.257  0.0000E+00  0.2160E+03
    -21.999  0.0000E+00  0.2160E+03
    -21.742  0.0000E+00  0.2160E+03
    -21.484  0.0000E+00  0.2160E+03
    -21.227  0.0000E+00  0.2160E+03
    -20.969  0.0000E+00  0.2160E+03
    -20.712  0.0000E+00  0.2160E+03
    -20.454  0.0000E+00  0.2160E+03
    -20.197  0.0000E+00  0.2160E+03
    -19.940  0.0000E+00  0.2160E+03
    -19.682  0.0000E+00  0.2160E+03
    -19.425  0.0000E+00  0.2160E+03
    -19.167  0.0000E+00  0.2160E+03
    -18.910  0.0000E+00  0.2160E+03
    -18.652  0.0000E+00  0.2160E+03
    -18.395  0.0000E+00  0.2160E+03
    -18.137  0.0000E+00  0.2160E+03
    -17.880  0.0000E+00  0.2160E+03
    -17.622  0.0000E+00  0.2160E+03
    -17.365  0.0000E+00  0.2160E+03
    -17.108  0.0000E+00  0.2160E+03
    -16.850  0.0000E+00  0.2160E+03
    -16.593  0.0000E+00  0.2160E+03
    -16.335  0.2935E-10  0.2160E+03
    -16.078  0.1942E-05  0.2160E+03
    -15.820  0.5231E-02  0.2160E+03
    -15.563  0.6442E+00  0.2162E+03
    -15.305  0.5320E+01  0.2175E+03
    -15.048  0.1028E+02  0.2202E+03
    -14.791  0.9185E+01  0.2225E+03
    -14.533  0.1427E+02  0.2262E+03
    -14.276  0.2183E+02  0.2318E+03
    -14.018  0.2814E+02  0.2391E+03
    -13.761  0.2949E+02  0.2467E+03
    -13.503  0.2231E+02  0.2524E+03
    -13.246  0.2002E+02  0.2576E+03
    -12.988  0.2452E+02  0.2639E+03
    -12.731  0.3189E+02  0.2721E+03
    -12.473  0.3051E+02  0.2800E+03
    -12.216  0.8410E+01  0.2821E+03
    -11.959  0.9957E+01  0.2847E+03
    -11.701  0.1169E+02  0.2877E+03
    -11.444  0.1180E+01  0.2880E+03
    -11.186  0.7425E-02  0.2880E+03
    -10.929  0.2257E-05  0.2880E+03
    -10.671  0.2910E-10  0.2880E+03
    -10.414  0.0000E+00  0.2880E+03
    -10.156  0.0000E+00  0.2880E+03
     -9.899  0.0000E+00  0.2880E+03
     -9.642  0.0000E+00  0.2880E+03
     -9.384  0.0000E+00  0.2880E+03
     -9.127  0.0000E+00  0.2880E+03
     -8.869  0.0000E+00  0.2880E+03
     -8.612  0.0000E+00  0.2880E+03
     -8.354  0.0000E+00  0.2880E+03
     -8.097  0.7320E-11  0.2880E+03
     -7.839  0.8513E-06  0.2880E+03
     -7.582  0.4172E-02  0.2880E+03
     -7.324  0.9753E+00  0.2883E+03
     -7.067  0.1443E+02  0.2920E+03
     -6.810  0.2243E+02  0.2977E+03
     -6.552  0.2581E+02  0.3044E+03
     -6.295  0.4112E+02  0.3150E+03
     -6.037  0.4004E+02  0.3253E+03
     -5.780  0.4662E+02  0.3373E+03
     -5.522  0.5212E+02  0.3507E+03
     -5.265  0.4521E+02  0.3623E+03
     -5.007  0.3716E+02  0.3719E+03
     -4.750  0.4801E+02  0.3843E+03
     -4.492  0.6120E+02  0.4000E+03
     -4.235  0.5182E+02  0.4134E+03
     -3.978  0.6350E+02  0.4297E+03
     -3.720  0.6210E+02  0.4457E+03
     -3.463  0.6153E+02  0.4615E+03
     -3.205  0.6086E+02  0.4772E+03
     -2.948  0.6679E+02  0.4944E+03
     -2.690  0.7677E+02  0.5142E+03
     -2.433  0.9705E+02  0.5392E+03
     -2.175  0.1276E+03  0.5720E+03
     -1.918  0.1624E+03  0.6138E+03
     -1.661  0.1654E+03  0.6564E+03
     -1.403  0.1494E+03  0.6949E+03
     -1.146  0.1189E+03  0.7255E+03
     -0.888  0.1077E+03  0.7532E+03
     -0.631  0.9229E+02  0.7769E+03
     -0.373  0.7075E+02  0.7952E+03
     -0.116  0.5864E+02  0.8103E+03
      0.142  0.5525E+02  0.8245E+03
      0.399  0.5386E+02  0.8384E+03
      0.657  0.5685E+02  0.8530E+03
      0.914  0.4620E+02  0.8649E+03
      1.171  0.1893E+02  0.8698E+03
      1.429  0.6255E+01  0.8714E+03
      1.686  0.3248E+01  0.8722E+03
      1.944  0.8375E+01  0.8744E+03
      2.201  0.9095E+01  0.8767E+03
      2.459  0.8098E+01  0.8788E+03
      2.716  0.1010E+02  0.8814E+03
      2.974  0.8419E+01  0.8836E+03
      3.231  0.1254E+02  0.8868E+03
      3.489  0.1255E+02  0.8900E+03
      3.746  0.1706E+02  0.8944E+03
      4.003  0.2489E+02  0.9008E+03
      4.261  0.3546E+02  0.9099E+03
      4.518  0.2589E+02  0.9166E+03
      4.776  0.2939E+02  0.9242E+03
      5.033  0.3759E+02  0.9338E+03
      5.291  0.3786E+02  0.9436E+03
      5.548  0.4310E+02  0.9547E+03
      5.806  0.1902E+02  0.9596E+03
      6.063  0.1582E+01  0.9600E+03
      6.320  0.1331E-01  0.9600E+03
      6.578  0.6527E-05  0.9600E+03
      6.835  0.1421E-09  0.9600E+03
      7.093  0.0000E+00  0.9600E+03
      7.350  0.0000E+00  0.9600E+03
      7.608  0.0000E+00  0.9600E+03
      7.865  0.0000E+00  0.9600E+03
      8.123  0.0000E+00  0.9600E+03
      8.380  0.0000E+00  0.9600E+03
      8.638  0.0000E+00  0.9600E+03
      8.895  0.0000E+00  0.9600E+03
      9.152  0.0000E+00  0.9600E+03
