       N       E                     dE             d eps       ncg     rms          rms(c)
DAV:   1     0.131563175505E+05    0.13156E+05   -0.67785E+05  1552   0.164E+03
DAV:   2     0.837749978570E+03   -0.12319E+05   -0.11873E+05  1352   0.530E+02
DAV:   3    -0.450883423797E+03   -0.12886E+04   -0.12104E+04  1464   0.183E+02
DAV:   4    -0.535876895194E+03   -0.84993E+02   -0.83927E+02  1504   0.416E+01
DAV:   5    -0.539121580110E+03   -0.32447E+01   -0.32405E+01  1664   0.858E+00    0.954E+01
DAV:   6    -0.647476558859E+03   -0.10835E+03   -0.12760E+03  1552   0.118E+02    0.182E+02
DAV:   7    -0.503338528859E+03    0.14414E+03   -0.25329E+02  1496   0.647E+01    0.754E+01
DAV:   8    -0.606140386897E+03   -0.10280E+03   -0.20558E+02  1704   0.899E+01    0.178E+02
DAV:   9    -0.530599173582E+03    0.75541E+02   -0.14511E+02  1712   0.477E+01    0.103E+02
DAV:  10    -0.494299916894E+03    0.36299E+02   -0.71894E+01  1784   0.456E+01    0.600E+01
DAV:  11    -0.516183330602E+03   -0.21883E+02   -0.75477E+01  1856   0.485E+01    0.799E+01
DAV:  12    -0.506226859644E+03    0.99565E+01   -0.56057E+01  1760   0.461E+01    0.587E+01
DAV:  13    -0.485643847692E+03    0.20583E+02   -0.23432E+01  1744   0.290E+01    0.384E+01
DAV:  14    -0.483272044384E+03    0.23718E+01   -0.18323E+01  1768   0.244E+01    0.381E+01
DAV:  15    -0.477394523893E+03    0.58775E+01   -0.85763E+00  1704   0.161E+01    0.257E+01
DAV:  16    -0.476471286302E+03    0.92324E+00   -0.36445E+00  1680   0.101E+01    0.232E+01
DAV:  17    -0.475165166287E+03    0.13061E+01   -0.10938E+00  1728   0.517E+00    0.216E+01
DAV:  18    -0.474325716876E+03    0.83945E+00   -0.86890E-01  1656   0.530E+00    0.191E+01
DAV:  19    -0.473472636472E+03    0.85308E+00   -0.61804E-01  1736   0.436E+00    0.163E+01
DAV:  20    -0.472625271021E+03    0.84737E+00   -0.84743E-01  1824   0.533E+00    0.129E+01
DAV:  21    -0.472297597633E+03    0.32767E+00   -0.70300E-01  1760   0.446E+00    0.106E+01
DAV:  22    -0.472003012482E+03    0.29459E+00   -0.36620E-01  1656   0.319E+00    0.745E+00
DAV:  23    -0.472019649168E+03   -0.16637E-01   -0.21320E-01  1632   0.253E+00    0.744E+00
DAV:  24    -0.471918853982E+03    0.10080E+00   -0.23848E-01  1720   0.241E+00    0.552E+00
DAV:  25    -0.471914364350E+03    0.44896E-02   -0.25783E-01  1720   0.249E+00    0.578E+00
DAV:  26    -0.471918063473E+03   -0.36991E-02   -0.37165E-01  1640   0.247E+00    0.553E+00
DAV:  27    -0.472002340733E+03   -0.84277E-01   -0.41844E-01  1816   0.323E+00    0.100E+01
DAV:  28    -0.471841479739E+03    0.16086E+00   -0.69814E-01  1760   0.220E+00    0.344E+00
DAV:  29    -0.471828983464E+03    0.12496E-01   -0.11252E-01  1728   0.169E+00    0.214E+00
DAV:  30    -0.471833856520E+03   -0.48731E-02   -0.73185E-02  1752   0.112E+00    0.211E+00
DAV:  31    -0.471826390576E+03    0.74659E-02   -0.23253E-02  1560   0.822E-01    0.153E+00
DAV:  32    -0.471823692445E+03    0.26981E-02   -0.15536E-02  1688   0.673E-01    0.130E+00
DAV:  33    -0.471821307734E+03    0.23847E-02   -0.69063E-03  1576   0.570E-01    0.116E+00
DAV:  34    -0.471821902418E+03   -0.59468E-03   -0.40836E-03  1616   0.306E-01    0.123E+00
DAV:  35    -0.471822048199E+03   -0.14578E-03   -0.30223E-03  1272   0.251E-01    0.123E+00
DAV:  36    -0.471821002551E+03    0.10456E-02   -0.12889E-03  1232   0.171E-01    0.107E+00
DAV:  37    -0.471818373856E+03    0.26287E-02   -0.28481E-03  1512   0.214E-01    0.567E-01
DAV:  38    -0.471818601684E+03   -0.22783E-03   -0.95479E-04  1328   0.177E-01    0.451E-01
DAV:  39    -0.471819259487E+03   -0.65780E-03   -0.65237E-04  1184   0.136E-01    0.434E-01
DAV:  40    -0.471819557066E+03   -0.29758E-03   -0.59612E-04  1016   0.104E-01    0.413E-01
DAV:  41    -0.471819644116E+03   -0.87049E-04   -0.54913E-04   984   0.101E-01
   1 F= -.47181964E+03 E0= -.47111130E+03  d E =-.141669E+01
