       N       E                     dE             d eps       ncg     rms          rms(c)
DAV:   1     0.147335496647E+05    0.14734E+05   -0.68196E+05  1508   0.177E+03
DAV:   2     0.119020079409E+04   -0.13543E+05   -0.13071E+05  1292   0.578E+02
DAV:   3    -0.407379150300E+03   -0.15976E+04   -0.14777E+04  1414   0.212E+02
DAV:   4    -0.536543518863E+03   -0.12916E+03   -0.12667E+03  1488   0.524E+01
DAV:   5    -0.541409864948E+03   -0.48663E+01   -0.48512E+01  1616   0.109E+01    0.103E+02
DAV:   6    -0.744913332670E+03   -0.20350E+03   -0.11357E+03  1672   0.140E+02    0.208E+02
DAV:   7    -0.607703669113E+03    0.13721E+03   -0.34237E+02  1654   0.104E+02    0.146E+02
DAV:   8    -0.618907488387E+03   -0.11204E+02   -0.15864E+02  1718   0.985E+01    0.130E+02
DAV:   9    -0.622572285459E+03   -0.36648E+01   -0.20182E+02  1792   0.105E+02    0.158E+02
DAV:  10    -0.612655722625E+03    0.99166E+01   -0.35017E+02  1720   0.816E+01    0.169E+02
DAV:  11    -0.552053842972E+03    0.60602E+02   -0.11949E+02  1712   0.431E+01    0.101E+02
DAV:  12    -0.588604914976E+03   -0.36551E+02   -0.18016E+02  1672   0.747E+01    0.164E+02
DAV:  13    -0.573400610900E+03    0.15204E+02   -0.15983E+02  1816   0.717E+01    0.132E+02
DAV:  14    -0.534077881611E+03    0.39323E+02   -0.93961E+01  1688   0.366E+01    0.796E+01
DAV:  15    -0.516305914617E+03    0.17772E+02   -0.78209E+01  1744   0.495E+01    0.829E+01
DAV:  16    -0.502646017692E+03    0.13660E+02   -0.88951E+01  1808   0.415E+01    0.735E+01
DAV:  17    -0.489594409592E+03    0.13052E+02   -0.39701E+01  1760   0.285E+01    0.396E+01
DAV:  18    -0.483649882511E+03    0.59445E+01   -0.16299E+01  1776   0.210E+01    0.281E+01
DAV:  19    -0.481708139249E+03    0.19417E+01   -0.54725E+00  1712   0.102E+01    0.238E+01
DAV:  20    -0.480896388455E+03    0.81175E+00   -0.28916E+00  1696   0.923E+00    0.226E+01
DAV:  21    -0.479797523256E+03    0.10989E+01   -0.28220E+00  1696   0.980E+00    0.189E+01
DAV:  22    -0.478527883934E+03    0.12696E+01   -0.25824E+00  1744   0.859E+00    0.131E+01
DAV:  23    -0.478145207155E+03    0.38268E+00   -0.13760E+00  1696   0.684E+00    0.116E+01
DAV:  24    -0.477691066353E+03    0.45414E+00   -0.81651E-01  1688   0.532E+00    0.828E+00
DAV:  25    -0.477709111530E+03   -0.18045E-01   -0.91451E-01  1728   0.580E+00    0.854E+00
DAV:  26    -0.477455618571E+03    0.25349E+00   -0.74994E-01  1720   0.472E+00    0.559E+00
DAV:  27    -0.477456682660E+03   -0.10641E-02   -0.52024E-01  1680   0.355E+00    0.538E+00
DAV:  28    -0.477430994515E+03    0.25688E-01   -0.26100E-01  1736   0.276E+00    0.445E+00
DAV:  29    -0.477350626745E+03    0.80368E-01   -0.20285E-01  1512   0.221E+00    0.320E+00
DAV:  30    -0.477329975719E+03    0.20651E-01   -0.21352E-01  1608   0.222E+00    0.310E+00
DAV:  31    -0.477311956553E+03    0.18019E-01   -0.12420E-01  1576   0.186E+00    0.209E+00
DAV:  32    -0.477300426501E+03    0.11530E-01   -0.54195E-02  1624   0.131E+00    0.150E+00
DAV:  33    -0.477304073557E+03   -0.36471E-02   -0.44520E-02  1664   0.977E-01    0.164E+00
DAV:  34    -0.477291872265E+03    0.12201E-01   -0.32321E-02  1720   0.885E-01    0.952E-01
DAV:  35    -0.477288350157E+03    0.35221E-02   -0.10515E-02  1712   0.504E-01    0.634E-01
DAV:  36    -0.477287459524E+03    0.89063E-03   -0.75718E-03  1728   0.446E-01    0.603E-01
DAV:  37    -0.477287373897E+03    0.85627E-04   -0.48899E-03  1632   0.330E-01    0.513E-01
DAV:  38    -0.477286979217E+03    0.39468E-03   -0.36265E-03  1504   0.296E-01    0.376E-01
DAV:  39    -0.477286993709E+03   -0.14492E-04   -0.17626E-03  1424   0.249E-01    0.291E-01
DAV:  40    -0.477287015142E+03   -0.21433E-04   -0.81202E-04  1264   0.165E-01
   1 F= -.47728702E+03 E0= -.47664926E+03  d E =-.127552E+01
