 vasp.5.4.4.18Apr17-6-g9f103f2a35 (build Aug 13 2019 17:33:20) gamma-only       
  
 executed on             LinuxIFC date 2020.05.11  02:30:32
 running on   12 total cores
 distrk:  each k-point on   12 cores,    1 groups
 distr:  one band on NCORES_PER_BAND=   6 cores,    2 groups


--------------------------------------------------------------------------------------------------------


 INCAR:
 POTCAR:    PAW_PBE Ni_pv 06Sep2000               
 POTCAR:    PAW_PBE S 06Sep2000                   
 POTCAR:    PAW_PBE Ni_pv 06Sep2000               
   VRHFIN =Ni:                                                                  
   LEXCH  = PE                                                                  
   EATOM  =  3501.1230 eV,  257.3253 Ry                                         
                                                                                
   TITEL  = PAW_PBE Ni_pv 06Sep2000                                             
   LULTRA =        F    use ultrasoft PP ?                                      
   IUNSCR =        1    unscreen: 0-lin 1-nonlin 2-no                           
   RPACOR =    1.500    partial core radius                                     
   POMASS =   58.690; ZVAL   =   16.000    mass and valenz                      
   RCORE  =    2.000    outmost cutoff radius                                   
   RWIGS  =    2.000; RWIGS  =    1.058    wigner-seitz radius (au A)           
   ENMAX  =  367.986; ENMIN  =  275.989 eV                                      
   RCLOC  =    1.301    cutoff for local pot                                    
   LCOR   =        T    correct aug charges                                     
   LPAW   =        T    paw PP                                                  
   EAUG   =  703.443                                                            
   DEXC   =    0.000                                                            
   RMAX   =    2.041    core radius for proj-oper                               
   RAUG   =    1.300    factor for augmentation sphere                          
   RDEP   =    2.103    radius for radial grids                                 
   RDEPT  =    1.618    core radius for aug-charge                              
                                                                                
   Atomic configuration                                                         
    8 entries                                                                   
     n  l   j            E        occ.                                          
     1  0  0.50     -8206.4253   2.0000                                         
     2  0  0.50      -976.1748   2.0000                                         
     2  1  1.50      -839.0571   6.0000                                         
     3  0  0.50      -105.9991   2.0000                                         
     3  1  1.50       -66.4603   6.0000                                         
     3  2  2.50        -4.6458   9.0000                                         
     4  0  0.50        -4.4926   1.0000                                         
     4  3  2.50        -1.3606   0.0000                                         
   Description                                                                  
     l       E           TYP  RCUT    TYP  RCUT                                 
     1    -66.4602962     23  1.700                                             
     1     -1.3605826     23  1.700                                             
     2     -4.6457867     23  2.000                                             
     2     -6.0063693     23  2.000                                             
     0     -4.4925576     23  1.900                                             
     0     16.3626226     23  1.900                                             
  local pseudopotential read in
  partial core-charges read in
  partial kinetic energy density read in
  atomic valenz-charges read in
  non local Contribution for L=           1  read in
    real space projection operators read in
  non local Contribution for L=           1  read in
    real space projection operators read in
  non local Contribution for L=           2  read in
    real space projection operators read in
  non local Contribution for L=           2  read in
    real space projection operators read in
  non local Contribution for L=           0  read in
    real space projection operators read in
  non local Contribution for L=           0  read in
    real space projection operators read in
    PAW grid and wavefunctions read in
 
   number of l-projection  operators is LMAX  =           6
   number of lm-projection operators is LMMAX =          18
 
 POTCAR:    PAW_PBE S 06Sep2000                   
   VRHFIN =S : s2p4                                                             
   LEXCH  = PE                                                                  
   EATOM  =   276.8230 eV,   20.3459 Ry                                         
                                                                                
   TITEL  = PAW_PBE S 06Sep2000                                                 
   LULTRA =        F    use ultrasoft PP ?                                      
   IUNSCR =        1    unscreen: 0-lin 1-nonlin 2-no                           
   RPACOR =    1.500    partial core radius                                     
   POMASS =   32.066; ZVAL   =    6.000    mass and valenz                      
   RCORE  =    1.900    outmost cutoff radius                                   
   RWIGS  =    2.200; RWIGS  =    1.164    wigner-seitz radius (au A)           
   ENMAX  =  258.689; ENMIN  =  194.016 eV                                      
   ICORE  =        2    local potential                                         
   LCOR   =        T    correct aug charges                                     
   LPAW   =        T    paw PP                                                  
   EAUG   =  335.092                                                            
   DEXC   =    0.000                                                            
   RMAX   =    1.942    core radius for proj-oper                               
   RAUG   =    1.300    factor for augmentation sphere                          
   RDEP   =    1.954    radius for radial grids                                 
   RDEPT  =    1.744    core radius for aug-charge                              
                                                                                
   Atomic configuration                                                         
    6 entries                                                                   
     n  l   j            E        occ.                                          
     1  0  0.50     -2405.8406   2.0000                                         
     2  0  0.50      -211.7007   2.0000                                         
     2  1  1.50      -156.4958   6.0000                                         
     3  0  0.50       -17.2562   2.0000                                         
     3  1  0.50        -7.0085   4.0000                                         
     3  2  1.50        -6.8029   0.0000                                         
   Description                                                                  
     l       E           TYP  RCUT    TYP  RCUT                                 
     0    -17.2561641     23  1.900                                             
     0    -15.8743224     23  1.900                                             
     1     -7.0085400     23  1.900                                             
     1     -2.7779785     23  1.900                                             
     2     -6.8029130     23  1.900                                             
  local pseudopotential read in
  partial core-charges read in
  partial kinetic energy density read in
  atomic valenz-charges read in
  non local Contribution for L=           0  read in
    real space projection operators read in
  non local Contribution for L=           0  read in
    real space projection operators read in
  non local Contribution for L=           1  read in
    real space projection operators read in
  non local Contribution for L=           1  read in
    real space projection operators read in
    PAW grid and wavefunctions read in
 
   number of l-projection  operators is LMAX  =           4
   number of lm-projection operators is LMMAX =           8
 
 Optimization of the real space projectors (new method)

 maximal supplied QI-value         = 18.90
 optimisation between [QCUT,QGAM] = [ 10.77, 21.73] = [ 32.49,132.25] Ry 
 Optimized for a Real-space Cutoff    1.38 Angstroem

   l    n(q)    QCUT    max X(q) W(low)/X(q) W(high)/X(q)  e(spline) 
   1      8    10.771     2.836    0.40E-04    0.29E-04    0.12E-06
   1      8    10.771     4.023    0.10E-03    0.48E-04    0.29E-06
   2      8    10.771    73.368    0.42E-03    0.97E-04    0.44E-06
   2      8    10.771    69.010    0.42E-03    0.99E-04    0.45E-06
   0      9    10.771    54.797    0.10E-03    0.56E-04    0.74E-07
   0      9    10.771    24.266    0.89E-04    0.49E-04    0.67E-07
 Optimization of the real space projectors (new method)

 maximal supplied QI-value         = 19.84
 optimisation between [QCUT,QGAM] = [ 10.71, 21.63] = [ 32.15,130.99] Ry 
 Optimized for a Real-space Cutoff    1.19 Angstroem

   l    n(q)    QCUT    max X(q) W(low)/X(q) W(high)/X(q)  e(spline) 
   0      8    10.715   187.594    0.41E-03    0.53E-04    0.66E-07
   0      8    10.715   164.243    0.41E-03    0.53E-04    0.65E-07
   1      7    10.715    67.533    0.19E-03    0.59E-03    0.68E-07
   1      7    10.715    50.729    0.19E-03    0.58E-03    0.67E-07
  PAW_PBE Ni_pv 06Sep2000               :
 energy of atom  1       EATOM=-3501.1230
 kinetic energy error for atom=    0.0925 (will be added to EATOM!!)
  PAW_PBE S 06Sep2000                   :
 energy of atom  2       EATOM= -276.8230
 kinetic energy error for atom=    0.0033 (will be added to EATOM!!)
 
 
 POSCAR: Type_052 Type_152                       
  positions in cartesian coordinates
  No initial velocities read in
 exchange correlation table for  LEXCH =        8
   RHO(1)=    0.500       N(1)  =     2000
   RHO(2)=  100.500       N(2)  =     4000
 


--------------------------------------------------------------------------------------------------------


 ion  position               nearest neighbor table
   1  0.261  0.479  0.291-  79 2.25  63 2.26  87 2.26  59 2.36  64 2.36   7 2.53  23 2.53
   2  0.355  0.385  0.419-  71 2.05  65 2.13  80 2.25  59 2.26  64 2.26   8 2.53  24 2.53
   3  0.167  0.073  0.162-  88 2.07  60 2.16  69 2.25  61 2.36  89 2.36  39 2.53  33 2.53
   4  0.026  0.068  0.490-  83 2.00  54 2.05  78 2.07  84 2.13
   5  0.214  0.523  0.044-  55 2.01  62 2.03  86 2.07  30 2.41  40 2.43
   6  0.274  0.333  0.128-  60 2.15  62 2.26  55 2.26  56 2.36  63 2.36  12 2.53  31 2.53
   7  0.368  0.239  0.257-  61 2.25  63 2.26  56 2.26  64 2.36  66 2.36   1 2.53  23 2.53
   8  0.462  0.145  0.385-  65 2.11  85 2.25  64 2.26  66 2.26  67 2.36  18 2.52   2 2.53  24 2.53

   9  0.000  0.372  0.257-  63 2.25  69 2.26 100 2.26  53 2.36  72 2.36  14 2.53  21 2.53
  10  0.094  0.278  0.385-  58 2.06  64 2.25  53 2.26  72 2.26  54 2.36  22 2.53  15 2.53
  11  0.188  0.202  0.491-  83 2.00  54 2.04  58 2.07  65 2.11
  12  0.406  0.465  0.128-  75 2.25  55 2.26  86 2.26  40 2.32  56 2.36  87 2.36  31 2.53   6 2.53

  13  0.410  0.071  0.040- 101 2.09  60 2.10  81 2.15  39 2.35
  14  0.761  0.479  0.291-  92 2.25  76 2.26 100 2.26  72 2.36  77 2.36  21 2.53   9 2.53
  15  0.855  0.385  0.419-  70 2.12  78 2.16  93 2.25  58 2.25  72 2.26  77 2.26  22 2.53  10 2.53

  16  0.531  0.204  0.090-  55 1.98  56 2.12 101 2.20  73 2.27  17 2.29  27 2.41
  17  0.667  0.073  0.162-  56 2.25  73 2.26 101 2.26  16 2.29  74 2.36 102 2.36  52 2.53  46 2.53

  18  0.530  0.043  0.485-  96 2.01  67 2.07  65 2.09  97 2.13   8 2.52
  19  0.722  0.528  0.051-  68 2.03  75 2.06  99 2.07
  20  0.774  0.333  0.128-  68 2.04  73 2.25  75 2.26  69 2.36  76 2.36  26 2.53  44 2.53
  21  0.868  0.239  0.257-  74 2.25  76 2.26  69 2.26  77 2.36  53 2.36  14 2.53   9 2.53
  22  0.962  0.145  0.385-  78 2.12  98 2.25  77 2.26  53 2.26  54 2.36  15 2.53  10 2.53
  23  0.500  0.372  0.257-  76 2.25  56 2.26  87 2.26  66 2.36  59 2.36   1 2.53   7 2.53
  24  0.594  0.278  0.385-  71 2.06  77 2.25  66 2.26  59 2.26  67 2.36   8 2.53   2 2.53
  25  0.675  0.205  0.493-  96 2.01  67 2.03  71 2.04  78 2.13
  26  0.906  0.465  0.128-  68 2.04  62 2.25  99 2.27  69 2.36 100 2.36  44 2.53  20 2.53
  27  0.717  0.023  0.044-  94 1.99  73 2.05 101 2.06  16 2.41
  28  0.261  0.979  0.291-  53 2.25  89 2.26  61 2.26  85 2.36  90 2.36  34 2.53  49 2.53
  29  0.355  0.885  0.419-  91 2.08  97 2.16  54 2.25  85 2.26  90 2.26  35 2.53  50 2.53
  30  0.028  0.703  0.091-  94 1.98  95 2.10  62 2.18  31 2.29  86 2.31   5 2.41
  31  0.167  0.573  0.162-  95 2.25  86 2.26  62 2.26  30 2.29  87 2.36  63 2.36  12 2.53   6 2.53

  32  0.030  0.561  0.491-  57 2.00  80 2.06 104 2.06  58 2.11
  33  0.274  0.833  0.128-  88 2.07  86 2.25  82 2.36  89 2.36  43 2.42  39 2.53   3 2.53  81 2.55

  34  0.368  0.739  0.257-  87 2.25  89 2.26  82 2.26  90 2.36  92 2.36  28 2.53  49 2.53
  35  0.462  0.645  0.385-  91 2.09  93 2.10  59 2.25  90 2.26  92 2.26  29 2.53  50 2.53
  36  0.000  0.872  0.257-  89 2.25  95 2.26  74 2.26  79 2.36  98 2.36  41 2.53  47 2.53
  37  0.094  0.778  0.385-  84 2.14  90 2.25  79 2.26  98 2.26  80 2.36  38 2.53  48 2.53  42 2.53

  38  0.175  0.715  0.489-  57 2.00  80 2.05  84 2.07  91 2.09  37 2.53
  39  0.406  0.965  0.128-  81 2.09  60 2.12 101 2.25  13 2.35  82 2.36  61 2.36   3 2.53  33 2.53

  40  0.415  0.550  0.037-  75 2.11  86 2.15  12 2.32  55 2.39   5 2.43  43 2.53
  41  0.761  0.979  0.291-  66 2.25 102 2.26  74 2.26  98 2.36 103 2.36  47 2.53  36 2.53
  42  0.855  0.885  0.419- 104 2.08  84 2.12  67 2.25  98 2.26 103 2.26  48 2.53  37 2.53
  43  0.494  0.701  0.089-  75 2.11  81 2.13  82 2.14  45 2.40  33 2.42  44 2.48  40 2.53
  44  0.667  0.573  0.162-  99 2.14  82 2.25  75 2.26 100 2.36  76 2.36  43 2.48  26 2.53  20 2.53

  45  0.603  0.823  0.049- 101 2.06  81 2.12  99 2.15  43 2.40
  46  0.774  0.833  0.128-  99 2.12 101 2.26  94 2.26  95 2.36 102 2.36  52 2.53  17 2.53
  47  0.868  0.739  0.257- 100 2.25 102 2.26  95 2.26 103 2.36  79 2.36  41 2.53  36 2.53
  48  0.962  0.645  0.385- 104 2.13  72 2.25 103 2.26  79 2.26  80 2.36  42 2.53  37 2.53
  49  0.500  0.872  0.257- 102 2.25  82 2.26  61 2.26  92 2.36  85 2.36  28 2.53  34 2.53
  50  0.594  0.778  0.385-  97 2.08  93 2.17 103 2.25  92 2.26  85 2.26  51 2.44  35 2.53  29 2.53

  51  0.706  0.671  0.475-  70 2.01  93 2.07 104 2.07  97 2.15  50 2.44
  52  0.906  0.965  0.128-  88 2.10  94 2.26  73 2.26  95 2.36  74 2.36  17 2.53  46 2.53
  53  0.073  0.167  0.306-  28 2.25  10 2.26  22 2.26   9 2.36  21 2.36
  54  0.167  0.073  0.435-  11 2.04   4 2.05  29 2.25  10 2.36  22 2.36
  55  0.385  0.355  0.050-  16 1.98   5 2.01  12 2.26   6 2.26  40 2.39
  56  0.479  0.261  0.178-  16 2.12  17 2.25   7 2.26  23 2.26   6 2.36  12 2.36
  57  0.102  0.641  0.551-  32 2.00  38 2.00  80 2.78
  58  0.036  0.380  0.463-  10 2.06  11 2.07  32 2.11  15 2.25  70 2.57
  59  0.436  0.472  0.350-  35 2.25   2 2.26  24 2.26   1 2.36  23 2.36
  60  0.260  0.156  0.104-  13 2.10  39 2.12   6 2.15   3 2.16
  61  0.342  0.066  0.221-   7 2.25  28 2.26  49 2.26   3 2.36  39 2.36
  62  0.080  0.491  0.093-   5 2.03  30 2.18  26 2.25   6 2.26  31 2.26
  63  0.174  0.397  0.221-   9 2.25   7 2.26   1 2.26   6 2.36  31 2.36
  64  0.268  0.303  0.350-  10 2.25   2 2.26   8 2.26   1 2.36   7 2.36
  65  0.360  0.217  0.464-  18 2.09   8 2.11  11 2.11   2 2.13
  66  0.573  0.167  0.306-  41 2.25  24 2.26   8 2.26  23 2.36   7 2.36
  67  0.667  0.073  0.435-  25 2.03  18 2.07  42 2.25  24 2.36   8 2.36  96 2.71
  68  0.887  0.353  0.062-  19 2.03  26 2.04  20 2.04
  69  0.979  0.261  0.178-   3 2.25  21 2.26   9 2.26  20 2.36  26 2.36
  70  0.797  0.481  0.501-  51 2.01  15 2.12  93 2.52  58 2.57
  71  0.519  0.373  0.463-  25 2.04   2 2.05  24 2.06
  72  0.936  0.472  0.350-  48 2.25  15 2.26  10 2.26  14 2.36   9 2.36
  73  0.748  0.160  0.093-  27 2.05  20 2.25  17 2.26  52 2.26  16 2.27
  74  0.842  0.066  0.221-  21 2.25  41 2.26  36 2.26  17 2.36  52 2.36
  75  0.580  0.491  0.093-  19 2.06  40 2.11  43 2.11  12 2.25  20 2.26  44 2.26
  76  0.674  0.397  0.221-  23 2.25  21 2.26  14 2.26  20 2.36  44 2.36
  77  0.768  0.303  0.350-  24 2.25  15 2.26  22 2.26  14 2.36  21 2.36  78 2.75
  78  0.847  0.218  0.462-   4 2.07  22 2.12  25 2.13  15 2.16  77 2.75
  79  0.073  0.667  0.306-   1 2.25  37 2.26  48 2.26  36 2.36  47 2.36
  80  0.167  0.573  0.435-  38 2.05  32 2.06   2 2.25  37 2.36  48 2.36  57 2.78
  81  0.394  0.889  0.046-  39 2.09  45 2.12  43 2.13  13 2.15  33 2.55
  82  0.479  0.761  0.178-  43 2.14  44 2.25  34 2.26  49 2.26  33 2.36  39 2.36
  83  0.104  0.137  0.552-   4 2.00  11 2.00
  84  0.018  0.892  0.463-  38 2.07  42 2.12   4 2.13  37 2.14  98 2.76
  85  0.436  0.972  0.350-   8 2.25  29 2.26  50 2.26  28 2.36  49 2.36
  86  0.248  0.660  0.093-   5 2.07  40 2.15  33 2.25  31 2.26  12 2.26  30 2.31
  87  0.342  0.566  0.221-  34 2.25   1 2.26  23 2.26  31 2.36  12 2.36
  88  0.083  0.979  0.111-   3 2.07  33 2.07  52 2.10  89 2.72
  89  0.174  0.897  0.221-  36 2.25  34 2.26  28 2.26  33 2.36   3 2.36  88 2.72
  90  0.268  0.803  0.350-  37 2.25  29 2.26  35 2.26  28 2.36  34 2.36  91 2.69
  91  0.347  0.724  0.460-  29 2.08  35 2.09  38 2.09  90 2.69
  92  0.573  0.667  0.306-  14 2.25  50 2.26  35 2.26  49 2.36  34 2.36  93 2.60
  93  0.663  0.571  0.409-  51 2.07  35 2.10  50 2.17  15 2.25  70 2.52  92 2.60
  94  0.885  0.855  0.050-  30 1.98  27 1.99  52 2.26  46 2.26
  95  0.979  0.761  0.178-  30 2.10  31 2.25  47 2.26  36 2.26  46 2.36  52 2.36
  96  0.596  0.121  0.548-  25 2.01  18 2.01  67 2.71
  97  0.530  0.857  0.468-  50 2.08  18 2.13  51 2.15  29 2.16
  98  0.936  0.972  0.350-  22 2.25  42 2.26  37 2.26  41 2.36  36 2.36  84 2.76
  99  0.744  0.668  0.103-  19 2.07  46 2.12  44 2.14  45 2.15  26 2.27
 100  0.842  0.566  0.221-  47 2.25  14 2.26   9 2.26  44 2.36  26 2.36
 101  0.580  0.991  0.093-  45 2.06  27 2.06  13 2.09  16 2.20  39 2.25  46 2.26  17 2.26
 102  0.674  0.897  0.221-  49 2.25  47 2.26  41 2.26  46 2.36  17 2.36
 103  0.768  0.803  0.350-  50 2.25  42 2.26  48 2.26  41 2.36  47 2.36
 104  0.860  0.724  0.465-  32 2.06  51 2.07  42 2.08  48 2.13
 
  LATTYP: Found a base centered orthorhombic cell.
 ALAT       =    11.8257374459
 B/A-ratio  =     1.6199260857
 C/A-ratio  =     1.9350716598
  
  Lattice vectors:
  
 A1 = (  11.2564630382,   0.0000000000,   0.0000000000)
 A2 = (  -5.0445621212, -10.0628203371,   0.0000000000)
 A3 = (   0.0000000000,   0.0000000000, -22.8836493875)


Analysis of symmetry for initial positions (statically):
=====================================================================
 Subroutine PRICEL returns:
 Original cell was already a primitive cell.
 

 Routine SETGRP: Setting up the symmetry group for a 
 base centered orthorhombic supercell.


 Subroutine GETGRP returns: Found  1 space group operations
 (whereof  1 operations were pure point group operations)
 out of a pool of  8 trial point group operations.


The static configuration has the point symmetry C_1 .


Analysis of symmetry for dynamics (positions and initial velocities):
=====================================================================
 Subroutine PRICEL returns:
 Original cell was already a primitive cell.
 

 Routine SETGRP: Setting up the symmetry group for a 
 base centered orthorhombic supercell.


 Subroutine GETGRP returns: Found  1 space group operations
 (whereof  1 operations were pure point group operations)
 out of a pool of  8 trial point group operations.


The dynamic configuration has the point symmetry C_1 .


 Subroutine INISYM returns: Found  1 space group operations
 (whereof  1 operations are pure point group operations),
 and found     1 'primitive' translations

 
 
 KPOINTS: gamma-point-only calculation. no periodi

Automatic generation of k-mesh.
Space group operators:
 irot       det(A)        alpha          n_x          n_y          n_z        tau_x        tau_y        tau_z
    1     1.000000     0.000001     1.000000     0.000000     0.000000     0.000000     0.000000     0.000000
 
 Subroutine IBZKPT returns following result:
 ===========================================
 
 Found      1 irreducible k-points:
 
 Following reciprocal coordinates:
            Coordinates               Weight
  0.000000  0.000000  0.000000      1.000000
 
 Following cartesian coordinates:
            Coordinates               Weight
  0.000000  0.000000  0.000000      1.000000
 


--------------------------------------------------------------------------------------------------------




 Dimension of arrays:
   k-points           NKPTS =      1   k-points in BZ     NKDIM =      1   number of bands    NBANDS=    686
   number of dos      NEDOS =    301   number of ions     NIONS =    104
   non local maximal  LDIM  =      6   non local SUM 2l+1 LMDIM =     18
   total plane-waves  NPLWV = 432000
   max r-space proj   IRMAX =   1888   max aug-charges    IRDMAX=   5450
   dimension x,y,z NGX =    60 NGY =   60 NGZ =  120
   dimension x,y,z NGXF=   120 NGYF=  120 NGZF=  240
   support grid    NGXF=   120 NGYF=  120 NGZF=  240
   ions per type =              52  52
   NGX,Y,Z   is equivalent  to a cutoff of   8.86,  8.86,  8.72 a.u.
   NGXF,Y,Z  is equivalent  to a cutoff of  17.72, 17.72, 17.44 a.u.

 SYSTEM =  "Millerite NiS"                         
 POSCAR =  Type_052 Type_152                       

 Startparameter for this run:
   NWRITE =      2    write-flag & timer
   PREC   = normal    normal or accurate (medium, high low for compatibility)
   ISTART =      0    job   : 0-new  1-cont  2-samecut
   ICHARG =      2    charge: 1-file 2-atom 10-const
   ISPIN  =      1    spin polarized calculation?
   LNONCOLLINEAR =      F non collinear calculations
   LSORBIT =      F    spin-orbit coupling
   INIWAV =      1    electr: 0-lowe 1-rand  2-diag
   LASPH  =      F    aspherical Exc in radial PAW
   METAGGA=      F    non-selfconsistent MetaGGA calc.

 Electronic Relaxation 1
   ENCUT  =  450.0 eV  33.07 Ry    5.75 a.u.  19.47 19.47 39.58*2*pi/ulx,y,z
   ENINI  =  450.0     initial cutoff
   ENAUG  =  703.4 eV  augmentation charge cutoff
   NELM   =    100;   NELMIN=  2; NELMDL= -5     # of ELM steps 
   EDIFF  = 0.1E-03   stopping-criterion for ELM
   LREAL  =      T    real-space projection
   NLSPLINE    = F    spline interpolate recip. space projectors
   LCOMPAT=      F    compatible to vasp.4.4
   GGA_COMPAT  = T    GGA compatible to vasp.4.4-vasp.4.6
   LMAXPAW     = -100 max onsite density
   LMAXMIX     =    2 max onsite mixed and CHGCAR
   VOSKOWN=      0    Vosko Wilk Nusair interpolation
   ROPT   =   -0.00050  -0.00050
 Ionic relaxation
   EDIFFG = 0.1E-02   stopping-criterion for IOM
   NSW    =      0    number of steps for IOM
   NBLOCK =      1;   KBLOCK =      1    inner block; outer block 
   IBRION =     -1    ionic relax: 0-MD 1-quasi-New 2-CG
   NFREE  =      0    steps in history (QN), initial steepest desc. (CG)
   ISIF   =      2    stress and relaxation
   IWAVPR =     10    prediction:  0-non 1-charg 2-wave 3-comb
   ISYM   =      2    0-nonsym 1-usesym 2-fastsym
   LCORR  =      T    Harris-Foulkes like correction to forces

   POTIM  = 0.5000    time-step for ionic-motion
   TEIN   =    0.0    initial temperature
   TEBEG  =    0.0;   TEEND  =   0.0 temperature during run
   SMASS  =  -3.00    Nose mass-parameter (am)
   estimated Nose-frequenzy (Omega)   =  0.10E-29 period in steps =****** mass=  -0.290E-26a.u.
   SCALEE = 1.0000    scale energy and forces
   NPACO  =    256;   APACO  = 16.0  distance and # of slots for P.C.
   PSTRESS=    0.0 pullay stress

  Mass of Ions in am
   POMASS =  58.69 32.07
  Ionic Valenz
   ZVAL   =  16.00  6.00
  Atomic Wigner-Seitz radii
   RWIGS  =  -1.00 -1.00
  virtual crystal weights 
   VCA    =   1.00  1.00
   NELECT =    1144.0000    total number of electrons
   NUPDOWN=      -1.0000    fix difference up-down

 DOS related values:
   EMIN   =  10.00;   EMAX   =-10.00  energy-range for DOS
   EFERMI =   0.00
   ISMEAR =     0;   SIGMA  =   0.20  broadening in eV -4-tet -1-fermi 0-gaus

 Electronic relaxation 2 (details)
   IALGO  =     38    algorithm
   LDIAG  =      T    sub-space diagonalisation (order eigenvalues)
   LSUBROT=      F    optimize rotation matrix (better conditioning)
   TURBO    =      0    0=normal 1=particle mesh
   IRESTART =      0    0=no restart 2=restart with 2 vectors
   NREBOOT  =      0    no. of reboots
   NMIN     =      0    reboot dimension
   EREF     =   0.00    reference energy to select bands
   IMIX   =      4    mixing-type and parameters
     AMIX     =   0.40;   BMIX     =  1.00
     AMIX_MAG =   1.60;   BMIX_MAG =  1.00
     AMIN     =   0.10
     WC   =   100.;   INIMIX=   1;  MIXPRE=   1;  MAXMIX= -45

 Intra band minimization:
   WEIMIN = 0.0000     energy-eigenvalue tresh-hold
   EBREAK =  0.36E-07  absolut break condition
   DEPER  =   0.30     relativ break condition  

   TIME   =   0.40     timestep for ELM

  volume/ion in A,a.u.               =      24.92       168.19
  Fermi-wavevector in a.u.,A,eV,Ry     =   1.246430  2.355411 21.137841  1.553587
  Thomas-Fermi vector in A             =   2.380608
 
 Write flags
   LWAVE        =      F    write WAVECAR
   LDOWNSAMPLE  =      F    k-point downsampling of WAVECAR
   LCHARG       =      F    write CHGCAR
   LVTOT        =      F    write LOCPOT, total local potential
   LVHAR        =      F    write LOCPOT, Hartree potential only
   LELF         =      F    write electronic localiz. function (ELF)
   LORBIT       =      0    0 simple, 1 ext, 2 COOP (PROOUT), +10 PAW based schemes


 Dipole corrections
   LMONO  =      F    monopole corrections only (constant potential shift)
   LDIPOL =      F    correct potential (dipole corrections)
   IDIPOL =      0    1-x, 2-y, 3-z, 4-all directions 
   EPSILON=  1.0000000 bulk dielectric constant

 Exchange correlation treatment:
   GGA     =    --    GGA type
   LEXCH   =     8    internal setting for exchange type
   VOSKOWN=      0    Vosko Wilk Nusair interpolation
   LHFCALC =     F    Hartree Fock is set to
   LHFONE  =     F    Hartree Fock one center treatment
   AEXX    =    0.0000 exact exchange contribution

 Linear response parameters
   LEPSILON=     F    determine dielectric tensor
   LRPA    =     F    only Hartree local field effects (RPA)
   LNABLA  =     F    use nabla operator in PAW spheres
   LVEL    =     F    velocity operator in full k-point grid
   LINTERFAST=   F  fast interpolation
   KINTER  =     0    interpolate to denser k-point grid
   CSHIFT  =0.1000    complex shift for real part using Kramers Kronig
   OMEGAMAX=  -1.0    maximum frequency
   DEG_THRESHOLD= 0.2000000E-02 threshold for treating states as degnerate
   RTIME   =   -0.100 relaxation time in fs
  (WPLASMAI=    0.000 imaginary part of plasma frequency in eV, 0.658/RTIME)
   DFIELD  = 0.0000000 0.0000000 0.0000000 field for delta impulse in time
 
 Orbital magnetization related:
   ORBITALMAG=     F  switch on orbital magnetization
   LCHIMAG   =     F  perturbation theory with respect to B field
   DQ        =  0.001000  dq finite difference perturbation B field
   LLRAUG    =     F  two centre corrections for induced B field



--------------------------------------------------------------------------------------------------------


 Static calculation
 charge density and potential will be updated during run
 non-spin polarized calculation
 Variant of blocked Davidson
 Davidson routine will perform the subspace rotation
 perform sub-space diagonalisation
    after iterative eigenvector-optimisation
 modified Broyden-mixing scheme, WC =      100.0
 initial mixing is a Kerker type mixing with AMIX =  0.4000 and BMIX =      1.0000
 Hartree-type preconditioning will be used
 using additional bands          114
 real space projection scheme for non local part
 use partial core corrections
 calculate Harris-corrections to forces 
   (improved forces if not selfconsistent)
 use gradient corrections 
 use of overlap-Matrix (Vanderbilt PP)
 Gauss-broadening in eV      SIGMA  =   0.20


--------------------------------------------------------------------------------------------------------


  energy-cutoff  :      450.00
  volume of cell :     2592.07
      direct lattice vectors                 reciprocal lattice vectors
    11.256463038  0.000000000  0.000000000     0.088837852 -0.044535036  0.000000000
     5.044562121 10.062820337  0.000000000     0.000000000  0.099375718  0.000000000
     0.000000000  0.000000000 22.883649388     0.000000000  0.000000000  0.043699324

  length of vectors
    11.256463038 11.256463038 22.883649388     0.099375718  0.099375718  0.043699324


 
 k-points in units of 2pi/SCALE and weight: gamma-point-only calculation. no periodi
   0.00000000  0.00000000  0.00000000       1.000
 
 k-points in reciprocal lattice and weights: gamma-point-only calculation. no periodi
   0.00000000  0.00000000  0.00000000       1.000
 
 position of ions in fractional coordinates (direct lattice) 
   0.26092070  0.47878036  0.29050611
   0.35488056  0.38482049  0.41880986
   0.16696083  0.07274024  0.16220237
   0.02621241  0.06812257  0.49027486
   0.21396941  0.52291351  0.04425519
   0.27423906  0.33335899  0.12830375
   0.36819893  0.23939913  0.25660749
   0.46215880  0.14543926  0.38491124
   0.00030194  0.37150212  0.25660749
   0.09426181  0.27754226  0.38491124
   0.18790097  0.20215879  0.49140321
   0.40634206  0.46546199  0.12830375
   0.41021186  0.07137697  0.04030952
   0.76092070  0.47878036  0.29050611
   0.85488056  0.38482049  0.41880986
   0.53110719  0.20386661  0.08988772
   0.66696083  0.07274024  0.16220237
   0.52981470  0.04288556  0.48483209
   0.72225074  0.52818024  0.05119173
   0.77423906  0.33335899  0.12830375
   0.86819893  0.23939913  0.25660749
   0.96215880  0.14543926  0.38491124
   0.50030194  0.37150212  0.25660749
   0.59426181  0.27754226  0.38491124
   0.67460928  0.20492658  0.49317468
   0.90634206  0.46546199  0.12830375
   0.71739300  0.02267738  0.04432882
   0.26092070  0.97878036  0.29050611
   0.35488056  0.88482049  0.41880986
   0.02775373  0.70282122  0.09063737
   0.16696083  0.57274024  0.16220237
   0.02987993  0.56104316  0.49091765
   0.27423907  0.83335899  0.12830375
   0.36819893  0.73939913  0.25660749
   0.46215880  0.64543926  0.38491124
   0.00030194  0.87150212  0.25660749
   0.09426181  0.77754226  0.38491124
   0.17484980  0.71478846  0.48869032
   0.40634206  0.96546199  0.12830375
   0.41522810  0.55033920  0.03672633
   0.76092070  0.97878036  0.29050611
   0.85488056  0.88482049  0.41880986
   0.49411857  0.70074694  0.08875244
   0.66696083  0.57274024  0.16220237
   0.60279477  0.82325739  0.04876668
   0.77423907  0.83335899  0.12830375
   0.86819893  0.73939913  0.25660749
   0.96215880  0.64543926  0.38491124
   0.50030194  0.87150212  0.25660749
   0.59426181  0.77754226  0.38491124
   0.70610313  0.67145738  0.47525799
   0.90634206  0.96546199  0.12830375
   0.07287763  0.16682343  0.30639927
   0.16683750  0.07286357  0.43470302
   0.38495789  0.35474317  0.04979178
   0.47891775  0.26078330  0.17809552
   0.10212096  0.64072515  0.55104920
   0.03601516  0.37997310  0.46273766
   0.43627354  0.47164251  0.34956450
   0.25977952  0.15648165  0.10350030
   0.34231368  0.06560239  0.22126075
   0.08013882  0.49134724  0.09295701
   0.17409868  0.39738738  0.22126075
   0.26805855  0.30342751  0.34956450
   0.36010420  0.21727029  0.46441400
   0.57287763  0.16682343  0.30639927
   0.66683750  0.07286357  0.43470302
   0.88660998  0.35317134  0.06243445
   0.97891775  0.26078330  0.17809552
   0.79651747  0.48071329  0.50117685
   0.51866810  0.37296184  0.46300875
   0.93627354  0.47164251  0.34956450
   0.74835381  0.15956225  0.09295701
   0.84231368  0.06560239  0.22126075
   0.58013882  0.49134724  0.09295701
   0.67409868  0.39738738  0.22126075
   0.76805855  0.30342751  0.34956450
   0.84679279  0.21819809  0.46190064
   0.07287764  0.66682343  0.30639927
   0.16683750  0.57286357  0.43470302
   0.39433897  0.88857457  0.04638889
   0.47891775  0.76078330  0.17809552
   0.10396538  0.13703788  0.55247699
   0.01758958  0.89176589  0.46275819
   0.43627354  0.97164251  0.34956450
   0.24835381  0.65956226  0.09295701
   0.34231368  0.56560239  0.22126075
   0.08342258  0.97867524  0.11099317
   0.17409868  0.89738738  0.22126075
   0.26805855  0.80342751  0.34956450
   0.34683580  0.72368641  0.45972870
   0.57287764  0.66682343  0.30639927
   0.66272875  0.57114752  0.40922825
   0.88495789  0.85474317  0.04979178
   0.97891775  0.76078330  0.17809552
   0.59550412  0.12145282  0.54842427
   0.52969844  0.85651340  0.46774272
   0.93627354  0.97164251  0.34956450
   0.74402958  0.66795916  0.10273218
   0.84231368  0.56560239  0.22126075
   0.58013882  0.99134724  0.09295701
   0.67409868  0.89738738  0.22126075
   0.76805855  0.80342751  0.34956450
   0.85955903  0.72373607  0.46486378
 
 position of ions in cartesian coordinates  (Angst):
   5.35228144  4.81788074  6.64784006
   5.93595081  3.87237948  9.58389802
   2.24633106  0.73197198  3.71178210
   0.63870753  0.68550517 11.21927791
   5.04640844  5.26198471  1.01272026
   4.76861205  3.35453166  2.93605796
   5.35228143  2.40903041  5.87211592
   5.93595082  1.46352916  8.80817388
   1.87746434  3.73835913  5.87211592
   2.46113373  2.79285788  8.80817388
   3.13490295  2.03428761 11.24509886
   6.92202632  4.68386039  2.93605796
   4.97760018  0.71825361  0.92242892
  10.98051296  4.81788074  6.64784006
  11.56418233  3.87237948  9.58389802
   7.00680622  2.05147304  2.05695897
   7.87456258  0.73197198  3.71178210
   6.18017849  0.43154972 11.09472766
  10.79442685  5.31498290  1.17145352
  10.39684357  3.35453166  2.93605796
  10.98051295  2.40903041  5.87211592
  11.56418234  1.46352916  8.80817388
   7.50569586  3.73835913  5.87211592
   8.08936525  2.79285788  8.80817388
   8.62747933  2.06213937 11.28563646
  12.55025784  4.68386039  2.93605796
   8.18970522  0.22819842  1.01440515
   7.87456250  9.84929091  6.64784006
   8.45823187  8.90378965  9.58389802
   3.85783410  7.07236368  2.07411378
   4.76861213  5.76338214  3.71178210
   3.16655943  5.64567656 11.23398741
   7.29089311  8.38594183  2.93605796
   7.87456249  7.44044058  5.87211592
   8.45823188  6.49493933  8.80817388
   4.39974540  8.76976930  5.87211592
   4.98341479  7.82426805  8.80817388
   5.57398506  7.19278786 11.18301795
   9.44430738  9.71527056  2.93605796
   7.45022004  5.53796452  0.84043247
  13.50279402  9.84929091  6.64784006
  14.08646339  8.90378965  9.58389802
   9.09698893  7.05149054  2.03097969
  10.39684364  5.76338214  3.71178210
  10.93831012  8.28429123  1.11595953
  12.91912463  8.38594183  2.93605796
  13.50279401  7.44044058  5.87211592
  14.08646340  6.49493933  8.80817388
  10.02797692  8.76976930  5.87211592
  10.61164631  7.82426805  8.80817388
  11.33543230  6.75675498 10.87563716
  15.07253890  9.71527056  2.93605796
   1.66189559  1.67871425  7.01153347
   2.24556497  0.73321299  9.94759143
   6.12278819  3.56971677  1.13941754
   6.70645756  2.62421550  4.07547551
   4.38169857  6.44750203 12.61001672
   2.32220129  3.82360106 10.58912627
   7.29012694  4.74605381  7.99931146
   3.71358004  1.57464676  2.36846468
   4.18417657  0.66014504  5.06325349
   3.38071132  4.94433905  2.12719553
   3.96438069  3.99883779  5.06325349
   4.54805007  3.05333654  7.99931146
   5.14953306  2.18635186 10.62748715
   7.29012710  1.67871425  7.01153347
   7.87379649  0.73321299  9.94759143
  11.76168729  3.55389978  1.42872808
  12.33468908  2.62421550  4.07547551
  11.39095753  4.83733150 11.46875542
   7.71979741  3.75304795 10.59532991
  12.91835846  4.74605381  7.99931146
   9.22873872  1.60564630  2.12719553
   9.81240809  0.66014504  5.06325349
   9.00894284  4.94433905  2.12719553
   9.59261221  3.99883779  5.06325349
  10.17628159  3.05333654  7.99931146
  10.63260561  2.19568817 10.56997227
   4.18417665  6.71012442  7.01153347
   4.76784603  5.76462316  9.94759143
   8.92133167  8.94156627  1.06154698
   9.22873862  7.65562567  4.07547551
   1.86157848  1.37898752 12.64268971
   4.69656489  8.97367995 10.58959628
   9.81240800  9.77746398  7.99931146
   6.12278826  6.63705647  2.12719553
   6.70645763  5.69155521  5.06325349
   5.87603123  9.84823307  2.53992880
   6.48666175  9.03024796  5.06325349
   7.07033113  8.08474671  7.99931146
   7.55482535  7.28232629 10.52027036
   9.81240817  6.71012442  7.01153347
  10.34117083  5.74735492  9.36463580
  14.27330077  8.60112693  1.13941754
  14.85697014  7.65562567  4.07547551
   7.31594640  1.22215795 12.54994861
  10.28326599  8.61894050 10.70366046
  15.44063952  9.77746398  7.99931146
  11.74470298  6.72155306  2.35088711
  12.33468915  5.69155521  5.06325349
  11.53122390  9.97574922  2.12719553
  12.11489327  9.03024796  5.06325349
  12.69856265  8.08474671  7.99931146
  13.32652599  7.28282608 10.63777972
 


--------------------------------------------------------------------------------------------------------


 use parallel FFT for orbitals z direction half grid
 k-point  1 :   0.0000 0.0000 0.0000  plane waves:   28140

 maximum and minimum number of plane-waves per node :      4692     4687

 maximum number of plane-waves:     28140
 maximum index in each direction: 
   IXMAX=   19   IYMAX=   19   IZMAX=   39
   IXMIN=  -19   IYMIN=  -19   IZMIN=    0


 real space projection operators:
  total allocation   :      16760.56 KBytes
  max/ min on nodes  :       2816.52       2768.75


 parallel 3D FFT for wavefunctions:
    minimum data exchange during FFTs selected (reduces bandwidth)
 parallel 3D FFT for charge:
    minimum data exchange during FFTs selected (reduces bandwidth)


 total amount of memory used by VASP MPI-rank0    90327. kBytes
=======================================================================

   base      :      30000. kBytes
   nonlr-proj:       3430. kBytes
   fftplans  :      11276. kBytes
   grid      :      19113. kBytes
   one-center:        139. kBytes
   wavefun   :      26369. kBytes
 
     INWAV:  cpu time    0.0000: real time    0.0000
 Broyden mixing: mesh for mixing (old mesh)
   NGX = 39   NGY = 39   NGZ = 79
  (NGX  =120   NGY  =120   NGZ  =240)
  gives a total of 120159 points

 initial charge density was supplied:
 charge density of overlapping atoms calculated
 number of electron    1144.0000000 magnetization 
 keeping initial charge density in first step


--------------------------------------------------------------------------------------------------------


 Maximum index for non-local projection operator          318
 Maximum index for augmentation-charges          485 (set IRDMAX)


--------------------------------------------------------------------------------------------------------


 First call to EWALD:  gamma=   0.129
 Maximum number of real-space cells 4x 4x 2
 Maximum number of reciprocal cells 2x 2x 4

    FEWALD:  cpu time    0.0110: real time    0.0110


--------------------------------------- Iteration      1(   1)  ---------------------------------------


    POTLOK:  cpu time    0.3711: real time    0.3721
    SETDIJ:  cpu time    0.0266: real time    0.0266
     EDDAV:  cpu time   15.6272: real time   15.6301
       DOS:  cpu time    0.0028: real time    0.0028
    --------------------------------------------
      LOOP:  cpu time   16.0277: real time   16.0316

 eigenvalue-minimisations  :  1644
 total energy-change (2. order) : 0.1490894E+05  (-0.7426692E+05)
 number of electron    1144.0000000 magnetization 
 augmentation part     1144.0000000 magnetization 

 Free energy of the ion-electron system (eV)
  ---------------------------------------------------
  alpha Z        PSCENC =      2994.23548884
  Ewald energy   TEWEN  =    353563.98873234
  -Hartree energ DENC   =   -531077.08353644
  -exchange      EXHF   =         0.00000000
  -V(xc)+E(xc)   XCENC  =      5316.80924212
  PAW double counting   =    162831.54814933  -169926.62828172
  entropy T*S    EENTRO =        -0.50927497
  eigenvalues    EBANDS =     -5241.62962200
  atomic energy  EATOM  =    196448.20729987
  Solvation  Ediel_sol  =         0.00000000
  ---------------------------------------------------
  free energy    TOTEN  =     14908.93819737 eV

  energy without entropy =    14909.44747234  energy(sigma->0) =    14909.19283486


--------------------------------------------------------------------------------------------------------




--------------------------------------- Iteration      1(   2)  ---------------------------------------


     EDDAV:  cpu time   13.9401: real time   13.9426
       DOS:  cpu time    0.0015: real time    0.0015
    --------------------------------------------
      LOOP:  cpu time   13.9416: real time   13.9440

 eigenvalue-minimisations  :  1420
 total energy-change (2. order) :-0.1388705E+05  (-0.1343645E+05)
 number of electron    1144.0000000 magnetization 
 augmentation part     1144.0000000 magnetization 

 Free energy of the ion-electron system (eV)
  ---------------------------------------------------
  alpha Z        PSCENC =      2994.23548884
  Ewald energy   TEWEN  =    353563.98873234
  -Hartree energ DENC   =   -531077.08353644
  -exchange      EXHF   =         0.00000000
  -V(xc)+E(xc)   XCENC  =      5316.80924212
  PAW double counting   =    162831.54814933  -169926.62828172
  entropy T*S    EENTRO =        -0.93517098
  eigenvalues    EBANDS =    -19128.25825106
  atomic energy  EATOM  =    196448.20729987
  Solvation  Ediel_sol  =         0.00000000
  ---------------------------------------------------
  free energy    TOTEN  =      1021.88367230 eV

  energy without entropy =     1022.81884329  energy(sigma->0) =     1022.35125779


--------------------------------------------------------------------------------------------------------




--------------------------------------- Iteration      1(   3)  ---------------------------------------


     EDDAV:  cpu time   14.7345: real time   14.7381
       DOS:  cpu time    0.0016: real time    0.0016
    --------------------------------------------
      LOOP:  cpu time   14.7361: real time   14.7397

 eigenvalue-minimisations  :  1560
 total energy-change (2. order) :-0.1497410E+04  (-0.1408204E+04)
 number of electron    1144.0000000 magnetization 
 augmentation part     1144.0000000 magnetization 

 Free energy of the ion-electron system (eV)
  ---------------------------------------------------
  alpha Z        PSCENC =      2994.23548884
  Ewald energy   TEWEN  =    353563.98873234
  -Hartree energ DENC   =   -531077.08353644
  -exchange      EXHF   =         0.00000000
  -V(xc)+E(xc)   XCENC  =      5316.80924212
  PAW double counting   =    162831.54814933  -169926.62828172
  entropy T*S    EENTRO =        -1.57891634
  eigenvalues    EBANDS =    -20625.02415221
  atomic energy  EATOM  =    196448.20729987
  Solvation  Ediel_sol  =         0.00000000
  ---------------------------------------------------
  free energy    TOTEN  =      -475.52597420 eV

  energy without entropy =     -473.94705786  energy(sigma->0) =     -474.73651603


--------------------------------------------------------------------------------------------------------




--------------------------------------- Iteration      1(   4)  ---------------------------------------


     EDDAV:  cpu time   15.2271: real time   15.2300
       DOS:  cpu time    0.0015: real time    0.0015
    --------------------------------------------
      LOOP:  cpu time   15.2287: real time   15.2316

 eigenvalue-minimisations  :  1592
 total energy-change (2. order) :-0.1020088E+03  (-0.1005526E+03)
 number of electron    1144.0000000 magnetization 
 augmentation part     1144.0000000 magnetization 

 Free energy of the ion-electron system (eV)
  ---------------------------------------------------
  alpha Z        PSCENC =      2994.23548884
  Ewald energy   TEWEN  =    353563.98873234
  -Hartree energ DENC   =   -531077.08353644
  -exchange      EXHF   =         0.00000000
  -V(xc)+E(xc)   XCENC  =      5316.80924212
  PAW double counting   =    162831.54814933  -169926.62828172
  entropy T*S    EENTRO =        -1.61292009
  eigenvalues    EBANDS =    -20726.99890806
  atomic energy  EATOM  =    196448.20729987
  Solvation  Ediel_sol  =         0.00000000
  ---------------------------------------------------
  free energy    TOTEN  =      -577.53473380 eV

  energy without entropy =     -575.92181371  energy(sigma->0) =     -576.72827376


--------------------------------------------------------------------------------------------------------




--------------------------------------- Iteration      1(   5)  ---------------------------------------


     EDDAV:  cpu time   16.6626: real time   16.6657
       DOS:  cpu time    0.0019: real time    0.0019
    CHARGE:  cpu time    0.4349: real time    0.4349
    MIXING:  cpu time    0.0123: real time    0.0123
    --------------------------------------------
      LOOP:  cpu time   17.1116: real time   17.1147

 eigenvalue-minimisations  :  1808
 total energy-change (2. order) :-0.3840755E+01  (-0.3834169E+01)
 number of electron    1143.9998738 magnetization 
 augmentation part      414.1366598 magnetization 

 Broyden mixing:
  rms(total) = 0.11462E+02    rms(broyden)= 0.11448E+02
  rms(prec ) = 0.11807E+02
  weight for this iteration     100.00

 Free energy of the ion-electron system (eV)
  ---------------------------------------------------
  alpha Z        PSCENC =      2994.23548884
  Ewald energy   TEWEN  =    353563.98873234
  -Hartree energ DENC   =   -531077.08353644
  -exchange      EXHF   =         0.00000000
  -V(xc)+E(xc)   XCENC  =      5316.80924212
  PAW double counting   =    162831.54814933  -169926.62828172
  entropy T*S    EENTRO =        -1.61491758
  eigenvalues    EBANDS =    -20730.83766561
  atomic energy  EATOM  =    196448.20729987
  Solvation  Ediel_sol  =         0.00000000
  ---------------------------------------------------
  free energy    TOTEN  =      -581.37548884 eV

  energy without entropy =     -579.76057126  energy(sigma->0) =     -580.56803005


--------------------------------------------------------------------------------------------------------




--------------------------------------- Iteration      1(   6)  ---------------------------------------


    POTLOK:  cpu time    0.4695: real time    0.4700
    SETDIJ:  cpu time    0.0508: real time    0.0508
     EDDAV:  cpu time   16.0477: real time   16.0508
       DOS:  cpu time    0.0015: real time    0.0015
    CHARGE:  cpu time    0.6341: real time    0.6342
    MIXING:  cpu time    0.0122: real time    0.0122
    --------------------------------------------
      LOOP:  cpu time   17.2158: real time   17.2196

 eigenvalue-minimisations  :  1736
 total energy-change (2. order) :-0.1046495E+03  (-0.1333742E+03)
 number of electron    1143.9998480 magnetization 
 augmentation part      499.3134561 magnetization 

 Broyden mixing:
  rms(total) = 0.18842E+02    rms(broyden)= 0.18838E+02
  rms(prec ) = 0.19597E+02
  weight for this iteration     100.00

 eigenvalues of (default mixing * dielectric matrix)
  average eigenvalue GAMMA=   0.2477
  0.2477

 Free energy of the ion-electron system (eV)
  ---------------------------------------------------
  alpha Z        PSCENC =      2994.23548884
  Ewald energy   TEWEN  =    353563.98873234
  -Hartree energ DENC   =   -527000.41311657
  -exchange      EXHF   =         0.00000000
  -V(xc)+E(xc)   XCENC  =      5209.47174170
  PAW double counting   =    169455.81080529  -176216.73869768
  entropy T*S    EENTRO =        -1.17139121
  eigenvalues    EBANDS =    -25139.41580560
  atomic energy  EATOM  =    196448.20729987
  Solvation  Ediel_sol  =         0.00000000
  ---------------------------------------------------
  free energy    TOTEN  =      -686.02494302 eV

  energy without entropy =     -684.85355180  energy(sigma->0) =     -685.43924741


--------------------------------------------------------------------------------------------------------




--------------------------------------- Iteration      1(   7)  ---------------------------------------


    POTLOK:  cpu time    0.3626: real time    0.3627
    SETDIJ:  cpu time    0.0261: real time    0.0261
     EDDAV:  cpu time   14.7014: real time   14.7050
       DOS:  cpu time    0.0016: real time    0.0016
    CHARGE:  cpu time    0.4353: real time    0.4354
    MIXING:  cpu time    0.0209: real time    0.0209
    --------------------------------------------
      LOOP:  cpu time   15.5479: real time   15.5516

 eigenvalue-minimisations  :  1552
 total energy-change (2. order) : 0.1462243E+03  (-0.2690790E+02)
 number of electron    1143.9998544 magnetization 
 augmentation part      477.2514489 magnetization 

 Broyden mixing:
  rms(total) = 0.85613E+01    rms(broyden)= 0.85590E+01
  rms(prec ) = 0.89494E+01
  weight for this iteration     100.00

 eigenvalues of (default mixing * dielectric matrix)
  average eigenvalue GAMMA=   0.4754
  0.4754  0.4754

 Free energy of the ion-electron system (eV)
  ---------------------------------------------------
  alpha Z        PSCENC =      2994.23548884
  Ewald energy   TEWEN  =    353563.98873234
  -Hartree energ DENC   =   -528861.79908945
  -exchange      EXHF   =         0.00000000
  -V(xc)+E(xc)   XCENC  =      5246.32771425
  PAW double counting   =    175728.71582893  -182685.96825366
  entropy T*S    EENTRO =        -0.99553901
  eigenvalues    EBANDS =    -22972.51286066
  atomic energy  EATOM  =    196448.20729987
  Solvation  Ediel_sol  =         0.00000000
  ---------------------------------------------------
  free energy    TOTEN  =      -539.80067854 eV

  energy without entropy =     -538.80513953  energy(sigma->0) =     -539.30290904


--------------------------------------------------------------------------------------------------------




--------------------------------------- Iteration      1(   8)  ---------------------------------------


    POTLOK:  cpu time    0.4762: real time    0.4765
    SETDIJ:  cpu time    0.0258: real time    0.0258
     EDDAV:  cpu time   16.8588: real time   16.8618
       DOS:  cpu time    0.0016: real time    0.0016
    CHARGE:  cpu time    0.4203: real time    0.4203
    MIXING:  cpu time    0.0131: real time    0.0131
    --------------------------------------------
      LOOP:  cpu time   17.7958: real time   17.7990

 eigenvalue-minimisations  :  1824
 total energy-change (2. order) :-0.1742704E+03  (-0.2661117E+02)
 number of electron    1143.9998693 magnetization 
 augmentation part      442.6431154 magnetization 

 Broyden mixing:
  rms(total) = 0.18588E+02    rms(broyden)= 0.18584E+02
  rms(prec ) = 0.23200E+02
  weight for this iteration     100.00

 eigenvalues of (default mixing * dielectric matrix)
  average eigenvalue GAMMA=   0.4455
  0.7866  0.4131  0.1369

 Free energy of the ion-electron system (eV)
  ---------------------------------------------------
  alpha Z        PSCENC =      2994.23548884
  Ewald energy   TEWEN  =    353563.98873234
  -Hartree energ DENC   =   -529499.30364974
  -exchange      EXHF   =         0.00000000
  -V(xc)+E(xc)   XCENC  =      5279.40579074
  PAW double counting   =    184558.77560882  -191699.45828690
  entropy T*S    EENTRO =        -0.82542900
  eigenvalues    EBANDS =    -22359.09661039
  atomic energy  EATOM  =    196448.20729987
  Solvation  Ediel_sol  =         0.00000000
  ---------------------------------------------------
  free energy    TOTEN  =      -714.07105541 eV

  energy without entropy =     -713.24562641  energy(sigma->0) =     -713.65834091


--------------------------------------------------------------------------------------------------------




--------------------------------------- Iteration      1(   9)  ---------------------------------------


    POTLOK:  cpu time    0.3586: real time    0.3588
    SETDIJ:  cpu time    0.0263: real time    0.0263
     EDDAV:  cpu time   16.7169: real time   16.7200
       DOS:  cpu time    0.0015: real time    0.0015
    CHARGE:  cpu time    0.4194: real time    0.4196
    MIXING:  cpu time    0.0141: real time    0.0141
    --------------------------------------------
      LOOP:  cpu time   17.5368: real time   17.5403

 eigenvalue-minimisations  :  1816
 total energy-change (2. order) : 0.1091738E+03  (-0.2423253E+02)
 number of electron    1143.9998676 magnetization 
 augmentation part      439.5452334 magnetization 

 Broyden mixing:
  rms(total) = 0.14465E+02    rms(broyden)= 0.14461E+02
  rms(prec ) = 0.16883E+02
  weight for this iteration     100.00

 eigenvalues of (default mixing * dielectric matrix)
  average eigenvalue GAMMA=   0.4286
  1.0239  0.3786  0.2205  0.0916

 Free energy of the ion-electron system (eV)
  ---------------------------------------------------
  alpha Z        PSCENC =      2994.23548884
  Ewald energy   TEWEN  =    353563.98873234
  -Hartree energ DENC   =   -529877.18420140
  -exchange      EXHF   =         0.00000000
  -V(xc)+E(xc)   XCENC  =      5282.94808773
  PAW double counting   =    189368.13706682  -196561.55376502
  entropy T*S    EENTRO =        -1.60124638
  eigenvalues    EBANDS =    -21822.07469955
  atomic energy  EATOM  =    196448.20729987
  Solvation  Ediel_sol  =         0.00000000
  ---------------------------------------------------
  free energy    TOTEN  =      -604.89723673 eV

  energy without entropy =     -603.29599036  energy(sigma->0) =     -604.09661354


--------------------------------------------------------------------------------------------------------




--------------------------------------- Iteration      1(  10)  ---------------------------------------


    POTLOK:  cpu time    0.3581: real time    0.3583
    SETDIJ:  cpu time    0.0260: real time    0.0260
     EDDAV:  cpu time   16.9920: real time   16.9950
       DOS:  cpu time    0.0016: real time    0.0016
    CHARGE:  cpu time    0.4307: real time    0.4307
    MIXING:  cpu time    0.0134: real time    0.0134
    --------------------------------------------
      LOOP:  cpu time   17.8219: real time   17.8251

 eigenvalue-minimisations  :  1832
 total energy-change (2. order) : 0.4693431E+02  (-0.1458508E+02)
 number of electron    1143.9998752 magnetization 
 augmentation part      440.7628540 magnetization 

 Broyden mixing:
  rms(total) = 0.81100E+01    rms(broyden)= 0.81059E+01
  rms(prec ) = 0.88556E+01
  weight for this iteration     100.00

 eigenvalues of (default mixing * dielectric matrix)
  average eigenvalue GAMMA=   0.5752
  1.8332  0.4068  0.4068  0.1237  0.1054

 Free energy of the ion-electron system (eV)
  ---------------------------------------------------
  alpha Z        PSCENC =      2994.23548884
  Ewald energy   TEWEN  =    353563.98873234
  -Hartree energ DENC   =   -530005.04975477
  -exchange      EXHF   =         0.00000000
  -V(xc)+E(xc)   XCENC  =      5279.79753106
  PAW double counting   =    192962.97850752  -200174.21088454
  entropy T*S    EENTRO =        -1.45012552
  eigenvalues    EBANDS =    -21626.45972057
  atomic energy  EATOM  =    196448.20729987
  Solvation  Ediel_sol  =         0.00000000
  ---------------------------------------------------
  free energy    TOTEN  =      -557.96292577 eV

  energy without entropy =     -556.51280025  energy(sigma->0) =     -557.23786301


--------------------------------------------------------------------------------------------------------




--------------------------------------- Iteration      1(  11)  ---------------------------------------


    POTLOK:  cpu time    0.3562: real time    0.3563
    SETDIJ:  cpu time    0.0259: real time    0.0259
     EDDAV:  cpu time   18.0827: real time   18.0859
       DOS:  cpu time    0.0016: real time    0.0016
    CHARGE:  cpu time    0.4199: real time    0.4200
    MIXING:  cpu time    0.0137: real time    0.0137
    --------------------------------------------
      LOOP:  cpu time   18.9000: real time   18.9034

 eigenvalue-minimisations  :  1976
 total energy-change (2. order) :-0.5072356E+02  (-0.1139705E+02)
 number of electron    1143.9998402 magnetization 
 augmentation part      433.7182671 magnetization 

 Broyden mixing:
  rms(total) = 0.15842E+02    rms(broyden)= 0.15836E+02
  rms(prec ) = 0.19920E+02
  weight for this iteration     100.00

 eigenvalues of (default mixing * dielectric matrix)
  average eigenvalue GAMMA=   0.5857
  2.3338  0.4127  0.4127  0.1363  0.1363  0.0828

 Free energy of the ion-electron system (eV)
  ---------------------------------------------------
  alpha Z        PSCENC =      2994.23548884
  Ewald energy   TEWEN  =    353563.98873234
  -Hartree energ DENC   =   -529788.24516912
  -exchange      EXHF   =         0.00000000
  -V(xc)+E(xc)   XCENC  =      5275.80690980
  PAW double counting   =    200698.00281857  -207960.42090166
  entropy T*S    EENTRO =        -1.73384788
  eigenvalues    EBANDS =    -21838.52781872
  atomic energy  EATOM  =    196448.20729987
  Solvation  Ediel_sol  =         0.00000000
  ---------------------------------------------------
  free energy    TOTEN  =      -608.68648796 eV

  energy without entropy =     -606.95264008  energy(sigma->0) =     -607.81956402


--------------------------------------------------------------------------------------------------------




--------------------------------------- Iteration      1(  12)  ---------------------------------------


    POTLOK:  cpu time    0.3621: real time    0.3621
    SETDIJ:  cpu time    0.0259: real time    0.0260
     EDDAV:  cpu time   17.1652: real time   17.1685
       DOS:  cpu time    0.0014: real time    0.0014
    CHARGE:  cpu time    0.4857: real time    0.4857
    MIXING:  cpu time    0.0170: real time    0.0170
    --------------------------------------------
      LOOP:  cpu time   18.0572: real time   18.0606

 eigenvalue-minimisations  :  1864
 total energy-change (2. order) : 0.6649072E+02  (-0.1108136E+02)
 number of electron    1143.9998633 magnetization 
 augmentation part      450.6492237 magnetization 

 Broyden mixing:
  rms(total) = 0.70696E+01    rms(broyden)= 0.70626E+01
  rms(prec ) = 0.80825E+01
  weight for this iteration     100.00

 eigenvalues of (default mixing * dielectric matrix)
  average eigenvalue GAMMA=   0.5848
  2.5453  0.4200  0.4200  0.3632  0.1323  0.1323  0.0803

 Free energy of the ion-electron system (eV)
  ---------------------------------------------------
  alpha Z        PSCENC =      2994.23548884
  Ewald energy   TEWEN  =    353563.98873234
  -Hartree energ DENC   =   -529704.44291478
  -exchange      EXHF   =         0.00000000
  -V(xc)+E(xc)   XCENC  =      5268.66212593
  PAW double counting   =    206217.10664608  -213497.92221939
  entropy T*S    EENTRO =        -1.42806857
  eigenvalues    EBANDS =    -21830.60285372
  atomic energy  EATOM  =    196448.20729987
  Solvation  Ediel_sol  =         0.00000000
  ---------------------------------------------------
  free energy    TOTEN  =      -542.19576340 eV

  energy without entropy =     -540.76769483  energy(sigma->0) =     -541.48172911


--------------------------------------------------------------------------------------------------------




--------------------------------------- Iteration      1(  13)  ---------------------------------------


    POTLOK:  cpu time    0.3581: real time    0.3583
    SETDIJ:  cpu time    0.0260: real time    0.0260
     EDDAV:  cpu time   17.3655: real time   17.3905
       DOS:  cpu time    0.0018: real time    0.0018
    CHARGE:  cpu time    0.4218: real time    0.4218
    MIXING:  cpu time    0.0180: real time    0.0179
    --------------------------------------------
      LOOP:  cpu time   18.1912: real time   18.2164

 eigenvalue-minimisations  :  1888
 total energy-change (2. order) :-0.6395738E+01  (-0.7117982E+01)
 number of electron    1143.9998817 magnetization 
 augmentation part      452.5598467 magnetization 

 Broyden mixing:
  rms(total) = 0.82624E+01    rms(broyden)= 0.82597E+01
  rms(prec ) = 0.93770E+01
  weight for this iteration     100.00

 eigenvalues of (default mixing * dielectric matrix)
  average eigenvalue GAMMA=   0.5493
  2.4673  0.5546  0.4503  0.4503  0.1360  0.1266  0.1266  0.0828

 Free energy of the ion-electron system (eV)
  ---------------------------------------------------
  alpha Z        PSCENC =      2994.23548884
  Ewald energy   TEWEN  =    353563.98873234
  -Hartree energ DENC   =   -529557.89174779
  -exchange      EXHF   =         0.00000000
  -V(xc)+E(xc)   XCENC  =      5267.04373245
  PAW double counting   =    208613.60052738  -215909.71038549
  entropy T*S    EENTRO =        -1.48424769
  eigenvalues    EBANDS =    -21966.58090180
  atomic energy  EATOM  =    196448.20729987
  Solvation  Ediel_sol  =         0.00000000
  ---------------------------------------------------
  free energy    TOTEN  =      -548.59150188 eV

  energy without entropy =     -547.10725420  energy(sigma->0) =     -547.84937804


--------------------------------------------------------------------------------------------------------




--------------------------------------- Iteration      1(  14)  ---------------------------------------


    POTLOK:  cpu time    0.3576: real time    0.3577
    SETDIJ:  cpu time    0.0258: real time    0.0258
     EDDAV:  cpu time   17.0869: real time   17.0907
       DOS:  cpu time    0.0015: real time    0.0015
    CHARGE:  cpu time    0.4656: real time    0.4656
    MIXING:  cpu time    0.0172: real time    0.0172
    --------------------------------------------
      LOOP:  cpu time   17.9546: real time   17.9586

 eigenvalue-minimisations  :  1856
 total energy-change (2. order) : 0.2560529E+02  (-0.4144656E+01)
 number of electron    1143.9998675 magnetization 
 augmentation part      456.8344597 magnetization 

 Broyden mixing:
  rms(total) = 0.42775E+01    rms(broyden)= 0.42751E+01
  rms(prec ) = 0.47437E+01
  weight for this iteration     100.00

 eigenvalues of (default mixing * dielectric matrix)
  average eigenvalue GAMMA=   0.4970
  2.3189  0.5481  0.4506  0.4506  0.2148  0.1443  0.1443  0.1197  0.0819

 Free energy of the ion-electron system (eV)
  ---------------------------------------------------
  alpha Z        PSCENC =      2994.23548884
  Ewald energy   TEWEN  =    353563.98873234
  -Hartree energ DENC   =   -529495.41124679
  -exchange      EXHF   =         0.00000000
  -V(xc)+E(xc)   XCENC  =      5268.01549900
  PAW double counting   =    208132.48169137  -215427.25860558
  entropy T*S    EENTRO =        -1.28561125
  eigenvalues    EBANDS =    -22005.95945782
  atomic energy  EATOM  =    196448.20729987
  Solvation  Ediel_sol  =         0.00000000
  ---------------------------------------------------
  free energy    TOTEN  =      -522.98621002 eV

  energy without entropy =     -521.70059877  energy(sigma->0) =     -522.34340440


--------------------------------------------------------------------------------------------------------




--------------------------------------- Iteration      1(  15)  ---------------------------------------


    POTLOK:  cpu time    0.3584: real time    0.3584
    SETDIJ:  cpu time    0.0258: real time    0.0258
     EDDAV:  cpu time   17.2932: real time   17.3000
       DOS:  cpu time    0.0015: real time    0.0015
    CHARGE:  cpu time    0.4251: real time    0.4252
    MIXING:  cpu time    0.0174: real time    0.0173
    --------------------------------------------
      LOOP:  cpu time   18.1213: real time   18.1282

 eigenvalue-minimisations  :  1880
 total energy-change (2. order) : 0.5537808E+01  (-0.1640964E+01)
 number of electron    1143.9998673 magnetization 
 augmentation part      455.1503277 magnetization 

 Broyden mixing:
  rms(total) = 0.31993E+01    rms(broyden)= 0.31974E+01
  rms(prec ) = 0.35705E+01
  weight for this iteration     100.00

 eigenvalues of (default mixing * dielectric matrix)
  average eigenvalue GAMMA=   0.4728
  2.1157  0.5420  0.5420  0.4352  0.4352  0.1696  0.1494  0.1281  0.1281  0.0822

 Free energy of the ion-electron system (eV)
  ---------------------------------------------------
  alpha Z        PSCENC =      2994.23548884
  Ewald energy   TEWEN  =    353563.98873234
  -Hartree energ DENC   =   -529601.51369073
  -exchange      EXHF   =         0.00000000
  -V(xc)+E(xc)   XCENC  =      5269.63673036
  PAW double counting   =    206932.07611598  -214220.30136287
  entropy T*S    EENTRO =        -1.32140706
  eigenvalues    EBANDS =    -21902.45630879
  atomic energy  EATOM  =    196448.20729987
  Solvation  Ediel_sol  =         0.00000000
  ---------------------------------------------------
  free energy    TOTEN  =      -517.44840205 eV

  energy without entropy =     -516.12699499  energy(sigma->0) =     -516.78769852


--------------------------------------------------------------------------------------------------------




--------------------------------------- Iteration      1(  16)  ---------------------------------------


    POTLOK:  cpu time    0.3547: real time    0.3580
    SETDIJ:  cpu time    0.0260: real time    0.0260
     EDDAV:  cpu time   17.0069: real time   17.0095
       DOS:  cpu time    0.0017: real time    0.0017
    CHARGE:  cpu time    0.4230: real time    0.4230
    MIXING:  cpu time    0.0170: real time    0.0170
    --------------------------------------------
      LOOP:  cpu time   17.8292: real time   17.8352

 eigenvalue-minimisations  :  1840
 total energy-change (2. order) : 0.1774405E+01  (-0.6601201E+00)
 number of electron    1143.9998672 magnetization 
 augmentation part      452.3823827 magnetization 

 Broyden mixing:
  rms(total) = 0.27892E+01    rms(broyden)= 0.27886E+01
  rms(prec ) = 0.31265E+01
  weight for this iteration     100.00

 eigenvalues of (default mixing * dielectric matrix)
  average eigenvalue GAMMA=   0.4742
  2.1072  0.6604  0.6604  0.4182  0.4182  0.3098  0.1721  0.0821  0.1338  0.1338
  0.1202

 Free energy of the ion-electron system (eV)
  ---------------------------------------------------
  alpha Z        PSCENC =      2994.23548884
  Ewald energy   TEWEN  =    353563.98873234
  -Hartree energ DENC   =   -529735.65748929
  -exchange      EXHF   =         0.00000000
  -V(xc)+E(xc)   XCENC  =      5271.42188716
  PAW double counting   =    205251.17351146  -212526.88970967
  entropy T*S    EENTRO =        -1.39050787
  eigenvalues    EBANDS =    -21780.76320988
  atomic energy  EATOM  =    196448.20729987
  Solvation  Ediel_sol  =         0.00000000
  ---------------------------------------------------
  free energy    TOTEN  =      -515.67399703 eV

  energy without entropy =     -514.28348916  energy(sigma->0) =     -514.97874309


--------------------------------------------------------------------------------------------------------




--------------------------------------- Iteration      1(  17)  ---------------------------------------


    POTLOK:  cpu time    0.3596: real time    0.3599
    SETDIJ:  cpu time    0.0260: real time    0.0260
     EDDAV:  cpu time   16.2938: real time   16.3020
       DOS:  cpu time    0.0016: real time    0.0016
    CHARGE:  cpu time    0.4242: real time    0.4242
    MIXING:  cpu time    0.0182: real time    0.0182
    --------------------------------------------
      LOOP:  cpu time   17.1233: real time   17.1319

 eigenvalue-minimisations  :  1744
 total energy-change (2. order) : 0.3264775E+00  (-0.3857754E+00)
 number of electron    1143.9998669 magnetization 
 augmentation part      452.0678887 magnetization 

 Broyden mixing:
  rms(total) = 0.27061E+01    rms(broyden)= 0.27052E+01
  rms(prec ) = 0.30570E+01
  weight for this iteration     100.00

 eigenvalues of (default mixing * dielectric matrix)
  average eigenvalue GAMMA=   0.5225
  2.1151  1.0191  1.0191  0.4532  0.4532  0.4083  0.1844  0.0821  0.1352  0.1352
  0.1405  0.1244

 Free energy of the ion-electron system (eV)
  ---------------------------------------------------
  alpha Z        PSCENC =      2994.23548884
  Ewald energy   TEWEN  =    353563.98873234
  -Hartree energ DENC   =   -529742.80772688
  -exchange      EXHF   =         0.00000000
  -V(xc)+E(xc)   XCENC  =      5271.46943472
  PAW double counting   =    204721.01144577  -211988.67201938
  entropy T*S    EENTRO =        -1.36455855
  eigenvalues    EBANDS =    -21781.41561630
  atomic energy  EATOM  =    196448.20729987
  Solvation  Ediel_sol  =         0.00000000
  ---------------------------------------------------
  free energy    TOTEN  =      -515.34751957 eV

  energy without entropy =     -513.98296102  energy(sigma->0) =     -514.66524029


--------------------------------------------------------------------------------------------------------




--------------------------------------- Iteration      1(  18)  ---------------------------------------


    POTLOK:  cpu time    0.3615: real time    0.3616
    SETDIJ:  cpu time    0.0522: real time    0.0522
     EDDAV:  cpu time   17.6684: real time   17.6812
       DOS:  cpu time    0.0015: real time    0.0015
    CHARGE:  cpu time    0.4262: real time    0.4263
    MIXING:  cpu time    0.0218: real time    0.0218
    --------------------------------------------
      LOOP:  cpu time   18.5318: real time   18.5446

 eigenvalue-minimisations  :  1904
 total energy-change (2. order) : 0.1581005E+01  (-0.3013548E+00)
 number of electron    1143.9998652 magnetization 
 augmentation part      452.3379124 magnetization 

 Broyden mixing:
  rms(total) = 0.20747E+01    rms(broyden)= 0.20738E+01
  rms(prec ) = 0.23838E+01
  weight for this iteration     100.00

 eigenvalues of (default mixing * dielectric matrix)
  average eigenvalue GAMMA=   0.5281
  2.1114  1.1907  1.1907  0.4615  0.4615  0.4449  0.2166  0.0821  0.1726  0.1334
  0.1334  0.1217  0.1452

 Free energy of the ion-electron system (eV)
  ---------------------------------------------------
  alpha Z        PSCENC =      2994.23548884
  Ewald energy   TEWEN  =    353563.98873234
  -Hartree energ DENC   =   -529726.80582545
  -exchange      EXHF   =         0.00000000
  -V(xc)+E(xc)   XCENC  =      5271.38178117
  PAW double counting   =    203707.35318421  -210958.35567363
  entropy T*S    EENTRO =        -1.32698880
  eigenvalues    EBANDS =    -21812.44451336
  atomic energy  EATOM  =    196448.20729987
  Solvation  Ediel_sol  =         0.00000000
  ---------------------------------------------------
  free energy    TOTEN  =      -513.76651481 eV

  energy without entropy =     -512.43952601  energy(sigma->0) =     -513.10302041


--------------------------------------------------------------------------------------------------------




--------------------------------------- Iteration      1(  19)  ---------------------------------------


    POTLOK:  cpu time    0.3610: real time    0.3610
    SETDIJ:  cpu time    0.0259: real time    0.0259
     EDDAV:  cpu time   17.3663: real time   17.3691
       DOS:  cpu time    0.0019: real time    0.0019
    CHARGE:  cpu time    0.5414: real time    0.5416
    MIXING:  cpu time    0.0261: real time    0.0261
    --------------------------------------------
      LOOP:  cpu time   18.3226: real time   18.3255

 eigenvalue-minimisations  :  1880
 total energy-change (2. order) : 0.1085743E+01  (-0.1583913E+00)
 number of electron    1143.9998648 magnetization 
 augmentation part      452.1701490 magnetization 

 Broyden mixing:
  rms(total) = 0.15163E+01    rms(broyden)= 0.15158E+01
  rms(prec ) = 0.17769E+01
  weight for this iteration     100.00

 eigenvalues of (default mixing * dielectric matrix)
  average eigenvalue GAMMA=   0.5313
  2.0964  1.3301  1.3301  0.4634  0.4634  0.4539  0.2613  0.2613  0.0821  0.1679
  0.1345  0.1345  0.1238  0.1351

 Free energy of the ion-electron system (eV)
  ---------------------------------------------------
  alpha Z        PSCENC =      2994.23548884
  Ewald energy   TEWEN  =    353563.98873234
  -Hartree energ DENC   =   -529752.54738052
  -exchange      EXHF   =         0.00000000
  -V(xc)+E(xc)   XCENC  =      5271.41686675
  PAW double counting   =    202998.26561840  -210238.52385508
  entropy T*S    EENTRO =        -1.32918814
  eigenvalues    EBANDS =    -21796.39435473
  atomic energy  EATOM  =    196448.20729987
  Solvation  Ediel_sol  =         0.00000000
  ---------------------------------------------------
  free energy    TOTEN  =      -512.68077226 eV

  energy without entropy =     -511.35158412  energy(sigma->0) =     -512.01617819


--------------------------------------------------------------------------------------------------------




--------------------------------------- Iteration      1(  20)  ---------------------------------------


    POTLOK:  cpu time    0.3783: real time    0.3784
    SETDIJ:  cpu time    0.0330: real time    0.0330
     EDDAV:  cpu time   16.6118: real time   16.6140
       DOS:  cpu time    0.0018: real time    0.0018
    CHARGE:  cpu time    0.4217: real time    0.4217
    MIXING:  cpu time    0.0217: real time    0.0217
    --------------------------------------------
      LOOP:  cpu time   17.4682: real time   17.4705

 eigenvalue-minimisations  :  1768
 total energy-change (2. order) : 0.6150127E+00  (-0.8979979E-01)
 number of electron    1143.9998643 magnetization 
 augmentation part      451.6429211 magnetization 

 Broyden mixing:
  rms(total) = 0.11777E+01    rms(broyden)= 0.11775E+01
  rms(prec ) = 0.13311E+01
  weight for this iteration     100.00

 eigenvalues of (default mixing * dielectric matrix)
  average eigenvalue GAMMA=   0.5382
  2.0541  1.4482  1.4482  0.4911  0.4911  0.4259  0.4259  0.3287  0.0821  0.1910
  0.1344  0.1344  0.1221  0.1478  0.1478

 Free energy of the ion-electron system (eV)
  ---------------------------------------------------
  alpha Z        PSCENC =      2994.23548884
  Ewald energy   TEWEN  =    353563.98873234
  -Hartree energ DENC   =   -529805.00154351
  -exchange      EXHF   =         0.00000000
  -V(xc)+E(xc)   XCENC  =      5271.53034229
  PAW double counting   =    202281.79990725  -209512.26365574
  entropy T*S    EENTRO =        -1.37380992
  eigenvalues    EBANDS =    -21753.18852102
  atomic energy  EATOM  =    196448.20729987
  Solvation  Ediel_sol  =         0.00000000
  ---------------------------------------------------
  free energy    TOTEN  =      -512.06575959 eV

  energy without entropy =     -510.69194967  energy(sigma->0) =     -511.37885463


--------------------------------------------------------------------------------------------------------




--------------------------------------- Iteration      1(  21)  ---------------------------------------


    POTLOK:  cpu time    0.3644: real time    0.3644
    SETDIJ:  cpu time    0.0257: real time    0.0257
     EDDAV:  cpu time   17.6513: real time   17.6557
       DOS:  cpu time    0.0029: real time    0.0029
    CHARGE:  cpu time    0.4166: real time    0.4166
    MIXING:  cpu time    0.0218: real time    0.0218
    --------------------------------------------
      LOOP:  cpu time   18.4827: real time   18.4871

 eigenvalue-minimisations  :  1904
 total energy-change (2. order) : 0.2578841E+00  (-0.5293572E-01)
 number of electron    1143.9998644 magnetization 
 augmentation part      451.2090462 magnetization 

 Broyden mixing:
  rms(total) = 0.10101E+01    rms(broyden)= 0.10099E+01
  rms(prec ) = 0.11214E+01
  weight for this iteration     100.00

 eigenvalues of (default mixing * dielectric matrix)
  average eigenvalue GAMMA=   0.5563
  2.0341  1.5623  1.5623  0.6435  0.6435  0.4526  0.4526  0.3767  0.2139  0.0821
  0.1866  0.1342  0.1342  0.1608  0.1227  0.1378

 Free energy of the ion-electron system (eV)
  ---------------------------------------------------
  alpha Z        PSCENC =      2994.23548884
  Ewald energy   TEWEN  =    353563.98873234
  -Hartree energ DENC   =   -529841.08559113
  -exchange      EXHF   =         0.00000000
  -V(xc)+E(xc)   XCENC  =      5271.75408943
  PAW double counting   =    201766.79780511  -208991.09544233
  entropy T*S    EENTRO =        -1.39196488
  eigenvalues    EBANDS =    -21723.21829270
  atomic energy  EATOM  =    196448.20729987
  Solvation  Ediel_sol  =         0.00000000
  ---------------------------------------------------
  free energy    TOTEN  =      -511.80787545 eV

  energy without entropy =     -510.41591057  energy(sigma->0) =     -511.11189301


--------------------------------------------------------------------------------------------------------




--------------------------------------- Iteration      1(  22)  ---------------------------------------


    POTLOK:  cpu time    0.3617: real time    0.3617
    SETDIJ:  cpu time    0.0263: real time    0.0263
     EDDAV:  cpu time   17.3748: real time   17.3835
       DOS:  cpu time    0.0039: real time    0.0039
    CHARGE:  cpu time    0.4159: real time    0.4159
    MIXING:  cpu time    0.0226: real time    0.0226
    --------------------------------------------
      LOOP:  cpu time   18.2053: real time   18.2139

 eigenvalue-minimisations  :  1888
 total energy-change (2. order) : 0.2247596E+00  (-0.4085540E-01)
 number of electron    1143.9998641 magnetization 
 augmentation part      451.2599373 magnetization 

 Broyden mixing:
  rms(total) = 0.79652E+00    rms(broyden)= 0.79621E+00
  rms(prec ) = 0.88985E+00
  weight for this iteration     100.00

 eigenvalues of (default mixing * dielectric matrix)
  average eigenvalue GAMMA=   0.5601
  2.0043  1.6471  1.6471  0.7393  0.7393  0.4550  0.4550  0.4164  0.2648  0.2230
  0.0821  0.1343  0.1343  0.1226  0.1386  0.1592  0.1592

 Free energy of the ion-electron system (eV)
  ---------------------------------------------------
  alpha Z        PSCENC =      2994.23548884
  Ewald energy   TEWEN  =    353563.98873234
  -Hartree energ DENC   =   -529852.12142189
  -exchange      EXHF   =         0.00000000
  -V(xc)+E(xc)   XCENC  =      5271.82745179
  PAW double counting   =    201315.66593306  -208534.37240146
  entropy T*S    EENTRO =        -1.39864665
  eigenvalues    EBANDS =    -21717.61555174
  atomic energy  EATOM  =    196448.20729987
  Solvation  Ediel_sol  =         0.00000000
  ---------------------------------------------------
  free energy    TOTEN  =      -511.58311585 eV

  energy without entropy =     -510.18446919  energy(sigma->0) =     -510.88379252


--------------------------------------------------------------------------------------------------------




--------------------------------------- Iteration      1(  23)  ---------------------------------------


    POTLOK:  cpu time    0.3659: real time    0.3660
    SETDIJ:  cpu time    0.0258: real time    0.0258
     EDDAV:  cpu time   17.3642: real time   17.3695
       DOS:  cpu time    0.0034: real time    0.0034
    CHARGE:  cpu time    0.4179: real time    0.4179
    MIXING:  cpu time    0.0239: real time    0.0239
    --------------------------------------------
      LOOP:  cpu time   18.2010: real time   18.2064

 eigenvalue-minimisations  :  1896
 total energy-change (2. order) : 0.1002933E+00  (-0.2261086E-01)
 number of electron    1143.9998639 magnetization 
 augmentation part      451.2175989 magnetization 

 Broyden mixing:
  rms(total) = 0.65593E+00    rms(broyden)= 0.65573E+00
[...]
   -.537E+03 0.686E+01 -.268E+04   0.539E+03 -.677E+01 0.268E+04   -.241E+01 -.427E-01 0.212E+01   0.244E-02 0.703E-03 0.190E-01
   -.633E+03 0.630E+02 -.568E+04   0.636E+03 -.620E+02 0.569E+04   -.244E+01 -.427E+00 -.357E+01   -.489E-03 -.839E-02 0.576E-02
   0.143E+03 -.299E+03 0.312E+04   -.145E+03 0.300E+03 -.312E+04   0.182E+01 -.137E+01 -.294E+01   0.758E-02 -.153E-02 0.130E-01
   -.213E+03 -.111E+03 0.645E+04   0.213E+03 0.112E+03 -.644E+04   0.956E+00 -.128E+01 -.241E+01   -.179E-02 -.212E-02 -.372E-02
   0.194E+03 -.422E+03 -.855E+03   -.194E+03 0.423E+03 0.855E+03   0.787E+00 -.135E+01 0.688E+00   0.902E-03 0.810E-02 0.292E-01
   0.266E+03 -.463E+03 -.409E+04   -.268E+03 0.466E+03 0.409E+04   0.107E+01 -.184E+01 -.231E+01   -.174E-02 0.114E-01 0.983E-02
   0.316E+03 -.383E+02 0.476E+04   -.318E+03 0.375E+02 -.476E+04   0.205E+01 0.507E+00 0.422E+01   -.195E-02 -.589E-03 0.106E-01
   0.168E+02 -.242E+02 0.192E+04   -.169E+02 0.247E+02 -.192E+04   0.727E-01 -.440E+00 -.408E+01   -.481E-03 -.242E-02 0.383E-01
   -.312E+03 0.252E+03 0.610E+04   0.308E+03 -.257E+03 -.611E+04   0.436E+01 0.382E+01 0.215E+01   -.868E-03 -.467E-03 -.524E-02
   0.810E+00 0.485E+03 0.332E+04   0.373E+00 -.486E+03 -.331E+04   -.861E+00 0.117E+01 -.289E+01   -.313E-02 -.975E-02 0.299E-01
   0.212E+03 0.466E+03 0.197E+03   -.213E+03 -.466E+03 -.197E+03   0.155E+01 0.585E+00 0.346E+00   -.401E-02 0.224E-02 0.264E-01
   0.167E+03 0.403E+03 -.265E+04   -.168E+03 -.405E+03 0.265E+04   0.115E+01 0.193E+01 0.180E+01   -.519E-03 -.258E-02 0.154E-01
   -.458E+03 -.553E+02 0.122E+03   0.459E+03 0.570E+02 -.122E+03   -.105E+01 -.149E+01 0.194E+00   0.943E-02 -.494E-02 0.322E-01
   -.304E+03 -.846E+02 -.280E+04   0.307E+03 0.878E+02 0.280E+04   -.335E+01 -.287E+01 0.441E+00   0.215E-02 -.246E-02 0.918E-02
   0.252E+03 0.768E+01 -.569E+04   -.250E+03 -.507E+01 0.569E+04   -.218E+01 -.149E+01 -.250E+01   -.631E-03 -.600E-02 0.683E-03
   -.955E+03 -.371E+03 0.373E+04   0.960E+03 0.373E+03 -.373E+04   -.423E+01 -.187E+01 -.273E+00   0.955E-03 -.368E-02 0.326E-01
   -.689E+02 0.123E+03 -.234E+03   0.701E+02 -.125E+03 0.232E+03   -.123E+01 0.183E+01 0.157E+01   -.522E-02 0.312E-02 0.114E-01
   -.121E+03 0.225E+03 -.146E+04   0.122E+03 -.228E+03 0.145E+04   -.522E+00 0.124E+01 0.930E+00   0.458E-03 0.205E-02 0.399E-04
   0.552E+02 0.181E+03 0.241E+04   -.548E+02 -.183E+03 -.241E+04   0.154E+00 0.277E+01 0.282E+01   -.118E-02 0.205E-03 -.110E-02
   -.520E+02 0.597E+02 0.676E+03   0.529E+02 -.606E+02 -.675E+03   -.857E+00 0.119E+01 -.274E+00   0.240E-02 0.124E-02 0.782E-02
   -.623E+02 0.111E+02 -.242E+04   0.628E+02 -.114E+02 0.242E+04   -.319E+00 0.624E-01 -.958E+00   0.183E-02 -.195E-03 0.223E-03
   -.396E+01 -.116E+03 -.197E+04   0.594E+01 0.116E+03 0.197E+04   -.202E+01 0.429E+00 -.263E+00   -.107E-02 -.104E-04 -.299E-03
   -.867E+02 -.168E+03 -.813E+03   0.876E+02 0.171E+03 0.812E+03   -.110E+01 -.270E+01 0.194E+00   0.318E-02 -.481E-02 0.148E-01
   0.403E+03 -.257E+03 0.173E+04   -.406E+03 0.261E+03 -.173E+04   0.208E+01 -.225E+01 0.142E+01   0.176E-02 0.368E-02 0.572E-03
   -.139E+01 -.180E+03 0.387E+03   0.278E+01 0.183E+03 -.388E+03   -.114E+01 -.261E+01 0.611E+00   0.179E-02 0.915E-03 0.124E-01
   0.401E+03 0.230E+03 0.185E+04   -.405E+03 -.231E+03 -.185E+04   0.123E+01 0.406E+00 0.267E+01   0.412E-03 0.416E-03 0.313E-02
   0.219E+03 0.236E+02 0.412E+03   -.222E+03 -.232E+02 -.413E+03   0.265E+01 -.485E+00 0.388E+00   -.204E-02 0.238E-02 0.840E-02
   0.156E+03 -.145E+02 -.734E+03   -.159E+03 0.148E+02 0.734E+03   0.304E+01 -.129E+00 -.417E+00   0.261E-02 -.175E-02 0.152E-01
   0.674E+02 -.120E+03 -.203E+04   -.689E+02 0.120E+03 0.203E+04   0.261E+00 -.457E+00 -.840E+00   0.639E-02 0.377E-02 -.251E-02
   -.833E+02 0.109E+03 -.292E+03   0.845E+02 -.110E+03 0.290E+03   -.108E+01 0.171E+01 0.142E+01   0.438E-02 -.104E-02 0.175E-01
   -.125E+03 0.163E+03 -.148E+04   0.126E+03 -.166E+03 0.147E+04   -.117E+01 0.107E+01 0.148E+01   0.170E-05 0.675E-02 0.721E-03
   -.285E+03 0.497E+03 0.232E+04   0.287E+03 -.500E+03 -.232E+04   -.678E+00 0.130E+01 0.717E+00   0.205E-02 -.234E-02 -.142E-02
   -.962E+02 0.180E+03 0.104E+04   0.971E+02 -.181E+03 -.104E+04   -.860E+00 0.143E+01 0.159E+01   -.452E-02 0.230E-02 0.141E-01
   0.172E+03 0.883E+02 -.235E+04   -.173E+03 -.894E+02 0.235E+04   0.657E+00 0.282E+00 -.341E+01   -.981E-03 -.457E-02 -.103E-02
   -.100E+03 -.405E+03 -.212E+04   0.103E+03 0.410E+03 0.212E+04   -.126E+01 -.224E+01 -.347E+00   -.193E-02 -.383E-02 -.375E-02
   -.702E+02 -.132E+03 -.710E+03   0.712E+02 0.135E+03 0.710E+03   -.765E+00 -.290E+01 -.697E+00   -.511E-02 -.311E-02 0.686E-02
   -.435E+03 -.216E+03 0.185E+04   0.438E+03 0.218E+03 -.185E+04   -.171E+01 -.727E+00 0.270E+01   0.242E-02 0.539E-02 0.780E-02
   -.138E+03 -.174E+03 0.429E+03   0.138E+03 0.176E+03 -.429E+03   -.748E+00 -.263E+01 0.327E+00   -.334E-03 0.352E-02 0.159E-01
   0.394E+02 0.313E+03 0.170E+04   -.420E+02 -.316E+03 -.170E+04   0.111E+01 0.153E+01 0.481E+00   -.347E-02 -.215E-02 0.675E-02
   0.128E+03 0.422E+02 0.387E+03   -.131E+03 -.420E+02 -.388E+03   0.270E+01 -.148E+00 0.613E+00   0.468E-02 -.152E-02 0.158E-01
   0.182E+03 -.137E+02 -.745E+03   -.185E+03 0.145E+02 0.744E+03   0.285E+01 -.998E+00 -.339E+00   -.211E-02 0.655E-03 0.654E-02
   0.167E+03 -.117E+03 -.197E+04   -.168E+03 0.117E+03 0.197E+04   0.542E+00 -.131E+00 -.966E+00   -.477E-02 0.377E-02 -.182E-02
   -.867E+02 0.122E+03 -.277E+03   0.880E+02 -.124E+03 0.275E+03   -.126E+01 0.182E+01 0.164E+01   -.541E-03 0.121E-02 0.852E-02
   -.190E+03 0.204E+03 -.148E+04   0.192E+03 -.206E+03 0.148E+04   -.140E+01 0.928E+00 0.138E+01   0.452E-02 -.387E-02 0.549E-02
   0.469E+03 -.114E+03 0.243E+04   -.474E+03 0.114E+03 -.244E+04   0.286E+01 -.460E+00 0.304E+01   0.844E-05 0.491E-03 -.599E-02
   -.310E+02 0.435E+02 0.650E+03   0.326E+02 -.444E+02 -.649E+03   -.188E+01 0.942E+00 -.381E+00   0.601E-03 -.372E-02 0.108E-01
   -.575E+01 0.316E+02 -.242E+04   0.581E+01 -.318E+02 0.242E+04   -.317E-01 -.101E+00 -.629E+00   0.235E-03 0.157E-02 0.298E-02
   0.824E+01 -.130E+03 -.200E+04   -.863E+01 0.132E+03 0.200E+04   0.501E+00 -.826E+00 -.878E+00   -.171E-02 -.155E-02 0.184E-02
   -.481E+02 -.141E+03 -.752E+03   0.495E+02 0.143E+03 0.753E+03   -.153E+01 -.233E+01 -.436E+00   0.398E-02 0.385E-02 0.102E-01
   -.565E+01 -.420E+03 0.172E+04   0.642E+01 0.424E+03 -.172E+04   0.274E+00 -.212E+01 -.154E+00   -.979E-03 -.142E-02 0.570E-02
   -.575E+02 -.158E+03 0.339E+03   0.585E+02 0.161E+03 -.339E+03   -.976E+00 -.264E+01 0.201E+00   0.144E-02 0.126E-02 0.752E-02
   0.919E+02 -.220E+03 0.186E+04   -.924E+02 0.221E+03 -.186E+04   -.270E+00 -.695E+00 0.347E+01   -.170E-02 -.123E-02 0.356E-02
   0.183E+03 -.591E+02 0.428E+03   -.185E+03 0.593E+02 -.427E+03   0.255E+01 -.271E+00 -.333E+00   -.333E-02 -.221E-02 0.129E-01
   0.149E+03 0.624E+01 -.763E+03   -.152E+03 -.586E+01 0.763E+03   0.331E+01 0.355E-01 -.728E+00   -.783E-03 -.194E-02 0.855E-02
   -.784E+02 0.155E+03 -.210E+04   0.795E+02 -.156E+03 0.211E+04   -.698E+00 0.746E+00 -.197E+01   -.197E-02 -.396E-02 0.259E-02
   -.488E+02 0.122E+03 -.299E+03   0.497E+02 -.123E+03 0.297E+03   -.995E+00 0.188E+01 0.155E+01   0.230E-02 -.664E-02 0.990E-02
   0.125E+03 0.212E+03 -.140E+04   -.126E+03 -.213E+03 0.140E+04   0.924E+00 0.741E+00 0.319E+01   -.204E-02 -.593E-02 0.710E-03
   -.242E+03 0.713E+02 0.244E+04   0.244E+03 -.730E+02 -.245E+04   -.118E+01 0.133E+01 0.344E+01   0.272E-02 -.731E-02 -.208E-02
   -.797E+02 0.476E+02 0.731E+03   0.807E+02 -.486E+02 -.729E+03   -.104E+01 0.119E+01 -.301E+00   -.887E-03 -.153E-02 0.107E-01
   0.106E+02 0.624E+01 -.241E+04   -.102E+02 -.657E+01 0.242E+04   -.128E+00 0.243E+00 -.169E+01   0.106E-02 0.285E-02 -.128E-02
   0.910E+02 -.708E+01 -.218E+04   -.908E+02 0.830E+01 0.218E+04   -.160E+00 -.291E+00 -.156E+01   0.422E-04 0.177E-02 0.108E-02
   -.728E+02 -.157E+03 -.723E+03   0.740E+02 0.160E+03 0.723E+03   -.134E+01 -.294E+01 -.176E+00   -.255E-02 0.439E-02 0.700E-02
   -.282E+03 0.256E+02 0.159E+04   0.285E+03 -.248E+02 -.159E+04   -.225E+01 -.253E+00 -.506E+00   0.258E-02 0.212E-02 0.661E-02
   -.957E+02 -.947E+02 0.394E+03   0.965E+02 0.971E+02 -.395E+03   -.646E+00 -.256E+01 0.878E+00   -.247E-02 -.391E-03 0.139E-01
   0.459E+02 -.101E+02 0.155E+04   -.479E+02 0.974E+01 -.155E+04   0.135E+01 0.830E+00 -.166E+01   -.380E-02 -.153E-02 0.622E-02
   0.145E+03 -.439E+01 0.338E+03   -.148E+03 0.488E+01 -.339E+03   0.288E+01 -.358E+00 0.244E+00   0.323E-02 0.868E-05 0.122E-01
   0.162E+03 -.222E+02 -.736E+03   -.165E+03 0.226E+02 0.736E+03   0.332E+01 -.248E-01 -.117E+00   -.805E-03 0.295E-02 0.582E-02
   0.118E+03 -.157E+03 -.207E+04   -.119E+03 0.158E+03 0.207E+04   -.990E-01 -.437E+00 -.173E+01   0.208E-02 0.178E-02 0.308E-02
 -----------------------------------------------------------------------------------------------
   -.519E+01 0.385E+01 -.130E+02   -.497E-12 -.139E-11 0.273E-11   0.497E+01 -.384E+01 0.118E+02   -.233E-01 0.877E-02 0.117E+01
 
 
 POSITION                                       TOTAL-FORCE (eV/Angst)
 -----------------------------------------------------------------------------------
      5.35228      4.81788      6.64784         0.094532     -0.256643     -0.005138
      5.93595      3.87238      9.58390        -1.037036      0.545603     -0.820560
      2.24633      0.73197      3.71178         0.050130      0.349614      1.432704
      0.63871      0.68551     11.21928        -1.412728     -1.049951      0.404596
      5.04641      5.26198      1.01272        -0.393882      0.232572     -1.631226
      4.76861      3.35453      2.93606        -0.064148      0.029056      0.759086
      5.35228      2.40903      5.87212        -0.161670      0.098898     -0.043175
      5.93595      1.46353      8.80817         0.089373     -0.188715     -1.555738
      1.87746      3.73836      5.87212        -0.033584      0.003276      0.018498
      2.46113      2.79286      8.80817         0.200790     -0.593352     -1.740709
      3.13490      2.03429     11.24510         1.773985      0.932064      0.540062
      6.92203      4.68386      2.93606        -0.108490     -0.570942      1.914060
      4.97760      0.71825      0.92243         0.443359      0.626871     -1.193232
     10.98051      4.81788      6.64784         0.156823     -0.335889     -0.087743
     11.56418      3.87238      9.58390         0.046683     -0.190511     -0.671755
      7.00681      2.05147      2.05696         0.268343     -0.344194     -0.745957
      7.87456      0.73197      3.71178         0.727298     -0.499487      1.641736
      6.18018      0.43155     11.09473        -1.082921     -0.930469      0.279241
     10.79443      5.31498      1.17145        -0.202593      1.060613     -1.678588
     10.39684      3.35453      2.93606        -0.931449     -0.900877      1.536554
     10.98051      2.40903      5.87212         0.022163      0.016699     -0.038442
     11.56418      1.46353      8.80817         0.121953     -0.000096     -1.334587
      7.50570      3.73836      5.87212         0.105972      0.063106      0.057275
      8.08937      2.79286      8.80817        -0.080675     -0.462886     -1.701306
      8.62748      2.06214     11.28564         1.686742      0.339512      0.934338
     12.55026      4.68386      2.93606         1.308147      0.445844      1.590232
      8.18971      0.22820      1.01441        -0.618352      0.366822     -1.619443
      7.87456      9.84929      6.64784         0.099512     -0.195934     -0.077237
      8.45823      8.90379      9.58390        -0.326881      0.933136     -1.104999
      3.85783      7.07236      2.07411         0.110760     -0.354857     -0.710493
      4.76861      5.76338      3.71178         0.340718     -0.809422      1.607014
      3.16656      5.64568     11.23399        -0.330246     -1.381812      0.329416
      7.29089      8.38594      2.93606        -0.088777     -0.594544      0.678409
      7.87456      7.44044      5.87212        -0.085614      0.084599     -0.034567
      8.45823      6.49494      8.80817        -1.022048     -0.195463     -1.616437
      4.39975      8.76977      5.87212         0.054149      0.080002      0.037289
      4.98341      7.82427      8.80817        -0.249719      0.043029     -1.380533
      5.57399      7.19279     11.18302         1.360462      0.618887      0.458215
      9.44431      9.71527      2.93606         0.005888     -0.604970      2.968529
      7.45022      5.53796      0.84043         0.094474      0.120586     -0.891109
     13.50279      9.84929      6.64784         0.175429     -0.203093     -0.008585
     14.08646      8.90379      9.58390        -0.381505      1.083490     -1.041495
      9.09699      7.05149      2.03098         0.046161     -0.313047     -1.181953
     10.39684      5.76338      3.71178         0.036548     -0.013637      1.544105
     10.93831      8.28429      1.11596         0.808390     -0.609847     -0.676541
     12.91912      8.38594      2.93606         0.321118     -0.067439      0.492970
     13.50279      7.44044      5.87212        -0.043037     -0.028926     -0.035781
     14.08646      6.49494      8.80817         0.233701     -0.065882     -1.136533
     10.02798      8.76977      5.87212         0.025195      0.157145      0.089368
     10.61165      7.82427      8.80817         0.132145      0.282519     -2.426938
     11.33543      6.75675     10.87564        -0.489585      1.113273      0.660860
     15.07254      9.71527      2.93606         0.044679     -0.025409      0.678949
      1.66190      1.67871      7.01153        -0.001077     -0.231850     -0.071469
      2.24556      0.73321      9.94759         0.876714     -1.522066     -2.090184
      6.12279      3.56972      1.13942         0.612453      0.228796     -2.966186
      6.70646      2.62422      4.07548        -0.032618      0.267077      1.244781
      4.38170      6.44750     12.61002         0.206920     -0.210484      3.105025
      2.32220      3.82360     10.58913        -0.048545      0.853380      1.662892
      7.29013      4.74605      7.99931        -0.199670      0.156801     -0.490239
      3.71358      1.57465      2.36846        -0.972668      1.828129     -1.313891
      4.18418      0.66015      5.06325         0.252372     -0.003126      0.351976
      3.38071      4.94434      2.12720        -2.171712     -0.647803      0.690584
      3.96438      3.99884      5.06325         0.021008     -0.030777      0.142109
      4.54805      3.05334      7.99931        -0.053564      0.225784     -0.643463
      5.14953      2.18635     10.62749        -1.205190      0.073400      1.440820
      7.29013      1.67871      7.01153         0.102042     -0.196807     -0.071444
      7.87380      0.73321      9.94759         0.377626     -1.750762     -2.075105
     11.76169      3.55390      1.42873         1.245680     -2.162161     -3.396998
     12.33469      2.62422      4.07548         0.039184      0.043163      0.257520
     11.39096      4.83733     11.46876        -0.161297     -0.761379      2.347825
      7.71980      3.75305     10.59533         1.114920      2.775871      1.889142
     12.91836      4.74605      7.99931         0.242530      0.168036     -0.801660
      9.22874      1.60565      2.12720         1.088308      1.580037      0.554383
      9.81241      0.66015      5.06325        -0.052426     -0.087598      0.229217
      9.00894      4.94434      2.12720        -1.524496     -1.291053      0.181648
      9.59261      3.99884      5.06325        -0.146612     -0.021488     -0.116003
     10.17628      3.05334      7.99931        -0.146914     -0.184018     -1.235641
     10.63261      2.19569     10.56997        -0.731783     -0.055975      1.441025
      4.18418      6.71012      7.01153         0.081153     -0.148254     -0.022164
      4.76785      5.76462      9.94759         0.790678     -1.324852     -1.784535
      8.92133      8.94157      1.06155        -1.678457     -0.619178     -2.579721
      9.22874      7.65563      4.07548        -0.253813      0.039302      0.979803
      1.86158      1.37899     12.64269         0.035297     -0.289512      2.947266
      4.69656      8.97368     10.58960         0.103815      0.813985      1.578313
      9.81241      9.77746      7.99931        -0.085184      0.218736     -0.164676
      6.12279      6.63706      2.12720         1.051515      1.970104     -0.058790
      6.70646      5.69156      5.06325         0.035291     -0.014696     -0.056052
      5.87603      9.84823      2.53993        -0.787682      0.615878     -2.228570
      6.48666      9.03025      5.06325         0.034916     -0.138958      0.615630
      7.07033      8.08475      7.99931        -0.098269      0.410886     -0.838971
      7.55483      7.28233     10.52027         0.366721     -0.747194      2.622124
      9.81241      6.71012      7.01153        -0.146174      0.224514     -0.928672
     10.34117      5.74735      9.36464        -0.168913     -0.659583      0.770599
     14.27330      8.60113      1.13942         0.687989     -0.396060     -2.300078
     14.85697      7.65563      4.07548        -0.082601      0.256793      1.424275
      7.31595      1.22216     12.54995         0.283031     -0.084426      2.910707
     10.28327      8.61894     10.70366         0.064713      0.930452      2.500032
     15.44064      9.77746      7.99931        -0.184187      0.131763     -0.735022
     11.74470      6.72155      2.35089         0.830413      0.477207     -0.495517
     12.33469      5.69156      5.06325         0.187987     -0.112887      0.188891
     11.53122      9.97575      2.12720        -0.597167      0.510262      1.144176
     12.11489      9.03025      5.06325        -0.013682      0.133230     -0.055499
     12.69856      8.08475      7.99931         0.045210      0.352485     -0.584845
     13.32653      7.28283     10.63778        -1.074469      0.567957      1.421921
 -----------------------------------------------------------------------------------
    total drift:                               -0.240471      0.022965     -0.052662


--------------------------------------------------------------------------------------------------------



  FREE ENERGIE OF THE ION-ELECTRON SYSTEM (eV)
  ---------------------------------------------------
  free  energy   TOTEN  =      -511.25099119 eV

  energy  without entropy=     -509.85015779  energy(sigma->0) =     -510.55057449
 


--------------------------------------------------------------------------------------------------------


    POTLOK:  cpu time    0.3921: real time    0.3924


--------------------------------------------------------------------------------------------------------


     LOOP+:  cpu time  730.8180: real time  731.0336
    4ORBIT:  cpu time    0.0000: real time    0.0000

 total amount of memory used by VASP MPI-rank0    90327. kBytes
=======================================================================

   base      :      30000. kBytes
   nonlr-proj:       3430. kBytes
   fftplans  :      11276. kBytes
   grid      :      19113. kBytes
   one-center:        139. kBytes
   wavefun   :      26369. kBytes
 
  
  
 General timing and accounting informations for this job:
 ========================================================
  
                  Total CPU time used (sec):      735.482
                            User time (sec):      734.916
                          System time (sec):        0.566
                         Elapsed time (sec):      735.944
  
                   Maximum memory used (kb):      262104.
                   Average memory used (kb):           0.
  
                          Minor page faults:       175895
                          Major page faults:            0
                 Voluntary context switches:          289
