"Millerite NiS"                         
           1
    16.884694    0.000000    0.000000
     0.000000    9.578410    0.000000
     0.000000    0.000000   16.197619
   Ni   S 
    37    37
Direct configuration=     1
   0.06497261  0.92341313  0.31080449
   0.09954057  0.92341313  0.12037258
   0.58225659  0.42341313  0.21558854
   0.61682455  0.42341313  0.02515663
   0.23740060  0.42341313  0.27906584
   0.27196856  0.42341313  0.08863393
   0.72011663  0.92341313  0.37428180
   0.75468458  0.92341313  0.18384989
   0.40982860  0.92341313  0.24732719
   0.44439655  0.92341313  0.05689528
   0.89254462  0.42341313  0.34254314
   0.92711258  0.42341313  0.15211123
   0.42015216  0.55551613  0.38086382
   0.45472012  0.55551613  0.19043191
   0.48928808  0.55551613  0.00000000
   0.93743614  0.05551613  0.28564787
   0.97200410  0.05551613  0.09521596
   0.10986414  0.55551613  0.25390921
   0.14443209  0.55551613  0.06347730
   0.59258016  0.05551613  0.34912517
   0.62714811  0.05551613  0.15869326
   0.28229213  0.05551613  0.22217056
   0.31686009  0.05551613  0.03173865
   0.76500815  0.55551613  0.31738652
   0.79957611  0.55551613  0.12695461
   0.06497261  0.18761913  0.31080449
   0.09954057  0.18761913  0.12037258
   0.58225659  0.68761913  0.21558854
   0.61682455  0.68761913  0.02515663
   0.23740060  0.68761913  0.27906584
   0.27196856  0.68761913  0.08863393
   0.72011663  0.18761913  0.37428180
   0.75468458  0.18761913  0.18384989
   0.40982860  0.18761913  0.24732719
   0.44439655  0.18761913  0.05689528
   0.89254462  0.68761913  0.34254314
   0.92711258  0.68761913  0.15211123
   0.02101885  0.22373113  0.00146664
   0.46916691  0.72373113  0.28711451
   0.50373487  0.72373113  0.09668260
   0.95188293  0.22373113  0.38233046
   0.98645089  0.22373113  0.19189855
   0.12431093  0.72373113  0.35059181
   0.15887888  0.72373113  0.16015990
   0.64159490  0.22373113  0.25537586
   0.67616286  0.22373113  0.06494395
   0.29673892  0.22373113  0.31885316
   0.33130688  0.22373113  0.12842125
   0.81402290  0.72373113  0.22363721
   0.84859085  0.72373113  0.03320530
   0.14885104  0.05551613  0.22393206
   0.63156706  0.55551613  0.31914801
   0.66613502  0.55551613  0.12871610
   0.28671108  0.55551613  0.38262532
   0.32127903  0.55551613  0.19219341
   0.35584699  0.55551613  0.00176149
   0.80399506  0.05551613  0.28740936
   0.83856301  0.05551613  0.09697745
   0.01099101  0.55551613  0.06523880
   0.45913907  0.05551613  0.35088666
   0.49370703  0.05551613  0.16045475
   0.97642305  0.55551613  0.25567071
   0.02101885  0.88730113  0.00146664
   0.50373487  0.38730113  0.09668260
   0.95188293  0.88730113  0.38233046
   0.98645089  0.88730113  0.19189855
   0.12431093  0.38730113  0.35059181
   0.15887888  0.38730113  0.16015990
   0.64159490  0.88730113  0.25537586
   0.67616286  0.88730113  0.06494395
   0.29673892  0.88730113  0.31885316
   0.33130688  0.88730113  0.12842125
   0.81402290  0.38730113  0.22363721
   0.84859085  0.38730113  0.03320530
