"Millerite NiS"                         
           1
    11.256463    0.000000    0.000000
     5.044562   10.062820    0.000000
     0.000000    0.000000   22.883649
   Ty   Ty
  52  52
Direct configuration=     1
   0.26092070  0.47878036  0.29050611
   0.35488056  0.38482049  0.41880986
   0.52833715  0.24162831  0.48613723
   0.00353374  0.19225015  0.09274306
   0.16696083  0.07274024  0.16220237
   0.03436259  0.05358157  0.49137955
   0.27423906  0.33335899  0.12830375
   0.36819893  0.23939913  0.25660749
   0.46215880  0.14543926  0.38491124
   0.00030194  0.37150212  0.25660749
   0.09426181  0.27754226  0.38491124
   0.18178397  0.20098970  0.49380043
   0.40634206  0.46546199  0.12830375
   0.76092070  0.47878036  0.29050611
   0.85488056  0.38482049  0.41880986
   0.94435163  0.29419929  0.51842428
   0.57434706  0.16583554  0.06118737
   0.66696083  0.07274024  0.16220237
   0.54089850  0.02056772  0.48097734
   0.71843682  0.30836644  0.03215238
   0.77423906  0.33335899  0.12830375
   0.86819893  0.23939913  0.25660749
   0.96215880  0.14543926  0.38491124
   0.50030194  0.37150212  0.25660749
   0.59426181  0.27754226  0.38491124
   0.90634206  0.46546199  0.12830375
   0.80719555  0.04674234  0.01989735
   0.26092070  0.97878036  0.29050611
   0.35488056  0.88482049  0.41880986
   0.03792523  0.70877607  0.08986635
   0.16696083  0.57274024  0.16220237
   0.21892285  0.03584702  0.05278416
   0.27423907  0.83335899  0.12830375
   0.36819893  0.73939913  0.25660749
   0.46215880  0.64543926  0.38491124
   0.00030194  0.87150212  0.25660749
   0.09426181  0.77754226  0.38491124
   0.40634206  0.96546199  0.12830375
   0.22479000  0.50806459  0.05308334
   0.76092070  0.97878036  0.29050611
   0.85488056  0.88482049  0.41880986
   0.89844573  0.85360344  0.52238830
   0.54187436  0.72205363  0.09076349
   0.66696083  0.57274024  0.16220237
   0.69659858  0.90205078  0.02452918
   0.77423907  0.83335899  0.12830375
   0.86819893  0.73939913  0.25660749
   0.96215880  0.64543926  0.38491124
   0.50030194  0.87150212  0.25660749
   0.59426181  0.77754226  0.38491124
   0.90634206  0.96546199  0.12830375
   0.71628208  0.52505904  0.04440076
   0.07287763  0.16682343  0.30639927
   0.16683750  0.07286357  0.43470302
   0.39945678  0.34035489  0.06082217
   0.47891775  0.26078330  0.17809552
   0.37122884  0.41957016  0.50716918
   0.03112749  0.37970879  0.46269220
   0.43627354  0.47164251  0.34956450
   0.25187707  0.16223095  0.10615984
   0.34231368  0.06560239  0.22126075
   0.07520436  0.49656537  0.10245916
   0.17409868  0.39738738  0.22126075
   0.26805855  0.30342751  0.34956450
   0.36201842  0.20946765  0.47786825
   0.57287763  0.16682343  0.30639927
   0.64804551  0.09411005  0.42820474
   0.88495789  0.35474317  0.04979178
   0.97891775  0.26078330  0.17809552
   0.78185794  0.46183459  0.50132436
   0.52743663  0.41199001  0.45424179
   0.93627354  0.47164251  0.34956450
   0.74835381  0.15956225  0.09295701
   0.84231368  0.06560239  0.22126075
   0.58013882  0.49134724  0.09295701
   0.67409868  0.39738738  0.22126075
   0.76805855  0.30342751  0.34956450
   0.85729899  0.21049547  0.46237664
   0.07287764  0.66682343  0.30639927
   0.16446821  0.57672379  0.41042347
   0.37466954  0.85825084  0.05426188
   0.47891775  0.76078330  0.17809552
   0.09721892  0.13488105  0.55784934
   0.02331582  0.87977924  0.46447661
   0.43627354  0.97164251  0.34956450
   0.24835381  0.65956226  0.09295701
   0.34231368  0.56560239  0.22126075
   0.08013882  0.99134724  0.09295701
   0.17409868  0.89738738  0.22126075
   0.26805855  0.80342751  0.34956450
   0.37117153  0.72092348  0.46092805
   0.57287764  0.66682343  0.30639927
   0.66770748  0.57422410  0.40540032
   0.88495789  0.85474317  0.04979178
   0.97891775  0.76078330  0.17809552
   0.70551438  0.96936706  0.53172113
   0.52369955  0.84961977  0.46662389
   0.93627354  0.97164251  0.34956450
   0.74835381  0.65956226  0.09295701
   0.84231368  0.56560239  0.22126075
   0.58013882  0.99134724  0.09295701
   0.67409868  0.89738738  0.22126075
   0.76805855  0.80342751  0.34956450
   0.89037147  0.71664936  0.46670944
