       N       E                     dE             d eps       ncg     rms          rms(c)
DAV:   1     0.891559310383E+04    0.89156E+04   -0.50610E+05  1160   0.154E+03
DAV:   2     0.487203443766E+03   -0.84284E+04   -0.81386E+04  1020   0.492E+02
DAV:   3    -0.345491226324E+03   -0.83269E+03   -0.80091E+03  1096   0.164E+02
DAV:   4    -0.389060440905E+03   -0.43569E+02   -0.43121E+02  1096   0.359E+01
DAV:   5    -0.390708160033E+03   -0.16477E+01   -0.16458E+01  1184   0.733E+00    0.996E+01
DAV:   6    -0.455548950227E+03   -0.64841E+02   -0.95326E+02  1176   0.124E+02    0.155E+02
DAV:   7    -0.353412524588E+03    0.10214E+03   -0.19206E+02  1096   0.720E+01    0.650E+01
DAV:   8    -0.375985534267E+03   -0.22573E+02   -0.21358E+02  1328   0.808E+01    0.982E+01
DAV:   9    -0.364717143017E+03    0.11268E+02   -0.14468E+02  1224   0.713E+01    0.628E+01
DAV:  10    -0.372375173848E+03   -0.76580E+01   -0.82205E+01  1320   0.549E+01    0.814E+01
DAV:  11    -0.352032771640E+03    0.20342E+02   -0.52839E+01  1280   0.411E+01    0.393E+01
DAV:  12    -0.344302301976E+03    0.77305E+01   -0.23830E+01  1264   0.316E+01    0.256E+01
DAV:  13    -0.344189755627E+03    0.11255E+00   -0.16864E+01  1320   0.278E+01    0.317E+01
DAV:  14    -0.341742995278E+03    0.24468E+01   -0.11044E+01  1288   0.195E+01    0.171E+01
DAV:  15    -0.340884266245E+03    0.85873E+00   -0.21608E+00  1288   0.879E+00    0.121E+01
DAV:  16    -0.340525640834E+03    0.35863E+00   -0.80442E-01  1296   0.551E+00    0.101E+01
DAV:  17    -0.340301009834E+03    0.22463E+00   -0.53843E-01  1304   0.517E+00    0.856E+00
DAV:  18    -0.340138188916E+03    0.16282E+00   -0.51246E-01  1320   0.449E+00    0.723E+00
DAV:  19    -0.339976155402E+03    0.16203E+00   -0.40303E-01  1312   0.393E+00    0.460E+00
DAV:  20    -0.339926615266E+03    0.49540E-01   -0.33448E-01  1296   0.325E+00    0.363E+00
DAV:  21    -0.339914926231E+03    0.11689E-01   -0.19366E-01  1312   0.267E+00    0.288E+00
DAV:  22    -0.339896837126E+03    0.18089E-01   -0.73203E-02  1192   0.144E+00    0.243E+00
DAV:  23    -0.339893086630E+03    0.37505E-02   -0.39348E-02  1200   0.111E+00    0.224E+00
DAV:  24    -0.339887963749E+03    0.51229E-02   -0.38733E-02  1304   0.126E+00    0.212E+00
DAV:  25    -0.339875427222E+03    0.12537E-01   -0.42433E-02  1312   0.144E+00    0.129E+00
DAV:  26    -0.339870391668E+03    0.50356E-02   -0.27495E-02  1280   0.940E-01    0.846E-01
DAV:  27    -0.339868292071E+03    0.20996E-02   -0.99585E-03  1176   0.681E-01    0.515E-01
DAV:  28    -0.339867755542E+03    0.53653E-03   -0.27039E-03  1264   0.289E-01    0.367E-01
DAV:  29    -0.339868091904E+03   -0.33636E-03   -0.19387E-03  1112   0.297E-01    0.421E-01
DAV:  30    -0.339868035805E+03    0.56098E-04   -0.11829E-03   992   0.212E-01    0.307E-01
DAV:  31    -0.339868361422E+03   -0.32562E-03   -0.10926E-03  1040   0.232E-01    0.284E-01
DAV:  32    -0.339868662802E+03   -0.30138E-03   -0.11131E-03  1024   0.231E-01    0.121E-01
DAV:  33    -0.339869094023E+03   -0.43122E-03   -0.57485E-04   968   0.149E-01    0.141E-01
DAV:  34    -0.339869393922E+03   -0.29990E-03   -0.17568E-04   616   0.916E-02    0.954E-02
DAV:  35    -0.339869624776E+03   -0.23085E-03   -0.95482E-05   584   0.732E-02    0.805E-02
DAV:  36    -0.339870377249E+03   -0.75247E-03   -0.15357E-04   648   0.775E-02    0.610E-02
DAV:  37    -0.339871037535E+03   -0.66029E-03   -0.20071E-04   680   0.780E-02    0.674E-02
DAV:  38    -0.339871383718E+03   -0.34618E-03   -0.10605E-04   616   0.742E-02    0.423E-02
DAV:  39    -0.339871654062E+03   -0.27034E-03   -0.55272E-05   584   0.422E-02    0.390E-02
DAV:  40    -0.339871865614E+03   -0.21155E-03   -0.43693E-05   584   0.380E-02    0.310E-02
DAV:  41    -0.339872442999E+03   -0.57739E-03   -0.59852E-05   624   0.354E-02    0.398E-02
DAV:  42    -0.339872581355E+03   -0.13836E-03   -0.46566E-05   584   0.360E-02    0.174E-02
DAV:  43    -0.339872691050E+03   -0.10969E-03   -0.25435E-05   584   0.160E-02    0.195E-02
DAV:  44    -0.339872724862E+03   -0.33812E-04   -0.15110E-05   584   0.166E-02
   1 F= -.33987272E+03 E0= -.33933909E+03  d E =-.106727E+01
