  74  74   0   0
  0.3639907E+02  0.1688469E-08  0.9578410E-09  0.1665465E-08  0.5000000E-15
  1.000000000000000E-004
  CAR 
 "Millerite NiS"                         
      9.26353083    -68.58067149  301     -0.11316199      1.00000000
    -68.581  0.0000E+00  0.0000E+00
    -68.321  0.0000E+00  0.0000E+00
    -68.062  0.0000E+00  0.0000E+00
    -67.802  0.0000E+00  0.0000E+00
    -67.543  0.0000E+00  0.0000E+00
    -67.283  0.0000E+00  0.0000E+00
    -67.024  0.0000E+00  0.0000E+00
    -66.764  0.0000E+00  0.0000E+00
    -66.505  0.0000E+00  0.0000E+00
    -66.245  0.0000E+00  0.0000E+00
    -65.986  0.1137E-09  0.2950E-10
    -65.726  0.6629E-05  0.1720E-05
    -65.467  0.1675E-01  0.4348E-02
    -65.207  0.2426E+01  0.6337E+00
    -64.948  0.3665E+02  0.1014E+02
    -64.688  0.1310E+03  0.4413E+02
    -64.429  0.2206E+03  0.1014E+03
    -64.170  0.1946E+03  0.1519E+03
    -63.910  0.1250E+03  0.1843E+03
    -63.651  0.8830E+02  0.2072E+03
    -63.391  0.4790E+02  0.2196E+03
    -63.132  0.8823E+01  0.2219E+03
    -62.872  0.2730E+00  0.2220E+03
    -62.613  0.5761E-03  0.2220E+03
    -62.353  0.5341E-07  0.2220E+03
    -62.094  0.1908E-12  0.2220E+03
    -61.834  0.0000E+00  0.2220E+03
    -61.575  0.0000E+00  0.2220E+03
    -61.315  0.0000E+00  0.2220E+03
    -61.056  0.0000E+00  0.2220E+03
    -60.796  0.0000E+00  0.2220E+03
    -60.537  0.0000E+00  0.2220E+03
    -60.277  0.0000E+00  0.2220E+03
    -60.018  0.0000E+00  0.2220E+03
    -59.758  0.0000E+00  0.2220E+03
    -59.499  0.0000E+00  0.2220E+03
    -59.239  0.0000E+00  0.2220E+03
    -58.980  0.0000E+00  0.2220E+03
    -58.720  0.0000E+00  0.2220E+03
    -58.461  0.0000E+00  0.2220E+03
    -58.201  0.0000E+00  0.2220E+03
    -57.942  0.0000E+00  0.2220E+03
    -57.682  0.0000E+00  0.2220E+03
    -57.423  0.0000E+00  0.2220E+03
    -57.164  0.0000E+00  0.2220E+03
    -56.904  0.0000E+00  0.2220E+03
    -56.645  0.0000E+00  0.2220E+03
    -56.385  0.0000E+00  0.2220E+03
    -56.126  0.0000E+00  0.2220E+03
    -55.866  0.0000E+00  0.2220E+03
    -55.607  0.0000E+00  0.2220E+03
    -55.347  0.0000E+00  0.2220E+03
    -55.088  0.0000E+00  0.2220E+03
    -54.828  0.0000E+00  0.2220E+03
    -54.569  0.0000E+00  0.2220E+03
    -54.309  0.0000E+00  0.2220E+03
    -54.050  0.0000E+00  0.2220E+03
    -53.790  0.0000E+00  0.2220E+03
    -53.531  0.0000E+00  0.2220E+03
    -53.271  0.0000E+00  0.2220E+03
    -53.012  0.0000E+00  0.2220E+03
    -52.752  0.0000E+00  0.2220E+03
    -52.493  0.0000E+00  0.2220E+03
    -52.233  0.0000E+00  0.2220E+03
    -51.974  0.0000E+00  0.2220E+03
    -51.714  0.0000E+00  0.2220E+03
    -51.455  0.0000E+00  0.2220E+03
    -51.195  0.0000E+00  0.2220E+03
    -50.936  0.0000E+00  0.2220E+03
    -50.677  0.0000E+00  0.2220E+03
    -50.417  0.0000E+00  0.2220E+03
    -50.158  0.0000E+00  0.2220E+03
    -49.898  0.0000E+00  0.2220E+03
    -49.639  0.0000E+00  0.2220E+03
    -49.379  0.0000E+00  0.2220E+03
    -49.120  0.0000E+00  0.2220E+03
    -48.860  0.0000E+00  0.2220E+03
    -48.601  0.0000E+00  0.2220E+03
    -48.341  0.0000E+00  0.2220E+03
    -48.082  0.0000E+00  0.2220E+03
    -47.822  0.0000E+00  0.2220E+03
    -47.563  0.0000E+00  0.2220E+03
    -47.303  0.0000E+00  0.2220E+03
    -47.044  0.0000E+00  0.2220E+03
    -46.784  0.0000E+00  0.2220E+03
    -46.525  0.0000E+00  0.2220E+03
    -46.265  0.0000E+00  0.2220E+03
    -46.006  0.0000E+00  0.2220E+03
    -45.746  0.0000E+00  0.2220E+03
    -45.487  0.0000E+00  0.2220E+03
    -45.227  0.0000E+00  0.2220E+03
    -44.968  0.0000E+00  0.2220E+03
    -44.708  0.0000E+00  0.2220E+03
    -44.449  0.0000E+00  0.2220E+03
    -44.189  0.0000E+00  0.2220E+03
    -43.930  0.0000E+00  0.2220E+03
    -43.671  0.0000E+00  0.2220E+03
    -43.411  0.0000E+00  0.2220E+03
    -43.152  0.0000E+00  0.2220E+03
    -42.892  0.0000E+00  0.2220E+03
    -42.633  0.0000E+00  0.2220E+03
    -42.373  0.0000E+00  0.2220E+03
    -42.114  0.0000E+00  0.2220E+03
    -41.854  0.0000E+00  0.2220E+03
    -41.595  0.0000E+00  0.2220E+03
    -41.335  0.0000E+00  0.2220E+03
    -41.076  0.0000E+00  0.2220E+03
    -40.816  0.0000E+00  0.2220E+03
    -40.557  0.0000E+00  0.2220E+03
    -40.297  0.0000E+00  0.2220E+03
    -40.038  0.0000E+00  0.2220E+03
    -39.778  0.0000E+00  0.2220E+03
    -39.519  0.0000E+00  0.2220E+03
    -39.259  0.0000E+00  0.2220E+03
    -39.000  0.0000E+00  0.2220E+03
    -38.740  0.0000E+00  0.2220E+03
    -38.481  0.0000E+00  0.2220E+03
    -38.221  0.0000E+00  0.2220E+03
    -37.962  0.0000E+00  0.2220E+03
    -37.702  0.0000E+00  0.2220E+03
    -37.443  0.0000E+00  0.2220E+03
    -37.184  0.0000E+00  0.2220E+03
    -36.924  0.0000E+00  0.2220E+03
    -36.665  0.0000E+00  0.2220E+03
    -36.405  0.0000E+00  0.2220E+03
    -36.146  0.0000E+00  0.2220E+03
    -35.886  0.0000E+00  0.2220E+03
    -35.627  0.0000E+00  0.2220E+03
    -35.367  0.0000E+00  0.2220E+03
    -35.108  0.0000E+00  0.2220E+03
    -34.848  0.0000E+00  0.2220E+03
    -34.589  0.0000E+00  0.2220E+03
    -34.329  0.0000E+00  0.2220E+03
    -34.070  0.0000E+00  0.2220E+03
    -33.810  0.0000E+00  0.2220E+03
    -33.551  0.0000E+00  0.2220E+03
    -33.291  0.0000E+00  0.2220E+03
    -33.032  0.0000E+00  0.2220E+03
    -32.772  0.0000E+00  0.2220E+03
    -32.513  0.0000E+00  0.2220E+03
    -32.253  0.0000E+00  0.2220E+03
    -31.994  0.0000E+00  0.2220E+03
    -31.734  0.0000E+00  0.2220E+03
    -31.475  0.0000E+00  0.2220E+03
    -31.215  0.0000E+00  0.2220E+03
    -30.956  0.0000E+00  0.2220E+03
    -30.696  0.0000E+00  0.2220E+03
    -30.437  0.0000E+00  0.2220E+03
    -30.178  0.0000E+00  0.2220E+03
    -29.918  0.0000E+00  0.2220E+03
    -29.659  0.0000E+00  0.2220E+03
    -29.399  0.0000E+00  0.2220E+03
    -29.140  0.0000E+00  0.2220E+03
    -28.880  0.0000E+00  0.2220E+03
    -28.621  0.0000E+00  0.2220E+03
    -28.361  0.0000E+00  0.2220E+03
    -28.102  0.0000E+00  0.2220E+03
    -27.842  0.0000E+00  0.2220E+03
    -27.583  0.0000E+00  0.2220E+03
    -27.323  0.0000E+00  0.2220E+03
    -27.064  0.0000E+00  0.2220E+03
    -26.804  0.0000E+00  0.2220E+03
    -26.545  0.0000E+00  0.2220E+03
    -26.285  0.0000E+00  0.2220E+03
    -26.026  0.0000E+00  0.2220E+03
    -25.766  0.0000E+00  0.2220E+03
    -25.507  0.0000E+00  0.2220E+03
    -25.247  0.0000E+00  0.2220E+03
    -24.988  0.0000E+00  0.2220E+03
    -24.728  0.0000E+00  0.2220E+03
    -24.469  0.0000E+00  0.2220E+03
    -24.209  0.0000E+00  0.2220E+03
    -23.950  0.0000E+00  0.2220E+03
    -23.691  0.0000E+00  0.2220E+03
    -23.431  0.0000E+00  0.2220E+03
    -23.172  0.0000E+00  0.2220E+03
    -22.912  0.0000E+00  0.2220E+03
    -22.653  0.0000E+00  0.2220E+03
    -22.393  0.0000E+00  0.2220E+03
    -22.134  0.0000E+00  0.2220E+03
    -21.874  0.0000E+00  0.2220E+03
    -21.615  0.0000E+00  0.2220E+03
    -21.355  0.0000E+00  0.2220E+03
    -21.096  0.0000E+00  0.2220E+03
    -20.836  0.0000E+00  0.2220E+03
    -20.577  0.0000E+00  0.2220E+03
    -20.317  0.0000E+00  0.2220E+03
    -20.058  0.0000E+00  0.2220E+03
    -19.798  0.0000E+00  0.2220E+03
    -19.539  0.0000E+00  0.2220E+03
    -19.279  0.0000E+00  0.2220E+03
    -19.020  0.0000E+00  0.2220E+03
    -18.760  0.0000E+00  0.2220E+03
    -18.501  0.0000E+00  0.2220E+03
    -18.241  0.0000E+00  0.2220E+03
    -17.982  0.0000E+00  0.2220E+03
    -17.722  0.4050E-10  0.2220E+03
    -17.463  0.2654E-05  0.2220E+03
    -17.203  0.6753E-02  0.2220E+03
    -16.944  0.7655E+00  0.2222E+03
    -16.685  0.5948E+01  0.2237E+03
    -16.425  0.7452E+01  0.2257E+03
    -16.166  0.5793E+01  0.2272E+03
    -15.906  0.1016E+02  0.2298E+03
    -15.647  0.1510E+02  0.2337E+03
    -15.387  0.2055E+02  0.2391E+03
    -15.128  0.1959E+02  0.2441E+03
    -14.868  0.2485E+02  0.2506E+03
    -14.609  0.2730E+02  0.2577E+03
    -14.349  0.2317E+02  0.2637E+03
    -14.090  0.2429E+02  0.2700E+03
    -13.830  0.2602E+02  0.2767E+03
    -13.571  0.2137E+02  0.2823E+03
    -13.311  0.1818E+02  0.2870E+03
    -13.052  0.1992E+02  0.2922E+03
    -12.792  0.9378E+01  0.2946E+03
    -12.533  0.4752E+01  0.2958E+03
    -12.273  0.5889E+00  0.2960E+03
    -12.014  0.4273E-02  0.2960E+03
    -11.754  0.1336E-05  0.2960E+03
    -11.495  0.1611E-10  0.2960E+03
    -11.235  0.0000E+00  0.2960E+03
    -10.976  0.0000E+00  0.2960E+03
    -10.716  0.0000E+00  0.2960E+03
    -10.457  0.0000E+00  0.2960E+03
    -10.198  0.0000E+00  0.2960E+03
     -9.938  0.0000E+00  0.2960E+03
     -9.679  0.0000E+00  0.2960E+03
     -9.419  0.1586E-11  0.2960E+03
     -9.160  0.2742E-06  0.2960E+03
     -8.900  0.1847E-02  0.2960E+03
     -8.641  0.5442E+00  0.2961E+03
     -8.381  0.9293E+01  0.2986E+03
     -8.122  0.2009E+02  0.3038E+03
     -7.862  0.3000E+02  0.3116E+03
     -7.603  0.3139E+02  0.3197E+03
     -7.343  0.3499E+02  0.3288E+03
     -7.084  0.3861E+02  0.3388E+03
     -6.824  0.3772E+02  0.3486E+03
     -6.565  0.4065E+02  0.3591E+03
     -6.305  0.4249E+02  0.3702E+03
     -6.046  0.4917E+02  0.3829E+03
     -5.786  0.5508E+02  0.3972E+03
     -5.527  0.5538E+02  0.4116E+03
     -5.267  0.6233E+02  0.4277E+03
     -5.008  0.6355E+02  0.4442E+03
     -4.748  0.5347E+02  0.4581E+03
     -4.489  0.4536E+02  0.4699E+03
     -4.229  0.4792E+02  0.4823E+03
     -3.970  0.4695E+02  0.4945E+03
     -3.711  0.5558E+02  0.5089E+03
     -3.451  0.6211E+02  0.5250E+03
     -3.192  0.6852E+02  0.5428E+03
     -2.932  0.7469E+02  0.5622E+03
     -2.673  0.8943E+02  0.5854E+03
     -2.413  0.1111E+03  0.6142E+03
     -2.154  0.1198E+03  0.6453E+03
     -1.894  0.1217E+03  0.6769E+03
     -1.635  0.1151E+03  0.7068E+03
     -1.375  0.9985E+02  0.7327E+03
     -1.116  0.8314E+02  0.7542E+03
     -0.856  0.6878E+02  0.7721E+03
     -0.597  0.6092E+02  0.7879E+03
     -0.337  0.5305E+02  0.8017E+03
     -0.078  0.5562E+02  0.8161E+03
      0.182  0.5306E+02  0.8299E+03
      0.441  0.4904E+02  0.8426E+03
      0.701  0.4435E+02  0.8541E+03
      0.960  0.4124E+02  0.8648E+03
      1.220  0.3551E+02  0.8740E+03
      1.479  0.2695E+02  0.8810E+03
      1.739  0.1942E+02  0.8860E+03
      1.998  0.1279E+02  0.8894E+03
      2.258  0.2484E+01  0.8900E+03
      2.517  0.1853E+01  0.8905E+03
      2.777  0.5287E+01  0.8918E+03
      3.036  0.9158E+01  0.8942E+03
      3.295  0.1682E+02  0.8986E+03
      3.555  0.1815E+02  0.9033E+03
      3.814  0.1783E+02  0.9079E+03
      4.074  0.2113E+02  0.9134E+03
      4.333  0.2865E+02  0.9208E+03
      4.593  0.3492E+02  0.9299E+03
      4.852  0.3825E+02  0.9398E+03
      5.112  0.3934E+02  0.9500E+03
      5.371  0.4190E+02  0.9609E+03
      5.631  0.3715E+02  0.9706E+03
      5.890  0.1900E+02  0.9755E+03
      6.150  0.1989E+01  0.9760E+03
      6.409  0.1582E-01  0.9760E+03
      6.669  0.6371E-05  0.9760E+03
      6.928  0.1093E-09  0.9760E+03
      7.188  0.0000E+00  0.9760E+03
      7.447  0.0000E+00  0.9760E+03
      7.707  0.0000E+00  0.9760E+03
      7.966  0.0000E+00  0.9760E+03
      8.226  0.0000E+00  0.9760E+03
      8.485  0.0000E+00  0.9760E+03
      8.745  0.0000E+00  0.9760E+03
      9.004  0.0000E+00  0.9760E+03
      9.264  0.0000E+00  0.9760E+03
