<?xml version="1.0" encoding="ISO-8859-1"?>
<modeling>
 <generator>
  <i name="program" type="string">vasp </i>
  <i name="version" type="string">5.4.4.18Apr17-6-g9f103f2a35  </i>
  <i name="subversion" type="string">(build Aug 13 2019 17:33:20) gamma-only         parallel </i>
  <i name="platform" type="string">LinuxIFC </i>
  <i name="date" type="string">2020 05 11 </i>
  <i name="time" type="string">23:42:21 </i>
 </generator>
 <incar>
  <i type="string" name="SYSTEM">"Millerite NiS"</i>
  <i type="string" name="PREC">normal</i>
  <i type="int" name="NSIM">     4</i>
  <i type="int" name="NELM">   100</i>
  <i name="ENCUT">    450.00000000</i>
  <i type="string" name="LREAL">A</i>
  <i type="int" name="ISMEAR">     0</i>
  <i type="int" name="NWRITE">     2</i>
  <i type="logical" name="LWAVE"> F  </i>
  <i type="logical" name="LCHARG"> F  </i>
  <v type="int" name="KPOINT_BSE">    -1     0     0     0</v>
  <i type="int" name="NELM">   100</i>
 </incar>
 <structure name="primitive_cell" >
  <crystal>
   <varray name="basis" >
    <v>      16.88469405       0.00000000       0.00000000 </v>
    <v>       0.00000000       9.57841000       0.00000000 </v>
    <v>       0.00000000       0.00000000      16.65464569 </v>
   </varray>
   <i name="volume">   2693.53123734 </i>
   <varray name="rec_basis" >
    <v>       0.05922524       0.00000000       0.00000000 </v>
    <v>       0.00000000       0.10440146       0.00000000 </v>
    <v>       0.00000000       0.00000000       0.06004331 </v>
   </varray>
  </crystal>
  <varray name="positions" >
   <v>      -0.21995370       0.14529696       0.12347080 </v>
   <v>      -0.15984410       0.28387891       0.05111803 </v>
   <v>      -0.18783906      -0.00097590       0.03855607 </v>
   <v>      -0.35339478       0.14529696       0.12175764 </v>
   <v>      -0.08967997       0.06950854       0.09909361 </v>
   <v>      -0.17093895       0.31351196       0.21464750 </v>
   <v>      -0.17093895      -0.02291804       0.21464750 </v>
   <v>      -0.23922443       0.40394138       0.12023883 </v>
   <v>      -0.18605713       0.14264444       0.29004416 </v>
   <v>      -0.31115132       0.14894060       0.27387840 </v>
   <v>      -0.15673112      -0.15491105       0.11776452 </v>
   <v>      -0.08726191       0.38915007       0.13164949 </v>
   <v>      -0.00853880       0.14529696       0.18349304 </v>
   <v>      -0.40270525       0.01319396       0.22247530 </v>
   <v>      -0.40270525       0.27739996       0.22247530 </v>
   <v>      -0.40008364       0.36681225       0.09142625 </v>
   <v>      -0.05811333       0.27773415       0.26800771 </v>
   <v>      -0.04540986      -0.05721059       0.22383774 </v>
   <v>      -0.34336694       0.47708196       0.18377980 </v>
   <v>      -0.34336694      -0.18648804       0.18377980 </v>
   <v>      -0.23027726      -0.48680604       0.25334300 </v>
   <v>      -0.23027726      -0.22260004       0.25334300 </v>
   <v>      -0.03514880      -0.13972706       0.10183830 </v>
   <v>      -0.46983109       0.14396008       0.09134701 </v>
   <v>      -0.06912989       0.08765271       0.32936841 </v>
   <v>      -0.18096679      -0.35470304       0.15262534 </v>
   <v>      -0.00909624       0.46569035       0.21955784 </v>
   <v>      -0.32996186      -0.17009149       0.33353227 </v>
   <v>      -0.02305127      -0.48199215       0.05779071 </v>
   <v>       0.48420507       0.31351196       0.15291210 </v>
   <v>       0.48420507      -0.02291804       0.15291210 </v>
   <v>      -0.30369933      -0.49573466       0.34971285 </v>
   <v>      -0.45599835       0.05019269       0.33200697 </v>
   <v>       0.04949979       0.10458388       0.30053603 </v>
   <v>      -0.04752570      -0.35470304       0.15433850 </v>
   <v>       0.46975828       0.14529696       0.24694159 </v>
   <v>      -0.48444555       0.31710068       0.31514941 </v>
   <v>      -0.45459201      -0.15941422       0.30780546 </v>
   <v>      -0.16810908      -0.35176485       0.32328276 </v>
   <v>      -0.35781373      -0.35470304       0.27780929 </v>
   <v>       0.12490229       0.14529696       0.18520619 </v>
   <v>       0.03153112      -0.23407308       0.24336442 </v>
   <v>      -0.42916113      -0.35795203       0.16110251 </v>
   <v>       0.08001077      -0.48680604       0.12987220 </v>
   <v>       0.08001077      -0.22260004       0.12987220 </v>
   <v>       0.45695359       0.44015129       0.05660105 </v>
   <v>       0.14016696       0.32089681       0.10881204 </v>
   <v>       0.14172433      -0.03364849       0.10562465 </v>
   <v>       0.39017822       0.13953023       0.13100948 </v>
   <v>       0.17234016       0.14646731       0.04625009 </v>
   <v>       0.14403374       0.25016014       0.29354928 </v>
   <v>       0.42486675      -0.48680604       0.19160760 </v>
   <v>       0.42486675      -0.22260004       0.19160760 </v>
   <v>       0.47417723      -0.35470304       0.09088994 </v>
   <v>      -0.49125482      -0.35470304       0.27609614 </v>
   <v>       0.41871888      -0.12326056       0.30414092 </v>
   <v>       0.17391704      -0.02291804       0.27638290 </v>
   <v>       0.44801454       0.48656279       0.33506740 </v>
   <v>       0.11492682      -0.35192483       0.03684321 </v>
   <v>       0.16651814      -0.22665183       0.24399151 </v>
   <v>       0.33631719       0.14529696       0.24522844 </v>
   <v>       0.17371187      -0.43249966       0.20772978 </v>
   <v>       0.25243876       0.01319396       0.16073990 </v>
   <v>       0.25243876       0.27739996       0.16073990 </v>
   <v>       0.29001278       0.14733805       0.06361799 </v>
   <v>       0.33796329       0.46149252       0.28643355 </v>
   <v>       0.31177707       0.47708196       0.12204440 </v>
   <v>       0.31177707      -0.18648804       0.12204440 </v>
   <v>       0.35736377      -0.35673932       0.06274777 </v>
   <v>       0.21432870      -0.33179076       0.10322617 </v>
   <v>       0.30109593      -0.10549596       0.27217710 </v>
   <v>       0.26348170       0.28851845       0.30269603 </v>
   <v>       0.29733028      -0.35470304       0.21607389 </v>
   <v>       0.25467290      -0.27662121       0.32618510 </v>
  </varray>
 </structure>
 <varray name="primitive_index" >
  <v type="int" >        1 </v>
  <v type="int" >       51 </v>
  <v type="int" >       65 </v>
  <v type="int" >       42 </v>
  <v type="int" >       13 </v>
  <v type="int" >       52 </v>
  <v type="int" >       66 </v>
  <v type="int" >       23 </v>
  <v type="int" >        2 </v>
  <v type="int" >       43 </v>
  <v type="int" >       36 </v>
  <v type="int" >       25 </v>
  <v type="int" >       39 </v>
  <v type="int" >       19 </v>
  <v type="int" >       31 </v>
  <v type="int" >       30 </v>
  <v type="int" >       26 </v>
  <v type="int" >       14 </v>
  <v type="int" >       71 </v>
  <v type="int" >       61 </v>
  <v type="int" >       24 </v>
  <v type="int" >       37 </v>
  <v type="int" >       58 </v>
  <v type="int" >       18 </v>
  <v type="int" >       38 </v>
  <v type="int" >       49 </v>
  <v type="int" >       67 </v>
  <v type="int" >       62 </v>
  <v type="int" >       68 </v>
  <v type="int" >       55 </v>
  <v type="int" >       69 </v>
  <v type="int" >       72 </v>
  <v type="int" >       70 </v>
  <v type="int" >       10 </v>
  <v type="int" >        7 </v>
  <v type="int" >        6 </v>
  <v type="int" >       56 </v>
  <v type="int" >       29 </v>
  <v type="int" >       50 </v>
  <v type="int" >       12 </v>
  <v type="int" >        9 </v>
  <v type="int" >       57 </v>
  <v type="int" >       11 </v>
  <v type="int" >       20 </v>
  <v type="int" >       32 </v>
  <v type="int" >       15 </v>
  <v type="int" >       59 </v>
  <v type="int" >       73 </v>
  <v type="int" >        5 </v>
  <v type="int" >        8 </v>
  <v type="int" >       60 </v>
  <v type="int" >       16 </v>
  <v type="int" >       28 </v>
  <v type="int" >       40 </v>
  <v type="int" >       41 </v>
  <v type="int" >       54 </v>
  <v type="int" >       74 </v>
  <v type="int" >       17 </v>
  <v type="int" >       44 </v>
  <v type="int" >       33 </v>
  <v type="int" >       48 </v>
  <v type="int" >       45 </v>
  <v type="int" >       21 </v>
  <v type="int" >       34 </v>
  <v type="int" >       47 </v>
  <v type="int" >       64 </v>
  <v type="int" >       63 </v>
  <v type="int" >       53 </v>
  <v type="int" >       27 </v>
  <v type="int" >        3 </v>
  <v type="int" >       22 </v>
  <v type="int" >       35 </v>
  <v type="int" >        4 </v>
  <v type="int" >       46 </v>
 </varray>
 <kpoints>
  <generation param="Gamma">
   <v type="int" name="divisions">       1        1        1 </v>
   <v name="usershift">      0.00000000       0.00000000       0.00000000 </v>
   <v name="genvec1">      1.00000000       0.00000000       0.00000000 </v>
   <v name="genvec2">      0.00000000       1.00000000       0.00000000 </v>
   <v name="genvec3">      0.00000000       0.00000000       1.00000000 </v>
   <v name="shift">      0.00000000       0.00000000       0.00000000 </v>
  </generation>
  <varray name="kpointlist" >
   <v>       0.00000000       0.00000000       0.00000000 </v>
  </varray>
  <varray name="weights" >
   <v>       1.00000000 </v>
  </varray>
 </kpoints>
 <parameters>
  <separator name="general" >
   <i type="string" name="SYSTEM">"Millerite NiS"</i>
   <i type="logical" name="LCOMPAT"> F  </i>
  </separator>
  <separator name="electronic" >
   <i type="string" name="PREC">normal</i>
   <i name="ENMAX">    450.00000000</i>
   <i name="ENAUG">    703.44300000</i>
   <i name="EDIFF">      0.00010000</i>
   <i type="int" name="IALGO">    38</i>
   <i type="int" name="IWAVPR">    10</i>
   <i type="int" name="NBANDS">   488</i>
   <i name="NELECT">    814.00000000</i>
   <i type="int" name="TURBO">     0</i>
   <i type="int" name="IRESTART">     0</i>
   <i type="int" name="NREBOOT">     0</i>
   <i type="int" name="NMIN">     0</i>
   <i name="EREF">      0.00000000</i>
   <separator name="electronic smearing" >
    <i type="int" name="ISMEAR">     0</i>
    <i name="SIGMA">      0.20000000</i>
    <i name="KSPACING">      0.50000000</i>
    <i type="logical" name="KGAMMA"> T  </i>
   </separator>
   <separator name="electronic projectors" >
    <i type="logical" name="LREAL"> T  </i>
    <v name="ROPT">     -0.00050000     -0.00050000</v>
    <i type="int" name="LMAXPAW">  -100</i>
    <i type="int" name="LMAXMIX">     2</i>
    <i type="logical" name="NLSPLINE"> F  </i>
   </separator>
   <separator name="electronic startup" >
    <i type="int" name="ISTART">     0</i>
    <i type="int" name="ICHARG">     2</i>
    <i type="int" name="INIWAV">     1</i>
   </separator>
   <separator name="electronic spin" >
    <i type="int" name="ISPIN">     1</i>
    <i type="logical" name="LNONCOLLINEAR"> F  </i>
    <v name="MAGMOM">      1.00000000      1.00000000      1.00000000      1.00000000      1.00000000      1.00000000      1.00000000      1.00000000      1.00000000      1.00000000      1.00000000      1.00000000      1.00000000      1.00000000      1.00000000      1.00000000      1.00000000      1.00000000      1.00000000      1.00000000
      1.00000000      1.00000000      1.00000000      1.00000000      1.00000000      1.00000000      1.00000000      1.00000000      1.00000000      1.00000000      1.00000000      1.00000000      1.00000000      1.00000000      1.00000000      1.00000000      1.00000000      1.00000000      1.00000000      1.00000000
      1.00000000      1.00000000      1.00000000      1.00000000      1.00000000      1.00000000      1.00000000      1.00000000      1.00000000      1.00000000      1.00000000      1.00000000      1.00000000      1.00000000      1.00000000      1.00000000      1.00000000      1.00000000      1.00000000      1.00000000
      1.00000000      1.00000000      1.00000000      1.00000000      1.00000000      1.00000000      1.00000000      1.00000000      1.00000000      1.00000000      1.00000000      1.00000000      1.00000000      1.00000000</v>
    <i name="NUPDOWN">     -1.00000000</i>
    <i type="logical" name="LSORBIT"> F  </i>
    <v name="SAXIS">      0.00000000      0.00000000      1.00000000</v>
    <i type="logical" name="LSPIRAL"> F  </i>
    <v name="QSPIRAL">      0.00000000      0.00000000      0.00000000</v>
    <i type="logical" name="LZEROZ"> F  </i>
   </separator>
   <separator name="electronic exchange-correlation" >
    <i type="logical" name="LASPH"> F  </i>
    <i type="logical" name="LMETAGGA"> F  </i>
   </separator>
   <separator name="electronic convergence" >
    <i type="int" name="NELM">   100</i>
    <i type="int" name="NELMDL">    -5</i>
    <i type="int" name="NELMIN">     2</i>
    <i name="ENINI">    450.00000000</i>
    <separator name="electronic convergence detail" >
     <i type="logical" name="LDIAG"> T  </i>
     <i type="logical" name="LSUBROT"> F  </i>
     <i name="WEIMIN">      0.00000000</i>
     <i name="EBREAK">      0.00000005</i>
     <i name="DEPER">      0.30000000</i>
     <i type="int" name="NRMM">     4</i>
     <i name="TIME">      0.40000000</i>
    </separator>
   </separator>
   <separator name="electronic mixer" >
    <i name="AMIX">      0.40000000</i>
    <i name="BMIX">      1.00000000</i>
    <i name="AMIN">      0.10000000</i>
    <i name="AMIX_MAG">      1.60000000</i>
    <i name="BMIX_MAG">      1.00000000</i>
    <separator name="electronic mixer details" >
     <i type="int" name="IMIX">     4</i>
     <i type="logical" name="MIXFIRST"> F  </i>
     <i type="int" name="MAXMIX">   -45</i>
     <i name="WC">    100.00000000</i>
     <i type="int" name="INIMIX">     1</i>
     <i type="int" name="MIXPRE">     1</i>
     <i type="int" name="MREMOVE">     5</i>
    </separator>
   </separator>
   <separator name="electronic dipolcorrection" >
    <i type="logical" name="LDIPOL"> F  </i>
    <i type="logical" name="LMONO"> F  </i>
    <i type="int" name="IDIPOL">     0</i>
    <i name="EPSILON">      1.00000000</i>
    <v name="DIPOL">   -100.00000000   -100.00000000   -100.00000000</v>
    <i name="EFIELD">      0.00000000</i>
   </separator>
  </separator>
  <separator name="grids" >
   <i type="int" name="NGX">    90</i>
   <i type="int" name="NGY">    50</i>
   <i type="int" name="NGZ">    90</i>
   <i type="int" name="NGXF">   180</i>
   <i type="int" name="NGYF">   100</i>
   <i type="int" name="NGZF">   180</i>
   <i type="logical" name="ADDGRID"> F  </i>
  </separator>
  <separator name="ionic" >
   <i type="int" name="NSW">     0</i>
   <i type="int" name="IBRION">    -1</i>
   <i type="int" name="MDALGO">     0</i>
   <i type="int" name="ISIF">     2</i>
   <i name="PSTRESS">      0.00000000</i>
   <i name="EDIFFG">      0.00100000</i>
   <i type="int" name="NFREE">     0</i>
   <i name="POTIM">      0.50000000</i>
   <i name="SMASS">     -3.00000000</i>
   <i name="SCALEE">      1.00000000</i>
  </separator>
  <separator name="ionic md" >
   <i name="TEBEG">      0.00010000</i>
   <i name="TEEND">      0.00010000</i>
   <i type="int" name="NBLOCK">     1</i>
   <i type="int" name="KBLOCK">     1</i>
   <i type="int" name="NPACO">   256</i>
   <i name="APACO">     16.00000000</i>
  </separator>
  <separator name="symmetry" >
   <i type="int" name="ISYM">     2</i>
   <i name="SYMPREC">      0.00001000</i>
  </separator>
  <separator name="dos" >
   <i type="int" name="LORBIT">     0</i>
   <v name="RWIGS">     -1.00000000     -1.00000000</v>
   <i type="int" name="NEDOS">   301</i>
   <i name="EMIN">     10.00000000</i>
   <i name="EMAX">    -10.00000000</i>
   <i name="EFERMI">      0.00000000</i>
  </separator>
  <separator name="writing" >
   <i type="int" name="NWRITE">     2</i>
   <i type="logical" name="LWAVE"> F  </i>
   <i type="logical" name="LDOWNSAMPLE"> F  </i>
   <i type="logical" name="LCHARG"> F  </i>
   <i type="logical" name="LPARD"> F  </i>
   <i type="logical" name="LVTOT"> F  </i>
   <i type="logical" name="LVHAR"> F  </i>
   <i type="logical" name="LELF"> F  </i>
   <i type="logical" name="LOPTICS"> F  </i>
   <v name="STM">      0.00000000      0.00000000      0.00000000      0.00000000      0.00000000      0.00000000      0.00000000</v>
  </separator>
  <separator name="performance" >
   <i type="int" name="NPAR">     2</i>
   <i type="int" name="NSIM">     4</i>
   <i type="int" name="NBLK">    -1</i>
   <i type="logical" name="LPLANE"> T  </i>
   <i type="logical" name="LSCALAPACK"> T  </i>
   <i type="logical" name="LSCAAWARE"> F  </i>
   <i type="logical" name="LSCALU"> F  </i>
   <i type="logical" name="LASYNC"> F  </i>
   <i type="logical" name="LORBITALREAL"> F  </i>
  </separator>
  <separator name="miscellaneous" >
   <i type="int" name="IDIOT">     3</i>
   <i type="int" name="ISPECIAL">     0</i>
   <i type="logical" name="LMUSIC"> F  </i>
   <v name="POMASS">     58.69000000     32.06600000</v>
   <v name="DARWINR">      0.00000000      0.00000000</v>
   <v name="DARWINV">      1.00000000      1.00000000</v>
   <i type="logical" name="LCORR"> T  </i>
  </separator>
  <i type="logical" name="GGA_COMPAT"> T  </i>
  <i type="logical" name="LBERRY"> F  </i>
  <i type="int" name="ICORELEVEL">     0</i>
  <i type="logical" name="LDAU"> F  </i>
  <i type="int" name="I_CONSTRAINED_M">     0</i>
  <separator name="electronic exchange-correlation" >
   <i type="string" name="GGA">--</i>
   <i type="int" name="VOSKOWN">     0</i>
   <i type="logical" name="LHFCALC"> F  </i>
   <i type="string" name="PRECFOCK"></i>
   <i type="logical" name="LSYMGRAD"> F  </i>
   <i type="logical" name="LHFONE"> F  </i>
   <i type="logical" name="LRHFCALC"> F  </i>
   <i type="logical" name="LTHOMAS"> F  </i>
   <i type="logical" name="LMODELHF"> F  </i>
   <i name="ENCUT4O">     -1.00000000</i>
   <i type="int" name="EXXOEP">     0</i>
   <i type="int" name="FOURORBIT">     0</i>
   <i name="AEXX">      0.00000000</i>
   <i name="HFALPHA">      0.00000000</i>
   <i name="MCALPHA">      0.00000000</i>
   <i name="ALDAX">      1.00000000</i>
   <i name="AGGAX">      1.00000000</i>
   <i name="ALDAC">      1.00000000</i>
   <i name="AGGAC">      1.00000000</i>
   <i type="int" name="NKREDX">     1</i>
   <i type="int" name="NKREDY">     1</i>
   <i type="int" name="NKREDZ">     1</i>
   <i type="logical" name="SHIFTRED"> F  </i>
   <i type="logical" name="ODDONLY"> F  </i>
   <i type="logical" name="EVENONLY"> F  </i>
   <i type="int" name="LMAXFOCK">     0</i>
   <i type="int" name="NMAXFOCKAE">     0</i>
   <i type="logical" name="LFOCKAEDFT"> F  </i>
   <i name="HFSCREEN">      0.00000000</i>
   <i name="HFSCREENC">      0.00000000</i>
   <i type="int" name="NBANDSGWLOW">     0</i>
  </separator>
  <separator name="vdW DFT" >
   <i type="logical" name="LUSE_VDW"> F  </i>
   <i name="Zab_VDW">     -0.84910000</i>
   <i name="PARAM1">      0.12340000</i>
   <i name="PARAM2">      1.00000000</i>
   <i name="PARAM3">      0.00000000</i>
  </separator>
  <separator name="model GW" >
   <i type="int" name="MODEL_GW">     0</i>
   <i name="MODEL_EPS0">     21.83944246</i>
   <i name="MODEL_ALPHA">      1.00000000</i>
  </separator>
  <separator name="linear response parameters" >
   <i type="logical" name="LEPSILON"> F  </i>
   <i type="logical" name="LRPA"> F  </i>
   <i type="logical" name="LNABLA"> F  </i>
   <i type="logical" name="LVEL"> F  </i>
   <i type="int" name="KINTER">     0</i>
   <i name="CSHIFT">      0.10000000</i>
   <i name="OMEGAMAX">     -1.00000000</i>
   <i name="DEG_THRESHOLD">      0.00200000</i>
   <i name="RTIME">     -0.10000000</i>
   <i name="WPLASMAI">      0.00000000</i>
   <v name="DFIELD">      0.00000000      0.00000000      0.00000000</v>
   <v name="WPLASMA">      0.00000000      0.00000000      0.00000000      0.00000000      0.00000000      0.00000000      0.00000000      0.00000000      0.00000000</v>
  </separator>
  <separator name="orbital magnetization" >
   <i type="logical" name="NUCIND"> F  </i>
   <v name="MAGPOS">      0.00000000      0.00000000      0.00000000</v>
   <i type="logical" name="LNICSALL"> T  </i>
   <i type="logical" name="ORBITALMAG"> F  </i>
   <i type="logical" name="LMAGBLOCH"> F  </i>
   <i type="logical" name="LCHIMAG"> F  </i>
   <i type="logical" name="LGAUGE"> T  </i>
   <i type="int" name="MAGATOM">     0</i>
   <v name="MAGDIPOL">      0.00000000      0.00000000      0.00000000</v>
   <v name="AVECCONST">      0.00000000      0.00000000      0.00000000</v>
  </separator>
  <separator name="response functions" >
   <i type="logical" name="LADDER"> F  </i>
   <i type="logical" name="LRPAFORCE"> F  </i>
   <i type="logical" name="LFXC"> F  </i>
   <i type="logical" name="LHARTREE"> T  </i>
   <i type="int" name="IBSE">     0</i>
   <v type="int" name="KPOINT">    -1     0     0     0</v>
   <i type="logical" name="LTCTE"> F  </i>
   <i type="logical" name="LTETE"> F  </i>
   <i type="logical" name="LTRIPLET"> F  </i>
   <i type="logical" name="LFXCEPS"> F  </i>
   <i type="logical" name="LFXHEG"> F  </i>
   <i type="int" name="NATURALO">     2</i>
   <i type="logical" name="L2ORDER"> F  </i>
   <i type="logical" name="LMP2LT"> F  </i>
   <i type="logical" name="LUSEW"> F  </i>
   <i name="ENCUTGW">     -2.00000000</i>
   <i name="ENCUTGWSOFT">     -2.00000000</i>
   <i name="ENCUTLF">     -1.00000000</i>
   <i type="int" name="LMAXMP2">    -1</i>
   <i name="SCISSOR">      0.00000000</i>
   <i type="int" name="NOMEGA">     0</i>
   <i type="int" name="NOMEGAR">     0</i>
   <i type="int" name="NBANDSGW">    -1</i>
   <i type="int" name="NBANDSO">    -1</i>
   <i type="int" name="NBANDSV">    -1</i>
   <i type="int" name="NELM">   100</i>
   <i type="int" name="NELMHF">     1</i>
   <i type="int" name="DIM">     3</i>
   <i type="int" name="ANTIRES">     0</i>
   <i name="OMEGAMAX">    -30.00000000</i>
   <i name="OMEGAMIN">    -30.00000000</i>
   <i name="OMEGATL">   -200.00000000</i>
   <i type="int" name="OMEGAGRID">   140</i>
   <i name="CSHIFT">     -0.10000000</i>
   <i type="logical" name="SELFENERGY"> F  </i>
   <i type="logical" name="LSPECTRAL"> F  </i>
   <i type="logical" name="LSPECTRALGW"> F  </i>
   <i type="logical" name="LSINGLES"> F  </i>
   <i type="logical" name="LFERMIGW"> F  </i>
   <i type="logical" name="ODDONLYGW"> F  </i>
   <i type="logical" name="EVENONLYGW"> F  </i>
   <i type="int" name="NKREDLFX">     1</i>
   <i type="int" name="NKREDLFY">     1</i>
   <i type="int" name="NKREDLFZ">     1</i>
   <i type="int" name="MAXMEM">  2800</i>
   <i type="int" name="TELESCOPE">     0</i>
   <i type="int" name="TAUPAR">     1</i>
   <i type="int" name="OMEGAPAR">    -1</i>
   <i name="LAMBDA">      1.00000000</i>
  </separator>
  <separator name="External order field" >
   <i name="OFIELD_KAPPA">      0.00000000</i>
   <v name="OFIELD_K">      0.00000000      0.00000000      0.00000000</v>
   <i name="OFIELD_Q6_NEAR">      0.00000000</i>
   <i name="OFIELD_Q6_FAR">      0.00000000</i>
   <i name="OFIELD_A">      0.00000000</i>
  </separator>
 </parameters>
 <atominfo>
  <atoms>      74 </atoms>
  <types>       2 </types>
  <array name="atoms" >
   <dimension dim="1">ion</dimension>
   <field type="string">element</field>
   <field type="int">atomtype</field>
   <set>
    <rc><c>Ni</c><c>   1</c></rc>
    <rc><c>Ni</c><c>   1</c></rc>
    <rc><c>Ni</c><c>   1</c></rc>
    <rc><c>Ni</c><c>   1</c></rc>
    <rc><c>Ni</c><c>   1</c></rc>
    <rc><c>Ni</c><c>   1</c></rc>
    <rc><c>Ni</c><c>   1</c></rc>
    <rc><c>Ni</c><c>   1</c></rc>
    <rc><c>Ni</c><c>   1</c></rc>
    <rc><c>Ni</c><c>   1</c></rc>
    <rc><c>Ni</c><c>   1</c></rc>
    <rc><c>Ni</c><c>   1</c></rc>
    <rc><c>Ni</c><c>   1</c></rc>
    <rc><c>Ni</c><c>   1</c></rc>
    <rc><c>Ni</c><c>   1</c></rc>
    <rc><c>Ni</c><c>   1</c></rc>
    <rc><c>Ni</c><c>   1</c></rc>
    <rc><c>Ni</c><c>   1</c></rc>
    <rc><c>Ni</c><c>   1</c></rc>
    <rc><c>Ni</c><c>   1</c></rc>
    <rc><c>Ni</c><c>   1</c></rc>
    <rc><c>Ni</c><c>   1</c></rc>
    <rc><c>Ni</c><c>   1</c></rc>
    <rc><c>Ni</c><c>   1</c></rc>
    <rc><c>Ni</c><c>   1</c></rc>
    <rc><c>Ni</c><c>   1</c></rc>
    <rc><c>Ni</c><c>   1</c></rc>
    <rc><c>Ni</c><c>   1</c></rc>
    <rc><c>Ni</c><c>   1</c></rc>
    <rc><c>Ni</c><c>   1</c></rc>
    <rc><c>Ni</c><c>   1</c></rc>
    <rc><c>Ni</c><c>   1</c></rc>
    <rc><c>Ni</c><c>   1</c></rc>
    <rc><c>Ni</c><c>   1</c></rc>
    <rc><c>Ni</c><c>   1</c></rc>
    <rc><c>Ni</c><c>   1</c></rc>
    <rc><c>Ni</c><c>   1</c></rc>
    <rc><c>S </c><c>   2</c></rc>
    <rc><c>S </c><c>   2</c></rc>
    <rc><c>S </c><c>   2</c></rc>
    <rc><c>S </c><c>   2</c></rc>
    <rc><c>S </c><c>   2</c></rc>
    <rc><c>S </c><c>   2</c></rc>
    <rc><c>S </c><c>   2</c></rc>
    <rc><c>S </c><c>   2</c></rc>
    <rc><c>S </c><c>   2</c></rc>
    <rc><c>S </c><c>   2</c></rc>
    <rc><c>S </c><c>   2</c></rc>
    <rc><c>S </c><c>   2</c></rc>
    <rc><c>S </c><c>   2</c></rc>
    <rc><c>S </c><c>   2</c></rc>
    <rc><c>S </c><c>   2</c></rc>
    <rc><c>S </c><c>   2</c></rc>
    <rc><c>S </c><c>   2</c></rc>
    <rc><c>S </c><c>   2</c></rc>
    <rc><c>S </c><c>   2</c></rc>
    <rc><c>S </c><c>   2</c></rc>
    <rc><c>S </c><c>   2</c></rc>
    <rc><c>S </c><c>   2</c></rc>
    <rc><c>S </c><c>   2</c></rc>
    <rc><c>S </c><c>   2</c></rc>
    <rc><c>S </c><c>   2</c></rc>
    <rc><c>S </c><c>   2</c></rc>
    <rc><c>S </c><c>   2</c></rc>
    <rc><c>S </c><c>   2</c></rc>
    <rc><c>S </c><c>   2</c></rc>
    <rc><c>S </c><c>   2</c></rc>
    <rc><c>S </c><c>   2</c></rc>
    <rc><c>S </c><c>   2</c></rc>
    <rc><c>S </c><c>   2</c></rc>
    <rc><c>S </c><c>   2</c></rc>
    <rc><c>S </c><c>   2</c></rc>
    <rc><c>S </c><c>   2</c></rc>
    <rc><c>S </c><c>   2</c></rc>
   </set>
  </array>
  <array name="atomtypes" >
   <dimension dim="1">type</dimension>
   <field type="int">atomspertype</field>
   <field type="string">element</field>
   <field>mass</field>
   <field>valence</field>
   <field type="string">pseudopotential</field>
   <set>
    <rc><c>  37</c><c>Ni</c><c>     58.69000000</c><c>     16.00000000</c><c>  PAW_PBE Ni_pv 06Sep2000               </c></rc>
    <rc><c>  37</c><c>S </c><c>     32.06600000</c><c>      6.00000000</c><c>  PAW_PBE S 06Sep2000                   </c></rc>
   </set>
  </array>
 </atominfo>
 <structure name="initialpos" >
  <crystal>
   <varray name="basis" >
    <v>      16.88469405       0.00000000       0.00000000 </v>
    <v>       0.00000000       9.57841000       0.00000000 </v>
    <v>       0.00000000       0.00000000      16.65464569 </v>
   </varray>
   <i name="volume">   2693.53123734 </i>
   <varray name="rec_basis" >
    <v>       0.05922524       0.00000000       0.00000000 </v>
    <v>       0.00000000       0.10440146       0.00000000 </v>
    <v>       0.00000000       0.00000000       0.06004331 </v>
   </varray>
  </crystal>
  <varray name="positions" >
   <v>       0.78004630       0.14529696       0.12347080 </v>
   <v>       0.81394287       0.14264444       0.29004416 </v>
   <v>       0.21432870       0.66820924       0.10322617 </v>
   <v>       0.29733028       0.64529696       0.21607389 </v>
   <v>       0.39017822       0.13953023       0.13100948 </v>
   <v>       0.46975828       0.14529696       0.24694159 </v>
   <v>       0.95247430       0.64529696       0.15433850 </v>
   <v>       0.17234016       0.14646731       0.04625009 </v>
   <v>       0.12490229       0.14529696       0.18520619 </v>
   <v>       0.04949979       0.10458388       0.30053603 </v>
   <v>       0.57083887       0.64204797       0.16110251 </v>
   <v>       0.64218627       0.64529696       0.27780929 </v>
   <v>       0.91032003       0.06950854       0.09909361 </v>
   <v>       0.95459014       0.94278941       0.22383774 </v>
   <v>       0.45695359       0.44015129       0.05660105 </v>
   <v>       0.42486675       0.51319396       0.19160760 </v>
   <v>       0.44801454       0.48656279       0.33506740 </v>
   <v>       0.53016891       0.14396008       0.09134701 </v>
   <v>       0.59729475       0.01319396       0.22247530 </v>
   <v>       0.08001077       0.51319396       0.12987220 </v>
   <v>       0.25243876       0.01319396       0.16073990 </v>
   <v>       0.30109593       0.89450404       0.27217710 </v>
   <v>       0.76077557       0.40394138       0.12023883 </v>
   <v>       0.76972274       0.51319396       0.25334300 </v>
   <v>       0.91273809       0.38915007       0.13164949 </v>
   <v>       0.94188667       0.27773415       0.26800771 </v>
   <v>       0.35736377       0.64326068       0.06274777 </v>
   <v>       0.42486675       0.77739996       0.19160760 </v>
   <v>       0.54540799       0.84058578       0.30780546 </v>
   <v>       0.59991636       0.36681225       0.09142625 </v>
   <v>       0.59729475       0.27739996       0.22247530 </v>
   <v>       0.08001077       0.77739996       0.12987220 </v>
   <v>       0.16651814       0.77334817       0.24399151 </v>
   <v>       0.25243876       0.27739996       0.16073990 </v>
   <v>       0.26348170       0.28851845       0.30269603 </v>
   <v>       0.84326888       0.84508895       0.11776452 </v>
   <v>       0.76972274       0.77739996       0.25334300 </v>
   <v>       0.93087011       0.08765271       0.32936841 </v>
   <v>       0.99146120       0.14529696       0.18349304 </v>
   <v>       0.47417723       0.64529696       0.09088994 </v>
   <v>       0.50874518       0.64529696       0.27609614 </v>
   <v>       0.64660522       0.14529696       0.12175764 </v>
   <v>       0.68884868       0.14894060       0.27387840 </v>
   <v>       0.11492682       0.64807517       0.03684321 </v>
   <v>       0.17371187       0.56750034       0.20772978 </v>
   <v>       0.25467290       0.72337879       0.32618510 </v>
   <v>       0.29001278       0.14733805       0.06361799 </v>
   <v>       0.33631719       0.14529696       0.24522844 </v>
   <v>       0.81903321       0.64529696       0.15262534 </v>
   <v>       0.83189092       0.64823515       0.32328276 </v>
   <v>       0.84015590       0.28387891       0.05111803 </v>
   <v>       0.82906105       0.31351196       0.21464750 </v>
   <v>       0.31177707       0.81351196       0.12204440 </v>
   <v>       0.41871888       0.87673944       0.30414092 </v>
   <v>       0.48420507       0.31351196       0.15291210 </v>
   <v>       0.51555445       0.31710068       0.31514941 </v>
   <v>       0.03153112       0.76592692       0.24336442 </v>
   <v>       0.96485120       0.86027294       0.10183830 </v>
   <v>       0.14016696       0.32089681       0.10881204 </v>
   <v>       0.14403374       0.25016014       0.29354928 </v>
   <v>       0.65663306       0.81351196       0.18377980 </v>
   <v>       0.67003814       0.82990851       0.33353227 </v>
   <v>       0.31177707       0.47708196       0.12204440 </v>
   <v>       0.33796329       0.46149252       0.28643355 </v>
   <v>       0.81216094       0.99902410       0.03855607 </v>
   <v>       0.82906105       0.97708196       0.21464750 </v>
   <v>       0.99090376       0.46569035       0.21955784 </v>
   <v>       0.97694873       0.51800785       0.05779071 </v>
   <v>       0.48420507       0.97708196       0.15291210 </v>
   <v>       0.54400165       0.05019269       0.33200697 </v>
   <v>       0.65663306       0.47708196       0.18377980 </v>
   <v>       0.69630067       0.50426534       0.34971285 </v>
   <v>       0.14172433       0.96635151       0.10562465 </v>
   <v>       0.17391704       0.97708196       0.27638290 </v>
  </varray>
 </structure>
 <calculation>
  <scstep>
   <time name="dav">    9.18    9.19</time>
   <time name="total">    9.56    9.56</time>
   <energy>
    <i name="alphaZ">   1458.83996183 </i>
    <i name="ewald"> 177692.12116801 </i>
    <i name="hartreedc">-301269.33327978 </i>
    <i name="XCdc">   3788.39119659 </i>
    <i name="pawpsdc"> 115860.90926010 </i>
    <i name="pawaedc">-120909.33166199 </i>
    <i name="eentropy">     -0.53463415 </i>
    <i name="bandstr">  -7218.94970001 </i>
    <i name="atom"> 139780.45519414 </i>
    <i name="e_fr_energy">   9182.56750473 </i>
    <i name="e_wo_entrp">   9183.10213888 </i>
    <i name="e_0_energy">   9182.83482181 </i>
   </energy>
  </scstep>
  <scstep>
   <time name="dav">    8.49    8.49</time>
   <time name="total">    8.49    8.49</time>
   <energy>
    <i name="e_fr_energy">    504.58216014 </i>
    <i name="e_wo_entrp">    505.38913671 </i>
    <i name="e_0_energy">    504.98564842 </i>
   </energy>
  </scstep>
  <scstep>
   <time name="dav">    9.09    9.10</time>
   <time name="total">    9.09    9.10</time>
   <energy>
    <i name="e_fr_energy">   -349.13366965 </i>
    <i name="e_wo_entrp">   -347.86624890 </i>
    <i name="e_0_energy">   -348.49995928 </i>
   </energy>
  </scstep>
  <scstep>
   <time name="dav">    8.70    8.70</time>
   <time name="total">    8.70    8.70</time>
   <energy>
    <i name="e_fr_energy">   -394.05323094 </i>
    <i name="e_wo_entrp">   -392.75384758 </i>
    <i name="e_0_energy">   -393.40353926 </i>
   </energy>
  </scstep>
  <scstep>
   <time name="dav">    9.54    9.54</time>
   <time name="total">    9.88    9.88</time>
   <energy>
    <i name="e_fr_energy">   -395.82950514 </i>
    <i name="e_wo_entrp">   -394.54350247 </i>
    <i name="e_0_energy">   -395.18650380 </i>
   </energy>
  </scstep>
  <scstep>
   <time name="dav">    9.48    9.49</time>
   <time name="total">   10.15   10.16</time>
   <energy>
    <i name="e_fr_energy">   -460.05140715 </i>
    <i name="e_wo_entrp">   -459.44227815 </i>
    <i name="e_0_energy">   -459.74684265 </i>
   </energy>
  </scstep>
  <scstep>
   <time name="dav">    8.98    8.98</time>
   <time name="total">    9.65    9.65</time>
   <energy>
    <i name="e_fr_energy">   -359.90012403 </i>
    <i name="e_wo_entrp">   -358.88657207 </i>
    <i name="e_0_energy">   -359.39334805 </i>
   </energy>
  </scstep>
  <scstep>
   <time name="dav">   10.32   10.32</time>
   <time name="total">   10.99   10.99</time>
   <energy>
    <i name="e_fr_energy">   -378.58161229 </i>
    <i name="e_wo_entrp">   -377.47285083 </i>
    <i name="e_0_energy">   -378.02723156 </i>
   </energy>
  </scstep>
  <scstep>
   <time name="dav">    9.53    9.54</time>
   <time name="total">   10.44   10.44</time>
   <energy>
    <i name="e_fr_energy">   -365.76302858 </i>
    <i name="e_wo_entrp">   -364.67910376 </i>
    <i name="e_0_energy">   -365.22106617 </i>
   </energy>
  </scstep>
  <scstep>
   <time name="dav">   10.38   10.38</time>
   <time name="total">   11.05   11.05</time>
   <energy>
    <i name="e_fr_energy">   -371.42749300 </i>
    <i name="e_wo_entrp">   -370.33667738 </i>
    <i name="e_0_energy">   -370.88208519 </i>
   </energy>
  </scstep>
  <scstep>
   <time name="dav">   10.23   10.23</time>
   <time name="total">   10.91   10.91</time>
   <energy>
    <i name="e_fr_energy">   -358.38302382 </i>
    <i name="e_wo_entrp">   -357.35704782 </i>
    <i name="e_0_energy">   -357.87003582 </i>
   </energy>
  </scstep>
  <scstep>
   <time name="dav">    9.98    9.98</time>
   <time name="total">   10.73   10.73</time>
   <energy>
    <i name="e_fr_energy">   -356.77288471 </i>
    <i name="e_wo_entrp">   -355.73569248 </i>
    <i name="e_0_energy">   -356.25428860 </i>
   </energy>
  </scstep>
  <scstep>
   <time name="dav">   10.13   10.13</time>
   <time name="total">   10.84   10.84</time>
   <energy>
    <i name="e_fr_energy">   -351.90140590 </i>
    <i name="e_wo_entrp">   -350.83628392 </i>
    <i name="e_0_energy">   -351.36884491 </i>
   </energy>
  </scstep>
  <scstep>
   <time name="dav">   10.23   10.23</time>
   <time name="total">   10.92   10.92</time>
   <energy>
    <i name="e_fr_energy">   -349.48572253 </i>
    <i name="e_wo_entrp">   -348.47239476 </i>
    <i name="e_0_energy">   -348.97905865 </i>
   </energy>
  </scstep>
  <scstep>
   <time name="dav">   10.20   10.20</time>
   <time name="total">   10.92   10.92</time>
   <energy>
    <i name="e_fr_energy">   -348.26320754 </i>
    <i name="e_wo_entrp">   -347.12173765 </i>
    <i name="e_0_energy">   -347.69247259 </i>
   </energy>
  </scstep>
  <scstep>
   <time name="dav">   10.21   10.21</time>
   <time name="total">   10.90   10.90</time>
   <energy>
    <i name="e_fr_energy">   -347.46764799 </i>
    <i name="e_wo_entrp">   -346.37182921 </i>
    <i name="e_0_energy">   -346.91973860 </i>
   </energy>
  </scstep>
  <scstep>
   <time name="dav">   10.17   10.17</time>
   <time name="total">   10.86   10.87</time>
   <energy>
    <i name="e_fr_energy">   -347.30734942 </i>
    <i name="e_wo_entrp">   -346.18482347 </i>
    <i name="e_0_energy">   -346.74608644 </i>
   </energy>
  </scstep>
  <scstep>
   <time name="dav">    9.97    9.97</time>
   <time name="total">   10.65   10.65</time>
   <energy>
    <i name="e_fr_energy">   -347.14881777 </i>
    <i name="e_wo_entrp">   -346.02458120 </i>
    <i name="e_0_energy">   -346.58669949 </i>
   </energy>
  </scstep>
  <scstep>
   <time name="dav">   10.04   10.04</time>
   <time name="total">   10.75   10.76</time>
   <energy>
    <i name="e_fr_energy">   -347.01478178 </i>
    <i name="e_wo_entrp">   -345.87636774 </i>
    <i name="e_0_energy">   -346.44557476 </i>
   </energy>
  </scstep>
  <scstep>
   <time name="dav">   11.09   11.09</time>
   <time name="total">   11.78   11.78</time>
   <energy>
    <i name="e_fr_energy">   -346.65070803 </i>
    <i name="e_wo_entrp">   -345.48889415 </i>
    <i name="e_0_energy">   -346.06980109 </i>
   </energy>
  </scstep>
  <scstep>
   <time name="dav">   10.28   10.28</time>
   <time name="total">   10.98   10.98</time>
   <energy>
    <i name="e_fr_energy">   -346.55462273 </i>
    <i name="e_wo_entrp">   -345.35576666 </i>
    <i name="e_0_energy">   -345.95519470 </i>
   </energy>
  </scstep>
  <scstep>
   <time name="dav">   10.10   10.10</time>
   <time name="total">   10.80   10.80</time>
   <energy>
    <i name="e_fr_energy">   -346.52503946 </i>
    <i name="e_wo_entrp">   -345.32433538 </i>
    <i name="e_0_energy">   -345.92468742 </i>
   </energy>
  </scstep>
  <scstep>
   <time name="dav">   10.04   10.04</time>
   <time name="total">   10.74   10.74</time>
   <energy>
    <i name="e_fr_energy">   -346.53875582 </i>
    <i name="e_wo_entrp">   -345.32722044 </i>
    <i name="e_0_energy">   -345.93298813 </i>
   </energy>
  </scstep>
  <scstep>
   <time name="dav">    8.53    8.53</time>
   <time name="total">    9.22    9.22</time>
   <energy>
    <i name="e_fr_energy">   -346.50787148 </i>
    <i name="e_wo_entrp">   -345.30813752 </i>
    <i name="e_0_energy">   -345.90800450 </i>
   </energy>
  </scstep>
  <scstep>
   <time name="dav">   10.17   10.17</time>
   <time name="total">   10.90   10.90</time>
   <energy>
    <i name="e_fr_energy">   -346.50864868 </i>
    <i name="e_wo_entrp">   -345.30609278 </i>
    <i name="e_0_energy">   -345.90737073 </i>
   </energy>
  </scstep>
  <scstep>
   <time name="dav">   10.53   10.53</time>
   <time name="total">   11.25   11.25</time>
   <energy>
    <i name="e_fr_energy">   -346.47026627 </i>
    <i name="e_wo_entrp">   -345.28088960 </i>
    <i name="e_0_energy">   -345.87557793 </i>
   </energy>
  </scstep>
  <scstep>
   <time name="dav">    9.96    9.97</time>
   <time name="total">   10.79   10.80</time>
   <energy>
    <i name="e_fr_energy">   -346.45924881 </i>
    <i name="e_wo_entrp">   -345.26650614 </i>
    <i name="e_0_energy">   -345.86287747 </i>
   </energy>
  </scstep>
  <scstep>
   <time name="dav">    9.70    9.70</time>
   <time name="total">   10.53   10.53</time>
   <energy>
    <i name="e_fr_energy">   -346.45582207 </i>
    <i name="e_wo_entrp">   -345.27044460 </i>
    <i name="e_0_energy">   -345.86313333 </i>
   </energy>
  </scstep>
  <scstep>
   <time name="dav">    9.36    9.36</time>
   <time name="total">   10.06   10.06</time>
   <energy>
    <i name="e_fr_energy">   -346.45363340 </i>
    <i name="e_wo_entrp">   -345.26821314 </i>
    <i name="e_0_energy">   -345.86092327 </i>
   </energy>
  </scstep>
  <scstep>
   <time name="dav">    9.85    9.85</time>
   <time name="total">   10.56   10.56</time>
   <energy>
    <i name="e_fr_energy">   -346.45326830 </i>
    <i name="e_wo_entrp">   -345.26760192 </i>
    <i name="e_0_energy">   -345.86043511 </i>
   </energy>
  </scstep>
  <scstep>
   <time name="dav">    8.98    8.98</time>
   <time name="total">    9.68    9.68</time>
   <energy>
    <i name="e_fr_energy">   -346.45327083 </i>
    <i name="e_wo_entrp">   -345.26811029 </i>
    <i name="e_0_energy">   -345.86069056 </i>
   </energy>
  </scstep>
  <scstep>
   <time name="dav">    9.29    9.29</time>
   <time name="total">   10.01   10.01</time>
   <energy>
    <i name="e_fr_energy">   -346.45319600 </i>
    <i name="e_wo_entrp">   -345.26883252 </i>
    <i name="e_0_energy">   -345.86101426 </i>
   </energy>
  </scstep>
  <scstep>
   <time name="dav">    7.95    7.95</time>
   <time name="total">    8.65    8.65</time>
   <energy>
    <i name="e_fr_energy">   -346.45349907 </i>
    <i name="e_wo_entrp">   -345.26855377 </i>
    <i name="e_0_energy">   -345.86102642 </i>
   </energy>
  </scstep>
  <scstep>
   <time name="dav">    7.01    7.02</time>
   <time name="total">    7.74    7.74</time>
   <energy>
    <i name="e_fr_energy">   -346.45371250 </i>
    <i name="e_wo_entrp">   -345.26911403 </i>
    <i name="e_0_energy">   -345.86141327 </i>
   </energy>
  </scstep>
  <scstep>
   <time name="dav">    5.69    5.69</time>
   <time name="total">    6.41    6.41</time>
   <energy>
    <i name="e_fr_energy">   -346.45390618 </i>
    <i name="e_wo_entrp">   -345.26937017 </i>
    <i name="e_0_energy">   -345.86163817 </i>
   </energy>
  </scstep>
  <scstep>
   <time name="dav">    5.72    5.72</time>
   <time name="total">    6.45    6.45</time>
   <energy>
    <i name="e_fr_energy">   -346.45435403 </i>
    <i name="e_wo_entrp">   -345.27005332 </i>
    <i name="e_0_energy">   -345.86220367 </i>
   </energy>
  </scstep>
  <scstep>
   <time name="dav">    5.72    5.72</time>
   <time name="total">    6.45    6.45</time>
   <energy>
    <i name="e_fr_energy">   -346.45465309 </i>
    <i name="e_wo_entrp">   -345.27034251 </i>
    <i name="e_0_energy">   -345.86249780 </i>
   </energy>
  </scstep>
  <scstep>
   <time name="dav">    6.52    6.52</time>
   <time name="total">    7.25    7.25</time>
   <energy>
    <i name="e_fr_energy">   -346.45529838 </i>
    <i name="e_wo_entrp">   -345.27107425 </i>
    <i name="e_0_energy">   -345.86318631 </i>
   </energy>
  </scstep>
  <scstep>
   <time name="dav">    5.74    5.74</time>
   <time name="total">    6.47    6.47</time>
   <energy>
    <i name="e_fr_energy">   -346.45558492 </i>
    <i name="e_wo_entrp">   -345.27147527 </i>
    <i name="e_0_energy">   -345.86353009 </i>
   </energy>
  </scstep>
  <scstep>
   <time name="dav">    5.68    5.68</time>
   <time name="total">    6.41    6.41</time>
   <energy>
    <i name="e_fr_energy">   -346.45612887 </i>
    <i name="e_wo_entrp">   -345.27213328 </i>
    <i name="e_0_energy">   -345.86413107 </i>
   </energy>
  </scstep>
  <scstep>
   <time name="dav">    5.78    5.78</time>
   <time name="total">    6.53    6.53</time>
   <energy>
    <i name="e_fr_energy">   -346.45630049 </i>
    <i name="e_wo_entrp">   -345.27227150 </i>
    <i name="e_0_energy">   -345.86428599 </i>
   </energy>
  </scstep>
  <scstep>
   <time name="dav">    5.62    5.62</time>
   <time name="total">    6.37    6.37</time>
   <energy>
    <i name="e_fr_energy">   -346.45654465 </i>
    <i name="e_wo_entrp">   -345.27243743 </i>
    <i name="e_0_energy">   -345.86449104 </i>
   </energy>
  </scstep>
  <scstep>
   <time name="dav">    5.77    5.77</time>
   <time name="total">    6.14    6.14</time>
   <energy>
    <i name="alphaZ">   1458.83996183 </i>
    <i name="ewald"> 177692.12116801 </i>
    <i name="hartreedc">-300703.15118870 </i>
    <i name="XCdc">   3759.13642020 </i>
    <i name="pawpsdc"> 145484.07484620 </i>
    <i name="pawaedc">-150612.86721756 </i>
    <i name="eentropy">     -1.18407653 </i>
    <i name="bandstr"> -17203.88174627 </i>
    <i name="atom"> 139780.45519414 </i>
    <i name="e_fr_energy">   -346.45663868 </i>
    <i name="e_wo_entrp">   -345.27256215 </i>
    <i name="e_0_energy">   -345.86460041 </i>
   </energy>
  </scstep>
  <structure>
   <crystal>
    <varray name="basis" >
     <v>      16.88469405       0.00000000       0.00000000 </v>
     <v>       0.00000000       9.57841000       0.00000000 </v>
     <v>       0.00000000       0.00000000      16.65464569 </v>
    </varray>
    <i name="volume">   2693.53123734 </i>
    <varray name="rec_basis" >
     <v>       0.05922524       0.00000000       0.00000000 </v>
     <v>       0.00000000       0.10440146       0.00000000 </v>
     <v>       0.00000000       0.00000000       0.06004331 </v>
    </varray>
   </crystal>
   <varray name="positions" >
    <v>       0.78004630       0.14529696       0.12347080 </v>
    <v>       0.81394287       0.14264444       0.29004416 </v>
    <v>       0.21432870       0.66820924       0.10322617 </v>
    <v>       0.29733028       0.64529696       0.21607389 </v>
    <v>       0.39017822       0.13953023       0.13100948 </v>
    <v>       0.46975828       0.14529696       0.24694159 </v>
    <v>       0.95247430       0.64529696       0.15433850 </v>
    <v>       0.17234016       0.14646731       0.04625009 </v>
    <v>       0.12490229       0.14529696       0.18520619 </v>
    <v>       0.04949979       0.10458388       0.30053603 </v>
    <v>       0.57083887       0.64204797       0.16110251 </v>
    <v>       0.64218627       0.64529696       0.27780929 </v>
    <v>       0.91032003       0.06950854       0.09909361 </v>
    <v>       0.95459014       0.94278941       0.22383774 </v>
    <v>       0.45695359       0.44015129       0.05660105 </v>
    <v>       0.42486675       0.51319396       0.19160760 </v>
    <v>       0.44801454       0.48656279       0.33506740 </v>
    <v>       0.53016891       0.14396008       0.09134701 </v>
    <v>       0.59729475       0.01319396       0.22247530 </v>
    <v>       0.08001077       0.51319396       0.12987220 </v>
    <v>       0.25243876       0.01319396       0.16073990 </v>
    <v>       0.30109593       0.89450404       0.27217710 </v>
    <v>       0.76077557       0.40394138       0.12023883 </v>
    <v>       0.76972274       0.51319396       0.25334300 </v>
    <v>       0.91273809       0.38915007       0.13164949 </v>
    <v>       0.94188667       0.27773415       0.26800771 </v>
    <v>       0.35736377       0.64326068       0.06274777 </v>
    <v>       0.42486675       0.77739996       0.19160760 </v>
    <v>       0.54540799       0.84058578       0.30780546 </v>
    <v>       0.59991636       0.36681225       0.09142625 </v>
    <v>       0.59729475       0.27739996       0.22247530 </v>
    <v>       0.08001077       0.77739996       0.12987220 </v>
    <v>       0.16651814       0.77334817       0.24399151 </v>
    <v>       0.25243876       0.27739996       0.16073990 </v>
    <v>       0.26348170       0.28851845       0.30269603 </v>
    <v>       0.84326888       0.84508895       0.11776452 </v>
    <v>       0.76972274       0.77739996       0.25334300 </v>
    <v>       0.93087011       0.08765271       0.32936841 </v>
    <v>       0.99146120       0.14529696       0.18349304 </v>
    <v>       0.47417723       0.64529696       0.09088994 </v>
    <v>       0.50874518       0.64529696       0.27609614 </v>
    <v>       0.64660522       0.14529696       0.12175764 </v>
    <v>       0.68884868       0.14894060       0.27387840 </v>
    <v>       0.11492682       0.64807517       0.03684321 </v>
    <v>       0.17371187       0.56750034       0.20772978 </v>
    <v>       0.25467290       0.72337879       0.32618510 </v>
    <v>       0.29001278       0.14733805       0.06361799 </v>
    <v>       0.33631719       0.14529696       0.24522844 </v>
    <v>       0.81903321       0.64529696       0.15262534 </v>
    <v>       0.83189092       0.64823515       0.32328276 </v>
    <v>       0.84015590       0.28387891       0.05111803 </v>
    <v>       0.82906105       0.31351196       0.21464750 </v>
    <v>       0.31177707       0.81351196       0.12204440 </v>
    <v>       0.41871888       0.87673944       0.30414092 </v>
    <v>       0.48420507       0.31351196       0.15291210 </v>
    <v>       0.51555445       0.31710068       0.31514941 </v>
    <v>       0.03153112       0.76592692       0.24336442 </v>
    <v>       0.96485120       0.86027294       0.10183830 </v>
    <v>       0.14016696       0.32089681       0.10881204 </v>
    <v>       0.14403374       0.25016014       0.29354928 </v>
    <v>       0.65663306       0.81351196       0.18377980 </v>
    <v>       0.67003814       0.82990851       0.33353227 </v>
    <v>       0.31177707       0.47708196       0.12204440 </v>
    <v>       0.33796329       0.46149252       0.28643355 </v>
    <v>       0.81216094       0.99902410       0.03855607 </v>
    <v>       0.82906105       0.97708196       0.21464750 </v>
    <v>       0.99090376       0.46569035       0.21955784 </v>
    <v>       0.97694873       0.51800785       0.05779071 </v>
    <v>       0.48420507       0.97708196       0.15291210 </v>
    <v>       0.54400165       0.05019269       0.33200697 </v>
    <v>       0.65663306       0.47708196       0.18377980 </v>
    <v>       0.69630067       0.50426534       0.34971285 </v>
    <v>       0.14172433       0.96635151       0.10562465 </v>
    <v>       0.17391704       0.97708196       0.27638290 </v>
   </varray>
  </structure>
  <varray name="forces" >
   <v>      -1.40127151       0.07778831       1.73391163 </v>
   <v>      -0.71668713       0.70706054       0.96739461 </v>
   <v>       1.00827684      -0.08796338      -0.58387857 </v>
   <v>       1.02692044      -1.19531079      -0.21693850 </v>
   <v>       0.48293472       0.04061630      -0.35481583 </v>
   <v>      -0.54288410      -0.05636455       0.50101323 </v>
   <v>      -0.85942902       1.53484820       1.07997609 </v>
   <v>      -0.91343771      -0.08075493      -1.95564584 </v>
   <v>      -0.08342189      -0.73454666      -0.04616896 </v>
   <v>       0.56884817      -0.53042556       0.42426686 </v>
   <v>       0.48307468       0.10341462      -0.76184857 </v>
   <v>      -0.42618049      -0.42065305      -0.76107843 </v>
   <v>       1.27138565       0.61588343      -0.41610473 </v>
   <v>       0.09128073      -0.47197463       0.36040542 </v>
   <v>      -0.17679278      -0.50404540      -0.84907644 </v>
   <v>      -0.17283489       0.09641372      -0.05590581 </v>
   <v>       0.40239314       0.32999630       0.73462140 </v>
   <v>      -0.42005794      -0.05409674      -1.75033890 </v>
   <v>       1.06859481       0.12943490      -2.07941034 </v>
   <v>       0.17355326      -0.51274956      -0.35450267 </v>
   <v>       0.50435190       0.14044978       0.21106206 </v>
   <v>       0.38356435       1.16823768       0.45610121 </v>
   <v>      -0.56740237       0.85287168      -0.09761778 </v>
   <v>       0.53755560      -0.41087985      -2.05741407 </v>
   <v>       0.38745488      -0.47391527       0.28649629 </v>
   <v>       0.07398434       0.98870510       0.29477411 </v>
   <v>      -0.25998128       0.20439843      -1.46236821 </v>
   <v>       0.49385669      -0.13182970      -0.35469463 </v>
   <v>       0.30860589      -0.46938276       1.04808797 </v>
   <v>       0.05569659       0.11735835      -1.08860391 </v>
   <v>       0.65144346       0.36260394       0.13346342 </v>
   <v>       0.13797190       0.32634645      -0.74930732 </v>
   <v>      -1.88487975      -0.78446780       0.25634730 </v>
   <v>       1.12679386       0.31778411       0.03173762 </v>
   <v>      -0.21917901       0.56910531       0.45074327 </v>
   <v>      -0.42751742      -1.53063670      -0.34810089 </v>
   <v>      -1.16966746       1.52803673      -1.92337379 </v>
   <v>      -0.48389328      -1.18256907       3.48671820 </v>
   <v>       2.24867400       0.59192355      -1.65858628 </v>
   <v>       1.24928094       0.82997371      -2.68560096 </v>
   <v>      -0.58919012      -1.92205098       0.69156391 </v>
   <v>       1.42910362       0.49214487      -1.78611250 </v>
   <v>      -0.03536337       0.01813572       2.77302948 </v>
   <v>       0.04509457      -0.03797264      -3.75251999 </v>
   <v>       0.00399151      -1.66298062       1.91188439 </v>
   <v>      -0.25596330      -0.60038383       3.04583300 </v>
   <v>       1.49039556       0.01800374      -2.89573359 </v>
   <v>      -0.29061323      -0.98500043       0.98304793 </v>
   <v>      -0.68186478      -1.83634100      -0.53335914 </v>
   <v>       2.07806829      -0.58818342       3.25956046 </v>
   <v>       0.76280299       0.33672066      -3.50002065 </v>
   <v>      -1.64230976       1.09548798       1.35063318 </v>
   <v>      -0.47206104       1.82847338      -0.04214773 </v>
   <v>      -0.67794899       0.63516767       2.10591422 </v>
   <v>      -0.81158445       0.94427039      -0.82571969 </v>
   <v>       0.56997064      -0.25033031       2.57885161 </v>
   <v>      -0.34601431       0.24658684       2.98056454 </v>
   <v>       1.02440058       0.32316003      -2.13175989 </v>
   <v>      -0.75257071       0.83774816      -1.13279609 </v>
   <v>      -0.27728082       2.07632359       1.93765012 </v>
   <v>      -0.13481015       0.28724096      -1.60572540 </v>
   <v>       1.06992059       1.34959057       2.79660516 </v>
   <v>      -0.60542780      -1.49278946      -0.82701571 </v>
   <v>      -0.58990986       0.12599780       1.73135789 </v>
   <v>      -1.75365491      -0.92107433      -3.84857269 </v>
   <v>      -1.34356966      -0.89593696       1.06377233 </v>
   <v>       1.03177340       0.37427740       2.78536474 </v>
   <v>      -0.34995208      -0.61003726      -4.04457378 </v>
   <v>      -0.60689129      -1.07809417      -0.87882034 </v>
   <v>      -0.26651582       1.11161222       3.01560713 </v>
   <v>      -0.42066100      -0.68093694      -0.61756856 </v>
   <v>       0.23221027      -1.32053381       3.76452104 </v>
   <v>      -0.94704988      -0.60930400      -1.40354266 </v>
   <v>       0.10249646       1.39032344       1.20448801 </v>
  </varray>
  <varray name="stress" >
   <v>      78.76873305       1.61633667       1.42537731 </v>
   <v>       1.61633672      85.70819988       2.59586513 </v>
   <v>       1.42537721       2.59586501      88.04654764 </v>
  </varray>
  <energy>
   <i name="e_fr_energy">   -346.45663868 </i>
   <i name="e_wo_entrp">   -345.86460041 </i>
   <i name="e_0_energy">     -1.18407653 </i>
  </energy>
  <time name="totalsc">  416.12  416.22</time>
  <eigenvalues>
   <array>
    <dimension dim="1">band</dimension>
    <dimension dim="2">kpoint</dimension>
    <dimension dim="3">spin</dimension>
    <field>eigene</field>
    <field>occ</field>
    <set>
     <set comment="spin 1">
      <set comment="kpoint 1">
       <r>  -65.0423    1.0000 </r>
       <r>  -65.0041    1.0000 </r>
       <r>  -64.9518    1.0000 </r>
       <r>  -64.9360    1.0000 </r>
       <r>  -64.9028    1.0000 </r>
       <r>  -64.8770    1.0000 </r>
       <r>  -64.8658    1.0000 </r>
       <r>  -64.8613    1.0000 </r>
       <r>  -64.8311    1.0000 </r>
       <r>  -64.8172    1.0000 </r>
       <r>  -64.8167    1.0000 </r>
       <r>  -64.8050    1.0000 </r>
       <r>  -64.7830    1.0000 </r>
       <r>  -64.7773    1.0000 </r>
       <r>  -64.7668    1.0000 </r>
       <r>  -64.7384    1.0000 </r>
       <r>  -64.7329    1.0000 </r>
       <r>  -64.7124    1.0000 </r>
       <r>  -64.6871    1.0000 </r>
       <r>  -64.6659    1.0000 </r>
       <r>  -64.6623    1.0000 </r>
       <r>  -64.6537    1.0000 </r>
       <r>  -64.6479    1.0000 </r>
       <r>  -64.6449    1.0000 </r>
       <r>  -64.6403    1.0000 </r>
       <r>  -64.6344    1.0000 </r>
       <r>  -64.6195    1.0000 </r>
       <r>  -64.6092    1.0000 </r>
       <r>  -64.6047    1.0000 </r>
       <r>  -64.5957    1.0000 </r>
       <r>  -64.5932    1.0000 </r>
       <r>  -64.5867    1.0000 </r>
       <r>  -64.5832    1.0000 </r>
       <r>  -64.5629    1.0000 </r>
       <r>  -64.5500    1.0000 </r>
       <r>  -64.5495    1.0000 </r>
       <r>  -64.5371    1.0000 </r>
       <r>  -64.5363    1.0000 </r>
       <r>  -64.5306    1.0000 </r>
       <r>  -64.5285    1.0000 </r>
       <r>  -64.5120    1.0000 </r>
       <r>  -64.5042    1.0000 </r>
       <r>  -64.4976    1.0000 </r>
       <r>  -64.4903    1.0000 </r>
       <r>  -64.4853    1.0000 </r>
       <r>  -64.4839    1.0000 </r>
       <r>  -64.4727    1.0000 </r>
       <r>  -64.4710    1.0000 </r>
       <r>  -64.4695    1.0000 </r>
       <r>  -64.4589    1.0000 </r>
       <r>  -64.4578    1.0000 </r>
       <r>  -64.4533    1.0000 </r>
       <r>  -64.4465    1.0000 </r>
       <r>  -64.4311    1.0000 </r>
       <r>  -64.4264    1.0000 </r>
       <r>  -64.3880    1.0000 </r>
       <r>  -64.3790    1.0000 </r>
       <r>  -64.3705    1.0000 </r>
       <r>  -64.3683    1.0000 </r>
       <r>  -64.3518    1.0000 </r>
       <r>  -64.3470    1.0000 </r>
       <r>  -64.3367    1.0000 </r>
       <r>  -64.3352    1.0000 </r>
       <r>  -64.3223    1.0000 </r>
       <r>  -64.3052    1.0000 </r>
       <r>  -64.3004    1.0000 </r>
       <r>  -64.2938    1.0000 </r>
       <r>  -64.2708    1.0000 </r>
       <r>  -64.2695    1.0000 </r>
       <r>  -64.2532    1.0000 </r>
       <r>  -64.2516    1.0000 </r>
       <r>  -64.2473    1.0000 </r>
       <r>  -64.2264    1.0000 </r>
       <r>  -64.2223    1.0000 </r>
       <r>  -64.2135    1.0000 </r>
       <r>  -64.2023    1.0000 </r>
       <r>  -64.1893    1.0000 </r>
       <r>  -64.1658    1.0000 </r>
       <r>  -64.1617    1.0000 </r>
       <r>  -64.1343    1.0000 </r>
       <r>  -64.1190    1.0000 </r>
       <r>  -64.1152    1.0000 </r>
       <r>  -64.1077    1.0000 </r>
       <r>  -64.0878    1.0000 </r>
       <r>  -64.0679    1.0000 </r>
       <r>  -64.0459    1.0000 </r>
       <r>  -64.0358    1.0000 </r>
       <r>  -64.0322    1.0000 </r>
       <r>  -64.0258    1.0000 </r>
       <r>  -63.9776    1.0000 </r>
       <r>  -63.9519    1.0000 </r>
       <r>  -63.9152    1.0000 </r>
       <r>  -63.9018    1.0000 </r>
       <r>  -63.8852    1.0000 </r>
       <r>  -63.8697    1.0000 </r>
       <r>  -63.8596    1.0000 </r>
       <r>  -63.8230    1.0000 </r>
       <r>  -63.7827    1.0000 </r>
       <r>  -63.7646    1.0000 </r>
       <r>  -63.7567    1.0000 </r>
       <r>  -63.7391    1.0000 </r>
       <r>  -63.7340    1.0000 </r>
       <r>  -63.7069    1.0000 </r>
       <r>  -63.6739    1.0000 </r>
       <r>  -63.6291    1.0000 </r>
       <r>  -63.6126    1.0000 </r>
       <r>  -63.6018    1.0000 </r>
       <r>  -63.5843    1.0000 </r>
       <r>  -63.5752    1.0000 </r>
       <r>  -63.4454    1.0000 </r>
       <r>  -63.4232    1.0000 </r>
       <r>  -16.7609    1.0000 </r>
       <r>  -16.5476    1.0000 </r>
       <r>  -16.1783    1.0000 </r>
       <r>  -15.9283    1.0000 </r>
       <r>  -15.8432    1.0000 </r>
       <r>  -15.6462    1.0000 </r>
       <r>  -15.5781    1.0000 </r>
       <r>  -15.4613    1.0000 </r>
       <r>  -15.4223    1.0000 </r>
       <r>  -15.3087    1.0000 </r>
       <r>  -15.1423    1.0000 </r>
       <r>  -15.1104    1.0000 </r>
       <r>  -14.9359    1.0000 </r>
       <r>  -14.9203    1.0000 </r>
       <r>  -14.8836    1.0000 </r>
       <r>  -14.7779    1.0000 </r>
       <r>  -14.7390    1.0000 </r>
       <r>  -14.6106    1.0000 </r>
       <r>  -14.5576    1.0000 </r>
       <r>  -14.5235    1.0000 </r>
       <r>  -14.3529    1.0000 </r>
       <r>  -14.2737    1.0000 </r>
       <r>  -14.2274    1.0000 </r>
       <r>  -14.1030    1.0000 </r>
       <r>  -14.0310    1.0000 </r>
       <r>  -14.0055    1.0000 </r>
       <r>  -13.9016    1.0000 </r>
       <r>  -13.8487    1.0000 </r>
       <r>  -13.7076    1.0000 </r>
       <r>  -13.6746    1.0000 </r>
       <r>  -13.5120    1.0000 </r>
       <r>  -13.4638    1.0000 </r>
       <r>  -13.2350    1.0000 </r>
       <r>  -13.2266    1.0000 </r>
       <r>  -13.1465    1.0000 </r>
       <r>  -13.0650    1.0000 </r>
       <r>  -12.7346    1.0000 </r>
       <r>   -8.3866    1.0000 </r>
       <r>   -8.3708    1.0000 </r>
       <r>   -8.2883    1.0000 </r>
       <r>   -8.1009    1.0000 </r>
       <r>   -8.0280    1.0000 </r>
       <r>   -7.9922    1.0000 </r>
       <r>   -7.9595    1.0000 </r>
       <r>   -7.8838    1.0000 </r>
       <r>   -7.8264    1.0000 </r>
       <r>   -7.7459    1.0000 </r>
       <r>   -7.7167    1.0000 </r>
       <r>   -7.5919    1.0000 </r>
       <r>   -7.5494    1.0000 </r>
       <r>   -7.5149    1.0000 </r>
       <r>   -7.4236    1.0000 </r>
       <r>   -7.3864    1.0000 </r>
       <r>   -7.3391    1.0000 </r>
       <r>   -7.2747    1.0000 </r>
       <r>   -7.2357    1.0000 </r>
       <r>   -7.1768    1.0000 </r>
       <r>   -7.1498    1.0000 </r>
       <r>   -7.0795    1.0000 </r>
       <r>   -7.0321    1.0000 </r>
       <r>   -6.9803    1.0000 </r>
       <r>   -6.9013    1.0000 </r>
       <r>   -6.8338    1.0000 </r>
       <r>   -6.7943    1.0000 </r>
       <r>   -6.7914    1.0000 </r>
       <r>   -6.7332    1.0000 </r>
       <r>   -6.6395    1.0000 </r>
       <r>   -6.6132    1.0000 </r>
       <r>   -6.5771    1.0000 </r>
       <r>   -6.5427    1.0000 </r>
       <r>   -6.4358    1.0000 </r>
       <r>   -6.4173    1.0000 </r>
       <r>   -6.3875    1.0000 </r>
       <r>   -6.3343    1.0000 </r>
       <r>   -6.2681    1.0000 </r>
       <r>   -6.2252    1.0000 </r>
       <r>   -6.1849    1.0000 </r>
       <r>   -6.1680    1.0000 </r>
       <r>   -6.1292    1.0000 </r>
       <r>   -6.0924    1.0000 </r>
       <r>   -6.0123    1.0000 </r>
       <r>   -6.0070    1.0000 </r>
       <r>   -5.9549    1.0000 </r>
       <r>   -5.9251    1.0000 </r>
       <r>   -5.8974    1.0000 </r>
       <r>   -5.8763    1.0000 </r>
       <r>   -5.8241    1.0000 </r>
       <r>   -5.8004    1.0000 </r>
       <r>   -5.7540    1.0000 </r>
       <r>   -5.7265    1.0000 </r>
       <r>   -5.6921    1.0000 </r>
       <r>   -5.6396    1.0000 </r>
       <r>   -5.5874    1.0000 </r>
       <r>   -5.5557    1.0000 </r>
       <r>   -5.5347    1.0000 </r>
       <r>   -5.4843    1.0000 </r>
       <r>   -5.4745    1.0000 </r>
       <r>   -5.4585    1.0000 </r>
       <r>   -5.3701    1.0000 </r>
       <r>   -5.3446    1.0000 </r>
       <r>   -5.3285    1.0000 </r>
       <r>   -5.3202    1.0000 </r>
       <r>   -5.2781    1.0000 </r>
       <r>   -5.2734    1.0000 </r>
       <r>   -5.2341    1.0000 </r>
       <r>   -5.1829    1.0000 </r>
       <r>   -5.1471    1.0000 </r>
       <r>   -5.1057    1.0000 </r>
       <r>   -5.0892    1.0000 </r>
       <r>   -5.0756    1.0000 </r>
       <r>   -5.0580    1.0000 </r>
       <r>   -4.9944    1.0000 </r>
       <r>   -4.9817    1.0000 </r>
       <r>   -4.9314    1.0000 </r>
       <r>   -4.8967    1.0000 </r>
       <r>   -4.8689    1.0000 </r>
       <r>   -4.7995    1.0000 </r>
       <r>   -4.7971    1.0000 </r>
       <r>   -4.7458    1.0000 </r>
       <r>   -4.6674    1.0000 </r>
       <r>   -4.6567    1.0000 </r>
       <r>   -4.5933    1.0000 </r>
       <r>   -4.5749    1.0000 </r>
       <r>   -4.5126    1.0000 </r>
       <r>   -4.4405    1.0000 </r>
       <r>   -4.4126    1.0000 </r>
       <r>   -4.3444    1.0000 </r>
       <r>   -4.3213    1.0000 </r>
       <r>   -4.3127    1.0000 </r>
       <r>   -4.2833    1.0000 </r>
       <r>   -4.2359    1.0000 </r>
       <r>   -4.1614    1.0000 </r>
       <r>   -4.1381    1.0000 </r>
       <r>   -4.1199    1.0000 </r>
       <r>   -4.0169    1.0000 </r>
       <r>   -3.9808    1.0000 </r>
       <r>   -3.9315    1.0000 </r>
       <r>   -3.8987    1.0000 </r>
       <r>   -3.8870    1.0000 </r>
       <r>   -3.8411    1.0000 </r>
       <r>   -3.8254    1.0000 </r>
       <r>   -3.7515    1.0000 </r>
       <r>   -3.7482    1.0000 </r>
       <r>   -3.6971    1.0000 </r>
       <r>   -3.6803    1.0000 </r>
       <r>   -3.6616    1.0000 </r>
       <r>   -3.5901    1.0000 </r>
       <r>   -3.5773    1.0000 </r>
       <r>   -3.5489    1.0000 </r>
       <r>   -3.5024    1.0000 </r>
       <r>   -3.4855    1.0000 </r>
       <r>   -3.4287    1.0000 </r>
       <r>   -3.4124    1.0000 </r>
       <r>   -3.3876    1.0000 </r>
       <r>   -3.3647    1.0000 </r>
       <r>   -3.3377    1.0000 </r>
       <r>   -3.3025    1.0000 </r>
       <r>   -3.2842    1.0000 </r>
       <r>   -3.2227    1.0000 </r>
       <r>   -3.2167    1.0000 </r>
       <r>   -3.1882    1.0000 </r>
       <r>   -3.1430    1.0000 </r>
       <r>   -3.1197    1.0000 </r>
       <r>   -3.1104    1.0000 </r>
       <r>   -3.0833    1.0000 </r>
       <r>   -3.0680    1.0000 </r>
       <r>   -3.0183    1.0000 </r>
       <r>   -3.0001    1.0000 </r>
       <r>   -2.9669    1.0000 </r>
       <r>   -2.9505    1.0000 </r>
       <r>   -2.9031    1.0000 </r>
       <r>   -2.8929    1.0000 </r>
       <r>   -2.8593    1.0000 </r>
       <r>   -2.8378    1.0000 </r>
       <r>   -2.8060    1.0000 </r>
       <r>   -2.8009    1.0000 </r>
       <r>   -2.7645    1.0000 </r>
       <r>   -2.7525    1.0000 </r>
       <r>   -2.7122    1.0000 </r>
       <r>   -2.7116    1.0000 </r>
       <r>   -2.6869    1.0000 </r>
       <r>   -2.6520    1.0000 </r>
       <r>   -2.6326    1.0000 </r>
       <r>   -2.6163    1.0000 </r>
       <r>   -2.5995    1.0000 </r>
       <r>   -2.5881    1.0000 </r>
       <r>   -2.5794    1.0000 </r>
       <r>   -2.5705    1.0000 </r>
       <r>   -2.5550    1.0000 </r>
       <r>   -2.5448    1.0000 </r>
       <r>   -2.5276    1.0000 </r>
       <r>   -2.4948    1.0000 </r>
       <r>   -2.4821    1.0000 </r>
       <r>   -2.4738    1.0000 </r>
       <r>   -2.4407    1.0000 </r>
       <r>   -2.4141    1.0000 </r>
       <r>   -2.3986    1.0000 </r>
       <r>   -2.3806    1.0000 </r>
       <r>   -2.3568    1.0000 </r>
       <r>   -2.3437    1.0000 </r>
       <r>   -2.3299    1.0000 </r>
       <r>   -2.3165    1.0000 </r>
       <r>   -2.3051    1.0000 </r>
       <r>   -2.2784    1.0000 </r>
       <r>   -2.2695    1.0000 </r>
       <r>   -2.2473    1.0000 </r>
       <r>   -2.2399    1.0000 </r>
       <r>   -2.2162    1.0000 </r>
       <r>   -2.2021    1.0000 </r>
       <r>   -2.1801    1.0000 </r>
       <r>   -2.1741    1.0000 </r>
       <r>   -2.1628    1.0000 </r>
       <r>   -2.1436    1.0000 </r>
       <r>   -2.1395    1.0000 </r>
       <r>   -2.1193    1.0000 </r>
       <r>   -2.0808    1.0000 </r>
       <r>   -2.0715    1.0000 </r>
       <r>   -2.0553    1.0000 </r>
       <r>   -2.0300    1.0000 </r>
       <r>   -2.0276    1.0000 </r>
       <r>   -2.0095    1.0000 </r>
       <r>   -1.9980    1.0000 </r>
       <r>   -1.9825    1.0000 </r>
       <r>   -1.9671    1.0000 </r>
       <r>   -1.9537    1.0000 </r>
       <r>   -1.9240    1.0000 </r>
       <r>   -1.9204    1.0000 </r>
       <r>   -1.8848    1.0000 </r>
       <r>   -1.8672    1.0000 </r>
       <r>   -1.8643    1.0000 </r>
       <r>   -1.8556    1.0000 </r>
       <r>   -1.8146    1.0000 </r>
       <r>   -1.8073    1.0000 </r>
       <r>   -1.8026    1.0000 </r>
       <r>   -1.7812    1.0000 </r>
       <r>   -1.7695    1.0000 </r>
       <r>   -1.7470    1.0000 </r>
       <r>   -1.7181    1.0000 </r>
       <r>   -1.7077    1.0000 </r>
       <r>   -1.6873    1.0000 </r>
       <r>   -1.6725    1.0000 </r>
       <r>   -1.6371    1.0000 </r>
       <r>   -1.6265    1.0000 </r>
       <r>   -1.6163    1.0000 </r>
       <r>   -1.6002    1.0000 </r>
       <r>   -1.5762    1.0000 </r>
       <r>   -1.5633    1.0000 </r>
       <r>   -1.5535    1.0000 </r>
       <r>   -1.5378    1.0000 </r>
       <r>   -1.5232    1.0000 </r>
       <r>   -1.4961    1.0000 </r>
       <r>   -1.4899    1.0000 </r>
       <r>   -1.4573    1.0000 </r>
       <r>   -1.4241    1.0000 </r>
       <r>   -1.3933    1.0000 </r>
       <r>   -1.3772    1.0000 </r>
       <r>   -1.3669    1.0000 </r>
       <r>   -1.3191    1.0000 </r>
       <r>   -1.3025    1.0000 </r>
       <r>   -1.2678    1.0000 </r>
       <r>   -1.2505    1.0000 </r>
       <r>   -1.2257    1.0000 </r>
       <r>   -1.2138    1.0000 </r>
       <r>   -1.1875    1.0000 </r>
       <r>   -1.1518    1.0000 </r>
       <r>   -1.1414    1.0000 </r>
       <r>   -1.1252    1.0000 </r>
       <r>   -1.0797    1.0000 </r>
       <r>   -1.0654    1.0000 </r>
       <r>   -1.0476    1.0000 </r>
       <r>   -1.0273    1.0000 </r>
       <r>   -0.9924    1.0000 </r>
       <r>   -0.9482    1.0000 </r>
       <r>   -0.8918    1.0000 </r>
       <r>   -0.8633    1.0000 </r>
       <r>   -0.8325    1.0000 </r>
       <r>   -0.7902    1.0000 </r>
       <r>   -0.7781    1.0000 </r>
       <r>   -0.7693    1.0000 </r>
       <r>   -0.7288    1.0000 </r>
       <r>   -0.6782    1.0000 </r>
       <r>   -0.6368    0.9999 </r>
       <r>   -0.6170    0.9998 </r>
       <r>   -0.5981    0.9997 </r>
       <r>   -0.5647    0.9993 </r>
       <r>   -0.5002    0.9969 </r>
       <r>   -0.4619    0.9932 </r>
       <r>   -0.4415    0.9899 </r>
       <r>   -0.3954    0.9770 </r>
       <r>   -0.3707    0.9657 </r>
       <r>   -0.3320    0.9391 </r>
       <r>   -0.2157    0.7657 </r>
       <r>   -0.2067    0.7458 </r>
       <r>   -0.1644    0.6414 </r>
       <r>   -0.1499    0.6026 </r>
       <r>   -0.1262    0.5368 </r>
       <r>   -0.1094    0.4895 </r>
       <r>   -0.0761    0.3967 </r>
       <r>   -0.0597    0.3528 </r>
       <r>   -0.0126    0.2385 </r>
       <r>    0.0025    0.2067 </r>
       <r>    0.0729    0.0941 </r>
       <r>    0.1531    0.0299 </r>
       <r>    0.1867    0.0170 </r>
       <r>    0.2029    0.0127 </r>
       <r>    0.2675    0.0036 </r>
       <r>    0.2764    0.0029 </r>
       <r>    0.2834    0.0025 </r>
       <r>    0.3578    0.0004 </r>
       <r>    0.4264    0.0001 </r>
       <r>    0.4517    0.0000 </r>
       <r>    0.4780    0.0000 </r>
       <r>    0.5315    0.0000 </r>
       <r>    0.5739    0.0000 </r>
       <r>    0.6176    0.0000 </r>
       <r>    0.6670    0.0000 </r>
       <r>    0.7382    0.0000 </r>
       <r>    0.7633    0.0000 </r>
       <r>    0.8120    0.0000 </r>
       <r>    0.8811    0.0000 </r>
       <r>    0.9114    0.0000 </r>
       <r>    0.9626    0.0000 </r>
       <r>    1.0099    0.0000 </r>
       <r>    1.0592    0.0000 </r>
       <r>    1.0905    0.0000 </r>
       <r>    1.1667    0.0000 </r>
       <r>    1.2844    0.0000 </r>
       <r>    1.3324    0.0000 </r>
       <r>    1.3445    0.0000 </r>
       <r>    1.4342    0.0000 </r>
       <r>    1.5973    0.0000 </r>
       <r>    1.6881    0.0000 </r>
       <r>    1.7594    0.0000 </r>
       <r>    1.9078    0.0000 </r>
       <r>    2.6175    0.0000 </r>
       <r>    3.0360    0.0000 </r>
       <r>    3.0726    0.0000 </r>
       <r>    3.1544    0.0000 </r>
       <r>    3.3484    0.0000 </r>
       <r>    3.4486    0.0000 </r>
       <r>    3.5543    0.0000 </r>
       <r>    3.5933    0.0000 </r>
       <r>    3.8008    0.0000 </r>
       <r>    3.8700    0.0000 </r>
       <r>    3.9914    0.0000 </r>
       <r>    4.0306    0.0000 </r>
       <r>    4.1885    0.0000 </r>
       <r>    4.2562    0.0000 </r>
       <r>    4.2577    0.0000 </r>
       <r>    4.3069    0.0000 </r>
       <r>    4.4078    0.0000 </r>
       <r>    4.4961    0.0000 </r>
       <r>    4.5237    0.0000 </r>
       <r>    4.5474    0.0000 </r>
       <r>    4.6107    0.0000 </r>
       <r>    4.6829    0.0000 </r>
       <r>    4.7484    0.0000 </r>
       <r>    4.7737    0.0000 </r>
       <r>    4.8462    0.0000 </r>
       <r>    4.8712    0.0000 </r>
       <r>    4.9539    0.0000 </r>
       <r>    4.9697    0.0000 </r>
       <r>    4.9944    0.0000 </r>
       <r>    5.1041    0.0000 </r>
       <r>    5.1658    0.0000 </r>
       <r>    5.1867    0.0000 </r>
       <r>    5.2415    0.0000 </r>
       <r>    5.2727    0.0000 </r>
       <r>    5.3208    0.0000 </r>
       <r>    5.4060    0.0000 </r>
       <r>    5.4108    0.0000 </r>
       <r>    5.4314    0.0000 </r>
       <r>    5.4822    0.0000 </r>
       <r>    5.5955    0.0000 </r>
       <r>    5.6643    0.0000 </r>
       <r>    5.6726    0.0000 </r>
       <r>    5.7252    0.0000 </r>
      </set>
     </set>
    </set>
   </array>
  </eigenvalues>
  <separator name="orbital magnetization" >
   <v name="MAGDIPOLOUT">      0.00000000      0.00000000      0.00000000</v>
  </separator>
  <dos>
   <i name="efermi">     -0.11316199 </i>
   <total>
    <array>
     <dimension dim="1">gridpoints</dimension>
     <dimension dim="2">spin</dimension>
     <field>energy</field>
     <field>total</field>
     <field>integrated</field>
     <set>
      <set comment="spin 1">
       <r>   -68.5807     0.0000     0.0000 </r>
       <r>   -68.3212     0.0000     0.0000 </r>
       <r>   -68.0617     0.0000     0.0000 </r>
       <r>   -67.8022     0.0000     0.0000 </r>
       <r>   -67.5427     0.0000     0.0000 </r>
       <r>   -67.2833     0.0000     0.0000 </r>
       <r>   -67.0238     0.0000     0.0000 </r>
       <r>   -66.7643     0.0000     0.0000 </r>
       <r>   -66.5048     0.0000     0.0000 </r>
       <r>   -66.2453     0.0000     0.0000 </r>
       <r>   -65.9859     0.0000     0.0000 </r>
       <r>   -65.7264     0.0000     0.0000 </r>
       <r>   -65.4669     0.0167     0.0043 </r>
       <r>   -65.2074     2.4255     0.6337 </r>
       <r>   -64.9479    36.6506    10.1439 </r>
       <r>   -64.6885   130.9625    44.1261 </r>
       <r>   -64.4290   220.5504   101.3546 </r>
       <r>   -64.1695   194.6205   151.8549 </r>
       <r>   -63.9100   125.0392   184.3002 </r>
       <r>   -63.6505    88.2967   207.2115 </r>
       <r>   -63.3911    47.8968   219.6397 </r>
       <r>   -63.1316     8.8225   221.9290 </r>
       <r>   -62.8721     0.2730   221.9999 </r>
       <r>   -62.6126     0.0006   222.0000 </r>
       <r>   -62.3531     0.0000   222.0000 </r>
       <r>   -62.0937     0.0000   222.0000 </r>
       <r>   -61.8342     0.0000   222.0000 </r>
       <r>   -61.5747     0.0000   222.0000 </r>
       <r>   -61.3152     0.0000   222.0000 </r>
       <r>   -61.0557     0.0000   222.0000 </r>
       <r>   -60.7963     0.0000   222.0000 </r>
       <r>   -60.5368     0.0000   222.0000 </r>
       <r>   -60.2773     0.0000   222.0000 </r>
       <r>   -60.0178     0.0000   222.0000 </r>
       <r>   -59.7583     0.0000   222.0000 </r>
       <r>   -59.4988     0.0000   222.0000 </r>
       <r>   -59.2394     0.0000   222.0000 </r>
       <r>   -58.9799     0.0000   222.0000 </r>
       <r>   -58.7204     0.0000   222.0000 </r>
       <r>   -58.4609     0.0000   222.0000 </r>
       <r>   -58.2014     0.0000   222.0000 </r>
       <r>   -57.9420     0.0000   222.0000 </r>
       <r>   -57.6825     0.0000   222.0000 </r>
       <r>   -57.4230     0.0000   222.0000 </r>
       <r>   -57.1635     0.0000   222.0000 </r>
       <r>   -56.9040     0.0000   222.0000 </r>
       <r>   -56.6446     0.0000   222.0000 </r>
       <r>   -56.3851     0.0000   222.0000 </r>
       <r>   -56.1256     0.0000   222.0000 </r>
       <r>   -55.8661     0.0000   222.0000 </r>
       <r>   -55.6066     0.0000   222.0000 </r>
       <r>   -55.3472     0.0000   222.0000 </r>
       <r>   -55.0877     0.0000   222.0000 </r>
       <r>   -54.8282     0.0000   222.0000 </r>
       <r>   -54.5687     0.0000   222.0000 </r>
       <r>   -54.3092     0.0000   222.0000 </r>
       <r>   -54.0498     0.0000   222.0000 </r>
       <r>   -53.7903     0.0000   222.0000 </r>
       <r>   -53.5308     0.0000   222.0000 </r>
       <r>   -53.2713     0.0000   222.0000 </r>
       <r>   -53.0118     0.0000   222.0000 </r>
       <r>   -52.7524     0.0000   222.0000 </r>
       <r>   -52.4929     0.0000   222.0000 </r>
       <r>   -52.2334     0.0000   222.0000 </r>
       <r>   -51.9739     0.0000   222.0000 </r>
       <r>   -51.7144     0.0000   222.0000 </r>
       <r>   -51.4549     0.0000   222.0000 </r>
       <r>   -51.1955     0.0000   222.0000 </r>
       <r>   -50.9360     0.0000   222.0000 </r>
       <r>   -50.6765     0.0000   222.0000 </r>
       <r>   -50.4170     0.0000   222.0000 </r>
       <r>   -50.1575     0.0000   222.0000 </r>
       <r>   -49.8981     0.0000   222.0000 </r>
       <r>   -49.6386     0.0000   222.0000 </r>
       <r>   -49.3791     0.0000   222.0000 </r>
       <r>   -49.1196     0.0000   222.0000 </r>
       <r>   -48.8601     0.0000   222.0000 </r>
       <r>   -48.6007     0.0000   222.0000 </r>
       <r>   -48.3412     0.0000   222.0000 </r>
       <r>   -48.0817     0.0000   222.0000 </r>
       <r>   -47.8222     0.0000   222.0000 </r>
       <r>   -47.5627     0.0000   222.0000 </r>
       <r>   -47.3033     0.0000   222.0000 </r>
       <r>   -47.0438     0.0000   222.0000 </r>
       <r>   -46.7843     0.0000   222.0000 </r>
       <r>   -46.5248     0.0000   222.0000 </r>
       <r>   -46.2653     0.0000   222.0000 </r>
       <r>   -46.0059     0.0000   222.0000 </r>
       <r>   -45.7464     0.0000   222.0000 </r>
       <r>   -45.4869     0.0000   222.0000 </r>
       <r>   -45.2274     0.0000   222.0000 </r>
       <r>   -44.9679     0.0000   222.0000 </r>
       <r>   -44.7084     0.0000   222.0000 </r>
       <r>   -44.4490     0.0000   222.0000 </r>
       <r>   -44.1895     0.0000   222.0000 </r>
       <r>   -43.9300     0.0000   222.0000 </r>
       <r>   -43.6705     0.0000   222.0000 </r>
       <r>   -43.4110     0.0000   222.0000 </r>
       <r>   -43.1516     0.0000   222.0000 </r>
       <r>   -42.8921     0.0000   222.0000 </r>
       <r>   -42.6326     0.0000   222.0000 </r>
       <r>   -42.3731     0.0000   222.0000 </r>
       <r>   -42.1136     0.0000   222.0000 </r>
       <r>   -41.8542     0.0000   222.0000 </r>
       <r>   -41.5947     0.0000   222.0000 </r>
       <r>   -41.3352     0.0000   222.0000 </r>
       <r>   -41.0757     0.0000   222.0000 </r>
       <r>   -40.8162     0.0000   222.0000 </r>
       <r>   -40.5568     0.0000   222.0000 </r>
       <r>   -40.2973     0.0000   222.0000 </r>
       <r>   -40.0378     0.0000   222.0000 </r>
       <r>   -39.7783     0.0000   222.0000 </r>
       <r>   -39.5188     0.0000   222.0000 </r>
       <r>   -39.2594     0.0000   222.0000 </r>
       <r>   -38.9999     0.0000   222.0000 </r>
       <r>   -38.7404     0.0000   222.0000 </r>
       <r>   -38.4809     0.0000   222.0000 </r>
       <r>   -38.2214     0.0000   222.0000 </r>
       <r>   -37.9620     0.0000   222.0000 </r>
       <r>   -37.7025     0.0000   222.0000 </r>
       <r>   -37.4430     0.0000   222.0000 </r>
       <r>   -37.1835     0.0000   222.0000 </r>
       <r>   -36.9240     0.0000   222.0000 </r>
       <r>   -36.6645     0.0000   222.0000 </r>
       <r>   -36.4051     0.0000   222.0000 </r>
       <r>   -36.1456     0.0000   222.0000 </r>
       <r>   -35.8861     0.0000   222.0000 </r>
       <r>   -35.6266     0.0000   222.0000 </r>
       <r>   -35.3671     0.0000   222.0000 </r>
       <r>   -35.1077     0.0000   222.0000 </r>
       <r>   -34.8482     0.0000   222.0000 </r>
       <r>   -34.5887     0.0000   222.0000 </r>
       <r>   -34.3292     0.0000   222.0000 </r>
       <r>   -34.0697     0.0000   222.0000 </r>
       <r>   -33.8103     0.0000   222.0000 </r>
       <r>   -33.5508     0.0000   222.0000 </r>
       <r>   -33.2913     0.0000   222.0000 </r>
       <r>   -33.0318     0.0000   222.0000 </r>
       <r>   -32.7723     0.0000   222.0000 </r>
       <r>   -32.5129     0.0000   222.0000 </r>
       <r>   -32.2534     0.0000   222.0000 </r>
       <r>   -31.9939     0.0000   222.0000 </r>
       <r>   -31.7344     0.0000   222.0000 </r>
       <r>   -31.4749     0.0000   222.0000 </r>
       <r>   -31.2155     0.0000   222.0000 </r>
       <r>   -30.9560     0.0000   222.0000 </r>
       <r>   -30.6965     0.0000   222.0000 </r>
       <r>   -30.4370     0.0000   222.0000 </r>
       <r>   -30.1775     0.0000   222.0000 </r>
       <r>   -29.9181     0.0000   222.0000 </r>
       <r>   -29.6586     0.0000   222.0000 </r>
       <r>   -29.3991     0.0000   222.0000 </r>
       <r>   -29.1396     0.0000   222.0000 </r>
       <r>   -28.8801     0.0000   222.0000 </r>
       <r>   -28.6206     0.0000   222.0000 </r>
       <r>   -28.3612     0.0000   222.0000 </r>
       <r>   -28.1017     0.0000   222.0000 </r>
       <r>   -27.8422     0.0000   222.0000 </r>
       <r>   -27.5827     0.0000   222.0000 </r>
       <r>   -27.3232     0.0000   222.0000 </r>
       <r>   -27.0638     0.0000   222.0000 </r>
       <r>   -26.8043     0.0000   222.0000 </r>
       <r>   -26.5448     0.0000   222.0000 </r>
       <r>   -26.2853     0.0000   222.0000 </r>
       <r>   -26.0258     0.0000   222.0000 </r>
       <r>   -25.7664     0.0000   222.0000 </r>
       <r>   -25.5069     0.0000   222.0000 </r>
       <r>   -25.2474     0.0000   222.0000 </r>
       <r>   -24.9879     0.0000   222.0000 </r>
       <r>   -24.7284     0.0000   222.0000 </r>
       <r>   -24.4690     0.0000   222.0000 </r>
       <r>   -24.2095     0.0000   222.0000 </r>
       <r>   -23.9500     0.0000   222.0000 </r>
       <r>   -23.6905     0.0000   222.0000 </r>
       <r>   -23.4310     0.0000   222.0000 </r>
       <r>   -23.1716     0.0000   222.0000 </r>
       <r>   -22.9121     0.0000   222.0000 </r>
       <r>   -22.6526     0.0000   222.0000 </r>
       <r>   -22.3931     0.0000   222.0000 </r>
       <r>   -22.1336     0.0000   222.0000 </r>
       <r>   -21.8742     0.0000   222.0000 </r>
       <r>   -21.6147     0.0000   222.0000 </r>
       <r>   -21.3552     0.0000   222.0000 </r>
       <r>   -21.0957     0.0000   222.0000 </r>
       <r>   -20.8362     0.0000   222.0000 </r>
       <r>   -20.5767     0.0000   222.0000 </r>
       <r>   -20.3173     0.0000   222.0000 </r>
       <r>   -20.0578     0.0000   222.0000 </r>
       <r>   -19.7983     0.0000   222.0000 </r>
       <r>   -19.5388     0.0000   222.0000 </r>
       <r>   -19.2793     0.0000   222.0000 </r>
       <r>   -19.0199     0.0000   222.0000 </r>
       <r>   -18.7604     0.0000   222.0000 </r>
       <r>   -18.5009     0.0000   222.0000 </r>
       <r>   -18.2414     0.0000   222.0000 </r>
       <r>   -17.9819     0.0000   222.0000 </r>
       <r>   -17.7225     0.0000   222.0000 </r>
       <r>   -17.4630     0.0000   222.0000 </r>
       <r>   -17.2035     0.0068   222.0018 </r>
       <r>   -16.9440     0.7655   222.2004 </r>
       <r>   -16.6845     5.9483   223.7439 </r>
       <r>   -16.4251     7.4522   225.6776 </r>
       <r>   -16.1656     5.7930   227.1808 </r>
       <r>   -15.9061    10.1553   229.8159 </r>
       <r>   -15.6466    15.1034   233.7349 </r>
       <r>   -15.3871    20.5488   239.0669 </r>
       <r>   -15.1277    19.5877   244.1496 </r>
       <r>   -14.8682    24.8487   250.5973 </r>
       <r>   -14.6087    27.3027   257.6818 </r>
       <r>   -14.3492    23.1739   263.6950 </r>
       <r>   -14.0897    24.2864   269.9969 </r>
       <r>   -13.8302    26.0232   276.7494 </r>
       <r>   -13.5708    21.3692   282.2943 </r>
       <r>   -13.3113    18.1813   287.0120 </r>
       <r>   -13.0518    19.9157   292.1797 </r>
       <r>   -12.7923     9.3779   294.6131 </r>
       <r>   -12.5328     4.7519   295.8461 </r>
       <r>   -12.2734     0.5889   295.9989 </r>
       <r>   -12.0139     0.0043   296.0000 </r>
       <r>   -11.7544     0.0000   296.0000 </r>
       <r>   -11.4949     0.0000   296.0000 </r>
       <r>   -11.2354     0.0000   296.0000 </r>
       <r>   -10.9760     0.0000   296.0000 </r>
       <r>   -10.7165     0.0000   296.0000 </r>
       <r>   -10.4570     0.0000   296.0000 </r>
       <r>   -10.1975     0.0000   296.0000 </r>
       <r>    -9.9380     0.0000   296.0000 </r>
       <r>    -9.6786     0.0000   296.0000 </r>
       <r>    -9.4191     0.0000   296.0000 </r>
       <r>    -9.1596     0.0000   296.0000 </r>
       <r>    -8.9001     0.0018   296.0005 </r>
       <r>    -8.6406     0.5442   296.1417 </r>
       <r>    -8.3812     9.2933   298.5531 </r>
       <r>    -8.1217    20.0899   303.7661 </r>
       <r>    -7.8622    30.0019   311.5510 </r>
       <r>    -7.6027    31.3856   319.6949 </r>
       <r>    -7.3432    34.9857   328.7731 </r>
       <r>    -7.0838    38.6098   338.7915 </r>
       <r>    -6.8243    37.7238   348.5801 </r>
       <r>    -6.5648    40.6528   359.1288 </r>
       <r>    -6.3053    42.4866   370.1532 </r>
       <r>    -6.0458    49.1703   382.9119 </r>
       <r>    -5.7863    55.0829   397.2049 </r>
       <r>    -5.5269    55.3830   411.5757 </r>
       <r>    -5.2674    62.3312   427.7494 </r>
       <r>    -5.0079    63.5520   444.2399 </r>
       <r>    -4.7484    53.4721   458.1149 </r>
       <r>    -4.4889    45.3613   469.8853 </r>
       <r>    -4.2295    47.9195   482.3195 </r>
       <r>    -3.9700    46.9479   494.5016 </r>
       <r>    -3.7105    55.5842   508.9246 </r>
       <r>    -3.4510    62.1123   525.0415 </r>
       <r>    -3.1915    68.5160   542.8201 </r>
       <r>    -2.9321    74.6926   562.2014 </r>
       <r>    -2.6726    89.4311   585.4070 </r>
       <r>    -2.4131   111.0588   614.2247 </r>
       <r>    -2.1536   119.7646   645.3012 </r>
       <r>    -1.8941   121.7070   676.8819 </r>
       <r>    -1.6347   115.1281   706.7554 </r>
       <r>    -1.3752    99.8536   732.6655 </r>
       <r>    -1.1157    83.1410   754.2390 </r>
       <r>    -0.8562    68.7831   772.0868 </r>
       <r>    -0.5967    60.9167   787.8935 </r>
       <r>    -0.3373    53.0459   801.6579 </r>
       <r>    -0.0778    55.6183   816.0898 </r>
       <r>     0.1817    53.0551   829.8566 </r>
       <r>     0.4412    49.0356   842.5804 </r>
       <r>     0.7007    44.3486   854.0880 </r>
       <r>     0.9601    41.2350   864.7877 </r>
       <r>     1.2196    35.5090   874.0016 </r>
       <r>     1.4791    26.9504   880.9947 </r>
       <r>     1.7386    19.4201   886.0338 </r>
       <r>     1.9981    12.7892   889.3524 </r>
       <r>     2.2576     2.4844   889.9970 </r>
       <r>     2.5170     1.8527   890.4778 </r>
       <r>     2.7765     5.2866   891.8496 </r>
       <r>     3.0360     9.1584   894.2260 </r>
       <r>     3.2955    16.8174   898.5898 </r>
       <r>     3.5550    18.1481   903.2988 </r>
       <r>     3.8144    17.8325   907.9260 </r>
       <r>     4.0739    21.1319   913.4094 </r>
       <r>     4.3334    28.6493   920.8433 </r>
       <r>     4.5929    34.9158   929.9033 </r>
       <r>     4.8524    38.2538   939.8294 </r>
       <r>     5.1118    39.3440   950.0384 </r>
       <r>     5.3713    41.8961   960.9096 </r>
       <r>     5.6308    37.1548   970.5506 </r>
       <r>     5.8903    18.9965   975.4798 </r>
       <r>     6.1498     1.9890   975.9959 </r>
       <r>     6.4092     0.0158   976.0000 </r>
       <r>     6.6687     0.0000   976.0000 </r>
       <r>     6.9282     0.0000   976.0000 </r>
       <r>     7.1877     0.0000   976.0000 </r>
       <r>     7.4472     0.0000   976.0000 </r>
       <r>     7.7066     0.0000   976.0000 </r>
       <r>     7.9661     0.0000   976.0000 </r>
       <r>     8.2256     0.0000   976.0000 </r>
       <r>     8.4851     0.0000   976.0000 </r>
       <r>     8.7446     0.0000   976.0000 </r>
       <r>     9.0041     0.0000   976.0000 </r>
       <r>     9.2635     0.0000   976.0000 </r>
      </set>
     </set>
    </array>
   </total>
  </dos>
 </calculation>
 <structure name="finalpos" >
  <crystal>
   <varray name="basis" >
    <v>      16.88469405       0.00000000       0.00000000 </v>
    <v>       0.00000000       9.57841000       0.00000000 </v>
    <v>       0.00000000       0.00000000      16.65464569 </v>
   </varray>
   <i name="volume">   2693.53123734 </i>
   <varray name="rec_basis" >
    <v>       0.05922524       0.00000000       0.00000000 </v>
    <v>       0.00000000       0.10440146       0.00000000 </v>
    <v>       0.00000000       0.00000000       0.06004331 </v>
   </varray>
  </crystal>
  <varray name="positions" >
   <v>       0.78004630       0.14529696       0.12347080 </v>
   <v>       0.81394287       0.14264444       0.29004416 </v>
   <v>       0.21432870       0.66820924       0.10322617 </v>
   <v>       0.29733028       0.64529696       0.21607389 </v>
   <v>       0.39017822       0.13953023       0.13100948 </v>
   <v>       0.46975828       0.14529696       0.24694159 </v>
   <v>       0.95247430       0.64529696       0.15433850 </v>
   <v>       0.17234016       0.14646731       0.04625009 </v>
   <v>       0.12490229       0.14529696       0.18520619 </v>
   <v>       0.04949979       0.10458388       0.30053603 </v>
   <v>       0.57083887       0.64204797       0.16110251 </v>
   <v>       0.64218627       0.64529696       0.27780929 </v>
   <v>       0.91032003       0.06950854       0.09909361 </v>
   <v>       0.95459014       0.94278941       0.22383774 </v>
   <v>       0.45695359       0.44015129       0.05660105 </v>
   <v>       0.42486675       0.51319396       0.19160760 </v>
   <v>       0.44801454       0.48656279       0.33506740 </v>
   <v>       0.53016891       0.14396008       0.09134701 </v>
   <v>       0.59729475       0.01319396       0.22247530 </v>
   <v>       0.08001077       0.51319396       0.12987220 </v>
   <v>       0.25243876       0.01319396       0.16073990 </v>
   <v>       0.30109593       0.89450404       0.27217710 </v>
   <v>       0.76077557       0.40394138       0.12023883 </v>
   <v>       0.76972274       0.51319396       0.25334300 </v>
   <v>       0.91273809       0.38915007       0.13164949 </v>
   <v>       0.94188667       0.27773415       0.26800771 </v>
   <v>       0.35736377       0.64326068       0.06274777 </v>
   <v>       0.42486675       0.77739996       0.19160760 </v>
   <v>       0.54540799       0.84058578       0.30780546 </v>
   <v>       0.59991636       0.36681225       0.09142625 </v>
   <v>       0.59729475       0.27739996       0.22247530 </v>
   <v>       0.08001077       0.77739996       0.12987220 </v>
   <v>       0.16651814       0.77334817       0.24399151 </v>
   <v>       0.25243876       0.27739996       0.16073990 </v>
   <v>       0.26348170       0.28851845       0.30269603 </v>
   <v>       0.84326888       0.84508895       0.11776452 </v>
   <v>       0.76972274       0.77739996       0.25334300 </v>
   <v>       0.93087011       0.08765271       0.32936841 </v>
   <v>       0.99146120       0.14529696       0.18349304 </v>
   <v>       0.47417723       0.64529696       0.09088994 </v>
   <v>       0.50874518       0.64529696       0.27609614 </v>
   <v>       0.64660522       0.14529696       0.12175764 </v>
   <v>       0.68884868       0.14894060       0.27387840 </v>
   <v>       0.11492682       0.64807517       0.03684321 </v>
   <v>       0.17371187       0.56750034       0.20772978 </v>
   <v>       0.25467290       0.72337879       0.32618510 </v>
   <v>       0.29001278       0.14733805       0.06361799 </v>
   <v>       0.33631719       0.14529696       0.24522844 </v>
   <v>       0.81903321       0.64529696       0.15262534 </v>
   <v>       0.83189092       0.64823515       0.32328276 </v>
   <v>       0.84015590       0.28387891       0.05111803 </v>
   <v>       0.82906105       0.31351196       0.21464750 </v>
   <v>       0.31177707       0.81351196       0.12204440 </v>
   <v>       0.41871888       0.87673944       0.30414092 </v>
   <v>       0.48420507       0.31351196       0.15291210 </v>
   <v>       0.51555445       0.31710068       0.31514941 </v>
   <v>       0.03153112       0.76592692       0.24336442 </v>
   <v>       0.96485120       0.86027294       0.10183830 </v>
   <v>       0.14016696       0.32089681       0.10881204 </v>
   <v>       0.14403374       0.25016014       0.29354928 </v>
   <v>       0.65663306       0.81351196       0.18377980 </v>
   <v>       0.67003814       0.82990851       0.33353227 </v>
   <v>       0.31177707       0.47708196       0.12204440 </v>
   <v>       0.33796329       0.46149252       0.28643355 </v>
   <v>       0.81216094       0.99902410       0.03855607 </v>
   <v>       0.82906105       0.97708196       0.21464750 </v>
   <v>       0.99090376       0.46569035       0.21955784 </v>
   <v>       0.97694873       0.51800785       0.05779071 </v>
   <v>       0.48420507       0.97708196       0.15291210 </v>
   <v>       0.54400165       0.05019269       0.33200697 </v>
   <v>       0.65663306       0.47708196       0.18377980 </v>
   <v>       0.69630067       0.50426534       0.34971285 </v>
   <v>       0.14172433       0.96635151       0.10562465 </v>
   <v>       0.17391704       0.97708196       0.27638290 </v>
  </varray>
 </structure>
</modeling>
