"Millerite NiS"                         
           1
    16.884694    0.000000    0.000000
     0.000000    9.578410    0.000000
     0.000000    0.000000   16.654646
   Ty   Ty
  37  37
Direct configuration=     1
   0.78004630  0.14529696  0.12347080
   0.81394287  0.14264444  0.29004416
   0.21432870  0.66820924  0.10322617
   0.29733028  0.64529696  0.21607389
   0.39017822  0.13953023  0.13100948
   0.46975828  0.14529696  0.24694159
   0.95247430  0.64529696  0.15433850
   0.17234016  0.14646731  0.04625009
   0.12490229  0.14529696  0.18520619
   0.04949979  0.10458388  0.30053603
   0.57083887  0.64204797  0.16110251
   0.64218627  0.64529696  0.27780929
   0.91032003  0.06950854  0.09909361
   0.95459014  0.94278941  0.22383774
   0.45695359  0.44015129  0.05660105
   0.42486675  0.51319396  0.19160760
   0.44801454  0.48656279  0.33506740
   0.53016891  0.14396008  0.09134701
   0.59729475  0.01319396  0.22247530
   0.08001077  0.51319396  0.12987220
   0.25243876  0.01319396  0.16073990
   0.30109593  0.89450404  0.27217710
   0.76077557  0.40394138  0.12023883
   0.76972274  0.51319396  0.25334300
   0.91273809  0.38915007  0.13164949
   0.94188667  0.27773415  0.26800771
   0.35736377  0.64326068  0.06274777
   0.42486675  0.77739996  0.19160760
   0.54540799  0.84058578  0.30780546
   0.59991636  0.36681225  0.09142625
   0.59729475  0.27739996  0.22247530
   0.08001077  0.77739996  0.12987220
   0.16651814  0.77334817  0.24399151
   0.25243876  0.27739996  0.16073990
   0.26348170  0.28851845  0.30269603
   0.84326888  0.84508895  0.11776452
   0.76972274  0.77739996  0.25334300
   0.93087011  0.08765271  0.32936841
   0.99146120  0.14529696  0.18349304
   0.47417723  0.64529696  0.09088994
   0.50874518  0.64529696  0.27609614
   0.64660522  0.14529696  0.12175764
   0.68884868  0.14894060  0.27387840
   0.11492682  0.64807517  0.03684321
   0.17371187  0.56750034  0.20772978
   0.25467290  0.72337879  0.32618510
   0.29001278  0.14733805  0.06361799
   0.33631719  0.14529696  0.24522844
   0.81903321  0.64529696  0.15262534
   0.83189092  0.64823515  0.32328276
   0.84015590  0.28387891  0.05111803
   0.82906105  0.31351196  0.21464750
   0.31177707  0.81351196  0.12204440
   0.41871888  0.87673944  0.30414092
   0.48420507  0.31351196  0.15291210
   0.51555445  0.31710068  0.31514941
   0.03153112  0.76592692  0.24336442
   0.96485120  0.86027294  0.10183830
   0.14016696  0.32089681  0.10881204
   0.14403374  0.25016014  0.29354928
   0.65663306  0.81351196  0.18377980
   0.67003814  0.82990851  0.33353227
   0.31177707  0.47708196  0.12204440
   0.33796329  0.46149252  0.28643355
   0.81216094  0.99902410  0.03855607
   0.82906105  0.97708196  0.21464750
   0.99090376  0.46569035  0.21955784
   0.97694873  0.51800785  0.05779071
   0.48420507  0.97708196  0.15291210
   0.54400165  0.05019269  0.33200697
   0.65663306  0.47708196  0.18377980
   0.69630067  0.50426534  0.34971285
   0.14172433  0.96635151  0.10562465
   0.17391704  0.97708196  0.27638290
