
74 atoms
2 atom types
   0.0000000000   11.4527836705 xlo xhi
   0.0000000000    8.7007307979 ylo yhi
   0.0000000000   20.6428913744 zlo zhi
  -4.0053990701    0.0000000000    0.0000000000 xy xz yz

Atoms # atomic

     1      1    6.3498294782    0.6471180538    7.3054051848
     2      1    8.0708222517    1.4393805677    4.8022905359
     3      1    9.7918150136    2.2316430815    2.2991758871
     4      1    0.6234376421    8.5555863465    9.8085198336
     5      1   -2.8082971717    6.9757802645    5.6366620856
     6      1   -1.0873044057    7.7680427697    3.1335474367
     7      1    0.6336883563    8.5603052836    0.6304327879
     8      1    5.2025009708    5.3912552455   10.6428913832
     9      1    6.9234937368    6.1835177507    8.1397767344
    10      1    1.7707661570    3.8114491635    6.4710336352
    11      1    3.4917589230    4.6037116687    3.9679189863
    12      1    5.2127516850    5.3959741825    1.4648043375
    13      1    2.5123357812    0.2734965619    8.4858440121
    14      1    4.2333285432    1.0657590758    5.9827293632
    15      1    5.9543213206    1.8580215810    3.4796147144
    16      1   -3.2038053408    8.1866837917    1.8108716151
    17      1    3.0860000398    5.8098962588    9.3202155617
    18      1    4.8069928017    6.6021587726    6.8171009128
    19      1    6.5279855677    7.3944212778    4.3139862640
    20      1   -0.3457347741    4.2300901768    5.1483578136
    21      1    1.3752579879    5.0223526907    2.6452431647
    22      1    3.0962507539    5.8146151958    0.1421285159
    23      1    7.6650633684    2.6455651578   10.1545871113
    24      1    9.3860561304    3.4378276716    7.6514724624
    25      1    3.5705862455    2.1536408298    9.8085198336
    26      1    5.2915790115    2.9459033350    7.3054051848
    27      1    7.0125717849    3.7381658488    4.8022905359
    28      1    8.7335645469    4.5304283627    2.2991758871
    29      1    0.1388514317    0.5738347478    5.6366620856
    30      1    1.8598441977    1.3660972530    3.1335474367
    31      1    3.5808369597    2.1583597669    0.6304327879
    32      1    4.1442505041    7.6900405267   10.6428913832
    33      1    5.8652432701    8.4823030318    8.1397767344
    34      1   -1.0084770717    5.3179719308    8.9741482840
    35      1    0.7125156903    6.1102344447    6.4710336352
    36      1    2.4335084562    6.9024969499    3.9679189863
    37      1    4.1545012182    7.6947594637    1.4648043375
    38      2    1.4043655511    1.5372042152    9.9969559698
    39      2    3.1253583171    2.3294667204    7.4938413209
    40      2    4.8463510791    3.1217292343    4.9907266721
    41      2    6.5673438451    3.9139917394    2.4876120232
    42      2   -0.3063764967    0.7496606384    3.3219835728
    43      2    1.4146162653    1.5419231523    0.8188689240
    44      2    3.6990225757    7.8658664173    8.3282128705
    45      2    5.4200153376    8.6581289311    5.8250982217
    46      2   -1.4537050116    5.4937978214    6.6594697713
    47      2    0.2672877504    6.2860603353    4.1563551224
    48      2    1.9882805278    7.0783228405    1.6532404736
    49      2    8.2780858929    4.7015353162    9.1625844201
    50      2   -0.4693742431    4.1731725017    1.6687430992
    51      2    5.8204311374    1.7963849688    9.1780870458
    52      2    7.5414238994    2.5886474827    6.6749723969
    53      2    9.2624166654    3.3809099879    4.1718577481
    54      2    2.3886963236    0.2165788868    5.0062292977
    55      2    4.1096890856    1.0088414007    2.5031146488
    56      2    5.8306818516    1.8011039059    0.0000000000
    57      2   -3.3376955085    8.1250471709    7.5093439465
    58      2    6.3940953845    7.3327846657   10.0124585954
    59      2    1.2413678087    4.9607160698    8.3437154962
    60      2    2.9623605707    5.7529785837    5.8406008473
    61      2    4.6833533367    6.5452410889    3.3374861985
    62      2    6.4043460987    7.3375036027    0.8343715496
    63      2    6.1938874882    0.1945423719    4.9907266721
    64      2    7.9148802542    0.9868048771    2.4876120232
    65      2   -1.2534971099    7.3107481508    9.9969559698
    66      2    0.4674956561    8.1030106559    7.4938413209
    67      2   -2.9642391577    6.5232045740    3.3219835728
    68      2   -1.2432463957    7.3154670878    0.8188689240
    69      2    5.0465589848    4.9386795549    8.3282128705
    70      2    6.7675517468    5.7309420688    5.8250982217
    71      2   -0.1061686024    2.5666109591    6.6594697713
    72      2    1.6148241596    3.3588734730    4.1563551224
    73      2    3.3358169370    4.1511359781    1.6532404736
    74      2    9.6256223020    1.7743484539    9.1625844201
