<?xml version="1.0" encoding="ISO-8859-1"?>
<modeling>
 <generator>
  <i name="program" type="string">vasp </i>
  <i name="version" type="string">5.4.4.18Apr17-6-g9f103f2a35  </i>
  <i name="subversion" type="string">(build Aug 13 2019 17:33:20) gamma-only         parallel </i>
  <i name="platform" type="string">LinuxIFC </i>
  <i name="date" type="string">2020 05 12 </i>
  <i name="time" type="string">18:15:29 </i>
 </generator>
 <incar>
  <i type="string" name="SYSTEM">"Millerite NiS"</i>
  <i type="string" name="PREC">normal</i>
  <i type="int" name="NSIM">     4</i>
  <i type="int" name="NELM">   100</i>
  <i name="ENCUT">    450.00000000</i>
  <i type="string" name="LREAL">A</i>
  <i type="int" name="ISMEAR">     0</i>
  <i type="int" name="NWRITE">     2</i>
  <i type="logical" name="LWAVE"> F  </i>
  <i type="logical" name="LCHARG"> F  </i>
  <v type="int" name="KPOINT_BSE">    -1     0     0     0</v>
  <i type="int" name="NELM">   100</i>
 </incar>
 <structure name="primitive_cell" >
  <crystal>
   <varray name="basis" >
    <v>      10.07973298       0.00000000       0.00000000 </v>
    <v>       3.57329804       9.42510255       0.00000000 </v>
    <v>       0.00000000       0.00000000      20.68350356 </v>
   </varray>
   <i name="volume">   1964.98490008 </i>
   <varray name="rec_basis" >
    <v>       0.09920898      -0.03761267       0.00000000 </v>
    <v>       0.00000000       0.10609964       0.00000000 </v>
    <v>       0.00000000       0.00000000       0.04834771 </v>
   </varray>
  </crystal>
  <varray name="positions" >
   <v>       0.25214613      -0.04817571       0.07111301 </v>
   <v>       0.16651668       0.15766330       0.04083822 </v>
   <v>       0.45812756      -0.17420699       0.05022637 </v>
   <v>       0.21662350      -0.23223502       0.09708651 </v>
   <v>       0.30255546       0.02257655       0.15955891 </v>
   <v>       0.41937739      -0.22416576       0.14373067 </v>
   <v>       0.48542096      -0.00691230       0.09743815 </v>
   <v>       0.07411322       0.18702479       0.13571184 </v>
   <v>       0.29861738       0.22672664       0.10217432 </v>
   <v>      -0.08040204       0.07529739       0.11763965 </v>
   <v>       0.01537355      -0.15669620       0.14448666 </v>
   <v>       0.35217079      -0.44682143       0.11401956 </v>
   <v>       0.06745741       0.36965345       0.04710399 </v>
   <v>       0.35047896      -0.35868028       0.20265741 </v>
   <v>       0.22438173       0.03675628       0.26264887 </v>
   <v>       0.06986647      -0.07497112       0.24457667 </v>
   <v>      -0.48653842       0.18306716       0.06896338 </v>
   <v>       0.44888589       0.07645812       0.22911134 </v>
   <v>      -0.35566121      -0.31178134       0.17177561 </v>
   <v>      -0.36627721       0.02474255       0.16034507 </v>
   <v>       0.06723514       0.25789688       0.24496976 </v>
   <v>      -0.13095688      -0.21057777       0.07493423 </v>
   <v>      -0.08303338       0.40816539       0.11803273 </v>
   <v>      -0.23426735       0.00310126       0.08365117 </v>
   <v>       0.11381506       0.41152895       0.16924937 </v>
   <v>       0.45282398      -0.12769196       0.28649593 </v>
   <v>       0.35311030       0.30845171       0.20226433 </v>
   <v>      -0.16942877       0.02810611       0.21156171 </v>
   <v>       0.20475130       0.46067760       0.08435876 </v>
   <v>      -0.45267260      -0.35531672       0.25387405 </v>
   <v>       0.16564206      -0.30696471       0.27142369 </v>
   <v>      -0.42725957       0.44194674       0.12577631 </v>
   <v>       0.01931164      -0.36084629       0.20187125 </v>
   <v>      -0.02129224      -0.40491875       0.10534767 </v>
   <v>      -0.20913061      -0.19639804       0.17802418 </v>
   <v>       0.26408357       0.26126044       0.29618639 </v>
   <v>      -0.35138339       0.22545651       0.14647580 </v>
   <v>      -0.49237444       0.42017912       0.22033653 </v>
   <v>      -0.26787028       0.45988096       0.18679900 </v>
   <v>      -0.26393219       0.25573088       0.24418359 </v>
   <v>       0.21281158      -0.21703948       0.35492636 </v>
   <v>      -0.01916025      -0.12216240       0.33849873 </v>
   <v>       0.21750365       0.10762837       0.37190678 </v>
   <v>      -0.11760177       0.30961245       0.31373603 </v>
   <v>      -0.49662119       0.15818320       0.32920136 </v>
   <v>       0.37465025      -0.11351223       0.38958589 </v>
   <v>      -0.21600869      -0.12552596       0.28728210 </v>
   <v>      -0.40084560      -0.07381039       0.35604837 </v>
   <v>      -0.49925252       0.49105120       0.32959444 </v>
   <v>      -0.05886210      -0.34666656       0.30496121 </v>
   <v>      -0.21337736      -0.45839396       0.28688902 </v>
   <v>      -0.11366368       0.10546236       0.37112062 </v>
   <v>       0.16958015       0.48888520       0.32880827 </v>
   <v>       0.30371922      -0.44121639       0.38359356 </v>
   <v>       0.02255441       0.17334433       0.42370340 </v>
   <v>       0.41435209       0.11099193       0.42312341 </v>
   <v>      -0.39690751      -0.27796048       0.41343296 </v>
   <v>      -0.02274663      -0.29252970       0.39957148 </v>
   <v>      -0.34210593       0.26991061       0.34727355 </v>
   <v>      -0.30240408       0.49441476       0.38081107 </v>
   <v>      -0.06310885       0.39133753       0.41382604 </v>
   <v>       0.30357012       0.34631552       0.42587971 </v>
   <v>       0.35548506      -0.34649316       0.46140681 </v>
   <v>       0.36330830      -0.02851389       0.48098279 </v>
   <v>      -0.36299236       0.00251119       0.44534178 </v>
   <v>       0.09337853       0.48639370       0.41880117 </v>
   <v>      -0.22848044      -0.20834926       0.43032738 </v>
   <v>       0.47345896      -0.23685654       0.49151823 </v>
   <v>      -0.24321984       0.13719447       0.45107279 </v>
   <v>      -0.07606084       0.14257149      -0.49301467 </v>
   <v>      -0.36819213       0.35395345       0.44023051 </v>
   <v>      -0.18450007       0.34705249       0.48317772 </v>
  </varray>
 </structure>
 <varray name="primitive_index" >
  <v type="int" >        1 </v>
  <v type="int" >       41 </v>
  <v type="int" >       49 </v>
  <v type="int" >       61 </v>
  <v type="int" >       42 </v>
  <v type="int" >        2 </v>
  <v type="int" >       23 </v>
  <v type="int" >       17 </v>
  <v type="int" >       29 </v>
  <v type="int" >       60 </v>
  <v type="int" >       33 </v>
  <v type="int" >       13 </v>
  <v type="int" >       21 </v>
  <v type="int" >       62 </v>
  <v type="int" >       18 </v>
  <v type="int" >       57 </v>
  <v type="int" >       69 </v>
  <v type="int" >       30 </v>
  <v type="int" >       50 </v>
  <v type="int" >       70 </v>
  <v type="int" >       65 </v>
  <v type="int" >       48 </v>
  <v type="int" >       68 </v>
  <v type="int" >       36 </v>
  <v type="int" >        6 </v>
  <v type="int" >       43 </v>
  <v type="int" >       54 </v>
  <v type="int" >       11 </v>
  <v type="int" >       53 </v>
  <v type="int" >        3 </v>
  <v type="int" >       34 </v>
  <v type="int" >       38 </v>
  <v type="int" >       45 </v>
  <v type="int" >        9 </v>
  <v type="int" >       24 </v>
  <v type="int" >        7 </v>
  <v type="int" >       10 </v>
  <v type="int" >       14 </v>
  <v type="int" >       27 </v>
  <v type="int" >       39 </v>
  <v type="int" >       58 </v>
  <v type="int" >       12 </v>
  <v type="int" >       66 </v>
  <v type="int" >       28 </v>
  <v type="int" >       55 </v>
  <v type="int" >       19 </v>
  <v type="int" >       71 </v>
  <v type="int" >       31 </v>
  <v type="int" >       63 </v>
  <v type="int" >       25 </v>
  <v type="int" >       51 </v>
  <v type="int" >       40 </v>
  <v type="int" >       46 </v>
  <v type="int" >       35 </v>
  <v type="int" >       26 </v>
  <v type="int" >        8 </v>
  <v type="int" >       44 </v>
  <v type="int" >       72 </v>
  <v type="int" >       15 </v>
  <v type="int" >        4 </v>
  <v type="int" >       52 </v>
  <v type="int" >       47 </v>
  <v type="int" >       59 </v>
  <v type="int" >       67 </v>
  <v type="int" >       56 </v>
  <v type="int" >       22 </v>
  <v type="int" >       32 </v>
  <v type="int" >       20 </v>
  <v type="int" >       16 </v>
  <v type="int" >       37 </v>
  <v type="int" >       64 </v>
  <v type="int" >        5 </v>
 </varray>
 <kpoints>
  <generation param="Gamma">
   <v type="int" name="divisions">       1        1        1 </v>
   <v name="usershift">      0.00000000       0.00000000       0.00000000 </v>
   <v name="genvec1">      1.00000000      -0.00000000       0.00000000 </v>
   <v name="genvec2">      0.00000000       1.00000000       0.00000000 </v>
   <v name="genvec3">      0.00000000       0.00000000       1.00000000 </v>
   <v name="shift">      0.00000000       0.00000000       0.00000000 </v>
  </generation>
  <varray name="kpointlist" >
   <v>       0.00000000       0.00000000       0.00000000 </v>
  </varray>
  <varray name="weights" >
   <v>       1.00000000 </v>
  </varray>
 </kpoints>
 <parameters>
  <separator name="general" >
   <i type="string" name="SYSTEM">"Millerite NiS"</i>
   <i type="logical" name="LCOMPAT"> F  </i>
  </separator>
  <separator name="electronic" >
   <i type="string" name="PREC">normal</i>
   <i name="ENMAX">    450.00000000</i>
   <i name="ENAUG">    703.44300000</i>
   <i name="EDIFF">      0.00010000</i>
   <i type="int" name="IALGO">    38</i>
   <i type="int" name="IWAVPR">    10</i>
   <i type="int" name="NBANDS">   476</i>
   <i name="NELECT">    792.00000000</i>
   <i type="int" name="TURBO">     0</i>
   <i type="int" name="IRESTART">     0</i>
   <i type="int" name="NREBOOT">     0</i>
   <i type="int" name="NMIN">     0</i>
   <i name="EREF">      0.00000000</i>
   <separator name="electronic smearing" >
    <i type="int" name="ISMEAR">     0</i>
    <i name="SIGMA">      0.20000000</i>
    <i name="KSPACING">      0.50000000</i>
    <i type="logical" name="KGAMMA"> T  </i>
   </separator>
   <separator name="electronic projectors" >
    <i type="logical" name="LREAL"> T  </i>
    <v name="ROPT">     -0.00050000     -0.00050000</v>
    <i type="int" name="LMAXPAW">  -100</i>
    <i type="int" name="LMAXMIX">     2</i>
    <i type="logical" name="NLSPLINE"> F  </i>
   </separator>
   <separator name="electronic startup" >
    <i type="int" name="ISTART">     0</i>
    <i type="int" name="ICHARG">     2</i>
    <i type="int" name="INIWAV">     1</i>
   </separator>
   <separator name="electronic spin" >
    <i type="int" name="ISPIN">     1</i>
    <i type="logical" name="LNONCOLLINEAR"> F  </i>
    <v name="MAGMOM">      1.00000000      1.00000000      1.00000000      1.00000000      1.00000000      1.00000000      1.00000000      1.00000000      1.00000000      1.00000000      1.00000000      1.00000000      1.00000000      1.00000000      1.00000000      1.00000000      1.00000000      1.00000000      1.00000000      1.00000000
      1.00000000      1.00000000      1.00000000      1.00000000      1.00000000      1.00000000      1.00000000      1.00000000      1.00000000      1.00000000      1.00000000      1.00000000      1.00000000      1.00000000      1.00000000      1.00000000      1.00000000      1.00000000      1.00000000      1.00000000
      1.00000000      1.00000000      1.00000000      1.00000000      1.00000000      1.00000000      1.00000000      1.00000000      1.00000000      1.00000000      1.00000000      1.00000000      1.00000000      1.00000000      1.00000000      1.00000000      1.00000000      1.00000000      1.00000000      1.00000000
      1.00000000      1.00000000      1.00000000      1.00000000      1.00000000      1.00000000      1.00000000      1.00000000      1.00000000      1.00000000      1.00000000      1.00000000</v>
    <i name="NUPDOWN">     -1.00000000</i>
    <i type="logical" name="LSORBIT"> F  </i>
    <v name="SAXIS">      0.00000000      0.00000000      1.00000000</v>
    <i type="logical" name="LSPIRAL"> F  </i>
    <v name="QSPIRAL">      0.00000000      0.00000000      0.00000000</v>
    <i type="logical" name="LZEROZ"> F  </i>
   </separator>
   <separator name="electronic exchange-correlation" >
    <i type="logical" name="LASPH"> F  </i>
    <i type="logical" name="LMETAGGA"> F  </i>
   </separator>
   <separator name="electronic convergence" >
    <i type="int" name="NELM">   100</i>
    <i type="int" name="NELMDL">    -5</i>
    <i type="int" name="NELMIN">     2</i>
    <i name="ENINI">    450.00000000</i>
    <separator name="electronic convergence detail" >
     <i type="logical" name="LDIAG"> T  </i>
     <i type="logical" name="LSUBROT"> F  </i>
     <i name="WEIMIN">      0.00000000</i>
     <i name="EBREAK">      0.00000005</i>
     <i name="DEPER">      0.30000000</i>
     <i type="int" name="NRMM">     4</i>
     <i name="TIME">      0.40000000</i>
    </separator>
   </separator>
   <separator name="electronic mixer" >
    <i name="AMIX">      0.40000000</i>
    <i name="BMIX">      1.00000000</i>
    <i name="AMIN">      0.10000000</i>
    <i name="AMIX_MAG">      1.60000000</i>
    <i name="BMIX_MAG">      1.00000000</i>
    <separator name="electronic mixer details" >
     <i type="int" name="IMIX">     4</i>
     <i type="logical" name="MIXFIRST"> F  </i>
     <i type="int" name="MAXMIX">   -45</i>
     <i name="WC">    100.00000000</i>
     <i type="int" name="INIMIX">     1</i>
     <i type="int" name="MIXPRE">     1</i>
     <i type="int" name="MREMOVE">     5</i>
    </separator>
   </separator>
   <separator name="electronic dipolcorrection" >
    <i type="logical" name="LDIPOL"> F  </i>
    <i type="logical" name="LMONO"> F  </i>
    <i type="int" name="IDIPOL">     0</i>
    <i name="EPSILON">      1.00000000</i>
    <v name="DIPOL">   -100.00000000   -100.00000000   -100.00000000</v>
    <i name="EFIELD">      0.00000000</i>
   </separator>
  </separator>
  <separator name="grids" >
   <i type="int" name="NGX">    54</i>
   <i type="int" name="NGY">    54</i>
   <i type="int" name="NGZ">   108</i>
   <i type="int" name="NGXF">   108</i>
   <i type="int" name="NGYF">   108</i>
   <i type="int" name="NGZF">   216</i>
   <i type="logical" name="ADDGRID"> F  </i>
  </separator>
  <separator name="ionic" >
   <i type="int" name="NSW">     0</i>
   <i type="int" name="IBRION">    -1</i>
   <i type="int" name="MDALGO">     0</i>
   <i type="int" name="ISIF">     2</i>
   <i name="PSTRESS">      0.00000000</i>
   <i name="EDIFFG">      0.00100000</i>
   <i type="int" name="NFREE">     0</i>
   <i name="POTIM">      0.50000000</i>
   <i name="SMASS">     -3.00000000</i>
   <i name="SCALEE">      1.00000000</i>
  </separator>
  <separator name="ionic md" >
   <i name="TEBEG">      0.00010000</i>
   <i name="TEEND">      0.00010000</i>
   <i type="int" name="NBLOCK">     1</i>
   <i type="int" name="KBLOCK">     1</i>
   <i type="int" name="NPACO">   256</i>
   <i name="APACO">     16.00000000</i>
  </separator>
  <separator name="symmetry" >
   <i type="int" name="ISYM">     2</i>
   <i name="SYMPREC">      0.00001000</i>
  </separator>
  <separator name="dos" >
   <i type="int" name="LORBIT">     0</i>
   <v name="RWIGS">     -1.00000000     -1.00000000</v>
   <i type="int" name="NEDOS">   301</i>
   <i name="EMIN">     10.00000000</i>
   <i name="EMAX">    -10.00000000</i>
   <i name="EFERMI">      0.00000000</i>
  </separator>
  <separator name="writing" >
   <i type="int" name="NWRITE">     2</i>
   <i type="logical" name="LWAVE"> F  </i>
   <i type="logical" name="LDOWNSAMPLE"> F  </i>
   <i type="logical" name="LCHARG"> F  </i>
   <i type="logical" name="LPARD"> F  </i>
   <i type="logical" name="LVTOT"> F  </i>
   <i type="logical" name="LVHAR"> F  </i>
   <i type="logical" name="LELF"> F  </i>
   <i type="logical" name="LOPTICS"> F  </i>
   <v name="STM">      0.00000000      0.00000000      0.00000000      0.00000000      0.00000000      0.00000000      0.00000000</v>
  </separator>
  <separator name="performance" >
   <i type="int" name="NPAR">     2</i>
   <i type="int" name="NSIM">     4</i>
   <i type="int" name="NBLK">    -1</i>
   <i type="logical" name="LPLANE"> T  </i>
   <i type="logical" name="LSCALAPACK"> T  </i>
   <i type="logical" name="LSCAAWARE"> F  </i>
   <i type="logical" name="LSCALU"> F  </i>
   <i type="logical" name="LASYNC"> F  </i>
   <i type="logical" name="LORBITALREAL"> F  </i>
  </separator>
  <separator name="miscellaneous" >
   <i type="int" name="IDIOT">     3</i>
   <i type="int" name="ISPECIAL">     0</i>
   <i type="logical" name="LMUSIC"> F  </i>
   <v name="POMASS">     58.69000000     32.06600000</v>
   <v name="DARWINR">      0.00000000      0.00000000</v>
   <v name="DARWINV">      1.00000000      1.00000000</v>
   <i type="logical" name="LCORR"> T  </i>
  </separator>
  <i type="logical" name="GGA_COMPAT"> T  </i>
  <i type="logical" name="LBERRY"> F  </i>
  <i type="int" name="ICORELEVEL">     0</i>
  <i type="logical" name="LDAU"> F  </i>
  <i type="int" name="I_CONSTRAINED_M">     0</i>
  <separator name="electronic exchange-correlation" >
   <i type="string" name="GGA">--</i>
   <i type="int" name="VOSKOWN">     0</i>
   <i type="logical" name="LHFCALC"> F  </i>
   <i type="string" name="PRECFOCK"></i>
   <i type="logical" name="LSYMGRAD"> F  </i>
   <i type="logical" name="LHFONE"> F  </i>
   <i type="logical" name="LRHFCALC"> F  </i>
   <i type="logical" name="LTHOMAS"> F  </i>
   <i type="logical" name="LMODELHF"> F  </i>
   <i name="ENCUT4O">     -1.00000000</i>
   <i type="int" name="EXXOEP">     0</i>
   <i type="int" name="FOURORBIT">     0</i>
   <i name="AEXX">      0.00000000</i>
   <i name="HFALPHA">      0.00000000</i>
   <i name="MCALPHA">      0.00000000</i>
   <i name="ALDAX">      1.00000000</i>
   <i name="AGGAX">      1.00000000</i>
   <i name="ALDAC">      1.00000000</i>
   <i name="AGGAC">      1.00000000</i>
   <i type="int" name="NKREDX">     1</i>
   <i type="int" name="NKREDY">     1</i>
   <i type="int" name="NKREDZ">     1</i>
   <i type="logical" name="SHIFTRED"> F  </i>
   <i type="logical" name="ODDONLY"> F  </i>
   <i type="logical" name="EVENONLY"> F  </i>
   <i type="int" name="LMAXFOCK">     0</i>
   <i type="int" name="NMAXFOCKAE">     0</i>
   <i type="logical" name="LFOCKAEDFT"> F  </i>
   <i name="HFSCREEN">      0.00000000</i>
   <i name="HFSCREENC">      0.00000000</i>
   <i type="int" name="NBANDSGWLOW">     0</i>
  </separator>
  <separator name="vdW DFT" >
   <i type="logical" name="LUSE_VDW"> F  </i>
   <i name="Zab_VDW">     -0.84910000</i>
   <i name="PARAM1">      0.12340000</i>
   <i name="PARAM2">      1.00000000</i>
   <i name="PARAM3">      0.00000000</i>
  </separator>
  <separator name="model GW" >
   <i type="int" name="MODEL_GW">     0</i>
   <i name="MODEL_EPS0">     16.37487417</i>
   <i name="MODEL_ALPHA">      1.00000000</i>
  </separator>
  <separator name="linear response parameters" >
   <i type="logical" name="LEPSILON"> F  </i>
   <i type="logical" name="LRPA"> F  </i>
   <i type="logical" name="LNABLA"> F  </i>
   <i type="logical" name="LVEL"> F  </i>
   <i type="int" name="KINTER">     0</i>
   <i name="CSHIFT">      0.10000000</i>
   <i name="OMEGAMAX">     -1.00000000</i>
   <i name="DEG_THRESHOLD">      0.00200000</i>
   <i name="RTIME">     -0.10000000</i>
   <i name="WPLASMAI">      0.00000000</i>
   <v name="DFIELD">      0.00000000      0.00000000      0.00000000</v>
   <v name="WPLASMA">      0.00000000      0.00000000      0.00000000      0.00000000      0.00000000      0.00000000      0.00000000      0.00000000      0.00000000</v>
  </separator>
  <separator name="orbital magnetization" >
   <i type="logical" name="NUCIND"> F  </i>
   <v name="MAGPOS">      0.00000000      0.00000000      0.00000000</v>
   <i type="logical" name="LNICSALL"> T  </i>
   <i type="logical" name="ORBITALMAG"> F  </i>
   <i type="logical" name="LMAGBLOCH"> F  </i>
   <i type="logical" name="LCHIMAG"> F  </i>
   <i type="logical" name="LGAUGE"> T  </i>
   <i type="int" name="MAGATOM">     0</i>
   <v name="MAGDIPOL">      0.00000000      0.00000000      0.00000000</v>
   <v name="AVECCONST">      0.00000000      0.00000000      0.00000000</v>
  </separator>
  <separator name="response functions" >
   <i type="logical" name="LADDER"> F  </i>
   <i type="logical" name="LRPAFORCE"> F  </i>
   <i type="logical" name="LFXC"> F  </i>
   <i type="logical" name="LHARTREE"> T  </i>
   <i type="int" name="IBSE">     0</i>
   <v type="int" name="KPOINT">    -1     0     0     0</v>
   <i type="logical" name="LTCTE"> F  </i>
   <i type="logical" name="LTETE"> F  </i>
   <i type="logical" name="LTRIPLET"> F  </i>
   <i type="logical" name="LFXCEPS"> F  </i>
   <i type="logical" name="LFXHEG"> F  </i>
   <i type="int" name="NATURALO">     2</i>
   <i type="logical" name="L2ORDER"> F  </i>
   <i type="logical" name="LMP2LT"> F  </i>
   <i type="logical" name="LUSEW"> F  </i>
   <i name="ENCUTGW">     -2.00000000</i>
   <i name="ENCUTGWSOFT">     -2.00000000</i>
   <i name="ENCUTLF">     -1.00000000</i>
   <i type="int" name="LMAXMP2">    -1</i>
   <i name="SCISSOR">      0.00000000</i>
   <i type="int" name="NOMEGA">     0</i>
   <i type="int" name="NOMEGAR">     0</i>
   <i type="int" name="NBANDSGW">    -1</i>
   <i type="int" name="NBANDSO">    -1</i>
   <i type="int" name="NBANDSV">    -1</i>
   <i type="int" name="NELM">   100</i>
   <i type="int" name="NELMHF">     1</i>
   <i type="int" name="DIM">     3</i>
   <i type="int" name="ANTIRES">     0</i>
   <i name="OMEGAMAX">    -30.00000000</i>
   <i name="OMEGAMIN">    -30.00000000</i>
   <i name="OMEGATL">   -200.00000000</i>
   <i type="int" name="OMEGAGRID">   140</i>
   <i name="CSHIFT">     -0.10000000</i>
   <i type="logical" name="SELFENERGY"> F  </i>
   <i type="logical" name="LSPECTRAL"> F  </i>
   <i type="logical" name="LSPECTRALGW"> F  </i>
   <i type="logical" name="LSINGLES"> F  </i>
   <i type="logical" name="LFERMIGW"> F  </i>
   <i type="logical" name="ODDONLYGW"> F  </i>
   <i type="logical" name="EVENONLYGW"> F  </i>
   <i type="int" name="NKREDLFX">     1</i>
   <i type="int" name="NKREDLFY">     1</i>
   <i type="int" name="NKREDLFZ">     1</i>
   <i type="int" name="MAXMEM">  2800</i>
   <i type="int" name="TELESCOPE">     0</i>
   <i type="int" name="TAUPAR">     1</i>
   <i type="int" name="OMEGAPAR">    -1</i>
   <i name="LAMBDA">      1.00000000</i>
  </separator>
  <separator name="External order field" >
   <i name="OFIELD_KAPPA">      0.00000000</i>
   <v name="OFIELD_K">      0.00000000      0.00000000      0.00000000</v>
   <i name="OFIELD_Q6_NEAR">      0.00000000</i>
   <i name="OFIELD_Q6_FAR">      0.00000000</i>
   <i name="OFIELD_A">      0.00000000</i>
  </separator>
 </parameters>
 <atominfo>
  <atoms>      72 </atoms>
  <types>       2 </types>
  <array name="atoms" >
   <dimension dim="1">ion</dimension>
   <field type="string">element</field>
   <field type="int">atomtype</field>
   <set>
    <rc><c>Ni</c><c>   1</c></rc>
    <rc><c>Ni</c><c>   1</c></rc>
    <rc><c>Ni</c><c>   1</c></rc>
    <rc><c>Ni</c><c>   1</c></rc>
    <rc><c>Ni</c><c>   1</c></rc>
    <rc><c>Ni</c><c>   1</c></rc>
    <rc><c>Ni</c><c>   1</c></rc>
    <rc><c>Ni</c><c>   1</c></rc>
    <rc><c>Ni</c><c>   1</c></rc>
    <rc><c>Ni</c><c>   1</c></rc>
    <rc><c>Ni</c><c>   1</c></rc>
    <rc><c>Ni</c><c>   1</c></rc>
    <rc><c>Ni</c><c>   1</c></rc>
    <rc><c>Ni</c><c>   1</c></rc>
    <rc><c>Ni</c><c>   1</c></rc>
    <rc><c>Ni</c><c>   1</c></rc>
    <rc><c>Ni</c><c>   1</c></rc>
    <rc><c>Ni</c><c>   1</c></rc>
    <rc><c>Ni</c><c>   1</c></rc>
    <rc><c>Ni</c><c>   1</c></rc>
    <rc><c>Ni</c><c>   1</c></rc>
    <rc><c>Ni</c><c>   1</c></rc>
    <rc><c>Ni</c><c>   1</c></rc>
    <rc><c>Ni</c><c>   1</c></rc>
    <rc><c>Ni</c><c>   1</c></rc>
    <rc><c>Ni</c><c>   1</c></rc>
    <rc><c>Ni</c><c>   1</c></rc>
    <rc><c>Ni</c><c>   1</c></rc>
    <rc><c>Ni</c><c>   1</c></rc>
    <rc><c>Ni</c><c>   1</c></rc>
    <rc><c>Ni</c><c>   1</c></rc>
    <rc><c>Ni</c><c>   1</c></rc>
    <rc><c>Ni</c><c>   1</c></rc>
    <rc><c>Ni</c><c>   1</c></rc>
    <rc><c>Ni</c><c>   1</c></rc>
    <rc><c>Ni</c><c>   1</c></rc>
    <rc><c>S </c><c>   2</c></rc>
    <rc><c>S </c><c>   2</c></rc>
    <rc><c>S </c><c>   2</c></rc>
    <rc><c>S </c><c>   2</c></rc>
    <rc><c>S </c><c>   2</c></rc>
    <rc><c>S </c><c>   2</c></rc>
    <rc><c>S </c><c>   2</c></rc>
    <rc><c>S </c><c>   2</c></rc>
    <rc><c>S </c><c>   2</c></rc>
    <rc><c>S </c><c>   2</c></rc>
    <rc><c>S </c><c>   2</c></rc>
    <rc><c>S </c><c>   2</c></rc>
    <rc><c>S </c><c>   2</c></rc>
    <rc><c>S </c><c>   2</c></rc>
    <rc><c>S </c><c>   2</c></rc>
    <rc><c>S </c><c>   2</c></rc>
    <rc><c>S </c><c>   2</c></rc>
    <rc><c>S </c><c>   2</c></rc>
    <rc><c>S </c><c>   2</c></rc>
    <rc><c>S </c><c>   2</c></rc>
    <rc><c>S </c><c>   2</c></rc>
    <rc><c>S </c><c>   2</c></rc>
    <rc><c>S </c><c>   2</c></rc>
    <rc><c>S </c><c>   2</c></rc>
    <rc><c>S </c><c>   2</c></rc>
    <rc><c>S </c><c>   2</c></rc>
    <rc><c>S </c><c>   2</c></rc>
    <rc><c>S </c><c>   2</c></rc>
    <rc><c>S </c><c>   2</c></rc>
    <rc><c>S </c><c>   2</c></rc>
    <rc><c>S </c><c>   2</c></rc>
    <rc><c>S </c><c>   2</c></rc>
    <rc><c>S </c><c>   2</c></rc>
    <rc><c>S </c><c>   2</c></rc>
    <rc><c>S </c><c>   2</c></rc>
    <rc><c>S </c><c>   2</c></rc>
   </set>
  </array>
  <array name="atomtypes" >
   <dimension dim="1">type</dimension>
   <field type="int">atomspertype</field>
   <field type="string">element</field>
   <field>mass</field>
   <field>valence</field>
   <field type="string">pseudopotential</field>
   <set>
    <rc><c>  36</c><c>Ni</c><c>     58.69000000</c><c>     16.00000000</c><c>  PAW_PBE Ni_pv 06Sep2000               </c></rc>
    <rc><c>  36</c><c>S </c><c>     32.06600000</c><c>      6.00000000</c><c>  PAW_PBE S 06Sep2000                   </c></rc>
   </set>
  </array>
 </atominfo>
 <structure name="initialpos" >
  <crystal>
   <varray name="basis" >
    <v>      10.07973298       0.00000000       0.00000000 </v>
    <v>       3.57329804       9.42510255       0.00000000 </v>
    <v>       0.00000000       0.00000000      20.68350356 </v>
   </varray>
   <i name="volume">   1964.98490008 </i>
   <varray name="rec_basis" >
    <v>       0.09920898      -0.03761267       0.00000000 </v>
    <v>       0.00000000       0.10609964       0.00000000 </v>
    <v>       0.00000000       0.00000000       0.04834771 </v>
   </varray>
  </crystal>
  <varray name="positions" >
   <v>       0.25214613       0.95182429       0.07111301 </v>
   <v>       0.41937739       0.77583424       0.14373067 </v>
   <v>       0.54732740       0.64468328       0.25387405 </v>
   <v>       0.69759592       0.49441476       0.38081107 </v>
   <v>       0.81549993       0.34705249       0.48317772 </v>
   <v>       0.11381506       0.41152895       0.16924937 </v>
   <v>       0.26408357       0.26126044       0.29618639 </v>
   <v>       0.41435209       0.11099193       0.42312341 </v>
   <v>       0.97870776       0.59508125       0.10534767 </v>
   <v>       0.64861661       0.22545651       0.14647580 </v>
   <v>       0.83057123       0.02810611       0.21156171 </v>
   <v>       0.98083975       0.87783760       0.33849873 </v>
   <v>       0.35217079       0.55317857       0.11401956 </v>
   <v>       0.50762556       0.42017912       0.22033653 </v>
   <v>       0.65789407       0.26991061       0.34727355 </v>
   <v>       0.75678016       0.13719447       0.45107279 </v>
   <v>       0.07411322       0.18702479       0.13571184 </v>
   <v>       0.22438173       0.03675628       0.26264887 </v>
   <v>       0.37465025       0.88648777       0.38958589 </v>
   <v>       0.47345896       0.76314346       0.49151823 </v>
   <v>       0.06745741       0.36965345       0.04710399 </v>
   <v>       0.09337853       0.48639370       0.41880117 </v>
   <v>       0.48542096       0.99308770       0.09743815 </v>
   <v>       0.79086939       0.80360196       0.17802418 </v>
   <v>       0.94113790       0.65333344       0.30496121 </v>
   <v>       0.02255441       0.17334433       0.42370340 </v>
   <v>       0.73212972       0.45988096       0.18679900 </v>
   <v>       0.88239823       0.30961245       0.31373603 </v>
   <v>       0.29861738       0.22672664       0.10217432 </v>
   <v>       0.44888589       0.07645812       0.22911134 </v>
   <v>       0.59915440       0.92618961       0.35604837 </v>
   <v>       0.77151956       0.79165074       0.43032738 </v>
   <v>       0.01537355       0.84330380       0.14448666 </v>
   <v>       0.16564206       0.69303529       0.27142369 </v>
   <v>       0.30371922       0.55878361       0.38359356 </v>
   <v>       0.76573265       0.00310126       0.08365117 </v>
   <v>       0.92393916       0.14257149       0.50698533 </v>
   <v>       0.57274043       0.44194674       0.12577631 </v>
   <v>       0.73606781       0.25573088       0.24418359 </v>
   <v>       0.88633632       0.10546236       0.37112062 </v>
   <v>       0.16651668       0.15766330       0.04083822 </v>
   <v>       0.30255546       0.02257655       0.15955891 </v>
   <v>       0.45282398       0.87230804       0.28649593 </v>
   <v>       0.60309249       0.72203952       0.41343296 </v>
   <v>       0.01931164       0.63915371       0.20187125 </v>
   <v>       0.16958015       0.48888520       0.32880827 </v>
   <v>       0.30357012       0.34631552       0.42587971 </v>
   <v>       0.86904312       0.78942223       0.07493423 </v>
   <v>       0.45812756       0.82579301       0.05022637 </v>
   <v>       0.64433879       0.68821866       0.17177561 </v>
   <v>       0.78662264       0.54160604       0.28688901 </v>
   <v>       0.93689115       0.39133753       0.41382604 </v>
   <v>       0.20475130       0.46067760       0.08435876 </v>
   <v>       0.35311030       0.30845171       0.20226433 </v>
   <v>       0.50337881       0.15818320       0.32920136 </v>
   <v>       0.63700764       0.00251119       0.44534178 </v>
   <v>       0.06986647       0.92502888       0.24457667 </v>
   <v>       0.21281158       0.78296052       0.35492636 </v>
   <v>       0.35548506       0.65350684       0.46140681 </v>
   <v>       0.91959796       0.07529739       0.11763965 </v>
   <v>       0.21662350       0.76776498       0.09708651 </v>
   <v>       0.35047896       0.64131972       0.20265741 </v>
   <v>       0.50074748       0.49105120       0.32959444 </v>
   <v>       0.63180787       0.35395345       0.44023051 </v>
   <v>       0.06723514       0.25789688       0.24496976 </v>
   <v>       0.21750365       0.10762837       0.37190678 </v>
   <v>       0.36330830       0.97148611       0.48098279 </v>
   <v>       0.91696662       0.40816539       0.11803273 </v>
   <v>       0.51346158       0.18306716       0.06896338 </v>
   <v>       0.63372279       0.02474255       0.16034507 </v>
   <v>       0.78399131       0.87447404       0.28728210 </v>
   <v>       0.97725337       0.70747030       0.39957148 </v>
  </varray>
 </structure>
 <calculation>
  <scstep>
   <time name="dav">    6.89    6.89</time>
   <time name="total">    7.17    7.17</time>
   <energy>
    <i name="alphaZ">   1893.09323658 </i>
    <i name="ewald"> 225690.08309981 </i>
    <i name="hartreedc">-347861.36377625 </i>
    <i name="XCdc">   3682.63273755 </i>
    <i name="pawpsdc"> 112729.53333415 </i>
    <i name="pawaedc">-117641.51188735 </i>
    <i name="eentropy">     -0.42815383 </i>
    <i name="bandstr">  -4564.05140107 </i>
    <i name="atom"> 136002.60505376 </i>
    <i name="e_fr_energy">   9930.59224335 </i>
    <i name="e_wo_entrp">   9931.02039718 </i>
    <i name="e_0_energy">   9930.80632027 </i>
   </energy>
  </scstep>
  <scstep>
   <time name="dav">    6.11    6.11</time>
   <time name="total">    6.11    6.11</time>
   <energy>
    <i name="e_fr_energy">    621.79048451 </i>
    <i name="e_wo_entrp">    622.54072955 </i>
    <i name="e_0_energy">    622.16560703 </i>
   </energy>
  </scstep>
  <scstep>
   <time name="dav">    6.69    6.69</time>
   <time name="total">    6.69    6.69</time>
   <energy>
    <i name="e_fr_energy">   -337.71017888 </i>
    <i name="e_wo_entrp">   -336.50170739 </i>
    <i name="e_0_energy">   -337.10594313 </i>
   </energy>
  </scstep>
  <scstep>
   <time name="dav">    6.61    6.62</time>
   <time name="total">    6.62    6.62</time>
   <energy>
    <i name="e_fr_energy">   -396.37341590 </i>
    <i name="e_wo_entrp">   -395.12095198 </i>
    <i name="e_0_energy">   -395.74718394 </i>
   </energy>
  </scstep>
  <scstep>
   <time name="dav">    7.05    7.06</time>
   <time name="total">    7.28    7.28</time>
   <energy>
    <i name="e_fr_energy">   -398.58672265 </i>
    <i name="e_wo_entrp">   -397.33306801 </i>
    <i name="e_0_energy">   -397.95989533 </i>
   </energy>
  </scstep>
  <scstep>
   <time name="dav">    6.90    6.90</time>
   <time name="total">    7.40    7.40</time>
   <energy>
    <i name="e_fr_energy">   -455.50184917 </i>
    <i name="e_wo_entrp">   -454.58018965 </i>
    <i name="e_0_energy">   -455.04101941 </i>
   </energy>
  </scstep>
  <scstep>
   <time name="dav">    6.54    6.54</time>
   <time name="total">    7.13    7.13</time>
   <energy>
    <i name="e_fr_energy">   -364.77027333 </i>
    <i name="e_wo_entrp">   -363.93406051 </i>
    <i name="e_0_energy">   -364.35216692 </i>
   </energy>
  </scstep>
  <scstep>
   <time name="dav">    7.20    7.20</time>
   <time name="total">    7.69    7.69</time>
   <energy>
    <i name="e_fr_energy">   -432.54393263 </i>
    <i name="e_wo_entrp">   -431.59615056 </i>
    <i name="e_0_energy">   -432.07004160 </i>
   </energy>
  </scstep>
  <scstep>
   <time name="dav">    7.41    7.41</time>
   <time name="total">    7.89    7.89</time>
   <energy>
    <i name="e_fr_energy">   -384.64474462 </i>
    <i name="e_wo_entrp">   -383.59826720 </i>
    <i name="e_0_energy">   -384.12150591 </i>
   </energy>
  </scstep>
  <scstep>
   <time name="dav">    7.65    7.65</time>
   <time name="total">    8.13    8.13</time>
   <energy>
    <i name="e_fr_energy">   -407.64249810 </i>
    <i name="e_wo_entrp">   -406.47546476 </i>
    <i name="e_0_energy">   -407.05898143 </i>
   </energy>
  </scstep>
  <scstep>
   <time name="dav">    7.71    7.72</time>
   <time name="total">    8.19    8.20</time>
   <energy>
    <i name="e_fr_energy">   -377.46432502 </i>
    <i name="e_wo_entrp">   -376.54901684 </i>
    <i name="e_0_energy">   -377.00667093 </i>
   </energy>
  </scstep>
  <scstep>
   <time name="dav">    7.49    7.49</time>
   <time name="total">    7.97    7.98</time>
   <energy>
    <i name="e_fr_energy">   -365.71333150 </i>
    <i name="e_wo_entrp">   -364.73557992 </i>
    <i name="e_0_energy">   -365.22445571 </i>
   </energy>
  </scstep>
  <scstep>
   <time name="dav">    7.17    7.17</time>
   <time name="total">    7.89    7.89</time>
   <energy>
    <i name="e_fr_energy">   -359.37020266 </i>
    <i name="e_wo_entrp">   -358.45007765 </i>
    <i name="e_0_energy">   -358.91014016 </i>
   </energy>
  </scstep>
  <scstep>
   <time name="dav">    7.42    7.43</time>
   <time name="total">    8.00    8.00</time>
   <energy>
    <i name="e_fr_energy">   -356.01423387 </i>
    <i name="e_wo_entrp">   -355.06328427 </i>
    <i name="e_0_energy">   -355.53875907 </i>
   </energy>
  </scstep>
  <scstep>
   <time name="dav">    7.53    7.54</time>
   <time name="total">    8.25    8.25</time>
   <energy>
    <i name="e_fr_energy">   -353.71422336 </i>
    <i name="e_wo_entrp">   -352.73940267 </i>
    <i name="e_0_energy">   -353.22681301 </i>
   </energy>
  </scstep>
  <scstep>
   <time name="dav">    7.46    7.46</time>
   <time name="total">    7.96    7.96</time>
   <energy>
    <i name="e_fr_energy">   -353.16112904 </i>
    <i name="e_wo_entrp">   -352.18910460 </i>
    <i name="e_0_energy">   -352.67511682 </i>
   </energy>
  </scstep>
  <scstep>
   <time name="dav">    7.51    7.51</time>
   <time name="total">    8.03    8.03</time>
   <energy>
    <i name="e_fr_energy">   -352.67335309 </i>
    <i name="e_wo_entrp">   -351.68891368 </i>
    <i name="e_0_energy">   -352.18113339 </i>
   </energy>
  </scstep>
  <scstep>
   <time name="dav">    7.43    7.44</time>
   <time name="total">    8.04    8.04</time>
   <energy>
    <i name="e_fr_energy">   -352.07462268 </i>
    <i name="e_wo_entrp">   -351.07308652 </i>
    <i name="e_0_energy">   -351.57385460 </i>
   </energy>
  </scstep>
  <scstep>
   <time name="dav">    7.45    7.45</time>
   <time name="total">    7.94    7.94</time>
   <energy>
    <i name="e_fr_energy">   -351.44708642 </i>
    <i name="e_wo_entrp">   -350.44922810 </i>
    <i name="e_0_energy">   -350.94815726 </i>
   </energy>
  </scstep>
  <scstep>
   <time name="dav">    8.09    8.09</time>
   <time name="total">    8.58    8.59</time>
   <energy>
    <i name="e_fr_energy">   -350.60474902 </i>
    <i name="e_wo_entrp">   -349.56140782 </i>
    <i name="e_0_energy">   -350.08307842 </i>
   </energy>
  </scstep>
  <scstep>
   <time name="dav">    7.40    7.41</time>
   <time name="total">    7.90    7.90</time>
   <energy>
    <i name="e_fr_energy">   -350.50322681 </i>
    <i name="e_wo_entrp">   -349.46517608 </i>
    <i name="e_0_energy">   -349.98420144 </i>
   </energy>
  </scstep>
  <scstep>
   <time name="dav">    7.04    7.04</time>
   <time name="total">    7.61    7.61</time>
   <energy>
    <i name="e_fr_energy">   -350.47937466 </i>
    <i name="e_wo_entrp">   -349.43253220 </i>
    <i name="e_0_energy">   -349.95595343 </i>
   </energy>
  </scstep>
  <scstep>
   <time name="dav">    7.17    7.17</time>
   <time name="total">    7.67    7.67</time>
   <energy>
    <i name="e_fr_energy">   -350.48338528 </i>
    <i name="e_wo_entrp">   -349.43200995 </i>
    <i name="e_0_energy">   -349.95769761 </i>
   </energy>
  </scstep>
  <scstep>
   <time name="dav">    6.78    6.79</time>
   <time name="total">    7.36    7.36</time>
   <energy>
    <i name="e_fr_energy">   -350.46280347 </i>
    <i name="e_wo_entrp">   -349.42509217 </i>
    <i name="e_0_energy">   -349.94394782 </i>
   </energy>
  </scstep>
  <scstep>
   <time name="dav">    7.40    7.40</time>
   <time name="total">    7.89    7.89</time>
   <energy>
    <i name="e_fr_energy">   -350.46967808 </i>
    <i name="e_wo_entrp">   -349.43210224 </i>
    <i name="e_0_energy">   -349.95089016 </i>
   </energy>
  </scstep>
  <scstep>
   <time name="dav">    7.17    7.17</time>
   <time name="total">    7.68    7.68</time>
   <energy>
    <i name="e_fr_energy">   -350.45013373 </i>
    <i name="e_wo_entrp">   -349.41032340 </i>
    <i name="e_0_energy">   -349.93022857 </i>
   </energy>
  </scstep>
  <scstep>
   <time name="dav">    7.51    7.51</time>
   <time name="total">    8.11    8.11</time>
   <energy>
    <i name="e_fr_energy">   -350.44769780 </i>
    <i name="e_wo_entrp">   -349.41186079 </i>
    <i name="e_0_energy">   -349.92977930 </i>
   </energy>
  </scstep>
  <scstep>
   <time name="dav">    6.99    6.99</time>
   <time name="total">    7.49    7.49</time>
   <energy>
    <i name="e_fr_energy">   -350.44514229 </i>
    <i name="e_wo_entrp">   -349.40967423 </i>
    <i name="e_0_energy">   -349.92740826 </i>
   </energy>
  </scstep>
  <scstep>
   <time name="dav">    7.12    7.12</time>
   <time name="total">    7.62    7.62</time>
   <energy>
    <i name="e_fr_energy">   -350.44461955 </i>
    <i name="e_wo_entrp">   -349.40965346 </i>
    <i name="e_0_energy">   -349.92713651 </i>
   </energy>
  </scstep>
  <scstep>
   <time name="dav">    7.13    7.13</time>
   <time name="total">    7.63    7.63</time>
   <energy>
    <i name="e_fr_energy">   -350.44428991 </i>
    <i name="e_wo_entrp">   -349.41020406 </i>
    <i name="e_0_energy">   -349.92724699 </i>
   </energy>
  </scstep>
  <scstep>
   <time name="dav">    6.11    6.11</time>
   <time name="total">    6.61    6.61</time>
   <energy>
    <i name="e_fr_energy">   -350.44445344 </i>
    <i name="e_wo_entrp">   -349.40930036 </i>
    <i name="e_0_energy">   -349.92687690 </i>
   </energy>
  </scstep>
  <scstep>
   <time name="dav">    5.48    5.48</time>
   <time name="total">    5.98    5.98</time>
   <energy>
    <i name="e_fr_energy">   -350.44460969 </i>
    <i name="e_wo_entrp">   -349.40940158 </i>
    <i name="e_0_energy">   -349.92700564 </i>
   </energy>
  </scstep>
  <scstep>
   <time name="dav">    4.68    4.68</time>
   <time name="total">    5.24    5.24</time>
   <energy>
    <i name="e_fr_energy">   -350.44478233 </i>
    <i name="e_wo_entrp">   -349.40914079 </i>
    <i name="e_0_energy">   -349.92696156 </i>
   </energy>
  </scstep>
  <scstep>
   <time name="dav">    4.39    4.39</time>
   <time name="total">    4.89    4.91</time>
   <energy>
    <i name="e_fr_energy">   -350.44491706 </i>
    <i name="e_wo_entrp">   -349.40956571 </i>
    <i name="e_0_energy">   -349.92724139 </i>
   </energy>
  </scstep>
  <scstep>
   <time name="dav">    4.31    4.31</time>
   <time name="total">    4.82    4.82</time>
   <energy>
    <i name="e_fr_energy">   -350.44531304 </i>
    <i name="e_wo_entrp">   -349.41001823 </i>
    <i name="e_0_energy">   -349.92766563 </i>
   </energy>
  </scstep>
  <scstep>
   <time name="dav">    4.35    4.41</time>
   <time name="total">    4.86    4.92</time>
   <energy>
    <i name="e_fr_energy">   -350.44544979 </i>
    <i name="e_wo_entrp">   -349.41012073 </i>
    <i name="e_0_energy">   -349.92778526 </i>
   </energy>
  </scstep>
  <scstep>
   <time name="dav">    4.24    4.24</time>
   <time name="total">    4.75    4.75</time>
   <energy>
    <i name="e_fr_energy">   -350.44572529 </i>
    <i name="e_wo_entrp">   -349.41055957 </i>
    <i name="e_0_energy">   -349.92814243 </i>
   </energy>
  </scstep>
  <scstep>
   <time name="dav">    4.37    4.37</time>
   <time name="total">    4.89    4.91</time>
   <energy>
    <i name="e_fr_energy">   -350.44585627 </i>
    <i name="e_wo_entrp">   -349.41068612 </i>
    <i name="e_0_energy">   -349.92827120 </i>
   </energy>
  </scstep>
  <scstep>
   <time name="dav">    4.39    4.39</time>
   <time name="total">    4.90    4.90</time>
   <energy>
    <i name="e_fr_energy">   -350.44630253 </i>
    <i name="e_wo_entrp">   -349.41111013 </i>
    <i name="e_0_energy">   -349.92870633 </i>
   </energy>
  </scstep>
  <scstep>
   <time name="dav">    4.29    4.34</time>
   <time name="total">    4.82    4.87</time>
   <energy>
    <i name="e_fr_energy">   -350.44653076 </i>
    <i name="e_wo_entrp">   -349.41130582 </i>
    <i name="e_0_energy">   -349.92891829 </i>
   </energy>
  </scstep>
  <scstep>
   <time name="dav">    4.05    4.05</time>
   <time name="total">    4.66    4.66</time>
   <energy>
    <i name="e_fr_energy">   -350.44670271 </i>
    <i name="e_wo_entrp">   -349.41136656 </i>
    <i name="e_0_energy">   -349.92903463 </i>
   </energy>
  </scstep>
  <scstep>
   <time name="dav">    4.01    4.01</time>
   <time name="total">    4.61    4.61</time>
   <energy>
    <i name="e_fr_energy">   -350.44682058 </i>
    <i name="e_wo_entrp">   -349.41156263 </i>
    <i name="e_0_energy">   -349.92919160 </i>
   </energy>
  </scstep>
  <scstep>
   <time name="dav">    4.29    4.33</time>
   <time name="total">    4.55    4.60</time>
   <energy>
    <i name="alphaZ">   1893.09323658 </i>
    <i name="ewald"> 225690.08309981 </i>
    <i name="hartreedc">-347173.92919344 </i>
    <i name="XCdc">   3652.81070659 </i>
    <i name="pawpsdc"> 139454.98544007 </i>
    <i name="pawaedc">-144442.11509235 </i>
    <i name="eentropy">     -1.03527705 </i>
    <i name="bandstr"> -15426.94487441 </i>
    <i name="atom"> 136002.60505376 </i>
    <i name="e_fr_energy">   -350.44690043 </i>
    <i name="e_wo_entrp">   -349.41162338 </i>
    <i name="e_0_energy">   -349.92926191 </i>
   </energy>
  </scstep>
  <structure>
   <crystal>
    <varray name="basis" >
     <v>      10.07973298       0.00000000       0.00000000 </v>
     <v>       3.57329804       9.42510255       0.00000000 </v>
     <v>       0.00000000       0.00000000      20.68350356 </v>
    </varray>
    <i name="volume">   1964.98490008 </i>
    <varray name="rec_basis" >
     <v>       0.09920898      -0.03761267       0.00000000 </v>
     <v>       0.00000000       0.10609964       0.00000000 </v>
     <v>       0.00000000       0.00000000       0.04834771 </v>
    </varray>
   </crystal>
   <varray name="positions" >
    <v>       0.25214613       0.95182429       0.07111301 </v>
    <v>       0.41937739       0.77583424       0.14373067 </v>
    <v>       0.54732740       0.64468328       0.25387405 </v>
    <v>       0.69759592       0.49441476       0.38081107 </v>
    <v>       0.81549993       0.34705249       0.48317772 </v>
    <v>       0.11381506       0.41152895       0.16924937 </v>
    <v>       0.26408357       0.26126044       0.29618639 </v>
    <v>       0.41435209       0.11099193       0.42312341 </v>
    <v>       0.97870776       0.59508125       0.10534767 </v>
    <v>       0.64861661       0.22545651       0.14647580 </v>
    <v>       0.83057123       0.02810611       0.21156171 </v>
    <v>       0.98083975       0.87783760       0.33849873 </v>
    <v>       0.35217079       0.55317857       0.11401956 </v>
    <v>       0.50762556       0.42017912       0.22033653 </v>
    <v>       0.65789407       0.26991061       0.34727355 </v>
    <v>       0.75678016       0.13719447       0.45107279 </v>
    <v>       0.07411322       0.18702479       0.13571184 </v>
    <v>       0.22438173       0.03675628       0.26264887 </v>
    <v>       0.37465025       0.88648777       0.38958589 </v>
    <v>       0.47345896       0.76314346       0.49151823 </v>
    <v>       0.06745741       0.36965345       0.04710399 </v>
    <v>       0.09337853       0.48639370       0.41880117 </v>
    <v>       0.48542096       0.99308770       0.09743815 </v>
    <v>       0.79086939       0.80360196       0.17802418 </v>
    <v>       0.94113790       0.65333344       0.30496121 </v>
    <v>       0.02255441       0.17334433       0.42370340 </v>
    <v>       0.73212972       0.45988096       0.18679900 </v>
    <v>       0.88239823       0.30961245       0.31373603 </v>
    <v>       0.29861738       0.22672664       0.10217432 </v>
    <v>       0.44888589       0.07645812       0.22911134 </v>
    <v>       0.59915440       0.92618961       0.35604837 </v>
    <v>       0.77151956       0.79165074       0.43032738 </v>
    <v>       0.01537355       0.84330380       0.14448666 </v>
    <v>       0.16564206       0.69303529       0.27142369 </v>
    <v>       0.30371922       0.55878361       0.38359356 </v>
    <v>       0.76573265       0.00310126       0.08365117 </v>
    <v>       0.92393916       0.14257149       0.50698533 </v>
    <v>       0.57274043       0.44194674       0.12577631 </v>
    <v>       0.73606781       0.25573088       0.24418359 </v>
    <v>       0.88633632       0.10546236       0.37112062 </v>
    <v>       0.16651668       0.15766330       0.04083822 </v>
    <v>       0.30255546       0.02257655       0.15955891 </v>
    <v>       0.45282398       0.87230804       0.28649593 </v>
    <v>       0.60309249       0.72203952       0.41343296 </v>
    <v>       0.01931164       0.63915371       0.20187125 </v>
    <v>       0.16958015       0.48888520       0.32880827 </v>
    <v>       0.30357012       0.34631552       0.42587971 </v>
    <v>       0.86904312       0.78942223       0.07493423 </v>
    <v>       0.45812756       0.82579301       0.05022637 </v>
    <v>       0.64433879       0.68821866       0.17177561 </v>
    <v>       0.78662264       0.54160604       0.28688901 </v>
    <v>       0.93689115       0.39133753       0.41382604 </v>
    <v>       0.20475130       0.46067760       0.08435876 </v>
    <v>       0.35311030       0.30845171       0.20226433 </v>
    <v>       0.50337881       0.15818320       0.32920136 </v>
    <v>       0.63700764       0.00251119       0.44534178 </v>
    <v>       0.06986647       0.92502888       0.24457667 </v>
    <v>       0.21281158       0.78296052       0.35492636 </v>
    <v>       0.35548506       0.65350684       0.46140681 </v>
    <v>       0.91959796       0.07529739       0.11763965 </v>
    <v>       0.21662350       0.76776498       0.09708651 </v>
    <v>       0.35047896       0.64131972       0.20265741 </v>
    <v>       0.50074748       0.49105120       0.32959444 </v>
    <v>       0.63180787       0.35395345       0.44023051 </v>
    <v>       0.06723514       0.25789688       0.24496976 </v>
    <v>       0.21750365       0.10762837       0.37190678 </v>
    <v>       0.36330830       0.97148611       0.48098279 </v>
    <v>       0.91696662       0.40816539       0.11803273 </v>
    <v>       0.51346158       0.18306716       0.06896338 </v>
    <v>       0.63372279       0.02474255       0.16034507 </v>
    <v>       0.78399131       0.87447404       0.28728210 </v>
    <v>       0.97725337       0.70747030       0.39957148 </v>
   </varray>
  </structure>
  <varray name="forces" >
   <v>      -0.92329778      -0.36828026      -0.81134405 </v>
   <v>      -0.16951988      -0.09178855       0.05806521 </v>
   <v>      -0.15524583      -0.30447800       1.37697587 </v>
   <v>       0.21176919       0.44948618      -0.04094932 </v>
   <v>       0.12907337       1.32569838       1.21771976 </v>
   <v>       0.17701275      -1.25729647       2.32086436 </v>
   <v>       0.01297459      -0.35267205      -0.25759170 </v>
   <v>       0.23680680       0.99780824      -1.06760468 </v>
   <v>      -0.06536037      -0.39251894      -0.82105468 </v>
   <v>       0.22002955      -0.28215868      -0.61726221 </v>
   <v>       0.55724864      -0.18587373       0.58603857 </v>
   <v>       0.43432814       0.58644116      -0.50739486 </v>
   <v>       0.31179708      -0.21449255      -1.30046413 </v>
   <v>      -0.46032405       0.33870279       1.00463700 </v>
   <v>      -0.17617994      -0.33468702      -1.50108958 </v>
   <v>      -1.51701663      -0.82566129       0.71251830 </v>
   <v>      -0.54579223      -0.52603049       0.76958546 </v>
   <v>      -0.04681976       0.03440382       0.16059086 </v>
   <v>      -0.74688983      -0.27595622      -1.79352601 </v>
   <v>       0.14533786      -0.92505524       1.14442125 </v>
   <v>      -0.45081993       0.40830779      -1.44771108 </v>
   <v>      -0.59334946       0.30520159       1.57584857 </v>
   <v>       0.41544520      -0.02439595      -0.40183023 </v>
   <v>       0.09807160      -0.10922128       0.16467853 </v>
   <v>      -0.07233251      -0.35806608      -1.19522786 </v>
   <v>       1.63749598      -0.80609527      -0.13040301 </v>
   <v>       0.88892579       0.37912518       0.62799769 </v>
   <v>       0.30011959      -0.04452624      -0.05234736 </v>
   <v>       0.84435578       0.62304954       0.85093559 </v>
   <v>      -0.06802046      -0.02019109       0.61926113 </v>
   <v>      -0.63857395       0.34922811      -2.18757548 </v>
   <v>      -0.01929597      -0.11448528       1.29354283 </v>
   <v>      -0.11497988      -0.01577374       0.52852243 </v>
   <v>       0.09545704      -0.34973188      -1.54378640 </v>
   <v>       0.14461972      -0.48417409       0.07773471 </v>
   <v>      -0.58921397       0.43165027      -1.55477908 </v>
   <v>       0.93458449      -1.85132422       3.15631357 </v>
   <v>       0.12425115      -0.28550549      -2.87895485 </v>
   <v>       0.23980819      -0.23700878       0.13335900 </v>
   <v>      -0.31605913      -1.42137480      -2.57653562 </v>
   <v>      -0.82491697      -0.03768887      -3.45526763 </v>
   <v>      -0.28353538       0.63745317       2.59654026 </v>
   <v>       0.06609281       0.06801890      -0.20942048 </v>
   <v>       1.15446071      -0.99301221      -0.60856541 </v>
   <v>       0.29016662       0.09054883       1.40701213 </v>
   <v>      -0.41882752      -0.71771603      -3.70380515 </v>
   <v>       1.03767518      -0.07644349       2.21315030 </v>
   <v>      -0.56208664       0.36035803      -2.01924628 </v>
   <v>       1.55158148      -1.59525663      -3.24273615 </v>
   <v>       0.83640075       0.67985666      -0.82291845 </v>
   <v>       0.18852620      -0.34914290       0.29386824 </v>
   <v>       0.78431370       1.87829143      -0.80463174 </v>
   <v>       1.32747402       0.71237712      -1.65023808 </v>
   <v>      -0.40081923      -0.19353759       0.65057123 </v>
   <v>      -0.05254019      -0.07516371      -0.90910869 </v>
   <v>       1.17833306       0.63727847       2.16320415 </v>
   <v>      -0.02069315       0.44540594      -0.17713062 </v>
   <v>       0.72211244       0.67566941       1.16528520 </v>
   <v>      -0.78285028      -0.56635070       2.23840553 </v>
   <v>       1.35662212       1.00446931       0.17124654 </v>
   <v>      -1.31919793       0.08137605      -1.46331121 </v>
   <v>      -0.33923718      -0.08061247       3.53560237 </v>
   <v>       0.26848408       0.33511413      -1.51881251 </v>
   <v>      -2.19059476       1.06674144       1.67251004 </v>
   <v>       0.10490969       0.09051268       0.00949688 </v>
   <v>       0.09406421      -0.05923483      -0.85468054 </v>
   <v>      -1.10607986       1.43964418       3.34567898 </v>
   <v>      -1.83362616       0.39961464       0.52647453 </v>
   <v>       0.99218929       0.79658688      -1.71100657 </v>
   <v>      -1.36622737      -1.04113679       3.30492475 </v>
   <v>      -0.04026224       0.39183724      -0.37013854 </v>
   <v>      -0.90233240       0.22386234       2.53486842 </v>
  </varray>
  <varray name="stress" >
   <v>      73.74615448       0.40776089      -0.39856567 </v>
   <v>       0.40776087      78.42729936      -0.53689689 </v>
   <v>      -0.39856556      -0.53689655      88.31361636 </v>
  </varray>
  <energy>
   <i name="e_fr_energy">   -350.44690043 </i>
   <i name="e_wo_entrp">   -349.92926191 </i>
   <i name="e_0_energy">     -1.03527705 </i>
  </energy>
  <time name="totalsc">  301.78  302.04</time>
  <eigenvalues>
   <array>
    <dimension dim="1">band</dimension>
    <dimension dim="2">kpoint</dimension>
    <dimension dim="3">spin</dimension>
    <field>eigene</field>
    <field>occ</field>
    <set>
     <set comment="spin 1">
      <set comment="kpoint 1">
       <r>  -63.3641    1.0000 </r>
       <r>  -63.2568    1.0000 </r>
       <r>  -63.2166    1.0000 </r>
       <r>  -63.1965    1.0000 </r>
       <r>  -63.0931    1.0000 </r>
       <r>  -63.0765    1.0000 </r>
       <r>  -63.0386    1.0000 </r>
       <r>  -63.0284    1.0000 </r>
       <r>  -63.0282    1.0000 </r>
       <r>  -63.0186    1.0000 </r>
       <r>  -63.0114    1.0000 </r>
       <r>  -63.0033    1.0000 </r>
       <r>  -62.9970    1.0000 </r>
       <r>  -62.9946    1.0000 </r>
       <r>  -62.9393    1.0000 </r>
       <r>  -62.9341    1.0000 </r>
       <r>  -62.9238    1.0000 </r>
       <r>  -62.9230    1.0000 </r>
       <r>  -62.9223    1.0000 </r>
       <r>  -62.9025    1.0000 </r>
       <r>  -62.8936    1.0000 </r>
       <r>  -62.8892    1.0000 </r>
       <r>  -62.8857    1.0000 </r>
       <r>  -62.8851    1.0000 </r>
       <r>  -62.8801    1.0000 </r>
       <r>  -62.8690    1.0000 </r>
       <r>  -62.8631    1.0000 </r>
       <r>  -62.8597    1.0000 </r>
       <r>  -62.8588    1.0000 </r>
       <r>  -62.8542    1.0000 </r>
       <r>  -62.8517    1.0000 </r>
       <r>  -62.8485    1.0000 </r>
       <r>  -62.8443    1.0000 </r>
       <r>  -62.8400    1.0000 </r>
       <r>  -62.8365    1.0000 </r>
       <r>  -62.8263    1.0000 </r>
       <r>  -62.8184    1.0000 </r>
       <r>  -62.8109    1.0000 </r>
       <r>  -62.8086    1.0000 </r>
       <r>  -62.8006    1.0000 </r>
       <r>  -62.7945    1.0000 </r>
       <r>  -62.7876    1.0000 </r>
       <r>  -62.7858    1.0000 </r>
       <r>  -62.7810    1.0000 </r>
       <r>  -62.7714    1.0000 </r>
       <r>  -62.7664    1.0000 </r>
       <r>  -62.7638    1.0000 </r>
       <r>  -62.7628    1.0000 </r>
       <r>  -62.7306    1.0000 </r>
       <r>  -62.7264    1.0000 </r>
       <r>  -62.7155    1.0000 </r>
       <r>  -62.7061    1.0000 </r>
       <r>  -62.6993    1.0000 </r>
       <r>  -62.6880    1.0000 </r>
       <r>  -62.6867    1.0000 </r>
       <r>  -62.6818    1.0000 </r>
       <r>  -62.6699    1.0000 </r>
       <r>  -62.6671    1.0000 </r>
       <r>  -62.6651    1.0000 </r>
       <r>  -62.6634    1.0000 </r>
       <r>  -62.6612    1.0000 </r>
       <r>  -62.6579    1.0000 </r>
       <r>  -62.6549    1.0000 </r>
       <r>  -62.6388    1.0000 </r>
       <r>  -62.6351    1.0000 </r>
       <r>  -62.6321    1.0000 </r>
       <r>  -62.6293    1.0000 </r>
       <r>  -62.6260    1.0000 </r>
       <r>  -62.6141    1.0000 </r>
       <r>  -62.6075    1.0000 </r>
       <r>  -62.6004    1.0000 </r>
       <r>  -62.5755    1.0000 </r>
       <r>  -62.5724    1.0000 </r>
       <r>  -62.5721    1.0000 </r>
       <r>  -62.5703    1.0000 </r>
       <r>  -62.5698    1.0000 </r>
       <r>  -62.5616    1.0000 </r>
       <r>  -62.5561    1.0000 </r>
       <r>  -62.5460    1.0000 </r>
       <r>  -62.5407    1.0000 </r>
       <r>  -62.5310    1.0000 </r>
       <r>  -62.5175    1.0000 </r>
       <r>  -62.5159    1.0000 </r>
       <r>  -62.5094    1.0000 </r>
       <r>  -62.5033    1.0000 </r>
       <r>  -62.5018    1.0000 </r>
       <r>  -62.4990    1.0000 </r>
       <r>  -62.4962    1.0000 </r>
       <r>  -62.4900    1.0000 </r>
       <r>  -62.4806    1.0000 </r>
       <r>  -62.4741    1.0000 </r>
       <r>  -62.4704    1.0000 </r>
       <r>  -62.4637    1.0000 </r>
       <r>  -62.4628    1.0000 </r>
       <r>  -62.4515    1.0000 </r>
       <r>  -62.4456    1.0000 </r>
       <r>  -62.4263    1.0000 </r>
       <r>  -62.4156    1.0000 </r>
       <r>  -62.4133    1.0000 </r>
       <r>  -62.3917    1.0000 </r>
       <r>  -62.3537    1.0000 </r>
       <r>  -62.3406    1.0000 </r>
       <r>  -62.3079    1.0000 </r>
       <r>  -62.2839    1.0000 </r>
       <r>  -62.2681    1.0000 </r>
       <r>  -62.0891    1.0000 </r>
       <r>  -61.9642    1.0000 </r>
       <r>  -61.6463    1.0000 </r>
       <r>  -15.0691    1.0000 </r>
       <r>  -14.6061    1.0000 </r>
       <r>  -14.3932    1.0000 </r>
       <r>  -14.0929    1.0000 </r>
       <r>  -14.0545    1.0000 </r>
       <r>  -13.8510    1.0000 </r>
       <r>  -13.6968    1.0000 </r>
       <r>  -13.5872    1.0000 </r>
       <r>  -13.4364    1.0000 </r>
       <r>  -13.3672    1.0000 </r>
       <r>  -13.2791    1.0000 </r>
       <r>  -13.2050    1.0000 </r>
       <r>  -13.0835    1.0000 </r>
       <r>  -13.0720    1.0000 </r>
       <r>  -12.9307    1.0000 </r>
       <r>  -12.8236    1.0000 </r>
       <r>  -12.7790    1.0000 </r>
       <r>  -12.7412    1.0000 </r>
       <r>  -12.7196    1.0000 </r>
       <r>  -12.6462    1.0000 </r>
       <r>  -12.5178    1.0000 </r>
       <r>  -12.5087    1.0000 </r>
       <r>  -12.4631    1.0000 </r>
       <r>  -12.3899    1.0000 </r>
       <r>  -12.2575    1.0000 </r>
       <r>  -12.2396    1.0000 </r>
       <r>  -12.1825    1.0000 </r>
       <r>  -12.1080    1.0000 </r>
       <r>  -12.0671    1.0000 </r>
       <r>  -12.0536    1.0000 </r>
       <r>  -11.9907    1.0000 </r>
       <r>  -11.9152    1.0000 </r>
       <r>  -11.8421    1.0000 </r>
       <r>  -11.7494    1.0000 </r>
       <r>  -11.4420    1.0000 </r>
       <r>  -11.2977    1.0000 </r>
       <r>   -6.6565    1.0000 </r>
       <r>   -6.5233    1.0000 </r>
       <r>   -6.4650    1.0000 </r>
       <r>   -6.3409    1.0000 </r>
       <r>   -6.2592    1.0000 </r>
       <r>   -6.1458    1.0000 </r>
       <r>   -6.0245    1.0000 </r>
       <r>   -5.9874    1.0000 </r>
       <r>   -5.8902    1.0000 </r>
       <r>   -5.8797    1.0000 </r>
       <r>   -5.8008    1.0000 </r>
       <r>   -5.7338    1.0000 </r>
       <r>   -5.7053    1.0000 </r>
       <r>   -5.6573    1.0000 </r>
       <r>   -5.6346    1.0000 </r>
       <r>   -5.5996    1.0000 </r>
       <r>   -5.5576    1.0000 </r>
       <r>   -5.5428    1.0000 </r>
       <r>   -5.4627    1.0000 </r>
       <r>   -5.4201    1.0000 </r>
       <r>   -5.3996    1.0000 </r>
       <r>   -5.3371    1.0000 </r>
       <r>   -5.2902    1.0000 </r>
       <r>   -5.2655    1.0000 </r>
       <r>   -5.2042    1.0000 </r>
       <r>   -5.1251    1.0000 </r>
       <r>   -5.0728    1.0000 </r>
       <r>   -5.0432    1.0000 </r>
       <r>   -4.9455    1.0000 </r>
       <r>   -4.9185    1.0000 </r>
       <r>   -4.8905    1.0000 </r>
       <r>   -4.8269    1.0000 </r>
       <r>   -4.7991    1.0000 </r>
       <r>   -4.7305    1.0000 </r>
       <r>   -4.6032    1.0000 </r>
       <r>   -4.5696    1.0000 </r>
       <r>   -4.5264    1.0000 </r>
       <r>   -4.5202    1.0000 </r>
       <r>   -4.4288    1.0000 </r>
       <r>   -4.3929    1.0000 </r>
       <r>   -4.3228    1.0000 </r>
       <r>   -4.2923    1.0000 </r>
       <r>   -4.2532    1.0000 </r>
       <r>   -4.2326    1.0000 </r>
       <r>   -4.1496    1.0000 </r>
       <r>   -4.0946    1.0000 </r>
       <r>   -4.0641    1.0000 </r>
       <r>   -4.0427    1.0000 </r>
       <r>   -4.0051    1.0000 </r>
       <r>   -3.9913    1.0000 </r>
       <r>   -3.9292    1.0000 </r>
       <r>   -3.9187    1.0000 </r>
       <r>   -3.8763    1.0000 </r>
       <r>   -3.8262    1.0000 </r>
       <r>   -3.7915    1.0000 </r>
       <r>   -3.7603    1.0000 </r>
       <r>   -3.7425    1.0000 </r>
       <r>   -3.6971    1.0000 </r>
       <r>   -3.6808    1.0000 </r>
       <r>   -3.6515    1.0000 </r>
       <r>   -3.5924    1.0000 </r>
       <r>   -3.5477    1.0000 </r>
       <r>   -3.5335    1.0000 </r>
       <r>   -3.5220    1.0000 </r>
       <r>   -3.5104    1.0000 </r>
       <r>   -3.4656    1.0000 </r>
       <r>   -3.4315    1.0000 </r>
       <r>   -3.4040    1.0000 </r>
       <r>   -3.3746    1.0000 </r>
       <r>   -3.3544    1.0000 </r>
       <r>   -3.3294    1.0000 </r>
       <r>   -3.2995    1.0000 </r>
       <r>   -3.2860    1.0000 </r>
       <r>   -3.2666    1.0000 </r>
       <r>   -3.2106    1.0000 </r>
       <r>   -3.1764    1.0000 </r>
       <r>   -3.1668    1.0000 </r>
       <r>   -3.1251    1.0000 </r>
       <r>   -3.0790    1.0000 </r>
       <r>   -3.0398    1.0000 </r>
       <r>   -3.0151    1.0000 </r>
       <r>   -2.9989    1.0000 </r>
       <r>   -2.9947    1.0000 </r>
       <r>   -2.9346    1.0000 </r>
       <r>   -2.9177    1.0000 </r>
       <r>   -2.8776    1.0000 </r>
       <r>   -2.8288    1.0000 </r>
       <r>   -2.8197    1.0000 </r>
       <r>   -2.7718    1.0000 </r>
       <r>   -2.7114    1.0000 </r>
       <r>   -2.6732    1.0000 </r>
       <r>   -2.6593    1.0000 </r>
       <r>   -2.6331    1.0000 </r>
       <r>   -2.5828    1.0000 </r>
       <r>   -2.5624    1.0000 </r>
       <r>   -2.4659    1.0000 </r>
       <r>   -2.4449    1.0000 </r>
       <r>   -2.4044    1.0000 </r>
       <r>   -2.3579    1.0000 </r>
       <r>   -2.3410    1.0000 </r>
       <r>   -2.2742    1.0000 </r>
       <r>   -2.1568    1.0000 </r>
       <r>   -2.1129    1.0000 </r>
       <r>   -2.0570    1.0000 </r>
       <r>   -1.9822    1.0000 </r>
       <r>   -1.9329    1.0000 </r>
       <r>   -1.9239    1.0000 </r>
       <r>   -1.8336    1.0000 </r>
       <r>   -1.8168    1.0000 </r>
       <r>   -1.7978    1.0000 </r>
       <r>   -1.7854    1.0000 </r>
       <r>   -1.7601    1.0000 </r>
       <r>   -1.7045    1.0000 </r>
       <r>   -1.7026    1.0000 </r>
       <r>   -1.6609    1.0000 </r>
       <r>   -1.6283    1.0000 </r>
       <r>   -1.5933    1.0000 </r>
       <r>   -1.5426    1.0000 </r>
       <r>   -1.5338    1.0000 </r>
       <r>   -1.5048    1.0000 </r>
       <r>   -1.4855    1.0000 </r>
       <r>   -1.4520    1.0000 </r>
       <r>   -1.4201    1.0000 </r>
       <r>   -1.3982    1.0000 </r>
       <r>   -1.3850    1.0000 </r>
       <r>   -1.3391    1.0000 </r>
       <r>   -1.3364    1.0000 </r>
       <r>   -1.2846    1.0000 </r>
       <r>   -1.2792    1.0000 </r>
       <r>   -1.2687    1.0000 </r>
       <r>   -1.2408    1.0000 </r>
       <r>   -1.2277    1.0000 </r>
       <r>   -1.1991    1.0000 </r>
       <r>   -1.1678    1.0000 </r>
       <r>   -1.1420    1.0000 </r>
       <r>   -1.1280    1.0000 </r>
       <r>   -1.1166    1.0000 </r>
       <r>   -1.1028    1.0000 </r>
       <r>   -1.0868    1.0000 </r>
       <r>   -1.0611    1.0000 </r>
       <r>   -1.0349    1.0000 </r>
       <r>   -0.9986    1.0000 </r>
       <r>   -0.9717    1.0000 </r>
       <r>   -0.9524    1.0000 </r>
       <r>   -0.9384    1.0000 </r>
       <r>   -0.9126    1.0000 </r>
       <r>   -0.9098    1.0000 </r>
       <r>   -0.9039    1.0000 </r>
       <r>   -0.8822    1.0000 </r>
       <r>   -0.8622    1.0000 </r>
       <r>   -0.8342    1.0000 </r>
       <r>   -0.8210    1.0000 </r>
       <r>   -0.8020    1.0000 </r>
       <r>   -0.7814    1.0000 </r>
       <r>   -0.7609    1.0000 </r>
       <r>   -0.7488    1.0000 </r>
       <r>   -0.7172    1.0000 </r>
       <r>   -0.7081    1.0000 </r>
       <r>   -0.7005    1.0000 </r>
       <r>   -0.6831    1.0000 </r>
       <r>   -0.6687    1.0000 </r>
       <r>   -0.6588    1.0000 </r>
       <r>   -0.6514    1.0000 </r>
       <r>   -0.6199    1.0000 </r>
       <r>   -0.6064    1.0000 </r>
       <r>   -0.5885    1.0000 </r>
       <r>   -0.5769    1.0000 </r>
       <r>   -0.5448    1.0000 </r>
       <r>   -0.5404    1.0000 </r>
       <r>   -0.5332    1.0000 </r>
       <r>   -0.5220    1.0000 </r>
       <r>   -0.5043    1.0000 </r>
       <r>   -0.4913    1.0000 </r>
       <r>   -0.4760    1.0000 </r>
       <r>   -0.4531    1.0000 </r>
       <r>   -0.4429    1.0000 </r>
       <r>   -0.4349    1.0000 </r>
       <r>   -0.4174    1.0000 </r>
       <r>   -0.3948    1.0000 </r>
       <r>   -0.3839    1.0000 </r>
       <r>   -0.3823    1.0000 </r>
       <r>   -0.3639    1.0000 </r>
       <r>   -0.3567    1.0000 </r>
       <r>   -0.3468    1.0000 </r>
       <r>   -0.3267    1.0000 </r>
       <r>   -0.3106    1.0000 </r>
       <r>   -0.2966    1.0000 </r>
       <r>   -0.2698    1.0000 </r>
       <r>   -0.2508    1.0000 </r>
       <r>   -0.2429    1.0000 </r>
       <r>   -0.2180    1.0000 </r>
       <r>   -0.2042    1.0000 </r>
       <r>   -0.1989    1.0000 </r>
       <r>   -0.1751    1.0000 </r>
       <r>   -0.1713    1.0000 </r>
       <r>   -0.1588    1.0000 </r>
       <r>   -0.1359    1.0000 </r>
       <r>   -0.1311    1.0000 </r>
       <r>   -0.1265    1.0000 </r>
       <r>   -0.1026    1.0000 </r>
       <r>   -0.0957    1.0000 </r>
       <r>   -0.0612    1.0000 </r>
       <r>   -0.0394    1.0000 </r>
       <r>   -0.0336    1.0000 </r>
       <r>   -0.0105    1.0000 </r>
       <r>    0.0010    1.0000 </r>
       <r>    0.0163    1.0000 </r>
       <r>    0.0264    1.0000 </r>
       <r>    0.0456    1.0000 </r>
       <r>    0.0560    1.0000 </r>
       <r>    0.0696    1.0000 </r>
       <r>    0.1049    1.0000 </r>
       <r>    0.1181    1.0000 </r>
       <r>    0.1288    1.0000 </r>
       <r>    0.1908    1.0000 </r>
       <r>    0.1995    1.0000 </r>
       <r>    0.2190    1.0000 </r>
       <r>    0.2634    1.0000 </r>
       <r>    0.2907    1.0000 </r>
       <r>    0.3209    1.0000 </r>
       <r>    0.3487    1.0000 </r>
       <r>    0.3635    1.0000 </r>
       <r>    0.4015    1.0000 </r>
       <r>    0.4092    1.0000 </r>
       <r>    0.4645    1.0000 </r>
       <r>    0.4772    1.0000 </r>
       <r>    0.5359    1.0000 </r>
       <r>    0.5646    1.0000 </r>
       <r>    0.5658    1.0000 </r>
       <r>    0.6045    1.0000 </r>
       <r>    0.6178    1.0000 </r>
       <r>    0.6547    1.0000 </r>
       <r>    0.7233    1.0000 </r>
       <r>    0.7373    1.0000 </r>
       <r>    0.7852    1.0000 </r>
       <r>    0.8295    1.0000 </r>
       <r>    0.8555    1.0000 </r>
       <r>    0.8901    1.0000 </r>
       <r>    0.9385    1.0000 </r>
       <r>    0.9592    1.0000 </r>
       <r>    0.9684    1.0000 </r>
       <r>    1.0511    0.9996 </r>
       <r>    1.0910    0.9990 </r>
       <r>    1.1171    0.9981 </r>
       <r>    1.1783    0.9931 </r>
       <r>    1.2700    0.9653 </r>
       <r>    1.3164    0.9316 </r>
       <r>    1.3658    0.8725 </r>
       <r>    1.4075    0.8005 </r>
       <r>    1.4350    0.7418 </r>
       <r>    1.4632    0.6736 </r>
       <r>    1.5334    0.4814 </r>
       <r>    1.5439    0.4520 </r>
       <r>    1.5621    0.4014 </r>
       <r>    1.6179    0.2597 </r>
       <r>    1.6443    0.2030 </r>
       <r>    1.7032    0.1061 </r>
       <r>    1.7613    0.0486 </r>
       <r>    1.7893    0.0317 </r>
       <r>    1.8116    0.0220 </r>
       <r>    1.8502    0.0111 </r>
       <r>    1.8914    0.0050 </r>
       <r>    1.9381    0.0018 </r>
       <r>    1.9678    0.0009 </r>
       <r>    2.0378    0.0002 </r>
       <r>    2.0569    0.0001 </r>
       <r>    2.1101    0.0000 </r>
       <r>    2.1421    0.0000 </r>
       <r>    2.1764    0.0000 </r>
       <r>    2.2049    0.0000 </r>
       <r>    2.2366    0.0000 </r>
       <r>    2.2667    0.0000 </r>
       <r>    2.3139    0.0000 </r>
       <r>    2.3411    0.0000 </r>
       <r>    2.3673    0.0000 </r>
       <r>    2.4012    0.0000 </r>
       <r>    2.4721    0.0000 </r>
       <r>    2.5578    0.0000 </r>
       <r>    2.5716    0.0000 </r>
       <r>    2.6367    0.0000 </r>
       <r>    2.7166    0.0000 </r>
       <r>    2.7436    0.0000 </r>
       <r>    2.8107    0.0000 </r>
       <r>    2.8427    0.0000 </r>
       <r>    2.8742    0.0000 </r>
       <r>    2.9334    0.0000 </r>
       <r>    2.9604    0.0000 </r>
       <r>    3.1547    0.0000 </r>
       <r>    4.3213    0.0000 </r>
       <r>    4.4871    0.0000 </r>
       <r>    4.5263    0.0000 </r>
       <r>    4.8834    0.0000 </r>
       <r>    4.9406    0.0000 </r>
       <r>    5.2242    0.0000 </r>
       <r>    5.4075    0.0000 </r>
       <r>    5.4381    0.0000 </r>
       <r>    5.4882    0.0000 </r>
       <r>    5.5213    0.0000 </r>
       <r>    5.6492    0.0000 </r>
       <r>    5.7962    0.0000 </r>
       <r>    5.8513    0.0000 </r>
       <r>    5.8678    0.0000 </r>
       <r>    5.9955    0.0000 </r>
       <r>    6.0233    0.0000 </r>
       <r>    6.1644    0.0000 </r>
       <r>    6.2340    0.0000 </r>
       <r>    6.2908    0.0000 </r>
       <r>    6.3544    0.0000 </r>
       <r>    6.4189    0.0000 </r>
       <r>    6.4783    0.0000 </r>
       <r>    6.5740    0.0000 </r>
       <r>    6.6215    0.0000 </r>
       <r>    6.6974    0.0000 </r>
       <r>    6.7204    0.0000 </r>
       <r>    6.7730    0.0000 </r>
       <r>    6.8427    0.0000 </r>
       <r>    6.8532    0.0000 </r>
       <r>    7.0009    0.0000 </r>
       <r>    7.0307    0.0000 </r>
       <r>    7.0666    0.0000 </r>
       <r>    7.0835    0.0000 </r>
       <r>    7.1352    0.0000 </r>
       <r>    7.1824    0.0000 </r>
       <r>    7.2255    0.0000 </r>
       <r>    7.2887    0.0000 </r>
       <r>    7.3284    0.0000 </r>
       <r>    7.3661    0.0000 </r>
       <r>    7.3865    0.0000 </r>
       <r>    7.4459    0.0000 </r>
       <r>    7.4741    0.0000 </r>
       <r>    7.5388    0.0000 </r>
       <r>    7.5935    0.0000 </r>
      </set>
     </set>
    </set>
   </array>
  </eigenvalues>
  <separator name="orbital magnetization" >
   <v name="MAGDIPOLOUT">      0.00000000      0.00000000      0.00000000</v>
  </separator>
  <dos>
   <i name="efermi">      1.52678732 </i>
   <total>
    <array>
     <dimension dim="1">gridpoints</dimension>
     <dimension dim="2">spin</dimension>
     <field>energy</field>
     <field>total</field>
     <field>integrated</field>
     <set>
      <set comment="spin 1">
       <r>   -66.9120     0.0000     0.0000 </r>
       <r>   -66.6518     0.0000     0.0000 </r>
       <r>   -66.3916     0.0000     0.0000 </r>
       <r>   -66.1314     0.0000     0.0000 </r>
       <r>   -65.8712     0.0000     0.0000 </r>
       <r>   -65.6111     0.0000     0.0000 </r>
       <r>   -65.3509     0.0000     0.0000 </r>
       <r>   -65.0907     0.0000     0.0000 </r>
       <r>   -64.8305     0.0000     0.0000 </r>
       <r>   -64.5704     0.0000     0.0000 </r>
       <r>   -64.3102     0.0000     0.0000 </r>
       <r>   -64.0500     0.0000     0.0000 </r>
       <r>   -63.7898     0.0110     0.0029 </r>
       <r>   -63.5296     1.3214     0.3467 </r>
       <r>   -63.2695    17.4266     4.8807 </r>
       <r>   -63.0093    91.2838    28.6307 </r>
       <r>   -62.7491   249.4373    93.5287 </r>
       <r>   -62.4889   286.3435   168.0289 </r>
       <r>   -62.2288   143.5281   205.3717 </r>
       <r>   -61.9686    27.3989   212.5003 </r>
       <r>   -61.7084     8.0044   214.5828 </r>
       <r>   -61.4482     4.8259   215.8384 </r>
       <r>   -61.1880     0.6165   215.9988 </r>
       <r>   -60.9279     0.0046   216.0000 </r>
       <r>   -60.6677     0.0000   216.0000 </r>
       <r>   -60.4075     0.0000   216.0000 </r>
       <r>   -60.1473     0.0000   216.0000 </r>
       <r>   -59.8872     0.0000   216.0000 </r>
       <r>   -59.6270     0.0000   216.0000 </r>
       <r>   -59.3668     0.0000   216.0000 </r>
       <r>   -59.1066     0.0000   216.0000 </r>
       <r>   -58.8464     0.0000   216.0000 </r>
       <r>   -58.5863     0.0000   216.0000 </r>
       <r>   -58.3261     0.0000   216.0000 </r>
       <r>   -58.0659     0.0000   216.0000 </r>
       <r>   -57.8057     0.0000   216.0000 </r>
       <r>   -57.5456     0.0000   216.0000 </r>
       <r>   -57.2854     0.0000   216.0000 </r>
       <r>   -57.0252     0.0000   216.0000 </r>
       <r>   -56.7650     0.0000   216.0000 </r>
       <r>   -56.5048     0.0000   216.0000 </r>
       <r>   -56.2447     0.0000   216.0000 </r>
       <r>   -55.9845     0.0000   216.0000 </r>
       <r>   -55.7243     0.0000   216.0000 </r>
       <r>   -55.4641     0.0000   216.0000 </r>
       <r>   -55.2040     0.0000   216.0000 </r>
       <r>   -54.9438     0.0000   216.0000 </r>
       <r>   -54.6836     0.0000   216.0000 </r>
       <r>   -54.4234     0.0000   216.0000 </r>
       <r>   -54.1633     0.0000   216.0000 </r>
       <r>   -53.9031     0.0000   216.0000 </r>
       <r>   -53.6429     0.0000   216.0000 </r>
       <r>   -53.3827     0.0000   216.0000 </r>
       <r>   -53.1225     0.0000   216.0000 </r>
       <r>   -52.8624     0.0000   216.0000 </r>
       <r>   -52.6022     0.0000   216.0000 </r>
       <r>   -52.3420     0.0000   216.0000 </r>
       <r>   -52.0818     0.0000   216.0000 </r>
       <r>   -51.8217     0.0000   216.0000 </r>
       <r>   -51.5615     0.0000   216.0000 </r>
       <r>   -51.3013     0.0000   216.0000 </r>
       <r>   -51.0411     0.0000   216.0000 </r>
       <r>   -50.7809     0.0000   216.0000 </r>
       <r>   -50.5208     0.0000   216.0000 </r>
       <r>   -50.2606     0.0000   216.0000 </r>
       <r>   -50.0004     0.0000   216.0000 </r>
       <r>   -49.7402     0.0000   216.0000 </r>
       <r>   -49.4801     0.0000   216.0000 </r>
       <r>   -49.2199     0.0000   216.0000 </r>
       <r>   -48.9597     0.0000   216.0000 </r>
       <r>   -48.6995     0.0000   216.0000 </r>
       <r>   -48.4393     0.0000   216.0000 </r>
       <r>   -48.1792     0.0000   216.0000 </r>
       <r>   -47.9190     0.0000   216.0000 </r>
       <r>   -47.6588     0.0000   216.0000 </r>
       <r>   -47.3986     0.0000   216.0000 </r>
       <r>   -47.1385     0.0000   216.0000 </r>
       <r>   -46.8783     0.0000   216.0000 </r>
       <r>   -46.6181     0.0000   216.0000 </r>
       <r>   -46.3579     0.0000   216.0000 </r>
       <r>   -46.0977     0.0000   216.0000 </r>
       <r>   -45.8376     0.0000   216.0000 </r>
       <r>   -45.5774     0.0000   216.0000 </r>
       <r>   -45.3172     0.0000   216.0000 </r>
       <r>   -45.0570     0.0000   216.0000 </r>
       <r>   -44.7969     0.0000   216.0000 </r>
       <r>   -44.5367     0.0000   216.0000 </r>
       <r>   -44.2765     0.0000   216.0000 </r>
       <r>   -44.0163     0.0000   216.0000 </r>
       <r>   -43.7561     0.0000   216.0000 </r>
       <r>   -43.4960     0.0000   216.0000 </r>
       <r>   -43.2358     0.0000   216.0000 </r>
       <r>   -42.9756     0.0000   216.0000 </r>
       <r>   -42.7154     0.0000   216.0000 </r>
       <r>   -42.4553     0.0000   216.0000 </r>
       <r>   -42.1951     0.0000   216.0000 </r>
       <r>   -41.9349     0.0000   216.0000 </r>
       <r>   -41.6747     0.0000   216.0000 </r>
       <r>   -41.4145     0.0000   216.0000 </r>
       <r>   -41.1544     0.0000   216.0000 </r>
       <r>   -40.8942     0.0000   216.0000 </r>
       <r>   -40.6340     0.0000   216.0000 </r>
       <r>   -40.3738     0.0000   216.0000 </r>
       <r>   -40.1137     0.0000   216.0000 </r>
       <r>   -39.8535     0.0000   216.0000 </r>
       <r>   -39.5933     0.0000   216.0000 </r>
       <r>   -39.3331     0.0000   216.0000 </r>
       <r>   -39.0729     0.0000   216.0000 </r>
       <r>   -38.8128     0.0000   216.0000 </r>
       <r>   -38.5526     0.0000   216.0000 </r>
       <r>   -38.2924     0.0000   216.0000 </r>
       <r>   -38.0322     0.0000   216.0000 </r>
       <r>   -37.7721     0.0000   216.0000 </r>
       <r>   -37.5119     0.0000   216.0000 </r>
       <r>   -37.2517     0.0000   216.0000 </r>
       <r>   -36.9915     0.0000   216.0000 </r>
       <r>   -36.7313     0.0000   216.0000 </r>
       <r>   -36.4712     0.0000   216.0000 </r>
       <r>   -36.2110     0.0000   216.0000 </r>
       <r>   -35.9508     0.0000   216.0000 </r>
       <r>   -35.6906     0.0000   216.0000 </r>
       <r>   -35.4305     0.0000   216.0000 </r>
       <r>   -35.1703     0.0000   216.0000 </r>
       <r>   -34.9101     0.0000   216.0000 </r>
       <r>   -34.6499     0.0000   216.0000 </r>
       <r>   -34.3897     0.0000   216.0000 </r>
       <r>   -34.1296     0.0000   216.0000 </r>
       <r>   -33.8694     0.0000   216.0000 </r>
       <r>   -33.6092     0.0000   216.0000 </r>
       <r>   -33.3490     0.0000   216.0000 </r>
       <r>   -33.0889     0.0000   216.0000 </r>
       <r>   -32.8287     0.0000   216.0000 </r>
       <r>   -32.5685     0.0000   216.0000 </r>
       <r>   -32.3083     0.0000   216.0000 </r>
       <r>   -32.0481     0.0000   216.0000 </r>
       <r>   -31.7880     0.0000   216.0000 </r>
       <r>   -31.5278     0.0000   216.0000 </r>
       <r>   -31.2676     0.0000   216.0000 </r>
       <r>   -31.0074     0.0000   216.0000 </r>
       <r>   -30.7473     0.0000   216.0000 </r>
       <r>   -30.4871     0.0000   216.0000 </r>
       <r>   -30.2269     0.0000   216.0000 </r>
       <r>   -29.9667     0.0000   216.0000 </r>
       <r>   -29.7065     0.0000   216.0000 </r>
       <r>   -29.4464     0.0000   216.0000 </r>
       <r>   -29.1862     0.0000   216.0000 </r>
       <r>   -28.9260     0.0000   216.0000 </r>
       <r>   -28.6658     0.0000   216.0000 </r>
       <r>   -28.4057     0.0000   216.0000 </r>
       <r>   -28.1455     0.0000   216.0000 </r>
       <r>   -27.8853     0.0000   216.0000 </r>
       <r>   -27.6251     0.0000   216.0000 </r>
       <r>   -27.3650     0.0000   216.0000 </r>
       <r>   -27.1048     0.0000   216.0000 </r>
       <r>   -26.8446     0.0000   216.0000 </r>
       <r>   -26.5844     0.0000   216.0000 </r>
       <r>   -26.3242     0.0000   216.0000 </r>
       <r>   -26.0641     0.0000   216.0000 </r>
       <r>   -25.8039     0.0000   216.0000 </r>
       <r>   -25.5437     0.0000   216.0000 </r>
       <r>   -25.2835     0.0000   216.0000 </r>
       <r>   -25.0234     0.0000   216.0000 </r>
       <r>   -24.7632     0.0000   216.0000 </r>
       <r>   -24.5030     0.0000   216.0000 </r>
       <r>   -24.2428     0.0000   216.0000 </r>
       <r>   -23.9826     0.0000   216.0000 </r>
       <r>   -23.7225     0.0000   216.0000 </r>
       <r>   -23.4623     0.0000   216.0000 </r>
       <r>   -23.2021     0.0000   216.0000 </r>
       <r>   -22.9419     0.0000   216.0000 </r>
       <r>   -22.6818     0.0000   216.0000 </r>
       <r>   -22.4216     0.0000   216.0000 </r>
       <r>   -22.1614     0.0000   216.0000 </r>
       <r>   -21.9012     0.0000   216.0000 </r>
       <r>   -21.6410     0.0000   216.0000 </r>
       <r>   -21.3809     0.0000   216.0000 </r>
       <r>   -21.1207     0.0000   216.0000 </r>
       <r>   -20.8605     0.0000   216.0000 </r>
       <r>   -20.6003     0.0000   216.0000 </r>
       <r>   -20.3402     0.0000   216.0000 </r>
       <r>   -20.0800     0.0000   216.0000 </r>
       <r>   -19.8198     0.0000   216.0000 </r>
       <r>   -19.5596     0.0000   216.0000 </r>
       <r>   -19.2994     0.0000   216.0000 </r>
       <r>   -19.0393     0.0000   216.0000 </r>
       <r>   -18.7791     0.0000   216.0000 </r>
       <r>   -18.5189     0.0000   216.0000 </r>
       <r>   -18.2587     0.0000   216.0000 </r>
       <r>   -17.9986     0.0000   216.0000 </r>
       <r>   -17.7384     0.0000   216.0000 </r>
       <r>   -17.4782     0.0000   216.0000 </r>
       <r>   -17.2180     0.0000   216.0000 </r>
       <r>   -16.9578     0.0000   216.0000 </r>
       <r>   -16.6977     0.0000   216.0000 </r>
       <r>   -16.4375     0.0000   216.0000 </r>
       <r>   -16.1773     0.0000   216.0000 </r>
       <r>   -15.9171     0.0000   216.0000 </r>
       <r>   -15.6570     0.0001   216.0000 </r>
       <r>   -15.3968     0.0787   216.0205 </r>
       <r>   -15.1366     2.3558   216.6334 </r>
       <r>   -14.8764     4.8049   217.8835 </r>
       <r>   -14.6162     4.5081   219.0565 </r>
       <r>   -14.3561     8.3400   221.2263 </r>
       <r>   -14.0959     9.9140   223.8057 </r>
       <r>   -13.8357    13.4539   227.3061 </r>
       <r>   -13.5755    14.7136   231.1343 </r>
       <r>   -13.3154    19.6978   236.2592 </r>
       <r>   -13.0552    23.5865   242.3959 </r>
       <r>   -12.7950    26.7046   249.3438 </r>
       <r>   -12.5348    32.8150   257.8816 </r>
       <r>   -12.2746    31.1529   265.9868 </r>
       <r>   -12.0145    35.3748   275.1906 </r>
       <r>   -11.7543    26.3231   282.0392 </r>
       <r>   -11.4941    10.5698   284.7893 </r>
       <r>   -11.2339     9.2916   287.2067 </r>
       <r>   -10.9738     2.9609   287.9771 </r>
       <r>   -10.7136     0.0879   288.0000 </r>
       <r>   -10.4534     0.0001   288.0000 </r>
       <r>   -10.1932     0.0000   288.0000 </r>
       <r>    -9.9330     0.0000   288.0000 </r>
       <r>    -9.6729     0.0000   288.0000 </r>
       <r>    -9.4127     0.0000   288.0000 </r>
       <r>    -9.1525     0.0000   288.0000 </r>
       <r>    -8.8923     0.0000   288.0000 </r>
       <r>    -8.6322     0.0000   288.0000 </r>
       <r>    -8.3720     0.0000   288.0000 </r>
       <r>    -8.1118     0.0000   288.0000 </r>
       <r>    -7.8516     0.0000   288.0000 </r>
       <r>    -7.5914     0.0000   288.0000 </r>
       <r>    -7.3313     0.0000   288.0000 </r>
       <r>    -7.0711     0.0134   288.0035 </r>
       <r>    -6.8109     1.2637   288.3323 </r>
       <r>    -6.5507    10.7041   291.1173 </r>
       <r>    -6.2906    19.4681   296.1824 </r>
       <r>    -6.0304    22.2223   301.9642 </r>
       <r>    -5.7702    34.1903   310.8597 </r>
       <r>    -5.5100    46.9284   323.0695 </r>
       <r>    -5.2498    44.2282   334.5767 </r>
       <r>    -4.9897    38.2322   344.5238 </r>
       <r>    -4.7295    37.4180   354.2592 </r>
       <r>    -4.4693    36.6978   363.8071 </r>
       <r>    -4.2091    43.1859   375.0431 </r>
       <r>    -3.9490    51.9418   388.5572 </r>
       <r>    -3.6888    59.5315   404.0460 </r>
       <r>    -3.4286    67.5944   421.6325 </r>
       <r>    -3.1684    69.9085   439.8212 </r>
       <r>    -2.9083    64.0802   456.4934 </r>
       <r>    -2.6481    56.1771   471.1094 </r>
       <r>    -2.3879    47.2289   483.3973 </r>
       <r>    -2.1277    36.1483   492.8023 </r>
       <r>    -1.8675    42.8160   503.9421 </r>
       <r>    -1.6074    63.2081   520.3874 </r>
       <r>    -1.3472    75.5144   540.0346 </r>
       <r>    -1.0870    91.0191   563.7157 </r>
       <r>    -0.8268   103.8553   590.7365 </r>
       <r>    -0.5667   123.4020   622.8430 </r>
       <r>    -0.3065   136.5727   658.3761 </r>
       <r>    -0.0463   130.9552   692.4478 </r>
       <r>     0.2139   101.6914   718.9056 </r>
       <r>     0.4741    73.0211   737.9041 </r>
       <r>     0.7342    62.5310   754.1732 </r>
       <r>     0.9944    53.8027   768.1715 </r>
       <r>     1.2546    42.8655   779.3241 </r>
       <r>     1.5148    46.3326   791.3788 </r>
       <r>     1.7749    51.3846   804.7480 </r>
       <r>     2.0351    50.6117   817.9160 </r>
       <r>     2.2953    53.9093   831.9420 </r>
       <r>     2.5555    45.2930   843.7262 </r>
       <r>     2.8157    38.7558   853.8096 </r>
       <r>     3.0758    29.5671   861.5023 </r>
       <r>     3.3360     8.7771   863.7859 </r>
       <r>     3.5962     0.8159   863.9982 </r>
       <r>     3.8564     0.0109   864.0010 </r>
       <r>     4.1165     0.6118   864.1602 </r>
       <r>     4.3767     7.1892   866.0307 </r>
       <r>     4.6369    12.8117   869.3640 </r>
       <r>     4.8971     9.5314   871.8439 </r>
       <r>     5.1573    10.6363   874.6112 </r>
       <r>     5.4174    16.7099   878.9587 </r>
       <r>     5.6776    24.7634   885.4016 </r>
       <r>     5.9378    24.8461   891.8660 </r>
       <r>     6.1980    25.6383   898.5365 </r>
       <r>     6.4581    29.0863   906.1042 </r>
       <r>     6.7183    32.9862   914.6864 </r>
       <r>     6.9785    36.3292   924.1385 </r>
       <r>     7.2387    43.1825   935.3736 </r>
       <r>     7.4989    42.6714   946.4757 </r>
       <r>     7.7590    19.5059   951.5507 </r>
       <r>     8.0192     1.7135   951.9965 </r>
       <r>     8.2794     0.0133   952.0000 </r>
       <r>     8.5396     0.0000   952.0000 </r>
       <r>     8.7997     0.0000   952.0000 </r>
       <r>     9.0599     0.0000   952.0000 </r>
       <r>     9.3201     0.0000   952.0000 </r>
       <r>     9.5803     0.0000   952.0000 </r>
       <r>     9.8405     0.0000   952.0000 </r>
       <r>    10.1006     0.0000   952.0000 </r>
       <r>    10.3608     0.0000   952.0000 </r>
       <r>    10.6210     0.0000   952.0000 </r>
       <r>    10.8812     0.0000   952.0000 </r>
       <r>    11.1413     0.0000   952.0000 </r>
      </set>
     </set>
    </array>
   </total>
  </dos>
 </calculation>
 <structure name="finalpos" >
  <crystal>
   <varray name="basis" >
    <v>      10.07973298       0.00000000       0.00000000 </v>
    <v>       3.57329804       9.42510255       0.00000000 </v>
    <v>       0.00000000       0.00000000      20.68350356 </v>
   </varray>
   <i name="volume">   1964.98490008 </i>
   <varray name="rec_basis" >
    <v>       0.09920898      -0.03761267       0.00000000 </v>
    <v>       0.00000000       0.10609964       0.00000000 </v>
    <v>       0.00000000       0.00000000       0.04834771 </v>
   </varray>
  </crystal>
  <varray name="positions" >
   <v>       0.25214613       0.95182429       0.07111301 </v>
   <v>       0.41937739       0.77583424       0.14373067 </v>
   <v>       0.54732740       0.64468328       0.25387405 </v>
   <v>       0.69759592       0.49441476       0.38081107 </v>
   <v>       0.81549993       0.34705249       0.48317772 </v>
   <v>       0.11381506       0.41152895       0.16924937 </v>
   <v>       0.26408357       0.26126044       0.29618639 </v>
   <v>       0.41435209       0.11099193       0.42312341 </v>
   <v>       0.97870776       0.59508125       0.10534767 </v>
   <v>       0.64861661       0.22545651       0.14647580 </v>
   <v>       0.83057123       0.02810611       0.21156171 </v>
   <v>       0.98083975       0.87783760       0.33849873 </v>
   <v>       0.35217079       0.55317857       0.11401956 </v>
   <v>       0.50762556       0.42017912       0.22033653 </v>
   <v>       0.65789407       0.26991061       0.34727355 </v>
   <v>       0.75678016       0.13719447       0.45107279 </v>
   <v>       0.07411322       0.18702479       0.13571184 </v>
   <v>       0.22438173       0.03675628       0.26264887 </v>
   <v>       0.37465025       0.88648777       0.38958589 </v>
   <v>       0.47345896       0.76314346       0.49151823 </v>
   <v>       0.06745741       0.36965345       0.04710399 </v>
   <v>       0.09337853       0.48639370       0.41880117 </v>
   <v>       0.48542096       0.99308770       0.09743815 </v>
   <v>       0.79086939       0.80360196       0.17802418 </v>
   <v>       0.94113790       0.65333344       0.30496121 </v>
   <v>       0.02255441       0.17334433       0.42370340 </v>
   <v>       0.73212972       0.45988096       0.18679900 </v>
   <v>       0.88239823       0.30961245       0.31373603 </v>
   <v>       0.29861738       0.22672664       0.10217432 </v>
   <v>       0.44888589       0.07645812       0.22911134 </v>
   <v>       0.59915440       0.92618961       0.35604837 </v>
   <v>       0.77151956       0.79165074       0.43032738 </v>
   <v>       0.01537355       0.84330380       0.14448666 </v>
   <v>       0.16564206       0.69303529       0.27142369 </v>
   <v>       0.30371922       0.55878361       0.38359356 </v>
   <v>       0.76573265       0.00310126       0.08365117 </v>
   <v>       0.92393916       0.14257149       0.50698533 </v>
   <v>       0.57274043       0.44194674       0.12577631 </v>
   <v>       0.73606781       0.25573088       0.24418359 </v>
   <v>       0.88633632       0.10546236       0.37112062 </v>
   <v>       0.16651668       0.15766330       0.04083822 </v>
   <v>       0.30255546       0.02257655       0.15955891 </v>
   <v>       0.45282398       0.87230804       0.28649593 </v>
   <v>       0.60309249       0.72203952       0.41343296 </v>
   <v>       0.01931164       0.63915371       0.20187125 </v>
   <v>       0.16958015       0.48888520       0.32880827 </v>
   <v>       0.30357012       0.34631552       0.42587971 </v>
   <v>       0.86904312       0.78942223       0.07493423 </v>
   <v>       0.45812756       0.82579301       0.05022637 </v>
   <v>       0.64433879       0.68821866       0.17177561 </v>
   <v>       0.78662264       0.54160604       0.28688901 </v>
   <v>       0.93689115       0.39133753       0.41382604 </v>
   <v>       0.20475130       0.46067760       0.08435876 </v>
   <v>       0.35311030       0.30845171       0.20226433 </v>
   <v>       0.50337881       0.15818320       0.32920136 </v>
   <v>       0.63700764       0.00251119       0.44534178 </v>
   <v>       0.06986647       0.92502888       0.24457667 </v>
   <v>       0.21281158       0.78296052       0.35492636 </v>
   <v>       0.35548506       0.65350684       0.46140681 </v>
   <v>       0.91959796       0.07529739       0.11763965 </v>
   <v>       0.21662350       0.76776498       0.09708651 </v>
   <v>       0.35047896       0.64131972       0.20265741 </v>
   <v>       0.50074748       0.49105120       0.32959444 </v>
   <v>       0.63180787       0.35395345       0.44023051 </v>
   <v>       0.06723514       0.25789688       0.24496976 </v>
   <v>       0.21750365       0.10762837       0.37190678 </v>
   <v>       0.36330830       0.97148611       0.48098279 </v>
   <v>       0.91696662       0.40816539       0.11803273 </v>
   <v>       0.51346158       0.18306716       0.06896338 </v>
   <v>       0.63372279       0.02474255       0.16034507 </v>
   <v>       0.78399131       0.87447404       0.28728210 </v>
   <v>       0.97725337       0.70747030       0.39957148 </v>
  </varray>
 </structure>
</modeling>
